Protein in water
79358
    1DC     O5'    1   3.016   4.366   3.326 -0.4021  0.2875  0.1599
    1DC     H5T    2   3.061   4.345   3.408  2.4716  1.5087 -0.9719
    1DC     C5'    3   2.893   4.297   3.331 -0.2079 -0.1214 -0.5756
    1DC    H5'1    4   2.835   4.347   3.253 -0.2945  1.2270  0.3258
    1DC    H5'2    5   2.843   4.307   3.427  1.3609  3.2857  0.0323
    1DC     C4'    6   2.898   4.152   3.285 -0.9405 -0.1580 -0.5472
    1DC     H4'    7   2.798   4.125   3.249 -1.1019  1.8301 -1.7364
    1DC     O4'    8   2.997   4.146   3.185 -0.4099 -0.0930 -0.0307
    1DC     C1'    9   3.048   4.017   3.158  0.1089  0.0690  0.1653
    1DC     H1'   10   3.012   3.977   3.063 -1.0640 -0.2163  0.7048
    1DC      N1   11   3.195   4.025   3.159  0.0959  0.3131  0.2054
    1DC      C6   12   3.256   4.137   3.208 -0.4649  0.7102  0.0133
    1DC      H6   13   3.201   4.200   3.275  1.2250  0.0971  2.1060
    1DC      C5   14   3.388   4.157   3.188 -0.3237  0.0966  0.2927
    1DC      H5   15   3.435   4.245   3.231  1.2468 -0.7214  0.3179
    1DC      C4   16   3.456   4.061   3.106 -0.3094  0.1051  0.2948
    1DC      N4   17   3.588   4.072   3.086 -0.5187  0.2984 -1.1565
    1DC     H41   18   3.628   4.155   3.126 -3.3940  2.2024 -1.9757
    1DC     H42   19   3.634   4.014   3.017  0.0021 -1.1355  0.3121
    1DC      N3   20   3.397   3.957   3.046 -0.0795 -0.1644  0.5341
    1DC      C2   21   3.267   3.938   3.078 -0.1603  0.0026  0.3101
    1DC      O2   22   3.222   3.826   3.053  1.1042 -0.2923 -0.7309
    1DC     C3'   23   2.952   4.038   3.371 -0.3650  0.1424 -0.5105
    1DC     H3'   24   3.042   4.068   3.425 -0.7915 -0.1503  0.3816
    1DC     C2'   25   2.991   3.930   3.271 -0.4472 -0.1222 -0.2606
    1DC    H2'1   26   3.069   3.866   3.309 -0.7733 -0.4197 -0.0874
    1DC    H2'2   27   2.908   3.874   3.227 -1.6343  0.2313  1.4263
    1DC     O3'   28   2.855   3.988   3.461  0.0623  0.3037  0.0506
    2DG       P   29   2.884   3.946   3.614  0.2734  0.1930 -0.0190
    2DG     O1P   30   2.757   3.908   3.679  0.4572  0.3992  0.4676
    2DG     O2P   31   2.964   4.058   3.669  0.3573  0.3668 -0.4886
    2DG     O5'   32   2.981   3.820   3.590  0.1558  0.0251  0.3902
    2DG     C5'   33   2.929   3.692   3.564  0.3243 -0.0785  0.5627
    2DG    H5'1   34   2.871   3.713   3.474  1.0906  1.5920  0.4275
    2DG    H5'2   35   2.868   3.654   3.646  2.0848  0.4392  2.1878
    2DG     C4'   36   3.031   3.586   3.525  0.3839  0.0506  0.3686
    2DG     H4'   37   2.972   3.496   3.504  0.8394 -0.1019 -0.3187
    2DG     O4'   38   3.100   3.626   3.409  0.3561 -0.3690  0.2028
    2DG     C1'   39   3.228   3.566   3.413  0.4784 -0.1466 -0.2809
    2DG     H1'   40   3.238   3.482   3.344  1.6295 -1.3190  1.2587
    2DG      N9   41   3.330   3.666   3.376  0.0135  0.2204 -0.5965
    2DG      C8   42   3.330   3.802   3.396 -0.1519  0.1909 -0.3860
    2DG      H8   43   3.248   3.862   3.431 -1.3862 -0.3259 -2.2053
    2DG      N7   44   3.445   3.859   3.374 -0.1221 -0.1580 -1.1899
    2DG      C5   45   3.529   3.755   3.335 -0.0004 -0.5199  0.0008
    2DG      C6   46   3.666   3.758   3.297 -0.0328 -0.1209 -0.0931
    2DG      O6   47   3.740   3.856   3.289 -0.1125 -0.0287  0.2586
    2DG      N1   48   3.721   3.632   3.283 -0.0596 -0.1697  0.2366
    2DG      H1   49   3.821   3.624   3.269  0.2125  2.0748  0.5755
    2DG      C2   50   3.646   3.516   3.291 -0.2409 -0.0888 -0.2623
    2DG      N2   51   3.724   3.409   3.272 -0.2231 -0.1567  0.1690
    2DG     H21   52   3.823   3.412   3.256 -0.0463 -0.2537  1.1887
    2DG     H22   53   3.684   3.316   3.280 -0.7695 -0.1629 -1.9152
    2DG      N3   54   3.515   3.515   3.320 -0.2017 -0.6017 -0.0911
    2DG      C4   55   3.460   3.637   3.343 -0.0109 -0.5191 -0.0717
    2DG     C3'   56   3.134   3.551   3.633  0.3985 -0.2579  0.2580
    2DG     H3'   57   3.162   3.648   3.675 -2.8217  0.8454  0.1714
    2DG     C2'   58   3.257   3.511   3.552  0.2350  0.0524 -0.1509
    2DG    H2'1   59   3.344   3.558   3.598  0.0789  1.6974 -1.4245
    2DG    H2'2   60   3.263   3.403   3.556  0.8920  0.0677 -0.6614
    2DG     O3'   61   3.094   3.455   3.727  0.1875 -0.2293  0.1992
    3DA       P   62   3.169   3.444   3.870  0.0326 -0.0056  0.2981
    3DA     O1P   63   3.096   3.347   3.954  0.2640 -0.2902  0.1713
    3DA     O2P   64   3.193   3.579   3.925 -0.3646  0.1237  0.1594
    3DA     O5'   65   3.308   3.379   3.821  0.0158  0.1877 -0.0135
    3DA     C5'   66   3.318   3.241   3.794 -0.4548  0.0100  0.6813
    3DA    H5'1   67   3.251   3.209   3.714  0.9749 -0.6988 -0.2870
    3DA    H5'2   68   3.299   3.176   3.879  1.0408  1.8758  2.5373
    3DA     C4'   69   3.456   3.204   3.740 -0.6735  0.0407  0.0884
    3DA     H4'   70   3.446   3.102   3.703  0.6837  0.8124 -2.6327
    3DA     O4'   71   3.509   3.275   3.630 -0.1325  0.6930  0.7607
    3DA     C1'   72   3.648   3.292   3.646  0.0354 -0.2076  0.3258
    3DA     H1'   73   3.707   3.245   3.568 -2.3447 -0.0663 -1.6603
    3DA      N9   74   3.680   3.436   3.651  0.3828 -0.2757  0.1171
    3DA      C8   75   3.602   3.544   3.683  0.1891 -0.2610 -0.3968
    3DA      H8   76   3.502   3.550   3.725  0.4097  2.2837 -0.1035
    3DA      N7   77   3.662   3.656   3.655  0.0550 -0.1054 -0.0693
    3DA      C5   78   3.786   3.621   3.603 -0.1232  0.0398 -0.5937
    3DA      C6   79   3.901   3.686   3.557  0.2967 -0.0451  0.3204
    3DA      N6   80   3.904   3.820   3.548 -0.6416  0.0204  0.8541
    3DA     H61   81   3.818   3.871   3.565 -1.0139 -0.4573  0.4359
    3DA     H62   82   3.987   3.864   3.511 -2.5500  4.2288  1.0883
    3DA      N1   83   4.004   3.620   3.502 -0.0844  0.2900 -0.8236
    3DA      C2   84   3.997   3.488   3.494  0.5441  0.1733  0.3884
    3DA      H2   85   4.077   3.436   3.443  0.5002  1.1269 -0.6927
    3DA      N3   86   3.897   3.414   3.539  0.0950  0.2387 -0.4824
    3DA      C4   87   3.794   3.484   3.591  0.0372  0.0222 -0.2995
    3DA     C3'   88   3.554   3.221   3.856 -0.8369  0.1220  0.2151
    3DA     H3'   89   3.539   3.308   3.920  0.2040  0.1160  0.4863
    3DA     C2'   90   3.685   3.223   3.778 -0.8966 -1.2387  0.0608
    3DA    H2'1   91   3.762   3.278   3.832 -0.2727 -0.0704 -1.8969
    3DA    H2'2   92   3.732   3.126   3.758  1.9179  0.4514 -2.5585
    3DA     O3'   93   3.557   3.109   3.941  0.4291  0.0682  0.1164
    4DC       P   94   3.616   3.115   4.091  0.0367 -0.1495  0.2785
    4DC     O1P   95   3.596   2.977   4.143 -0.6777 -0.3035 -0.3902
    4DC     O2P   96   3.546   3.217   4.172 -0.1249  0.3925 -0.5289
    4DC     O5'   97   3.774   3.140   4.081  0.0118 -0.0564  0.1156
    4DC     C5'   98   3.862   3.043   4.028  0.0749  0.1250 -0.1113
    4DC    H5'1   99   3.831   3.016   3.927  3.1595 -0.1098 -1.1227
    4DC    H5'2  100   3.872   2.956   4.092 -2.7552  0.2572  0.6366
    4DC     C4'  101   4.005   3.092   4.005  0.2388 -0.2596  0.0742
    4DC     H4'  102   4.069   3.007   3.981 -1.0301 -1.4150  0.6897
    4DC     O4'  103   4.006   3.178   3.893  0.0666  0.1178  0.3582
    4DC     C1'  104   4.103   3.276   3.922 -0.0417  0.2701  0.2127
    4DC     H1'  105   4.180   3.270   3.846 -0.5530  2.4538 -0.5309
    4DC      N1  106   4.055   3.414   3.904  0.3372  0.4074  0.2399
    4DC      C6  107   3.930   3.452   3.946  0.1534 -0.3307  0.3786
    4DC      H6  108   3.861   3.383   3.992 -1.4103  0.3313 -0.9001
    4DC      C5  109   3.892   3.581   3.939  0.1181 -0.3708 -0.2148
    4DC      H5  110   3.793   3.609   3.973  0.8540 -0.1345  1.9226
    4DC      C4  111   3.985   3.669   3.875 -0.3394  0.3479  0.1002
    4DC      N4  112   3.954   3.799   3.863  0.1389  0.5259  0.7299
    4DC     H41  113   3.871   3.830   3.912 -0.0860 -0.6041  1.0990
    4DC     H42  114   4.020   3.858   3.815 -0.6788  2.6167  2.0143
    4DC      N3  115   4.112   3.638   3.847 -0.3442  0.3378  0.0894
    4DC      C2  116   4.147   3.508   3.863  0.3217  0.5771  0.5935
    4DC      O2  117   4.260   3.476   3.828 -0.1705 -0.5889  0.0347
    4DC     C3'  118   4.065   3.161   4.127 -0.1712 -0.2292  0.2620
    4DC     H3'  119   3.990   3.210   4.189 -0.2298  0.7119 -0.5248
    4DC     C2'  120   4.163   3.258   4.061 -0.3650  0.0066  0.3208
    4DC    H2'1  121   4.166   3.345   4.128  0.2754 -0.4010  0.8380
    4DC    H2'2  122   4.261   3.216   4.040 -0.1366  0.8445 -0.3617
    4DC     O3'  123   4.136   3.076   4.214  0.3392 -0.1504 -0.0720
    5DT       P  124   4.196   3.126   4.354  0.0297 -0.0561  0.0264
    5DT     O1P  125   4.260   3.008   4.415  0.3249 -0.0545 -0.2790
    5DT     O2P  126   4.084   3.190   4.428 -0.2199  0.4167 -0.7518
    5DT     O5'  127   4.317   3.231   4.336 -0.1576  0.1560  0.0010
    5DT     C5'  128   4.445   3.192   4.291 -0.0291  0.0243  0.4701
    5DT    H5'1  129   4.438   3.141   4.194 -0.0067 -1.4701  1.2308
    5DT    H5'2  130   4.490   3.126   4.364  1.0865 -1.0728 -1.1383
    5DT     C4'  131   4.544   3.305   4.267  0.3093 -0.4535 -0.4234
    5DT     H4'  132   4.638   3.258   4.236  0.5463 -0.0098 -0.3985
    5DT     O4'  133   4.501   3.394   4.166 -0.3488 -0.1776  0.0952
    5DT     C1'  134   4.547   3.525   4.185  0.0400 -0.3445  0.3094
    5DT     H1'  135   4.623   3.539   4.107 -0.6179 -0.6006 -0.3867
    5DT      N1  136   4.433   3.619   4.186  0.3357  0.0245  0.0393
    5DT      C6  137   4.314   3.579   4.241  0.2733  0.3470  0.1399
    5DT      H6  138   4.305   3.485   4.292 -0.1213  0.8981  1.1036
    5DT      C5  139   4.204   3.657   4.232  0.1118  0.1341  0.2749
    5DT      C7  140   4.070   3.610   4.283  0.1573 -0.5695 -0.2357
    5DT     H71  141   3.992   3.646   4.216 -0.4364  0.7893  1.1223
    5DT     H72  142   4.054   3.502   4.286 -1.9967 -0.3422 -1.5117
    5DT     H73  143   4.057   3.649   4.384  1.4567  0.3407 -0.3932
    5DT      C4  144   4.208   3.786   4.167 -0.2743 -0.1064 -0.2325
    5DT      O4  145   4.118   3.867   4.145  0.0160  0.3720  0.3165
    5DT      N3  146   4.336   3.825   4.131 -0.3000 -0.1820 -0.4041
    5DT      H3  147   4.349   3.925   4.124  0.3113 -0.1000  1.4973
    5DT      C2  148   4.450   3.746   4.136 -0.2462 -0.1114 -0.5173
    5DT      O2  149   4.556   3.803   4.108 -0.1860  0.0697  0.0580
    5DT     C3'  150   4.573   3.389   4.391 -0.1132 -0.6628 -0.1847
    5DT     H3'  151   4.487   3.399   4.458  0.6686  1.5826  0.5552
    5DT     C2'  152   4.602   3.524   4.327 -0.1005 -0.4038  0.3626
    5DT    H2'1  153   4.553   3.592   4.397 -1.1345 -0.8258  0.0703
    5DT    H2'2  154   4.708   3.547   4.324 -0.4560  1.7876  1.7637
    5DT     O3'  155   4.685   3.356   4.470  0.0221  0.0926 -0.0553
    6DC       P  156   4.687   3.416   4.620 -0.2224  0.0439 -0.0327
    6DC     O1P  157   4.793   3.352   4.699 -0.2219  0.4131  0.2671
    6DC     O2P  158   4.549   3.418   4.675 -0.3743 -0.2877 -0.3957
    6DC     O5'  159   4.724   3.572   4.602  0.2234 -0.0240  0.3038
    6DC     C5'  160   4.858   3.613   4.590  0.2397 -0.3063 -0.4994
    6DC    H5'1  161   4.908   3.558   4.509  2.0470  1.3729 -0.5875
    6DC    H5'2  162   4.918   3.581   4.675  0.7695 -2.7639 -1.6920
    6DC     C4'  163   4.855   3.763   4.566 -0.3496 -0.3606 -0.7629
    6DC     H4'  164   4.960   3.788   4.555 -0.4050  0.2830  0.0673
    6DC     O4'  165   4.784   3.805   4.451 -0.1936 -0.0597 -0.7501
    6DC     C1'  166   4.764   3.944   4.457  0.2713 -0.0090 -0.3531
    6DC     H1'  167   4.830   3.997   4.389 -0.8611  0.5222 -1.0641
    6DC      N1  168   4.620   3.972   4.444  0.1583 -0.3819  0.0578
    6DC      C6  169   4.533   3.869   4.462 -0.1855 -0.1031 -0.0037
    6DC      H6  170   4.567   3.778   4.509 -0.5506  0.0388  0.5482
    6DC      C5  171   4.400   3.892   4.447 -0.1051  0.4847  0.1562
    6DC      H5  172   4.329   3.813   4.462  1.1030 -0.6698  0.0103
    6DC      C4  173   4.359   4.022   4.404 -0.2269  0.6116  0.6517
    6DC      N4  174   4.232   4.037   4.364 -0.0979  0.2262  0.0805
    6DC     H41  175   4.167   3.960   4.369 -0.6049  0.7006  1.2285
    6DC     H42  176   4.198   4.126   4.330 -0.4987  0.7037  1.6482
    6DC      N3  177   4.445   4.117   4.367  0.2714 -0.1451 -0.1504
    6DC      C2  178   4.576   4.095   4.396  0.1792 -0.3575  0.1007
    6DC      O2  179   4.649   4.194   4.392  0.4765 -0.5814 -0.0673
    6DC     C3'  180   4.814   3.852   4.683  0.9158 -0.2820 -0.3745
    6DC     H3'  181   4.721   3.815   4.725  0.3183 -0.5145 -1.8498
    6DC     C2'  182   4.796   3.980   4.602 -0.6271 -0.2917 -0.0764
    6DC    H2'1  183   4.721   4.039   4.654 -1.3337 -1.2003 -0.0495
    6DC    H2'2  184   4.887   4.041   4.605 -0.7370  0.0610  5.0777
    6DC     O3'  185   4.918   3.878   4.775  0.2890 -0.3274  0.3532
    7DT       P  186   4.893   3.947   4.919 -0.1187  0.3362 -0.0283
    7DT     O1P  187   5.025   3.942   4.985  0.0430  0.5530 -0.3310
    7DT     O2P  188   4.776   3.875   4.975  0.0126 -0.2968 -0.5459
    7DT     O5'  189   4.866   4.099   4.874 -0.4449  0.0766 -0.7244
    7DT     C5'  190   4.964   4.195   4.839  0.0091 -0.0152  0.2561
    7DT    H5'1  191   5.024   4.159   4.756 -0.7017 -0.6329 -0.0075
    7DT    H5'2  192   5.022   4.215   4.928 -0.7903  0.8324  0.6044
    7DT     C4'  193   4.901   4.329   4.802  0.1673 -0.1531 -0.5361
    7DT     H4'  194   4.981   4.399   4.779 -2.1765  2.1517 -2.3301
    7DT     O4'  195   4.803   4.323   4.701 -0.3772 -0.2375 -0.0083
    7DT     C1'  196   4.700   4.416   4.728 -0.2705 -0.0885 -0.1134
    7DT     H1'  197   4.702   4.499   4.657  2.7600 -0.3609 -0.4807
    7DT      N1  198   4.567   4.351   4.727 -0.2264 -0.1801 -0.1761
    7DT      C6  199   4.557   4.225   4.779 -0.0223  0.0529  0.4312
    7DT      H6  200   4.648   4.183   4.819 -1.0211 -1.1672  1.5017
    7DT      C5  201   4.444   4.152   4.765 -0.0482  0.0236  0.7651
    7DT      C7  202   4.446   4.012   4.822  0.3620 -0.2547  0.0854
    7DT     H71  203   4.480   3.937   4.750 -0.0148 -0.2938 -0.0524
    7DT     H72  204   4.504   4.014   4.914 -1.1891  0.5130  1.0899
    7DT     H73  205   4.347   3.980   4.855  0.9281 -1.3841  0.7335
    7DT      C4  206   4.332   4.209   4.695 -0.0099 -0.3733  0.3742
    7DT      O4  207   4.227   4.148   4.675 -0.3064  0.0535  0.6165
    7DT      N3  208   4.342   4.342   4.657  0.2334 -0.2032  1.0211
    7DT      H3  209   4.256   4.384   4.625  0.0859 -0.9847  0.3607
    7DT      C2  210   4.456   4.418   4.681  0.0283  0.4212  0.0686
    7DT      O2  211   4.458   4.539   4.660  0.0991  0.3375 -0.4232
    7DT     C3'  212   4.840   4.387   4.929  0.3923  0.6270 -0.7757
    7DT     H3'  213   4.792   4.312   4.993  1.4824 -0.5273 -1.2467
    7DT     C2'  214   4.728   4.470   4.868 -0.2654  0.1687 -0.2122
    7DT    H2'1  215   4.642   4.459   4.933  0.6481  1.0920  1.1936
    7DT    H2'2  216   4.751   4.575   4.853 -0.8410  0.0650 -2.0736
    7DT     O3'  217   4.920   4.483   4.994  0.0708  0.4841 -0.1580
    8DA       P  218   4.892   4.531   5.145  0.0017  0.1466 -0.0634
    8DA     O1P  219   5.005   4.619   5.182  0.3848 -0.0651 -0.7118
    8DA     O2P  220   4.865   4.413   5.231  0.0339  0.4323  0.3434
    8DA     O5'  221   4.757   4.619   5.151 -0.0861  0.0275 -0.2649
    8DA     C5'  222   4.764   4.750   5.099  0.2953 -0.1218 -0.5913
    8DA    H5'1  223   4.818   4.748   5.004  0.6600 -0.4070 -0.3776
    8DA    H5'2  224   4.817   4.809   5.174 -0.1761 -0.2651 -0.1391
    8DA     C4'  225   4.628   4.817   5.081  0.1524 -0.3979 -0.5509
    8DA     H4'  226   4.649   4.922   5.059  0.7669 -0.4768 -0.3623
    8DA     O4'  227   4.548   4.763   4.978 -0.0308  0.3778 -0.8258
    8DA     C1'  228   4.412   4.775   5.012  0.0090  0.0512 -0.5448
    8DA     H1'  229   4.360   4.853   4.956  0.7463  1.5078  0.7170
    8DA      N9  230   4.344   4.646   4.991 -0.2682  0.1182 -0.0935
    8DA      C8  231   4.388   4.523   5.033 -0.3510  0.2217  0.2943
    8DA      H8  232   4.486   4.511   5.076 -0.3541  0.8752  0.4973
    8DA      N7  233   4.309   4.424   5.001 -0.1394  0.1391  0.0292
    8DA      C5  234   4.198   4.490   4.949 -0.6574 -0.0242  0.9135
    8DA      C6  235   4.067   4.451   4.917 -0.3593 -0.3655  0.0787
    8DA      N6  236   4.029   4.322   4.913 -0.3947 -0.3558  0.1145
    8DA     H61  237   4.102   4.255   4.930  0.0225  0.0242 -0.1508
    8DA     H62  238   3.932   4.306   4.888 -0.8282  1.8768  0.0857
    8DA      N1  239   3.973   4.539   4.881 -0.2286 -0.1865  0.1741
    8DA      C2  240   4.003   4.667   4.891  0.2615 -0.3044  0.2272
    8DA      H2  241   3.936   4.742   4.850  1.9446  1.2900  0.2266
    8DA      N3  242   4.122   4.719   4.919  0.0131  0.2894  0.1900
    8DA      C4  243   4.215   4.626   4.950 -0.3470 -0.0536  0.2389
    8DA     C3'  244   4.543   4.810   5.207  0.0402  0.6281 -0.5641
    8DA     H3'  245   4.542   4.716   5.261  0.4102  1.2836  0.6240
    8DA     C2'  246   4.399   4.821   5.158 -0.0341 -0.0890 -0.5052
    8DA    H2'1  247   4.327   4.762   5.214  1.2140 -0.3731  0.8528
    8DA    H2'2  248   4.376   4.927   5.146  1.6228  0.1100 -2.6924
    8DA     O3'  249   4.567   4.928   5.281 -0.0918  0.2337  0.1132
    9DC       P  250   4.521   4.950   5.434 -0.4736 -0.0351  0.0386
    9DC     O1P  251   4.555   5.087   5.478 -0.3777 -0.0527  0.0214
    9DC     O2P  252   4.583   4.835   5.504 -0.2155 -0.3036 -0.6226
    9DC     O5'  253   4.361   4.935   5.429 -0.4637 -0.0916 -0.1264
    9DC     C5'  254   4.286   5.053   5.409 -0.3019  0.0279 -0.0263
    9DC    H5'1  255   4.320   5.106   5.319  1.1089 -0.5696  0.1166
    9DC    H5'2  256   4.314   5.128   5.483 -2.3644  0.3075  0.5150
    9DC     C4'  257   4.139   5.016   5.399 -0.3412  0.1004  0.3017
    9DC     H4'  258   4.086   5.107   5.372  1.6198  1.7649  1.7468
    9DC     O4'  259   4.110   4.928   5.293  0.2234  0.2096  0.0532
    9DC     C1'  260   3.993   4.857   5.327  0.5245 -0.1120  0.4404
    9DC     H1'  261   3.911   4.904   5.272 -0.3575 -1.8303  0.2179
    9DC      N1  262   4.005   4.715   5.288 -0.0662  0.0740 -0.4421
    9DC      C6  263   4.105   4.640   5.342 -0.0370 -0.1997 -0.8739
    9DC      H6  264   4.177   4.680   5.411 -0.9268 -1.6162  0.9752
    9DC      C5  265   4.110   4.506   5.323  0.5073 -0.3131  0.0230
    9DC      H5  266   4.190   4.441   5.354 -0.1419 -0.7728  0.7729
    9DC      C4  267   4.004   4.450   5.243  0.0883  0.2481  0.1793
    9DC      N4  268   4.005   4.317   5.228  0.5439  0.2680  0.0054
    9DC     H41  269   4.086   4.266   5.258  1.1405  1.0192 -0.2891
    9DC     H42  270   3.919   4.278   5.191 -0.4666  2.0977  0.2925
    9DC      N3  271   3.899   4.520   5.200 -0.0265 -0.3660 -0.5524
    9DC      C2  272   3.898   4.654   5.225 -0.1273 -0.5027  0.2124
    9DC      O2  273   3.800   4.717   5.186  0.3134  0.0744  0.0286
    9DC     C3'  274   4.079   4.966   5.530 -0.2126 -0.4350  0.1572
    9DC     H3'  275   4.159   4.907   5.575  1.3544 -0.7232 -2.7975
    9DC     C2'  276   3.970   4.874   5.477 -0.5835 -0.0644  0.2732
    9DC    H2'1  277   3.975   4.777   5.527  1.7329  0.0044  0.2645
    9DC    H2'2  278   3.872   4.920   5.490 -1.6880 -1.8915 -1.0541
    9DC     O3'  279   4.037   5.073   5.612 -0.7775 -0.2426 -0.3826
   10DG       P  280   3.974   5.054   5.759  0.0025 -0.2608 -0.0460
   10DG     O1P  281   3.955   5.182   5.832  0.4356 -0.2533  0.0568
   10DG     O2P  282   4.053   4.951   5.829  0.1594 -0.2892 -0.2626
   10DG     O5'  283   3.827   4.997   5.726 -0.1871  0.1468  0.0899
   10DG     C5'  284   3.714   5.073   5.690 -0.3018  0.1284  0.4030
   10DG    H5'1  285   3.744   5.133   5.604  1.7884 -1.4839 -0.0663
   10DG    H5'2  286   3.698   5.150   5.766  0.2502  1.3359 -0.6721
   10DG     C4'  287   3.583   4.996   5.670 -0.0467 -0.0705 -0.5761
   10DG     H4'  288   3.513   5.078   5.653 -0.4024 -0.7295 -2.4639
   10DG     O4'  289   3.590   4.912   5.558 -0.3511  0.1052 -0.7287
   10DG     C1'  290   3.515   4.796   5.586 -0.1414  0.0700 -0.2989
   10DG     H1'  291   3.438   4.800   5.509  0.3585 -0.7752 -0.8685
   10DG      N9  292   3.596   4.674   5.564  0.0377  0.2741 -0.7950
   10DG      C8  293   3.730   4.660   5.588 -0.0783  0.2906 -0.1169
   10DG      H8  294   3.789   4.739   5.634 -1.9867  2.1453 -0.7214
   10DG      N7  295   3.776   4.540   5.567 -0.4523  0.0773  0.2792
   10DG      C5  296   3.665   4.466   5.527 -0.3071 -0.1979  0.3843
   10DG      C6  297   3.655   4.330   5.488  0.4605 -0.1166 -0.1307
   10DG      O6  298   3.742   4.243   5.484  0.6424  0.0418  0.3471
   10DG      N1  299   3.525   4.294   5.456  0.4241  0.0507 -0.1698
   10DG      H1  300   3.521   4.196   5.433  3.1039 -0.0418 -0.5467
   10DG      C2  301   3.419   4.380   5.476 -0.0620 -0.3948 -0.7932
   10DG      N2  302   3.295   4.331   5.464 -0.2723  0.0412 -0.4562
   10DG     H21  303   3.281   4.231   5.460  2.6219 -0.4776  0.1972
   10DG     H22  304   3.222   4.384   5.510  0.6914  0.1392  1.0084
   10DG      N3  305   3.427   4.508   5.514  0.1423 -0.5326 -0.3629
   10DG      C4  306   3.555   4.547   5.534 -0.1255  0.0618  0.2629
   10DG     C3'  307   3.549   4.914   5.794  0.6912 -0.0793 -0.3716
   10DG     H3'  308   3.632   4.865   5.845 -1.3593  0.8897  4.4729
   10DG     C2'  309   3.456   4.815   5.725  0.1403  0.3226 -0.2137
   10DG    H2'1  310   3.451   4.716   5.769  0.9884  0.8580  1.1473
   10DG    H2'2  311   3.360   4.865   5.708  0.2616  0.0591 -1.8396
   10DG     O3'  312   3.477   4.979   5.896  0.1538 -0.6861 -0.3573
   11DG       P  313   3.444   4.913   6.039 -0.1600  0.0974 -0.0574
   11DG     O1P  314   3.356   5.008   6.111  0.1202  0.1848  0.1714
   11DG     O2P  315   3.564   4.869   6.113  0.3427 -0.1217 -0.9821
   11DG     O5'  316   3.359   4.777   6.018 -0.0686  0.1782 -0.9938
   11DG     C5'  317   3.219   4.773   6.000 -0.1064  0.4236 -0.7606
   11DG    H5'1  318   3.197   4.847   5.924 -2.7397  1.3375  0.7548
   11DG    H5'2  319   3.164   4.807   6.088 -0.4627  0.6049 -1.0478
   11DG     C4'  320   3.176   4.632   5.960  0.1766  0.0979  0.0584
   11DG     H4'  321   3.072   4.635   5.928 -0.3225  1.7588  1.6197
   11DG     O4'  322   3.249   4.579   5.852  0.0699  0.4341 -0.1818
   11DG     C1'  323   3.246   4.439   5.863  0.2624  0.4790  0.5319
   11DG     H1'  324   3.176   4.398   5.790 -0.6549  0.0642  1.6129
   11DG      N9  325   3.379   4.379   5.836  0.0974  0.3135  0.0698
   11DG      C8  326   3.500   4.438   5.861  0.1209  0.2543  0.0976
   11DG      H8  327   3.516   4.537   5.900  0.0088 -1.3007  4.7143
   11DG      N7  328   3.600   4.360   5.828 -0.2104  0.1170 -0.5977
   11DG      C5  329   3.537   4.240   5.794  0.2484 -0.1331 -0.5664
   11DG      C6  330   3.597   4.114   5.769  0.7736 -0.1351  0.5875
   11DG      O6  331   3.716   4.090   5.753  0.9416  0.7793  0.4115
   11DG      N1  332   3.503   4.013   5.749  0.5407  0.2099 -0.0879
   11DG      H1  333   3.545   3.929   5.711  3.2322  1.5903 -0.4501
   11DG      C2  334   3.367   4.036   5.750  0.5604  0.3145  0.2293
   11DG      N2  335   3.288   3.932   5.721 -0.0087  0.9275 -0.4796
   11DG     H21  336   3.328   3.839   5.715 -2.5388 -0.4742  1.7121
   11DG     H22  337   3.191   3.949   5.699  0.1158 -1.2713 -3.3344
   11DG      N3  338   3.308   4.155   5.770  0.2880  0.2512 -0.1953
   11DG      C4  339   3.401   4.250   5.794  0.2328  0.0055  1.0544
   11DG     C3'  340   3.192   4.532   6.074 -0.1332 -0.0117  0.0060
   11DG     H3'  341   3.288   4.548   6.122 -0.0501 -0.9125  0.1636
   11DG     C2'  342   3.189   4.400   5.999  0.1756 -0.1906  0.3062
   11DG    H2'1  343   3.240   4.320   6.053  2.9317  0.5472 -1.0007
   11DG    H2'2  344   3.084   4.373   5.989  0.3435 -1.1023  0.8262
   11DG     O3'  345   3.088   4.544   6.169 -0.4512  0.1511 -0.3572
   12DA       P  346   3.109   4.476   6.314 -0.0477 -0.2493 -0.6022
   12DA     O1P  347   2.990   4.522   6.389  0.6072  0.0524  0.2699
   12DA     O2P  348   3.238   4.521   6.372 -0.2011 -0.1130 -0.3660
   12DA     O5'  349   3.118   4.315   6.314  0.2484 -0.2370  0.0826
   12DA     C5'  350   3.002   4.237   6.292  0.1659 -0.0030 -0.3349
   12DA    H5'1  351   2.930   4.288   6.228 -1.8692 -0.8298  1.1934
   12DA    H5'2  352   2.947   4.228   6.386  0.6095 -1.6168 -0.2063
   12DA     C4'  353   3.028   4.097   6.238  0.7040 -0.2520  0.5385
   12DA     H4'  354   2.926   4.062   6.223  0.7272 -0.0340 -0.1653
   12DA     O4'  355   3.103   4.089   6.119 -0.1496  0.0925 -0.0311
   12DA     C1'  356   3.172   3.967   6.117  0.0027  0.1761  0.1013
   12DA     H1'  357   3.150   3.902   6.032 -1.2473  1.3756 -0.5140
   12DA      N9  358   3.317   3.992   6.122  0.0950 -0.3561  0.1792
   12DA      C8  359   3.387   4.102   6.164  0.4660 -0.2350 -0.7469
   12DA      H8  360   3.334   4.188   6.201  0.0574  0.2886 -2.4315
   12DA      N7  361   3.516   4.106   6.143  0.5926  0.2840  0.0977
   12DA      C5  362   3.533   3.981   6.084  0.4445  0.0286  0.5938
   12DA      C6  363   3.644   3.909   6.039  0.1350  0.2051 -0.4669
   12DA      N6  364   3.767   3.960   6.024  0.4490 -0.2081  0.6403
   12DA     H61  365   3.777   4.059   6.044  1.6741  0.4697 -2.7226
   12DA     H62  366   3.851   3.905   6.011  1.5005  1.1684  1.2935
   12DA      N1  367   3.637   3.780   6.002 -0.2536  0.0479  0.1501
   12DA      C2  368   3.517   3.726   6.011 -0.3423  0.2218  0.0211
   12DA      H2  369   3.504   3.629   5.964 -1.1054  1.2119 -1.9436
   12DA      N3  370   3.403   3.775   6.058 -0.3245  0.1648  0.1257
   12DA      C4  371   3.419   3.905   6.093  0.4675 -0.0205  0.4669
   12DA     C3'  372   3.091   4.007   6.344  0.8291 -0.2139  0.4973
   12DA     H3'  373   3.179   4.054   6.389  0.0162  3.3798 -1.2669
   12DA     C2'  374   3.133   3.897   6.247  0.6183 -0.0211  0.1843
   12DA    H2'1  375   3.220   3.844   6.285  0.8804  0.7509  0.6939
   12DA    H2'2  376   3.058   3.821   6.223  0.9707 -0.4724  0.4965
   12DA     O3'  377   2.998   3.963   6.441  0.0524  0.0422 -0.1194
   13DA       P  378   3.050   3.901   6.580  0.1630  0.0838 -0.1418
   13DA     O1P  379   2.932   3.852   6.655  0.3224 -0.2895 -0.1299
   13DA     O2P  380   3.130   4.007   6.644 -0.2039  0.3375 -0.1044
   13DA     O5'  381   3.137   3.770   6.544  0.0143 -0.2380  0.6509
   13DA     C5'  382   3.073   3.650   6.508  0.2642 -0.1205 -0.2166
   13DA    H5'1  383   3.002   3.673   6.429  0.6427  2.3420  0.0974
   13DA    H5'2  384   3.014   3.622   6.596 -1.0513  4.4858  0.6109
   13DA     C4'  385   3.176   3.546   6.465  0.3779  0.1764 -0.6688
   13DA     H4'  386   3.121   3.459   6.429 -1.5002  0.5870  1.0452
   13DA     O4'  387   3.258   3.570   6.353  0.3977  0.3553 -0.6155
   13DA     C1'  388   3.383   3.511   6.379  0.1197  0.0653  0.1044
   13DA     H1'  389   3.412   3.451   6.293  4.2009  1.3309  0.3757
   13DA      N9  390   3.494   3.609   6.385  0.3115 -0.1374 -0.1071
   13DA      C8  391   3.481   3.739   6.425 -0.3786 -0.2370  0.0146
   13DA      H8  392   3.393   3.784   6.468  1.6945  1.1358  3.3054
   13DA      N7  393   3.589   3.807   6.395 -0.2207 -0.5277 -0.0802
   13DA      C5  394   3.681   3.716   6.345  0.0996 -0.3900  0.2555
   13DA      C6  395   3.811   3.716   6.291 -0.2579 -0.4080 -0.6214
   13DA      N6  396   3.883   3.827   6.269  0.7522 -0.7830  0.6704
   13DA     H61  397   3.840   3.914   6.298 -0.9197  0.0853 -3.6490
   13DA     H62  398   3.976   3.824   6.231  0.8473  1.4659  0.5719
   13DA      N1  399   3.864   3.604   6.240  0.3575 -0.2890 -0.2571
   13DA      C2  400   3.788   3.496   6.240 -0.0873  0.0177 -0.4033
   13DA      H2  401   3.834   3.414   6.186 -0.3067  0.1418 -0.7808
   13DA      N3  402   3.668   3.475   6.294 -0.2267 -0.2081 -0.8007
   13DA      C4  403   3.625   3.591   6.348  0.3981 -0.5209  0.3870
   13DA     C3'  404   3.261   3.501   6.584 -0.5015 -0.2038 -0.1770
   13DA     H3'  405   3.300   3.587   6.638 -1.1874  0.7958 -1.2319
   13DA     C2'  406   3.373   3.431   6.508 -0.1050  0.1122  0.1153
   13DA    H2'1  407   3.467   3.428   6.564  0.5485  2.9509 -0.6751
   13DA    H2'2  408   3.340   3.331   6.479 -1.4626  0.3070  0.9204
   13DA     O3'  409   3.204   3.402   6.667 -0.3175  0.2806  0.5406
   14DG       P  410   3.274   3.360   6.805  0.1405 -0.2382  0.1562
   14DG     O1P  411   3.197   3.246   6.858  0.6937 -0.6065  0.1808
   14DG     O2P  412   3.281   3.477   6.895  0.2561  0.2186 -0.4400
   14DG     O5'  413   3.425   3.309   6.781  0.1536 -0.2419  0.2461
   14DG     C5'  414   3.443   3.171   6.759 -0.2475 -0.1107 -0.9665
   14DG    H5'1  415   3.373   3.132   6.685  0.3590 -1.6292 -0.7810
   14DG    H5'2  416   3.421   3.115   6.850  1.8534  1.2841  0.4761
   14DG     C4'  417   3.590   3.144   6.730 -0.0174  0.1819 -0.0940
   14DG     H4'  418   3.600   3.036   6.717 -0.7963  0.2443 -1.3697
   14DG     O4'  419   3.639   3.215   6.619 -0.0737  0.1717 -0.1253
   14DG     C1'  420   3.776   3.247   6.633 -0.0851  0.3198 -0.3396
   14DG     H1'  421   3.829   3.197   6.553 -1.3894 -0.3234 -0.8371
   14DG      N9  422   3.799   3.393   6.639 -0.1069  0.3495 -0.9108
   14DG      C8  423   3.723   3.498   6.683 -0.5600 -0.2595 -0.2019
   14DG      H8  424   3.620   3.490   6.715 -1.2079  2.3180 -1.3805
   14DG      N7  425   3.769   3.617   6.654  0.1585 -0.4819  0.0049
   14DG      C5  426   3.895   3.591   6.602  0.0431  0.0691 -0.5668
   14DG      C6  427   4.001   3.680   6.569  0.4440  0.1814  0.9241
   14DG      O6  428   4.000   3.803   6.573 -0.1269  0.2226 -0.1128
   14DG      N1  429   4.121   3.616   6.541  0.1044  0.0397 -0.2684
   14DG      H1  430   4.208   3.667   6.537 -0.3428  0.7390 -2.7781
   14DG      C2  431   4.127   3.478   6.528 -0.1917 -0.0358  0.3406
   14DG      N2  432   4.243   3.423   6.491 -0.4622 -0.0010 -0.5987
   14DG     H21  433   4.330   3.474   6.485 -0.5715  0.0589 -1.7127
   14DG     H22  434   4.269   3.325   6.498  1.4699  0.3914 -1.6513
   14DG      N3  435   4.027   3.393   6.554 -0.0126 -0.4394 -0.2661
   14DG      C4  436   3.914   3.455   6.597  0.3168  0.0890 -0.1535
   14DG     C3'  437   3.688   3.167   6.845 -0.1807  0.1782  0.0457
   14DG     H3'  438   3.661   3.261   6.895 -0.4897  0.5013 -0.7190
   14DG     C2'  439   3.813   3.168   6.758 -0.2922  0.5827 -0.1115
   14DG    H2'1  440   3.892   3.220   6.813  0.1851 -0.2285 -0.0105
   14DG    H2'2  441   3.848   3.069   6.731 -0.8676 -0.3123  2.1416
   14DG     O3'  442   3.708   3.066   6.941  0.0263  0.2998  0.1323
   15DG       P  443   3.781   3.092   7.082  0.2686  0.2200  0.0216
   15DG     O1P  444   3.772   2.963   7.154  0.1070  0.1646 -0.0967
   15DG     O2P  445   3.712   3.208   7.143  0.4142  0.1127  0.3982
   15DG     O5'  446   3.936   3.131   7.063  0.2095  0.5532  0.2249
   15DG     C5'  447   4.036   3.037   7.032 -0.3017  0.0606  0.0570
   15DG    H5'1  448   4.006   2.980   6.944  1.1243 -0.6125 -0.0134
   15DG    H5'2  449   4.042   2.977   7.123  2.6413  1.1474  0.6841
   15DG     C4'  450   4.173   3.092   6.993 -0.2495 -0.2352 -0.1827
   15DG     H4'  451   4.236   3.004   6.986  0.8287  0.5584 -0.6727
   15DG     O4'  452   4.174   3.168   6.874  0.5230 -0.1554 -0.1279
   15DG     C1'  453   4.283   3.257   6.874  0.4074 -0.0156  0.5204
   15DG     H1'  454   4.359   3.240   6.799 -1.0066  0.6530 -1.1307
   15DG      N9  455   4.224   3.392   6.862 -0.1092 -0.2735  0.0997
   15DG      C8  456   4.104   3.441   6.906 -0.3223 -0.4888 -0.2397
   15DG      H8  457   4.031   3.375   6.952  1.3385 -1.4966  1.0645
   15DG      N7  458   4.089   3.570   6.902  0.0046 -0.4468 -0.1533
   15DG      C5  459   4.210   3.612   6.848 -0.0672 -0.0170  0.0118
   15DG      C6  460   4.255   3.743   6.819 -0.1131  0.0665  0.3104
   15DG      O6  461   4.194   3.850   6.820 -0.2036  0.0197  0.0690
   15DG      N1  462   4.391   3.748   6.791 -0.2250  0.2411 -0.2229
   15DG      H1  463   4.424   3.841   6.769  2.4721 -0.0598  1.9783
   15DG      C2  464   4.471   3.636   6.785 -0.3585  0.0805  0.7774
   15DG      N2  465   4.598   3.656   6.747 -0.4525 -0.8290 -0.0468
   15DG     H21  466   4.622   3.753   6.731 -0.5555 -0.5660  1.3460
   15DG     H22  467   4.672   3.593   6.772  1.3703  1.7814  1.7061
   15DG      N3  468   4.430   3.512   6.815 -0.2157 -0.0857  0.2915
   15DG      C4  469   4.297   3.507   6.841 -0.2689 -0.1868  0.0132
   15DG     C3'  470   4.237   3.171   7.107 -0.4628 -0.3744  0.0337
   15DG     H3'  471   4.160   3.237   7.148 -0.9994 -0.7605 -0.3237
   15DG     C2'  472   4.337   3.240   7.016  0.1068 -0.4695  0.5831
   15DG    H2'1  473   4.360   3.339   7.056  2.7097  0.0000 -1.7413
   15DG    H2'2  474   4.432   3.188   7.009  0.8506  0.8897  0.1318
   15DG     O3'  475   4.313   3.090   7.194 -0.0362  0.0381  0.0469
   16DG       P  476   4.370   3.140   7.336  0.0154  0.1945 -0.0285
   16DG     O1P  477   4.418   3.016   7.401 -0.3048  0.0416 -0.0802
   16DG     O2P  478   4.263   3.215   7.404  0.0100 -0.2220  0.4249
   16DG     O5'  479   4.493   3.243   7.318  0.2046 -0.0746 -0.2875
   16DG     C5'  480   4.617   3.194   7.272  0.2195 -0.5515  0.2568
   16DG    H5'1  481   4.598   3.140   7.179  0.8945  0.6521 -0.5961
   16DG    H5'2  482   4.671   3.135   7.346 -2.3079 -1.3796  1.5905
   16DG     C4'  483   4.709   3.312   7.243 -0.5328 -0.0714 -0.2129
   16DG     H4'  484   4.806   3.276   7.210  0.2124  0.7964  0.9745
   16DG     O4'  485   4.651   3.387   7.139  0.2518  0.2624 -0.4184
   16DG     C1'  486   4.692   3.522   7.152 -0.3460  0.4101  0.0190
   16DG     H1'  487   4.760   3.550   7.072 -0.9798  1.8039 -0.0481
   16DG      N9  488   4.572   3.606   7.136 -0.3903  0.3615  0.0910
   16DG      C8  489   4.443   3.582   7.175 -0.2809 -0.1873  0.1213
   16DG      H8  490   4.416   3.484   7.211 -1.6438  0.8747  2.1673
   16DG      N7  491   4.366   3.687   7.166 -0.3966 -0.3049 -0.3218
   16DG      C5  492   4.450   3.787   7.118 -0.1974 -0.5290 -0.4412
   16DG      C6  493   4.417   3.921   7.088 -0.1077 -0.4086 -0.0110
   16DG      O6  494   4.313   3.984   7.104  0.1848 -0.0230  0.4173
   16DG      N1  495   4.529   3.995   7.053  0.1749 -0.6485  0.3827
   16DG      H1  496   4.516   4.094   7.035  1.0813 -0.4151  0.9403
   16DG      C2  497   4.655   3.940   7.035  0.2319 -0.3621 -0.1187
   16DG      N2  498   4.754   4.027   7.011  0.2515 -0.2984  0.1829
   16DG     H21  499   4.739   4.127   7.007 -2.4648 -0.6641 -2.2625
   16DG     H22  500   4.845   3.986   6.994 -0.2418 -1.7357  0.9023
   16DG      N3  501   4.683   3.811   7.059  0.5286 -0.3245 -0.2680
   16DG      C4  502   4.577   3.739   7.100  0.1699  0.2968 -0.0872
   16DG     C3'  503   4.726   3.407   7.361  0.0281 -0.2698 -0.1330
   16DG     H3'  504   4.630   3.427   7.407  1.0214  1.5076  1.3224
   16DG     C2'  505   4.757   3.538   7.289 -0.0159 -0.2192 -0.0600
   16DG    H2'1  506   4.713   3.618   7.348 -1.0325 -0.6301 -0.2567
   16DG    H2'2  507   4.865   3.557   7.286 -0.0779  0.1039 -0.3184
   16DG     O3'  508   4.834   3.375   7.447  0.0663  0.2583  0.0175
   17DC       P  509   4.841   3.440   7.594 -0.0007  0.0602  0.1080
   17DC     O1P  510   4.952   3.364   7.657 -0.2206 -0.1378  0.2588
   17DC     O2P  511   4.709   3.433   7.662  0.2007 -0.5706  0.4435
   17DC     O5'  512   4.895   3.591   7.588  0.6455 -0.1874 -0.3941
   17DC     C5'  513   5.019   3.635   7.537  0.4054  0.1409 -0.7017
   17DC    H5'1  514   5.035   3.570   7.451  1.5115 -1.2292  0.4914
   17DC    H5'2  515   5.091   3.608   7.614 -1.3575  1.6260  1.5848
   17DC     C4'  516   5.039   3.781   7.497  0.1680  0.2172 -0.5403
   17DC     H4'  517   5.143   3.791   7.468  1.0769  0.3242  2.3957
   17DC     O4'  518   4.946   3.812   7.396 -0.2338  0.1143 -0.2100
   17DC     C1'  519   4.903   3.945   7.408 -0.3769  0.0030  0.5375
   17DC     H1'  520   4.945   4.010   7.331 -3.0990  1.5823  0.2247
   17DC      N1  521   4.757   3.965   7.398 -0.3705 -0.1308  0.1414
   17DC      C6  522   4.671   3.867   7.437 -0.6894 -0.1024 -0.4847
   17DC      H6  523   4.714   3.774   7.473 -1.9141 -0.6789 -0.4542
   17DC      C5  524   4.536   3.868   7.432 -0.7116 -0.3165  0.0459
   17DC      H5  525   4.475   3.785   7.467  0.7177 -1.9445 -1.1635
   17DC      C4  526   4.489   3.998   7.394 -0.0753 -0.1395 -0.1350
   17DC      N4  527   4.356   4.013   7.396 -0.0622  0.0437 -0.5235
   17DC     H41  528   4.295   3.936   7.418 -1.9718  1.2060 -1.4822
   17DC     H42  529   4.317   4.097   7.356 -1.9604  0.5809  2.2066
   17DC      N3  530   4.564   4.105   7.366 -0.0541 -0.0540  0.2408
   17DC      C2  531   4.698   4.087   7.369 -0.0407 -0.0544 -0.2140
   17DC      O2  532   4.770   4.181   7.336  0.1096  0.0294  0.3357
   17DC     C3'  533   5.005   3.873   7.614  0.3308 -0.2463 -0.1237
   17DC     H3'  534   4.925   3.829   7.674  0.3599  1.3234  1.1434
   17DC     C2'  535   4.959   3.998   7.539  0.3448 -0.0209  0.2426
   17DC    H2'1  536   4.881   4.045   7.598  2.6967  0.8155  2.9386
   17DC    H2'2  537   5.043   4.066   7.522  1.4713 -0.4412  3.3889
   17DC     O3'  538   5.115   3.892   7.700  0.1075 -0.3830  0.1936
   18DA       P  539   5.103   3.960   7.846 -0.0790 -0.0471  0.0247
   18DA     O1P  540   5.237   3.990   7.903 -0.0604 -0.1404  0.0322
   18DA     O2P  541   5.017   3.871   7.927  0.4289 -0.3340  0.2548
   18DA     O5'  542   5.031   4.103   7.829 -0.1153 -0.0773 -0.0770
   18DA     C5'  543   5.102   4.219   7.793  0.1220 -0.1601  0.1219
   18DA    H5'1  544   5.151   4.204   7.697 -0.0351  0.6210 -0.0899
   18DA    H5'2  545   5.174   4.240   7.873 -0.3715  0.0681  0.5099
   18DA     C4'  546   5.007   4.337   7.774 -0.3301 -0.5118  0.2011
   18DA     H4'  547   5.071   4.421   7.750  1.5111 -1.3592  1.8958
   18DA     O4'  548   4.923   4.316   7.662 -0.4815 -0.6450  0.3392
   18DA     C1'  549   4.813   4.400   7.690 -0.0999  0.0444 -0.2001
   18DA     H1'  550   4.807   4.472   7.609  0.3824  1.0863  0.6718
   18DA      N9  551   4.685   4.326   7.683 -0.1970  0.1725  0.2129
   18DA      C8  552   4.659   4.192   7.694 -0.0437  0.0444 -0.8157
   18DA      H8  553   4.739   4.128   7.729 -2.5022 -2.1872  1.1720
   18DA      N7  554   4.532   4.162   7.695 -0.0805  0.2021 -0.5588
   18DA      C5  555   4.469   4.281   7.659  0.0739  0.4157 -0.1346
   18DA      C6  556   4.338   4.328   7.639  0.1345  0.8363  0.4486
   18DA      N6  557   4.230   4.251   7.660  0.0852  0.9278  0.5271
   18DA     H61  558   4.246   4.155   7.687  1.0709  0.5439 -1.2746
   18DA     H62  559   4.138   4.286   7.640 -0.1438  0.4924  0.8055
   18DA      N1  560   4.306   4.453   7.604 -0.6169  0.3556 -0.6339
   18DA      C2  561   4.411   4.532   7.583 -0.0754 -0.3698 -0.7100
   18DA      H2  562   4.379   4.631   7.554 -0.8871 -0.3964  0.0219
   18DA      N3  563   4.538   4.508   7.612  0.0341  0.3141 -0.6172
   18DA      C4  564   4.564   4.379   7.645  0.0736  0.3825 -0.3823
   18DA     C3'  565   4.931   4.373   7.901 -0.1183  0.5062  0.0429
   18DA     H3'  566   4.888   4.280   7.937 -1.1231  0.7131 -0.5946
   18DA     C2'  567   4.831   4.462   7.828 -0.1036  0.2482 -0.2913
   18DA    H2'1  568   4.732   4.466   7.873 -1.3326  2.4695 -2.8647
   18DA    H2'2  569   4.861   4.566   7.811 -0.9121  0.5642  0.1397
   18DA     O3'  570   5.005   4.456   7.988 -0.1522  0.6356 -0.0508
   19DT       P  571   4.957   4.470   8.141  0.0078 -0.1467  0.0794
   19DT     O1P  572   5.073   4.536   8.205 -0.0833  0.0415  0.0548
   19DT     O2P  573   4.904   4.344   8.197 -0.2984  0.1076  0.3658
   19DT     O5'  574   4.836   4.575   8.122  0.0519 -0.0519  0.3243
   19DT     C5'  575   4.858   4.712   8.098 -0.0523 -0.0195  0.4134
   19DT    H5'1  576   4.918   4.723   8.008 -1.5304 -2.1766 -0.9368
   19DT    H5'2  577   4.916   4.759   8.177  0.9625  1.0288 -0.9071
   19DT     C4'  578   4.728   4.789   8.075 -0.1467 -0.3062 -0.0226
   19DT     H4'  579   4.762   4.885   8.034 -0.0553 -0.4855 -0.3746
   19DT     O4'  580   4.655   4.734   7.967 -0.2364  0.4425 -0.3555
   19DT     C1'  581   4.517   4.752   7.987 -0.1832  0.1289  0.3508
   19DT     H1'  582   4.471   4.822   7.917 -1.8325  0.5244  1.7777
   19DT      N1  583   4.448   4.621   7.980  0.3101 -0.1440  0.5474
   19DT      C6  584   4.500   4.512   8.043 -0.6951 -0.1839  1.3276
   19DT      H6  585   4.605   4.513   8.067 -0.1083  2.4299 -0.8773
   19DT      C5  586   4.444   4.389   8.038  0.3725 -0.6272 -0.2423
   19DT      C7  587   4.521   4.269   8.085  0.3118 -0.7621 -0.4830
   19DT     H71  588   4.555   4.215   7.997  0.1656  1.4509 -1.9728
   19DT     H72  589   4.598   4.285   8.160 -1.0890 -1.9069  1.2890
   19DT     H73  590   4.452   4.197   8.130  0.0191 -0.1057  0.1400
   19DT      C4  591   4.312   4.377   7.979  0.0487 -0.1473  0.3723
   19DT      O4  592   4.255   4.269   7.967 -0.2453  0.0298  0.1588
   19DT      N3  593   4.258   4.493   7.925  0.1831 -0.0521  0.4408
   19DT      H3  594   4.169   4.485   7.877  0.2921 -2.6422  0.5008
   19DT      C2  595   4.316   4.618   7.940  0.3739 -0.1284  0.3389
   19DT      O2  596   4.256   4.717   7.898  0.4963  0.0147  0.4990
   19DT     C3'  597   4.637   4.805   8.196 -0.0928  0.0205 -0.0233
   19DT     H3'  598   4.640   4.711   8.252 -1.0509  0.8881  1.5667
   19DT     C2'  599   4.503   4.813   8.125 -0.2767  0.1387  0.3377
   19DT    H2'1  600   4.429   4.763   8.188  1.0413  1.9470  3.5682
   19DT    H2'2  601   4.465   4.915   8.114 -1.7167 -0.3200  0.7294
   19DT     O3'  602   4.652   4.913   8.286 -0.0628  0.0589 -0.0743
   20DC       P  603   4.593   4.907   8.436 -0.0895 -0.2569 -0.0963
   20DC     O1P  604   4.639   5.035   8.495  0.0272 -0.3070 -0.0779
   20DC     O2P  605   4.629   4.779   8.499 -0.1650 -0.0367  0.3984
   20DC     O5'  606   4.433   4.915   8.420 -0.1441 -0.2565  0.4289
   20DC     C5'  607   4.373   5.039   8.388  0.0223 -0.2058  0.3120
   20DC    H5'1  608   4.424   5.085   8.303 -0.6223  1.4320  0.7704
   20DC    H5'2  609   4.381   5.108   8.472 -1.6056  1.4456 -0.8244
   20DC     C4'  610   4.225   5.028   8.357  0.0447  0.2596  0.0294
   20DC     H4'  611   4.201   5.133   8.341 -0.3158  0.4235  1.5305
   20DC     O4'  612   4.191   4.950   8.244 -0.5011  0.3181  0.1485
   20DC     C1'  613   4.069   4.882   8.259 -0.2117 -0.3383 -0.4159
   20DC     H1'  614   3.999   4.911   8.180  0.0867  0.5702 -0.3542
   20DC      N1  615   4.084   4.736   8.273  0.5111 -0.2822 -0.5731
   20DC      C6  616   4.203   4.677   8.305  0.2575 -0.2647  0.4492
   20DC      H6  617   4.293   4.729   8.333  0.6359 -0.3423 -0.5733
   20DC      C5  618   4.214   4.543   8.293  0.3733 -0.2510  0.4028
   20DC      H5  619   4.307   4.493   8.314 -0.0396 -0.5964  1.4916
   20DC      C4  620   4.098   4.467   8.258  0.1272  0.0580  0.5362
   20DC      N4  621   4.109   4.335   8.234  0.3836  0.2360 -0.3665
   20DC     H41  622   4.189   4.275   8.249 -0.7524 -1.6406 -1.4595
   20DC     H42  623   4.027   4.288   8.200  0.1205  0.4599 -0.0468
   20DC      N3  624   3.979   4.527   8.245  0.1690  0.1373  0.5195
   20DC      C2  625   3.971   4.662   8.241  0.2149  0.1193 -0.4671
   20DC      O2  626   3.864   4.712   8.209 -0.0315 -0.0425  0.0882
   20DC     C3'  627   4.134   4.979   8.469  0.4015  0.1277  0.2623
   20DC     H3'  628   4.162   4.881   8.508 -1.5406 -1.2668 -1.5880
   20DC     C2'  629   4.011   4.947   8.384  0.6518 -0.8029  0.2330
   20DC    H2'1  630   3.948   4.879   8.441  0.4581 -1.3795 -0.6516
   20DC    H2'2  631   3.951   5.035   8.359  0.1965 -0.8043  1.2514
   20DC     O3'  632   4.105   5.072   8.571 -0.0195  0.1473  0.1284
   21DT       P  633   4.055   5.033   8.718 -0.1436  0.2469  0.1122
   21DT     O1P  634   4.032   5.153   8.801  0.1800  0.2268  0.2298
   21DT     O2P  635   4.151   4.930   8.764 -0.1740  0.0952 -0.1610
   21DT     O5'  636   3.910   4.963   8.708  0.0979 -0.2094 -0.2321
   21DT     C5'  637   3.791   5.023   8.663 -0.0926 -0.0696  0.4488
   21DT    H5'1  638   3.804   5.091   8.579 -0.5257  1.9287  1.9300
   21DT    H5'2  639   3.743   5.090   8.734 -0.3353  1.6439 -1.2681
   21DT     C4'  640   3.682   4.924   8.621 -0.0790  0.0296  0.1788
   21DT     H4'  641   3.588   4.971   8.590 -1.6375 -1.6935  2.0020
   21DT     O4'  642   3.726   4.830   8.526 -0.3720  0.2802 -0.2099
   21DT     C1'  643   3.659   4.706   8.534 -0.0189  0.0954 -0.0499
   21DT     H1'  644   3.594   4.700   8.446  1.7911  0.3255 -1.4708
   21DT      N1  645   3.747   4.588   8.535 -0.3004 -0.1140  0.2192
   21DT      C6  646   3.876   4.601   8.577 -0.4267 -0.7227  0.8135
   21DT      H6  647   3.910   4.698   8.610  0.8669 -0.2631 -1.5592
   21DT      C5  648   3.966   4.500   8.570 -0.2574 -0.5451  0.3961
   21DT      C7  649   4.108   4.518   8.620  0.0434 -0.2252 -0.5476
   21DT     H71  650   4.138   4.620   8.645 -1.2257  0.3170 -1.1253
   21DT     H72  651   4.115   4.454   8.707  0.9221  2.0684  1.1650
   21DT     H73  652   4.170   4.482   8.538 -2.7982  0.3494 -3.1361
   21DT      C4  653   3.927   4.370   8.521 -0.2420 -0.2571 -0.3966
   21DT      O4  654   4.001   4.274   8.503 -0.2889 -0.4172  0.2605
   21DT      N3  655   3.795   4.368   8.479 -0.3032 -0.2937 -0.1988
   21DT      H3  656   3.756   4.282   8.443  0.1222 -0.5447 -0.0616
   21DT      C2  657   3.701   4.470   8.481 -0.0189 -0.0294 -0.2152
   21DT      O2  658   3.581   4.447   8.462 -0.0533  0.1878 -0.2588
   21DT     C3'  659   3.645   4.835   8.740  0.4766  0.1471  0.4416
   21DT     H3'  660   3.741   4.799   8.776  0.9356  0.1307 -0.7408
   21DT     C2'  661   3.584   4.716   8.667  0.2617  0.4778  0.0816
   21DT    H2'1  662   3.603   4.632   8.733  3.3131 -1.1353 -2.5691
   21DT    H2'2  663   3.479   4.734   8.641  1.0107  1.7096 -2.4609
   21DT     O3'  664   3.555   4.875   8.840  0.0897 -0.0103  0.1589
   22DG       P  665   3.550   4.813   8.989  0.0876 -0.0322  0.1498
   22DG     O1P  666   3.486   4.912   9.080 -0.0797  0.0623 -0.0694
   22DG     O2P  667   3.685   4.768   9.030  0.0698  0.0793  0.3362
   22DG     O5'  668   3.458   4.681   8.991 -0.0269  0.0482  0.2518
   22DG     C5'  669   3.320   4.698   8.972 -0.1132 -0.2900  0.5531
   22DG    H5'1  670   3.302   4.762   8.885  0.6572 -1.7329 -0.7145
   22DG    H5'2  671   3.272   4.737   9.062 -1.8385 -3.2020  1.0179
   22DG     C4'  672   3.269   4.555   8.957  0.3617 -0.3732 -0.3415
   22DG     H4'  673   3.162   4.576   8.958  0.7108  1.5755  0.6129
   22DG     O4'  674   3.309   4.504   8.832  0.2312 -0.4148 -0.3663
   22DG     C1'  675   3.326   4.366   8.851 -0.4024 -0.5179 -0.5200
   22DG     H1'  676   3.261   4.314   8.781 -0.3459 -1.0755 -0.1649
   22DG      N9  677   3.463   4.313   8.834 -0.0672  0.0051  0.4504
   22DG      C8  678   3.579   4.383   8.858  0.0534  0.0380 -0.2011
   22DG      H8  679   3.577   4.481   8.903 -0.0840 -0.7169  1.5080
   22DG      N7  680   3.684   4.315   8.821  0.1506  0.0662  0.0225
   22DG      C5  681   3.637   4.189   8.784 -0.2809  0.0122  0.7351
   22DG      C6  682   3.704   4.075   8.733 -0.3614  0.6550 -0.8595
   22DG      O6  683   3.825   4.055   8.717 -0.4401 -0.4509 -0.1430
   22DG      N1  684   3.616   3.971   8.711  0.5680 -0.3245 -0.0487
   22DG      H1  685   3.657   3.880   8.692  1.0499 -0.6249  2.2280
   22DG      C2  686   3.481   3.976   8.739  0.3691 -0.0170 -1.0104
   22DG      N2  687   3.417   3.860   8.723  0.0253  0.0834 -0.4006
   22DG     H21  688   3.469   3.775   8.705  0.8496  0.8199 -1.6948
   22DG     H22  689   3.317   3.869   8.712 -0.1019  0.0358  0.6778
   22DG      N3  690   3.413   4.088   8.766  0.1626 -0.3983  0.0758
   22DG      C4  691   3.500   4.187   8.794 -0.3364  0.0625  0.0091
   22DG     C3'  692   3.306   4.464   9.074  0.0682  0.0708  0.0982
   22DG     H3'  693   3.407   4.468   9.115 -1.0549  0.5841  3.0874
   22DG     C2'  694   3.284   4.335   8.995  0.3110  0.1859 -0.1548
   22DG    H2'1  695   3.342   4.260   9.049 -1.0576  0.0227  1.1291
   22DG    H2'2  696   3.178   4.311   9.000  0.9359 -2.6218  1.3405
   22DG     O3'  697   3.212   4.475   9.179 -0.0120  0.1093  0.0230
   23DC       P  698   3.235   4.416   9.327 -0.1265 -0.0126 -0.0065
   23DC     O1P  699   3.118   4.445   9.412  0.1062 -0.5741  0.5138
   23DC     O2P  700   3.366   4.472   9.369 -0.2428 -0.0031  0.3503
   23DC     O5'  701   3.258   4.257   9.313 -0.4064 -0.0318 -0.2584
   23DC     C5'  702   3.142   4.178   9.298 -0.2160 -0.4775  0.5520
   23DC    H5'1  703   3.070   4.225   9.232  1.4794  0.5798 -0.6368
   23DC    H5'2  704   3.089   4.175   9.393 -1.3701  0.3108 -0.0516
   23DC     C4'  705   3.170   4.036   9.248 -0.1736 -0.3275  0.1428
   23DC     H4'  706   3.077   3.984   9.228  0.6344 -1.6278 -0.3076
   23DC     O4'  707   3.230   4.025   9.122  0.1097 -0.1512  0.2617
   23DC     C1'  708   3.300   3.904   9.105  0.0261 -0.0953 -0.5255
   23DC     H1'  709   3.267   3.835   9.027 -0.4973 -1.8134  1.1286
   23DC      N1  710   3.446   3.922   9.106 -0.0204  0.2700  0.2522
   23DC      C6  711   3.496   4.044   9.142  0.1734  0.5534 -0.9260
   23DC      H6  712   3.432   4.116   9.192  0.4642  2.0450 -2.5921
   23DC      C5  713   3.628   4.069   9.129  0.3821 -0.1097 -0.1742
   23DC      H5  714   3.665   4.160   9.174 -1.4200  1.2905 -1.3145
   23DC      C4  715   3.711   3.965   9.076  0.5017 -0.2303  0.2512
   23DC      N4  716   3.840   3.998   9.058  0.3865  0.2580  0.2972
   23DC     H41  717   3.863   4.096   9.067 -0.4826  0.5053 -0.0763
   23DC     H42  718   3.913   3.937   9.025  1.4540  0.1536  2.6348
   23DC      N3  719   3.662   3.845   9.041 -0.6917  0.1335  0.6154
   23DC      C2  720   3.529   3.824   9.055 -0.7922 -0.0165 -0.4714
   23DC      O2  721   3.482   3.717   9.015 -1.1546  0.0738 -0.2865
   23DC     C3'  722   3.246   3.939   9.337  0.0711  0.1373  0.4476
   23DC     H3'  723   3.339   3.987   9.367  1.0186  0.6402 -2.9548
   23DC     C2'  724   3.262   3.829   9.233  0.5975  0.5904  0.0505
   23DC    H2'1  725   3.340   3.758   9.260 -0.4272 -0.1424  1.1699
   23DC    H2'2  726   3.173   3.768   9.220  0.3315  0.7110  1.2376
   23DC     O3'  727   3.165   3.907   9.449 -0.3199  0.4955  0.2683
   24DG       P  728   3.228   3.865   9.591 -0.0101 -0.0454 -0.0245
   24DG     O1P  729   3.117   3.831   9.683 -0.1963 -0.4767 -0.4069
   24DG     O2P  730   3.319   3.974   9.634 -0.0382  0.1098 -0.3535
   24DG     O5'  731   3.311   3.730   9.566 -0.1666 -0.1261 -0.1128
   24DG     C5'  732   3.248   3.605   9.548  0.0935 -0.2556 -0.1362
   24DG    H5'1  733   3.156   3.607   9.490 -0.4236  1.1067  0.6729
   24DG    H5'2  734   3.215   3.564   9.643 -0.6739 -1.7505 -1.0124
   24DG     C4'  735   3.332   3.495   9.484  0.1078 -0.1702 -0.2666
   24DG     H4'  736   3.272   3.406   9.462 -1.0075  0.6464 -0.6463
   24DG     O4'  737   3.398   3.539   9.368  0.2489  0.4102  0.0311
   24DG     C1'  738   3.528   3.485   9.362  0.1197  0.0460  0.4184
   24DG     H1'  739   3.531   3.433   9.266 -1.9383  0.5242  0.0548
   24DG      N9  740   3.624   3.597   9.359 -0.1490  0.2707 -0.0212
   24DG      C8  741   3.617   3.727   9.401 -0.2829  0.2058  0.1613
   24DG      H8  742   3.533   3.771   9.451 -0.6020 -0.9548  0.6652
   24DG      N7  743   3.723   3.798   9.371  0.0752 -0.2428  0.3513
   24DG      C5  744   3.809   3.702   9.319  0.1083 -0.0863  0.1172
   24DG      C6  745   3.943   3.711   9.273 -0.2512  0.7120 -0.8200
   24DG      O6  746   4.021   3.805   9.280  0.4276  0.0888  0.2296
   24DG      N1  747   4.000   3.593   9.227 -0.1192  0.3937  0.1384
   24DG      H1  748   4.101   3.593   9.218 -0.0507 -0.2551  0.8323
   24DG      C2  749   3.938   3.471   9.247 -0.3726  0.5099  0.0639
   24DG      N2  750   4.011   3.364   9.211 -0.3252  0.7294 -0.5078
   24DG     H21  751   4.107   3.375   9.184 -0.3595  3.3242  0.1341
   24DG     H22  752   3.979   3.271   9.236  3.0362 -0.5958 -0.6658
   24DG      N3  753   3.811   3.458   9.288 -0.2577 -0.0565  0.2494
   24DG      C4  754   3.753   3.577   9.315 -0.1638  0.0381  0.0371
   24DG     C3'  755   3.445   3.460   9.580  0.0906  0.4610 -0.0115
   24DG     H3'  756   3.493   3.552   9.614  2.4909 -1.4513  2.1984
   24DG     C2'  757   3.537   3.390   9.481  0.3834  0.1439  0.4778
   24DG    H2'1  758   3.637   3.399   9.524  2.5134 -0.4929 -3.7628
   24DG    H2'2  759   3.501   3.291   9.454 -1.0059  0.6027  0.5873
   24DG     O3'  760   3.401   3.376   9.684 -0.3598  0.2896 -0.3382
   25DC       P  761   3.458   3.385   9.834 -0.2866  0.2144 -0.3613
   25DC     O1P  762   3.375   3.295   9.917 -0.1215  1.1244  0.8099
   25DC     O2P  763   3.465   3.527   9.875  0.1707 -0.0364  0.4563
   25DC     O5'  764   3.605   3.320   9.821 -0.4617 -0.0923 -0.8193
   25DC     C5'  765   3.632   3.183   9.841 -0.1135  0.0925  0.0342
   25DC    H5'1  766   3.555   3.128   9.786  0.2404  1.1301 -1.5810
   25DC    H5'2  767   3.635   3.174   9.949  2.7836 -1.3532 -0.0730
   25DC     C4'  768   3.763   3.139   9.776 -0.0667  0.0614  0.1512
   25DC     H4'  769   3.767   3.030   9.774  0.1779  0.0569  0.7513
   25DC     O4'  770   3.788   3.193   9.648 -0.2885 -0.7263 -0.2323
   25DC     C1'  771   3.924   3.225   9.626 -0.3493 -0.5378 -0.3333
   25DC     H1'  772   3.948   3.189   9.526 -1.1914  1.0402 -1.1528
   25DC      N1  773   3.954   3.369   9.612  0.0243 -0.5497  0.3076
   25DC      C6  774   3.864   3.468   9.642  0.3558 -0.0379 -0.3523
   25DC      H6  775   3.766   3.443   9.679 -0.4051  2.7107 -0.3007
   25DC      C5  776   3.890   3.598   9.617  0.0177  0.1516  0.2569
   25DC      H5  777   3.821   3.676   9.644 -0.8847 -0.3572 -0.5294
   25DC      C4  778   4.022   3.631   9.573 -0.1050 -0.1803 -0.3786
   25DC      N4  779   4.054   3.761   9.567  0.0036 -0.1735  0.2955
   25DC     H41  780   3.980   3.829   9.582  2.1228  2.4937 -0.5808
   25DC     H42  781   4.132   3.786   9.509 -0.8795 -0.8769 -1.2529
   25DC      N3  782   4.108   3.532   9.547 -0.4629 -0.5226 -0.2664
   25DC      C2  783   4.078   3.400   9.561 -0.1658 -0.5828 -0.1877
   25DC      O2  784   4.163   3.319   9.525  0.0675 -0.4004 -0.0536
   25DC     C3'  785   3.884   3.173   9.862 -0.1742  0.0508  0.3070
   25DC     H3'  786   3.878   3.277   9.893  0.9493  0.0001  0.7463
   25DC     C2'  787   3.988   3.164   9.750 -0.5563 -0.1518 -0.0334
   25DC    H2'1  788   4.082   3.212   9.777 -0.3084 -0.0872 -0.9683
   25DC    H2'2  789   4.013   3.058   9.743 -0.0092 -0.1161  1.1645
   25DC     O3'  790   3.917   3.074   9.957  0.9067  0.3372  0.2413
   25DC     H3T  791   4.011   3.067   9.975  0.6969 -1.7003  0.8155
   26G      O5'  792   4.981   3.978   9.166 -0.8157 -1.1744  0.5548
   26G      H5T  793   4.909   3.958   9.105 -0.9566 -2.8100  1.1941
   26G      C5'  794   5.083   3.881   9.175 -0.0265 -0.4098  0.0522
   26G     H5'1  795   5.150   3.909   9.256 -1.3181  1.4854  0.5223
   26G     H5'2  796   5.136   3.862   9.082  0.8357  0.9263  0.2453
   26G      C4'  797   5.047   3.738   9.216  0.3888 -0.4972  0.1214
   26G      H4'  798   5.141   3.684   9.222  1.4247  1.0945 -1.1443
   26G      O4'  799   4.996   3.734   9.348  0.4886 -0.4676  0.1607
   26G      C1'  800   4.886   3.647   9.358  0.1202 -0.0096  0.1180
   26G      H1'  801   4.887   3.589   9.451  3.2495 -1.3027 -0.6050
   26G       N9  802   4.760   3.723   9.368  0.3997  0.3681  0.8351
   26G       C8  803   4.737   3.858   9.361  0.3496  0.3100 -0.3506
   26G       H8  804   4.820   3.928   9.356 -0.1130  0.9685  0.7067
   26G       N7  805   4.613   3.890   9.385  0.2362 -0.0968 -0.3854
   26G       C5  806   4.545   3.771   9.406  0.1321 -0.0340 -0.3675
   26G       C6  807   4.411   3.740   9.442  0.1214  0.0176 -0.3613
   26G       O6  808   4.314   3.815   9.453  0.0143 -0.1424 -0.2129
   26G       N1  809   4.391   3.604   9.462  0.1324 -0.0350 -0.7028
   26G       H1  810   4.297   3.581   9.490 -0.3573  2.4640 -0.0042
   26G       C2  811   4.487   3.507   9.443  0.1715 -0.3656  1.0183
   26G       N2  812   4.451   3.377   9.445  0.0490 -0.3659 -0.2897
   26G      H21  813   4.355   3.355   9.463  0.0302 -0.9859 -1.0772
   26G      H22  814   4.527   3.311   9.440  0.1882 -0.2047 -0.3260
   26G       N3  815   4.614   3.538   9.416 -0.2259  0.1298 -0.4044
   26G       C4  816   4.638   3.671   9.402  0.2769  0.0843 -0.0305
   26G      C3'  817   4.947   3.660   9.132 -0.2546  0.1451  0.2787
   26G      H3'  818   4.874   3.730   9.091 -1.6255 -1.7608 -0.7309
   26G      C2'  819   4.895   3.559   9.234 -0.1475 -0.0586  0.1323
   26G     H2'1  820   4.797   3.520   9.205 -0.6586  1.2024  0.1043
   26G      O2'  821   4.987   3.453   9.250 -0.3272 -0.1731  0.4041
   26G     HO'2  822   5.018   3.434   9.162 -1.5330 -3.5434  0.5759
   26G      O3'  823   5.017   3.597   9.027 -0.5492 -0.4059  0.4043
   27C        P  824   4.953   3.590   8.879  0.0713 -0.3433  0.1305
   27C      O1P  825   5.060   3.532   8.795  0.1028 -0.1216  0.0156
   27C      O2P  826   4.897   3.724   8.852  0.4300 -0.3074 -0.4439
   27C      O5'  827   4.831   3.486   8.895 -0.1905 -0.1468 -0.5370
   27C      C5'  828   4.852   3.350   8.924  0.0105  0.0729  0.4115
   27C     H5'1  829   4.938   3.347   8.991  0.4210 -0.3272 -0.1209
   27C     H5'2  830   4.872   3.299   8.830 -1.2976 -0.5709  0.4545
   27C      C4'  831   4.730   3.277   8.981  0.0761 -0.3736 -0.0064
   27C      H4'  832   4.769   3.183   9.020 -0.2658  0.6545  3.1515
   27C      O4'  833   4.682   3.336   9.100  0.2697 -0.5262  0.1509
   27C      C1'  834   4.541   3.322   9.097  0.2799 -0.6027  0.0409
   27C      H1'  835   4.512   3.262   9.183  1.9794  2.0349  2.6290
   27C       N1  836   4.469   3.450   9.102  0.3684 -0.5414 -0.1902
   27C       C6  837   4.533   3.567   9.076  0.1665 -0.4501 -0.2818
   27C       H6  838   4.636   3.562   9.042 -0.1037  0.8735 -1.4191
   27C       C5  839   4.473   3.687   9.091 -0.1124 -0.6760  0.4459
   27C       H5  840   4.532   3.775   9.072  2.4046 -2.1883  0.8160
   27C       C4  841   4.332   3.690   9.118 -0.1913 -0.1202 -0.0083
   27C       N4  842   4.273   3.806   9.146  0.0225  0.0221 -0.1438
   27C      H41  843   4.331   3.879   9.107 -0.5008  1.0541  0.9249
   27C      H42  844   4.176   3.804   9.174  0.2797 -1.1896  0.7226
   27C       N3  845   4.267   3.575   9.142  0.4042 -0.4209  0.2031
   27C       C2  846   4.335   3.458   9.138  0.1308 -0.5604 -1.0347
   27C       O2  847   4.283   3.354   9.176 -0.3455 -0.1212 -0.4544
   27C      C3'  848   4.622   3.263   8.875  0.0302 -0.2603  0.0243
   27C      H3'  849   4.615   3.359   8.825 -0.1362  1.0745  2.4327
   27C      C2'  850   4.504   3.243   8.971  0.0798 -0.5046  0.0375
   27C     H2'1  851   4.411   3.282   8.930 -2.1886 -5.7684 -0.5607
   27C      O2'  852   4.491   3.108   9.007 -0.7198 -0.3686  0.2763
   27C     HO'2  853   4.565   3.082   9.063 -1.4673 -0.6143  1.1740
   27C      O3'  854   4.646   3.166   8.776 -0.0157 -0.3099  0.0616
   28G        P  855   4.580   3.179   8.629 -0.1012  0.1126  0.1364
   28G      O1P  856   4.611   3.059   8.549  0.0963  0.4032 -0.2218
   28G      O2P  857   4.597   3.315   8.575 -0.5274  0.1416  0.0702
   28G      O5'  858   4.424   3.175   8.670  0.0197  0.1173  0.6057
   28G      C5'  859   4.370   3.046   8.691  0.2820 -0.0433  0.2999
   28G     H5'1  860   4.423   3.002   8.775 -0.5750 -2.3588 -0.2987
   28G     H5'2  861   4.382   2.976   8.608  0.5041 -0.9463  1.0789
   28G      C4'  862   4.223   3.065   8.724  0.1664 -0.2888 -0.0686
   28G      H4'  863   4.174   2.967   8.734 -1.1002  0.4300  1.2228
   28G      O4'  864   4.209   3.141   8.842 -0.0144  0.2341 -0.4241
   28G      C1'  865   4.095   3.223   8.827 -0.4594 -0.1826  0.5648
   28G      H1'  866   4.023   3.207   8.907  0.5123 -0.2661  1.4465
   28G       N9  867   4.111   3.369   8.817  0.2120 -0.2971 -0.1936
   28G       C8  868   4.224   3.442   8.787  0.1909 -0.1297  0.1222
   28G       H8  869   4.311   3.390   8.750  0.2859 -1.1905  1.7175
   28G       N7  870   4.218   3.566   8.824 -0.2312 -0.1619  0.1772
   28G       C5  871   4.089   3.577   8.874 -0.1788 -0.0924  0.2986
   28G       C6  872   4.014   3.687   8.922 -0.1103  0.2511 -0.3653
   28G       O6  873   4.047   3.804   8.941 -0.3192  0.1420  0.7699
   28G       N1  874   3.878   3.666   8.941 -0.0805  0.5068  0.1798
   28G       H1  875   3.815   3.743   8.954  1.3743  1.4208  2.2902
   28G       C2  876   3.823   3.539   8.938  0.0773  0.4366  0.2825
   28G       N2  877   3.694   3.522   8.967  0.1387 -0.5950 -0.0094
   28G      H21  878   3.637   3.602   8.989  0.8867 -0.4348  1.4299
   28G      H22  879   3.655   3.428   8.969  0.1712 -0.6914 -2.0713
   28G       N3  880   3.893   3.431   8.900  0.1144  0.4185  0.4015
   28G       C4  881   4.025   3.456   8.879  0.1453 -0.2912 -0.2974
   28G      C3'  882   4.145   3.130   8.610 -0.0057 -0.2595  0.0647
   28G      H3'  883   4.196   3.203   8.547 -2.4436 -0.5864 -2.4481
   28G      C2'  884   4.030   3.187   8.693  0.0957 -0.5063  0.3778
   28G     H2'1  885   3.994   3.275   8.640  0.0888 -0.2535  0.7982
   28G      O2'  886   3.927   3.096   8.722  0.0024 -0.3770  0.4517
   28G     HO'2  887   3.877   3.113   8.641  1.3495  0.2105 -0.2854
   28G      O3'  888   4.092   3.032   8.524 -0.1204 -0.1311 -0.0117
   29C        P  889   4.018   3.074   8.388  0.0480  0.2564  0.0148
   29C      O1P  890   3.976   2.952   8.316  0.0633 -0.0564  0.5303
   29C      O2P  891   4.102   3.175   8.320 -0.0692  0.4360  0.1346
   29C      O5'  892   3.879   3.145   8.427 -0.2910 -0.2465 -0.2684
   29C      C5'  893   3.758   3.074   8.445 -0.5980  0.2039 -0.5218
   29C     H5'1  894   3.775   2.996   8.519 -1.3673  0.4547 -0.0731
   29C     H5'2  895   3.725   3.028   8.353 -3.8658 -2.1851  1.6386
   29C      C4'  896   3.643   3.166   8.484 -0.2412  0.3641  0.1870
   29C      H4'  897   3.552   3.108   8.503  0.7630 -1.2610  0.2356
   29C      O4'  898   3.681   3.245   8.594  0.0896  0.2175  0.1791
   29C      C1'  899   3.621   3.372   8.582 -0.0063  0.1553 -0.0067
   29C      H1'  900   3.556   3.393   8.667  0.5826 -0.4456  0.5961
   29C       N1  901   3.715   3.486   8.579 -0.1947  0.3033 -0.4008
   29C       C6  902   3.848   3.470   8.551 -0.0264  0.6869  0.1732
   29C       H6  903   3.885   3.375   8.515  0.6380 -0.0473  2.6136
   29C       C5  904   3.935   3.572   8.567  0.4195  0.4922 -0.9575
   29C       H5  905   4.039   3.557   8.541  0.3968  1.7585 -1.8610
   29C       C4  906   3.881   3.700   8.602  0.3682  0.2036  0.0550
   29C       N4  907   3.957   3.809   8.620  0.4179  0.1984 -0.1207
   29C      H41  908   4.056   3.801   8.602  0.6184 -0.0935  1.0677
   29C      H42  909   3.914   3.899   8.637  0.6111  0.2299  0.1948
   29C       N3  910   3.754   3.715   8.642  0.3617 -0.2155  0.1903
   29C       C2  911   3.672   3.607   8.628 -0.0722  0.1156  0.1770
   29C       O2  912   3.552   3.624   8.652 -0.1049  0.3595 -0.1522
   29C      C3'  913   3.607   3.262   8.371  0.1393  0.3188  0.0249
   29C      H3'  914   3.695   3.318   8.341 -0.5629  2.4290  1.6081
   29C      C2'  915   3.538   3.370   8.454 -0.0191  0.2356  0.0008
   29C     H2'1  916   3.545   3.467   8.405  1.5189 -0.2046 -0.7008
   29C      O2'  917   3.405   3.333   8.483 -0.0805  0.3643 -0.1156
   29C     HO'2  918   3.371   3.285   8.407  0.6731 -2.3978  1.1641
   29C      O3'  919   3.520   3.220   8.268 -0.0607 -0.0608  0.3469
   30A        P  920   3.531   3.274   8.117  0.4308 -0.0808  0.3743
   30A      O1P  921   3.450   3.182   8.034  0.4697  0.4114 -0.2173
   30A      O2P  922   3.672   3.302   8.081  0.4844 -0.4338  0.3080
   30A      O5'  923   3.451   3.411   8.147  0.1551 -0.1446 -0.0595
   30A      C5'  924   3.311   3.407   8.162  0.1477  0.2772 -0.0235
   30A     H5'1  925   3.288   3.325   8.230  0.2871  0.1926 -0.0797
   30A     H5'2  926   3.257   3.380   8.072  0.3253 -1.7070  0.4345
   30A      C4'  927   3.249   3.534   8.220 -0.1361  0.0084  0.2635
   30A      H4'  928   3.148   3.514   8.257  0.6308  0.3667  2.7308
   30A      O4'  929   3.316   3.587   8.332  0.1785  0.2385 -0.0330
   30A      C1'  930   3.340   3.726   8.328 -0.2618  0.3189  0.0688
   30A      H1'  931   3.297   3.769   8.418 -0.1628 -0.5882  0.5651
   30A       N9  932   3.481   3.770   8.322 -0.1354 -0.1335 -0.3601
   30A       C8  933   3.593   3.702   8.281  0.1364  0.0969 -0.0105
   30A       H8  934   3.593   3.599   8.247  2.3859 -0.2063  0.7772
   30A       N7  935   3.705   3.767   8.291  0.0897  0.2248 -0.3132
   30A       C5  936   3.664   3.889   8.344 -0.1128 -0.0883  0.2511
   30A       C6  937   3.736   4.003   8.381 -0.0918 -0.3516  1.0337
   30A       N6  938   3.870   4.015   8.382 -0.1721  0.6973  0.4650
   30A      H61  939   3.929   3.937   8.360  0.4336  0.7390  1.8154
   30A      H62  940   3.908   4.106   8.403 -0.7858  1.0375  0.1492
   30A       N1  941   3.665   4.108   8.426  0.1724 -0.1263  0.9281
   30A       C2  942   3.535   4.095   8.445  0.0181 -0.1454 -0.0872
   30A       H2  943   3.479   4.174   8.494  1.0380  2.0052 -2.1619
   30A       N3  944   3.456   3.993   8.415 -0.0122 -0.1930  0.1506
   30A       C4  945   3.528   3.894   8.357 -0.1308 -0.2709  0.1366
   30A      C3'  946   3.254   3.652   8.123 -0.1620 -0.2781 -0.0864
   30A      H3'  947   3.348   3.653   8.069 -0.3724 -0.8170 -0.4814
   30A      C2'  948   3.260   3.778   8.208  0.0880 -0.1076 -0.3557
   30A     H2'1  949   3.317   3.857   8.160  2.5303 -2.7808 -2.2188
   30A      O2'  950   3.134   3.824   8.251  0.1446  0.1409 -0.4539
   30A     HO'2  951   3.119   3.897   8.190 -4.1755 -0.2915 -0.2269
   30A      O3'  952   3.145   3.644   8.034 -0.0647 -0.0936 -0.2216
   31G        P  953   3.149   3.709   7.887  0.0621  0.3347 -0.0288
   31G      O1P  954   3.015   3.687   7.828 -0.0072  0.9110 -0.0996
   31G      O2P  955   3.262   3.641   7.819 -0.3784 -0.0555 -0.3739
   31G      O5'  956   3.180   3.866   7.904  0.1829  0.2265  0.7694
   31G      C5'  957   3.074   3.956   7.929 -0.5236 -0.1382 -0.8130
   31G     H5'1  958   3.006   3.906   7.998  2.2538 -0.7178  1.7182
   31G     H5'2  959   3.019   3.983   7.839 -1.0694  2.6395  0.2733
   31G      C4'  960   3.108   4.092   7.987 -0.0230 -0.6447  0.1034
   31G      H4'  961   3.017   4.141   8.023  0.4918  0.4437 -0.0067
   31G      O4'  962   3.198   4.094   8.096 -0.0667 -0.0494  0.1326
   31G      C1'  963   3.279   4.209   8.086 -0.0688 -0.0767 -0.2069
   31G      H1'  964   3.263   4.266   8.177  1.2884 -0.3550  0.2312
   31G       N9  965   3.423   4.181   8.071 -0.1356 -0.4063 -0.2260
   31G       C8  966   3.483   4.063   8.035  0.0667 -0.2830 -0.2947
   31G       H8  967   3.424   3.975   8.014  0.7360 -1.2585  1.6895
   31G       N7  968   3.611   4.058   8.058 -0.1122 -0.5018  0.6896
   31G       C5  969   3.640   4.187   8.104  0.2202  0.1229 -1.2095
   31G       C6  970   3.762   4.252   8.136  0.2414 -0.0952 -0.8429
   31G       O6  971   3.873   4.200   8.148  0.3267  0.1608 -0.4854
   31G       N1  972   3.751   4.389   8.152  0.1346 -0.2398  0.4566
   31G       H1  973   3.838   4.441   8.161 -0.4400  0.8893 -0.2322
   31G       C2  974   3.630   4.455   8.154  0.0610 -0.3722  0.3982
   31G       N2  975   3.628   4.587   8.180 -0.5817 -0.2093 -0.4309
   31G      H21  976   3.709   4.645   8.192  0.2138 -1.4285  0.2698
   31G      H22  977   3.536   4.629   8.189 -1.0564 -1.1827 -0.4746
   31G       N3  978   3.512   4.394   8.137  0.1598 -0.4665  0.0259
   31G       C4  979   3.526   4.262   8.111 -0.1116 -0.4535 -0.1891
   31G      C3'  980   3.176   4.181   7.883 -0.2807 -0.3427  0.1895
   31G      H3'  981   3.260   4.124   7.843  2.7994  2.0882  2.6052
   31G      C2'  982   3.235   4.294   7.967 -0.7902 -0.0107  0.1031
   31G     H2'1  983   3.318   4.340   7.913 -0.5921 -1.5118 -0.9334
   31G      O2'  984   3.141   4.393   8.001 -0.3574  0.4118  0.0839
   31G     HO'2  985   3.081   4.400   7.926  0.0382  1.7198 -0.1337
   31G      O3'  986   3.096   4.234   7.780 -0.2012 -0.2095  0.1964
   32A        P  987   3.156   4.248   7.631 -0.2040 -0.1462  0.2007
   32A      O1P  988   3.042   4.269   7.540  0.1026  0.3270 -0.0772
   32A      O2P  989   3.239   4.127   7.609 -0.3812 -0.2590  0.1474
   32A      O5'  990   3.243   4.383   7.636 -0.2280 -0.1355  0.3418
   32A      C5'  991   3.183   4.510   7.642 -0.0852 -0.0732  0.4747
   32A     H5'1  992   3.111   4.500   7.724 -0.0468  0.3440  0.5652
   32A     H5'2  993   3.129   4.544   7.554  1.5373 -0.2403 -0.6259
   32A      C4'  994   3.279   4.623   7.677 -0.0808  0.0366  0.1108
   32A      H4'  995   3.212   4.705   7.704  0.4805  1.3605 -2.2224
   32A      O4'  996   3.346   4.592   7.797  0.2726  0.6041  0.0651
   32A      C1'  997   3.479   4.637   7.784  0.3466  0.3459 -0.1044
   32A      H1'  998   3.511   4.689   7.875 -0.7412 -0.1540  0.5795
   32A       N9  999   3.574   4.525   7.774  0.2968  0.2728  0.2211
   32A       C8 1000   3.546   4.391   7.765 -0.1929  0.3278  0.8321
   32A       H8 1001   3.452   4.349   7.733  0.4681 -1.6589  1.3683
   32A       N7 1002   3.654   4.322   7.789  0.0518  0.4768  0.1935
   32A       C5 1003   3.760   4.410   7.809  0.5504  0.0484 -0.5057
   32A       C6 1004   3.895   4.401   7.846  0.2475 -0.0326  0.5984
   32A       N6 1005   3.979   4.297   7.837  0.0645 -0.1047 -0.3799
   32A      H61 1006   3.935   4.206   7.830 -1.2127  0.2047  2.2384
   32A      H62 1007   4.074   4.309   7.869  0.0431  0.0878 -0.3912
   32A       N1 1008   3.962   4.514   7.871  0.2180  0.2774 -0.6817
   32A       C2 1009   3.900   4.630   7.859 -0.1431  0.1597 -0.0103
   32A       H2 1010   3.955   4.722   7.866 -2.6299  1.6614  0.7592
   32A       N3 1011   3.775   4.653   7.821  0.0042  0.2802 -0.4275
   32A       C4 1012   3.707   4.537   7.803  0.4195  0.0062 -0.2240
   32A      C3' 1013   3.376   4.673   7.570 -0.0917 -0.0554  0.0576
   32A      H3' 1014   3.427   4.597   7.511  2.1250 -0.2868  2.1196
   32A      C2' 1015   3.489   4.724   7.659  0.4728 -0.2710 -0.5268
   32A     H2'1 1016   3.584   4.714   7.607  0.2278 -0.4988 -0.9360
   32A      O2' 1017   3.455   4.851   7.712  0.1911 -0.8106  0.6270
   32A     HO'2 1018   3.391   4.887   7.650  1.5196 -0.0371 -0.3403
   32A      O3' 1019   3.321   4.773   7.487  0.0532 -0.2006 -0.2143
   33U        P 1020   3.355   4.787   7.331  0.0653 -0.0646 -0.1984
   33U      O1P 1021   3.264   4.885   7.268 -0.5699 -0.2862  0.3682
   33U      O2P 1022   3.352   4.651   7.273 -0.7239 -0.3115  0.4026
   33U      O5' 1023   3.508   4.836   7.332  0.0233  0.0808 -0.5244
   33U      C5' 1024   3.542   4.967   7.370 -0.3105  0.1882 -0.6030
   33U     H5'1 1025   3.474   4.999   7.450  1.2908 -0.1626  0.9660
   33U     H5'2 1026   3.517   5.037   7.290 -1.1010 -0.3158 -0.8084
   33U      C4' 1027   3.688   4.988   7.409 -0.3217 -0.4549 -0.2109
   33U      H4' 1028   3.706   5.091   7.437 -2.2054 -0.5955  1.8488
   33U      O4' 1029   3.725   4.905   7.518  0.2393  0.0369 -0.0238
   33U      C1' 1030   3.862   4.877   7.505  0.2921 -0.0257  0.6428
   33U      H1' 1031   3.922   4.928   7.580  0.3342  0.2044  0.4557
   33U       N1 1032   3.896   4.734   7.499 -0.0675 -0.1037  0.4428
   33U       C6 1033   3.805   4.639   7.461 -0.2532  0.2744 -0.0667
   33U       H6 1034   3.710   4.666   7.418 -0.1171  1.6885  0.4797
   33U       C5 1035   3.826   4.506   7.467 -0.3724  0.2774  0.4296
   33U       H5 1036   3.746   4.438   7.441 -0.5773  0.0060  1.6898
   33U       C4 1037   3.950   4.456   7.521 -0.2404  0.1171 -0.0123
   33U       O4 1038   3.983   4.340   7.543  0.2453  0.2374 -0.0830
   33U       N3 1039   4.041   4.556   7.556 -0.3062  0.0521  0.3519
   33U       H3 1040   4.128   4.520   7.593 -0.7122 -0.3048  0.9660
   33U       C2 1041   4.022   4.692   7.536  0.2401  0.0236 -0.4273
   33U       O2 1042   4.119   4.765   7.553 -0.1422  0.4529 -0.0897
   33U      C3' 1043   3.780   4.955   7.292 -0.0666 -0.5415  0.0130
   33U      H3' 1044   3.749   4.865   7.239 -1.9366 -0.5887  1.0831
   33U      C2' 1045   3.909   4.936   7.372 -0.2521 -0.0664  0.4327
   33U     H2'1 1046   3.978   4.875   7.314 -0.9386  0.1366 -0.6310
   33U      O2' 1047   3.962   5.064   7.394 -0.0634 -0.0828  0.0806
   33U     HO'2 1048   3.959   5.099   7.304  0.3706  1.2916  0.5708
   33U      O3' 1049   3.784   5.056   7.194 -0.3282 -0.0531  0.5047
   34G        P 1050   3.841   5.032   7.046 -0.0159  0.1704  0.5862
   34G      O1P 1051   3.842   5.168   6.987  0.8955 -0.0016  0.1927
   34G      O2P 1052   3.771   4.921   6.977  0.4529  0.2430 -0.0100
   34G      O5' 1053   3.992   4.989   7.077  0.0386 -0.3106 -0.3136
   34G      C5' 1054   4.098   5.081   7.093 -0.3310  0.0545  0.0310
   34G     H5'1 1055   4.071   5.157   7.166  0.2415 -1.6600  2.1115
   34G     H5'2 1056   4.113   5.128   6.995 -0.3859 -1.5570 -0.7812
   34G      C4' 1057   4.231   5.020   7.133 -0.3217 -0.1526 -0.3129
   34G      H4' 1058   4.299   5.104   7.149 -0.2427 -0.8198  3.9618
   34G      O4' 1059   4.220   4.937   7.246  0.5447  0.3478  0.1525
   34G      C1' 1060   4.310   4.830   7.228 -0.0383 -0.1047 -0.1092
   34G      H1' 1061   4.375   4.835   7.315 -0.0998  1.2053 -0.1208
   34G       N9 1062   4.256   4.693   7.228 -0.2155 -0.0372 -0.2720
   34G       C8 1063   4.125   4.655   7.212 -0.3221  0.2349 -0.0623
   34G       H8 1064   4.044   4.724   7.197  0.3201  0.7841 -1.1281
   34G       N7 1065   4.109   4.527   7.232  0.2944  0.1774  0.0901
   34G       C5 1066   4.236   4.473   7.250  0.2042 -0.4329 -0.9865
   34G       C6 1067   4.284   4.342   7.277 -0.1892 -0.3949 -0.0275
   34G       O6 1068   4.221   4.239   7.301 -0.2613 -0.2680  0.3357
   34G       N1 1069   4.422   4.340   7.293 -0.1245 -0.2247 -0.5087
   34G       H1 1070   4.464   4.249   7.306 -1.1604 -0.9665 -1.9856
   34G       C2 1071   4.504   4.451   7.287 -0.4908  0.1117  0.3794
   34G       N2 1072   4.636   4.433   7.301 -0.4492 -0.0285 -0.1468
   34G      H21 1073   4.678   4.342   7.308  1.2256  0.6435 -0.9165
   34G      H22 1074   4.698   4.513   7.294  2.6384 -2.1661  1.0515
   34G       N3 1075   4.461   4.574   7.256 -0.1081  0.1336 -0.0854
   34G       C4 1076   4.326   4.575   7.241 -0.1730  0.0599  0.4421
   34G      C3' 1077   4.292   4.940   7.018 -0.0996 -0.1157 -0.2216
   34G      H3' 1078   4.213   4.878   6.974  0.0686  0.6588 -1.6631
   34G      C2' 1079   4.390   4.856   7.100  0.2125  0.6573  0.1989
   34G     H2'1 1080   4.407   4.770   7.035 -2.4321  2.0242 -2.5540
   34G      O2' 1081   4.500   4.933   7.142  0.3948  0.3308  0.3210
   34G     HO'2 1082   4.509   5.007   7.081 -0.3163  1.4617  1.5340
   34G      O3' 1083   4.355   5.019   6.920  0.2186 -0.0939 -0.0018
   35C        P 1084   4.393   4.964   6.773  0.0347 -0.1329 -0.0363
   35C      O1P 1085   4.462   5.078   6.708  0.8665 -0.6808 -0.1322
   35C      O2P 1086   4.270   4.899   6.722  0.3308 -0.5271 -0.2542
   35C      O5' 1087   4.505   4.850   6.787 -0.1398 -0.3230 -0.1899
   35C      C5' 1088   4.641   4.880   6.808  0.0853 -0.6318 -1.1531
   35C     H5'1 1089   4.638   4.948   6.894 -0.1339 -1.1691 -0.7301
   35C     H5'2 1090   4.685   4.932   6.723  2.0845 -1.0509 -0.4368
   35C      C4' 1091   4.726   4.758   6.844  0.5116  0.0927  0.3670
   35C      H4' 1092   4.828   4.789   6.868  1.1802 -1.7216  0.0085
   35C      O4' 1093   4.665   4.691   6.953  0.4667  0.4199  0.5460
   35C      C1' 1094   4.696   4.557   6.921 -0.6476  0.2936 -0.0521
   35C      H1' 1095   4.767   4.511   6.990 -0.0473 -0.3348 -1.0701
   35C       N1 1096   4.571   4.479   6.930 -0.0877 -0.5936  0.1258
   35C       C6 1097   4.451   4.538   6.903  0.3523  0.4495  0.4012
   35C       H6 1098   4.440   4.631   6.848 -1.9463 -0.8811 -1.5808
   35C       C5 1099   4.338   4.467   6.923  0.5937  0.1248  0.5973
   35C       H5 1100   4.240   4.501   6.893  1.1659 -0.1952 -1.8217
   35C       C4 1101   4.355   4.331   6.967 -0.3990 -0.1287  0.2281
   35C       N4 1102   4.249   4.254   6.991 -0.0692 -0.5700  0.2803
   35C      H41 1103   4.155   4.279   6.963  0.0370 -1.1503 -0.6367
   35C      H42 1104   4.271   4.159   7.017  0.7821 -0.6104 -0.5470
   35C       N3 1105   4.474   4.270   6.983 -0.4084 -0.2540 -0.1532
   35C       C2 1106   4.585   4.346   6.966 -0.1147 -0.7036 -0.2576
   35C       O2 1107   4.693   4.297   6.998 -0.2042 -0.4638  0.4274
   35C      C3' 1108   4.739   4.668   6.722  0.3856 -0.1069  0.5005
   35C      H3' 1109   4.640   4.655   6.678 -0.2538  2.8609  0.8680
   35C      C2' 1110   4.768   4.534   6.789 -0.2858 -0.3806  0.2607
   35C     H2'1 1111   4.719   4.458   6.729  0.3295 -0.2001 -0.4942
   35C      O2' 1112   4.902   4.495   6.813 -0.0353  0.3084  0.0201
   35C     HO'2 1113   4.921   4.416   6.761 -1.3666  0.0094 -0.0486
   35C      O3' 1114   4.845   4.706   6.638 -0.0256  0.6263  0.3082
   36C        P 1115   4.856   4.663   6.483 -0.2713 -0.0546  0.4781
   36C      O1P 1116   4.979   4.723   6.426 -0.5128 -0.3434 -0.3696
   36C      O2P 1117   4.728   4.693   6.415  0.0892  0.2659 -0.0664
   36C      O5' 1118   4.872   4.503   6.487 -0.3807 -0.0629  0.5763
   36C      C5' 1119   4.997   4.441   6.510 -0.3384 -0.3747 -0.4301
   36C     H5'1 1120   5.036   4.493   6.598 -1.1519 -0.9785  0.3081
   36C     H5'2 1121   5.059   4.453   6.421 -1.9411  0.2202 -1.5054
   36C      C4' 1122   4.985   4.291   6.533  0.3434 -0.3557  0.1049
   36C      H4' 1123   5.083   4.251   6.560  0.9813  0.6166 -0.7224
   36C      O4' 1124   4.892   4.270   6.637  0.0920 -0.3059 -0.1097
   36C      C1' 1125   4.837   4.140   6.623  0.0945 -0.3738  0.4754
   36C      H1' 1126   4.880   4.078   6.701  1.4308 -0.8641 -0.6039
   36C       N1 1127   4.690   4.138   6.638 -0.0464  0.0015 -0.7425
   36C       C6 1128   4.610   4.247   6.623  0.0167  0.1372 -0.0834
   36C       H6 1129   4.659   4.339   6.593  0.4890  0.6778  2.1416
   36C       C5 1130   4.479   4.245   6.653 -0.0627  0.3335 -0.4133
   36C       H5 1131   4.420   4.334   6.639 -1.6997 -0.4429  1.1230
   36C       C4 1132   4.426   4.118   6.694  0.4409  0.1211 -0.4185
   36C       N4 1133   4.297   4.107   6.727  0.4022  0.7075 -0.3728
   36C      H41 1134   4.238   4.185   6.700 -1.0986 -0.2316  0.0637
   36C      H42 1135   4.259   4.020   6.762 -1.6980  1.2493 -1.1867
   36C       N3 1136   4.502   4.009   6.711  0.0299 -0.0667  0.2486
   36C       C2 1137   4.636   4.023   6.692 -0.0304  0.4138  0.1687
   36C       O2 1138   4.707   3.924   6.705 -0.9779 -0.3801 -0.5221
   36C      C3' 1139   4.932   4.211   6.414 -0.0164 -0.1142  0.1024
   36C      H3' 1140   4.844   4.257   6.369  1.1840  0.2819 -1.9395
   36C      C2' 1141   4.875   4.088   6.485 -0.0326  0.0026  0.2961
   36C     H2'1 1142   4.788   4.050   6.432  0.0491 -0.2737  0.3594
   36C      O2' 1143   4.962   3.979   6.507 -0.2518 -0.2819 -0.2219
   36C     HO'2 1144   4.958   3.925   6.428  2.5709 -0.7832 -0.1455
   36C      O3' 1145   5.021   4.171   6.313  0.1155  0.1862  0.1004
   37C        P 1146   4.974   4.137   6.163  0.2801  0.4137 -0.0039
   37C      O1P 1147   5.092   4.133   6.074  0.2434 -0.0855 -0.0335
   37C      O2P 1148   4.859   4.224   6.129  0.7438  0.9272 -0.2850
   37C      O5' 1149   4.919   3.987   6.182  0.2923  0.3208 -0.6900
   37C      C5' 1150   5.000   3.872   6.186 -0.0482  0.0865 -0.4640
   37C     H5'1 1151   5.084   3.897   6.251  0.5823  0.7251 -1.4961
   37C     H5'2 1152   5.044   3.853   6.088 -1.1272 -1.2680 -0.7202
   37C      C4' 1153   4.923   3.750   6.235  0.1113  0.3394  0.4410
   37C      H4' 1154   4.999   3.680   6.271 -0.1413  0.0460  0.4101
   37C      O4' 1155   4.835   3.783   6.340 -0.5499 -0.0518  0.0206
   37C      C1' 1156   4.722   3.700   6.343 -0.3266 -0.3467  0.4400
   37C      H1' 1157   4.735   3.634   6.428 -2.0694 -1.5793 -0.1740
   37C       N1 1158   4.587   3.755   6.367 -0.3763 -0.1181 -0.3219
   37C       C6 1159   4.569   3.889   6.355  0.1015 -0.0340 -0.1402
   37C       H6 1160   4.652   3.944   6.313  0.7044 -1.8640 -1.4598
   37C       C5 1161   4.459   3.961   6.389  0.1361  0.2795 -0.6758
   37C       H5 1162   4.445   4.068   6.389 -0.1104  0.4852  4.5216
   37C       C4 1163   4.351   3.875   6.425  0.0337  0.6231 -0.1524
   37C       N4 1164   4.238   3.932   6.468 -0.3783 -0.3202  0.0403
   37C      H41 1165   4.232   4.032   6.480  1.2163 -0.3336  1.2850
   37C      H42 1166   4.164   3.868   6.495 -0.6117  0.1744  0.6059
   37C       N3 1167   4.360   3.742   6.432  0.1063  0.6203 -0.2841
   37C       C2 1168   4.479   3.680   6.411 -0.1306 -0.0733  0.3703
   37C       O2 1169   4.481   3.558   6.424  0.5285 -0.1110 -0.0300
   37C      C3' 1170   4.831   3.681   6.135  0.8037 -0.1620  0.1452
   37C      H3' 1171   4.775   3.752   6.075 -0.7269 -1.8759 -0.5475
   37C      C2' 1172   4.736   3.603   6.225  0.2787  0.2892 -0.0166
   37C     H2'1 1173   4.640   3.599   6.174  0.0056 -0.8242  0.5545
   37C      O2' 1174   4.786   3.478   6.265 -0.0459  0.0875 -0.2389
   37C     HO'2 1175   4.820   3.443   6.182  0.3009  0.6578 -0.3438
   37C      O3' 1176   4.903   3.601   6.042  0.6072  0.1389 -0.2691
   38U        P 1177   4.839   3.553   5.903  0.0669  0.2539 -0.0634
   38U      O1P 1178   4.940   3.467   5.838 -0.0882  0.2854 -0.3488
   38U      O2P 1179   4.783   3.664   5.821  0.3905  0.4956  0.0403
   38U      O5' 1180   4.712   3.460   5.934  0.3026 -0.2130 -0.4861
   38U      C5' 1181   4.731   3.325   5.970 -0.2833 -0.3540 -0.6827
   38U     H5'1 1182   4.794   3.325   6.059  0.3889 -1.1249 -1.1363
   38U     H5'2 1183   4.780   3.267   5.891 -1.4683 -0.1633 -1.5783
   38U      C4' 1184   4.593   3.273   6.008 -0.1567 -0.2395 -0.0457
   38U      H4' 1185   4.609   3.171   6.041 -1.8623 -0.8135 -0.8398
   38U      O4' 1186   4.541   3.342   6.119 -0.2379 -0.0417 -0.2055
   38U      C1' 1187   4.401   3.346   6.102 -0.2572 -0.0499 -0.0514
   38U      H1' 1188   4.354   3.291   6.184 -2.1719 -1.6602 -2.1150
   38U       N1 1189   4.335   3.478   6.102  0.0827  0.1197  0.3458
   38U       C6 1190   4.393   3.593   6.056 -0.3410  0.1626 -0.0887
   38U       H6 1191   4.487   3.582   6.003 -0.7541  0.0672 -0.8029
   38U       C5 1192   4.339   3.715   6.076  0.2068  0.3204  0.4998
   38U       H5 1193   4.381   3.807   6.038  0.6641  0.9062  2.3612
   38U       C4 1194   4.204   3.725   6.126 -0.3206 -0.6252 -0.6685
   38U       O4 1195   4.138   3.827   6.142  0.3981 -0.2474 -0.0617
   38U       N3 1196   4.146   3.604   6.164 -0.3190 -0.2925  0.4231
   38U       H3 1197   4.048   3.604   6.191  0.2286 -3.7628  3.1657
   38U       C2 1198   4.205   3.480   6.150  0.1640 -0.0819  0.5792
   38U       O2 1199   4.135   3.381   6.168  0.0133  0.0559  0.7462
   38U      C3' 1200   4.489   3.268   5.896 -0.1273  0.0568 -0.0872
   38U      H3' 1201   4.495   3.362   5.841  0.8115  0.5424  0.7974
   38U      C2' 1202   4.361   3.265   5.979  0.1022 -0.7026  0.2528
   38U     H2'1 1203   4.275   3.302   5.922  1.2797 -1.0266 -1.8336
   38U      O2' 1204   4.316   3.139   6.022  0.3091 -1.1632 -0.8362
   38U     HO'2 1205   4.220   3.146   6.025  0.2560 -1.2880  2.7411
   38U      O3' 1206   4.497   3.155   5.811  0.1209  0.2076 -0.2671
   39U        P 1207   4.427   3.161   5.666  0.1276 -0.4184 -0.2964
   39U      O1P 1208   4.463   3.030   5.606  0.6107 -0.3610 -0.1391
   39U      O2P 1209   4.475   3.285   5.602  0.0904 -0.2160  0.0639
   39U      O5' 1210   4.270   3.176   5.697  0.2692 -0.5697  0.5230
   39U      C5' 1211   4.182   3.066   5.703 -0.1509 -0.2451  0.3602
   39U     H5'1 1212   4.223   3.012   5.788  0.7789  0.1996  0.2108
   39U     H5'2 1213   4.187   3.015   5.606 -0.1408 -1.2264  0.8565
   39U      C4' 1214   4.037   3.096   5.738 -0.0511  0.8354 -0.1307
   39U      H4' 1215   3.990   2.999   5.754  0.6570  0.7275  1.4531
   39U      O4' 1216   4.028   3.166   5.860  0.3159  0.5133  0.0840
   39U      C1' 1217   3.911   3.244   5.854 -0.2309 -0.2869  0.2548
   39U      H1' 1218   3.840   3.231   5.937 -1.4818  0.7839 -0.5933
   39U       N1 1219   3.937   3.389   5.862  0.0702 -0.3094 -0.3153
   39U       C6 1220   4.050   3.437   5.803  0.3289  0.0238  0.4344
   39U       H6 1221   4.111   3.363   5.752 -1.8137 -1.6080  0.0894
   39U       C5 1222   4.078   3.569   5.805  0.1689  0.0703 -0.1565
   39U       H5 1223   4.164   3.592   5.744  0.0124 -1.1167 -0.8450
   39U       C4 1224   3.989   3.669   5.860 -0.0781 -0.1105 -0.2257
   39U       O4 1225   4.018   3.788   5.873 -0.3321 -0.0274 -0.4138
   39U       N3 1226   3.876   3.613   5.919 -0.1346 -0.1834 -0.4028
   39U       H3 1227   3.812   3.678   5.962  2.0001  2.3090 -0.7060
   39U       C2 1228   3.845   3.478   5.914  0.4716 -0.3638  0.5040
   39U       O2 1229   3.735   3.439   5.951  0.4487 -0.2720  0.5323
   39U      C3' 1230   3.957   3.173   5.633  0.3618  0.7038 -0.5454
   39U      H3' 1231   4.007   3.264   5.600  0.7719  1.0969  1.0931
   39U      C2' 1232   3.840   3.209   5.724  0.3716 -0.6117  0.0120
   39U     H2'1 1233   3.777   3.290   5.688 -0.9712 -2.2200 -1.4622
   39U      O2' 1234   3.751   3.106   5.762  0.0825 -0.2424  0.3523
   39U     HO'2 1235   3.665   3.135   5.730 -0.8562 -0.1920  2.7284
   39U      O3' 1236   3.933   3.091   5.521 -0.0144 -0.2360  0.2103
   40C        P 1237   3.867   3.143   5.383  0.0357  0.1614  0.3365
   40C      O1P 1238   3.842   3.020   5.305  0.0810  0.0779  0.4524
   40C      O2P 1239   3.959   3.246   5.330 -0.2720  0.1834 -0.1534
   40C      O5' 1240   3.723   3.202   5.422 -0.0613 -0.0017  0.2247
   40C      C5' 1241   3.614   3.117   5.451 -0.4488  0.1985 -0.6110
   40C     H5'1 1242   3.638   3.043   5.527 -0.9851  0.1196 -0.5180
   40C     H5'2 1243   3.592   3.053   5.365  1.2106 -0.5482 -0.5142
   40C      C4' 1244   3.500   3.213   5.485 -0.3238  0.2039 -0.2037
   40C      H4' 1245   3.415   3.153   5.518 -0.3180  0.2879 -0.0372
   40C      O4' 1246   3.534   3.283   5.602 -0.8482 -0.0504  0.1003
   40C      C1' 1247   3.467   3.406   5.598 -0.2382  0.2825  0.0498
   40C      H1' 1248   3.401   3.417   5.685  0.2893 -0.1244  0.5084
   40C       N1 1249   3.561   3.520   5.601 -0.0861  0.1533  0.2205
   40C       C6 1250   3.689   3.513   5.556  0.0618  0.0341  0.6530
   40C       H6 1251   3.718   3.423   5.502 -1.1594 -1.7416  2.8053
   40C       C5 1252   3.777   3.615   5.563  0.0202  0.1391 -0.2699
   40C       H5 1253   3.880   3.604   5.531  0.3807 -0.8520  1.1355
   40C       C4 1254   3.728   3.731   5.631  0.3512 -0.3423  0.8129
   40C       N4 1255   3.809   3.838   5.632  0.1050 -0.1328 -0.1547
   40C      H41 1256   3.906   3.835   5.603  0.7708 -0.1440  1.9424
   40C      H42 1257   3.777   3.924   5.674 -1.7088 -0.8679  0.0619
   40C       N3 1258   3.601   3.744   5.671  0.2827  0.0069  0.4893
   40C       C2 1259   3.515   3.640   5.655  0.0627  0.2334  0.1687
   40C       O2 1260   3.399   3.654   5.691 -0.2772 -0.7149 -0.5131
   40C      C3' 1261   3.453   3.315   5.382  0.0890  0.5966 -0.0039
   40C      H3' 1262   3.541   3.364   5.340 -0.5605  2.6764  0.9332
   40C      C2' 1263   3.377   3.409   5.475 -0.5316 -0.1451  0.2501
   40C     H2'1 1264   3.365   3.507   5.429  0.0332  0.0766  0.5659
   40C      O2' 1265   3.254   3.349   5.507 -0.8877  0.3306 -0.2083
   40C     HO'2 1266   3.209   3.333   5.424 -0.6871 -0.8127 -0.1020
   40C      O3' 1267   3.364   3.257   5.290  0.2411  0.2231  0.0816
   41C        P 1268   3.346   3.311   5.139 -0.0446  0.1181  0.0775
   41C      O1P 1269   3.255   3.220   5.067  0.5134 -0.0401 -0.4398
   41C      O2P 1270   3.484   3.304   5.086  0.1268 -0.7338  0.6157
   41C      O5' 1271   3.286   3.459   5.150  0.1397  0.2148 -0.2103
   41C      C5' 1272   3.154   3.472   5.199  0.1001  0.1221 -0.2949
   41C     H5'1 1273   3.146   3.392   5.273  1.3812 -2.7274 -3.0032
   41C     H5'2 1274   3.086   3.429   5.125 -0.8154 -0.9168  1.0965
   41C      C4' 1275   3.111   3.611   5.245 -0.0386  0.0464 -0.1951
   41C      H4' 1276   3.014   3.603   5.294  0.5608  0.1794  1.0391
   41C      O4' 1277   3.190   3.651   5.355 -0.1395 -0.0944 -0.0715
   41C      C1' 1278   3.190   3.792   5.359 -0.1280 -0.0878 -0.3216
   41C      H1' 1279   3.147   3.824   5.453 -0.6209 -2.3520  0.2991
   41C       N1 1280   3.325   3.851   5.349 -0.2950  0.1383 -1.4716
   41C       C6 1281   3.426   3.771   5.303  0.4398  0.2160 -0.0572
   41C       H6 1282   3.401   3.678   5.253  1.0049  1.2805 -2.4573
   41C       C5 1283   3.555   3.810   5.311  0.4212  0.3441 -0.3602
   41C       H5 1284   3.634   3.747   5.273  1.9247  2.1965 -0.4459
   41C       C4 1285   3.580   3.933   5.379 -0.0554  0.3274 -0.1494
   41C       N4 1286   3.705   3.980   5.384 -0.0259  0.2036  0.3967
   41C      H41 1287   3.776   3.929   5.333 -0.1383  1.5631 -1.2228
   41C      H42 1288   3.721   4.075   5.417  1.7521  0.3213 -0.6958
   41C       N3 1289   3.483   4.018   5.416 -0.5414 -0.2420 -0.1083
   41C       C2 1290   3.355   3.973   5.406 -0.4748 -0.4537 -0.0424
   41C       O2 1291   3.261   4.042   5.446  0.3030  0.3781  0.3902
   41C      C3' 1292   3.115   3.726   5.145  0.6006  0.0791 -0.1342
   41C      H3' 1293   3.215   3.745   5.106  0.8802  0.4505  0.7422
   41C      C2' 1294   3.100   3.840   5.245  0.2396  0.3077 -0.4489
   41C     H2'1 1295   3.141   3.931   5.201 -0.4378  0.1313 -1.4771
   41C      O2' 1296   2.971   3.860   5.300  0.5436  0.4448  0.2225
   41C     HO'2 1297   2.904   3.853   5.232  1.3600 -0.7248 -0.5077
   41C      O3' 1298   3.011   3.728   5.050  0.0687 -0.0042  0.4432
   42G        P 1299   3.026   3.798   4.906 -0.2016 -0.0526  0.3908
   42G      O1P 1300   2.898   3.785   4.834  0.0997  0.2833 -0.2118
   42G      O2P 1301   3.154   3.745   4.854 -0.2742  0.1095  0.0434
   42G      O5' 1302   3.042   3.956   4.935 -0.0405  0.0445 -0.2129
   42G      C5' 1303   2.932   4.031   4.981  0.0777 -0.0758  0.2761
   42G     H5'1 1304   2.904   3.989   5.077 -0.6493  1.2586  0.6727
   42G     H5'2 1305   2.858   4.024   4.902  2.0604 -2.4925 -1.5340
   42G      C4' 1306   2.974   4.173   5.019 -0.2383  0.1081 -0.0602
   42G      H4' 1307   2.887   4.231   5.051 -0.2397  1.0006 -1.5662
   42G      O4' 1308   3.069   4.166   5.123  0.3723  0.1591 -0.6055
   42G      C1' 1309   3.150   4.280   5.106  0.3021  0.2212 -0.5298
   42G      H1' 1310   3.137   4.343   5.194 -0.1662 -1.2176  0.4822
   42G       N9 1311   3.290   4.232   5.110  0.2641  0.1559  0.1265
   42G       C8 1312   3.335   4.105   5.087 -0.3139 -0.1656  0.7214
   42G       H8 1313   3.265   4.023   5.080  1.7713 -1.9866  0.1973
   42G       N7 1314   3.465   4.094   5.094 -0.2161  0.3706 -0.1191
   42G       C5 1315   3.512   4.224   5.107  0.2756  0.1538  0.3207
   42G       C6 1316   3.644   4.271   5.125  0.2960  0.0943  0.3275
   42G       O6 1317   3.751   4.211   5.132  0.0932 -0.4547 -1.0715
   42G       N1 1318   3.646   4.409   5.133 -0.1278  0.1510 -0.5446
   42G       H1 1319   3.727   4.459   5.167  0.3515 -1.6105  1.0545
   42G       C2 1320   3.530   4.484   5.138 -0.1938  0.0194 -0.1113
   42G       N2 1321   3.546   4.617   5.152 -0.2617 -0.0084  0.2474
   42G      H21 1322   3.639   4.652   5.165  0.0207 -0.1091 -1.2782
   42G      H22 1323   3.468   4.676   5.126 -0.4141  0.9093  2.5275
   42G       N3 1324   3.403   4.442   5.132 -0.2545  0.2455 -0.3970
   42G       C4 1325   3.404   4.307   5.121  0.2524  0.2426 -0.3241
   42G      C3' 1326   3.036   4.245   4.899 -0.2786  0.2272 -0.0091
   42G      H3' 1327   3.104   4.184   4.840 -0.3640 -0.2687  0.3984
   42G      C2' 1328   3.114   4.351   4.976  0.6193  0.0794 -0.6986
   42G     H2'1 1329   3.198   4.381   4.914  1.5426 -0.5150  0.2187
   42G      O2' 1330   3.036   4.465   5.004  0.4038 -0.2070 -0.1004
   42G     HO'2 1331   2.958   4.459   4.948 -0.4534  1.3720  0.8539
   42G      O3' 1332   2.940   4.311   4.819 -0.3510  0.2578  0.1025
   43U        P 1333   2.971   4.352   4.667 -0.3681 -0.0568  0.0133
   43U      O1P 1334   2.858   4.428   4.608 -0.3196 -0.1004 -0.1357
   43U      O2P 1335   3.021   4.231   4.598 -0.0323  0.0120  0.1345
   43U      O5' 1336   3.086   4.465   4.679 -0.2850 -0.1510  0.1074
   43U      C5' 1337   3.044   4.597   4.701  0.2054  0.0109  0.0662
   43U     H5'1 1338   2.985   4.604   4.792  2.2751  0.9635  1.4119
   43U     H5'2 1339   2.983   4.646   4.625 -1.4928 -1.6406  0.3086
   43U      C4' 1340   3.165   4.686   4.728  0.2220 -0.0626  0.2359
   43U      H4' 1341   3.144   4.783   4.774  0.4672 -0.3294  0.9200
   43U      O4' 1342   3.241   4.619   4.825  0.3987  0.2933  0.3466
   43U      C1' 1343   3.374   4.661   4.801  0.5027 -0.0919  0.2381
   43U      H1' 1344   3.406   4.725   4.884  1.5828 -0.9891  0.5363
   43U       N1 1345   3.473   4.552   4.803  0.2200 -0.3495  0.3981
   43U       C6 1346   3.430   4.425   4.779  0.1006 -0.1814 -0.3099
   43U       H6 1347   3.327   4.398   4.765  0.4981 -1.5007 -0.8977
   43U       C5 1348   3.517   4.322   4.775 -0.4211 -0.6453  0.1696
   43U       H5 1349   3.485   4.220   4.761 -1.0241 -0.5839  1.0157
   43U       C4 1350   3.659   4.347   4.790 -0.5860  0.2652  0.2445
   43U       O4 1351   3.749   4.264   4.804 -0.4016  0.5105  0.5060
   43U       N3 1352   3.691   4.476   4.831 -0.1845 -0.0386  0.9020
   43U       H3 1353   3.789   4.492   4.846  0.3246 -0.0155 -1.8662
   43U       C2 1354   3.605   4.585   4.832  0.0602  0.1617  0.5506
   43U       O2 1355   3.649   4.697   4.851  0.6773 -0.0474  0.3520
   43U      C3' 1356   3.249   4.695   4.601 -0.2353  0.2172 -0.0512
   43U      H3' 1357   3.262   4.595   4.560 -0.5141  0.5035 -0.8526
   43U      C2' 1358   3.379   4.737   4.669 -0.2868 -0.0587  0.2205
   43U     H2'1 1359   3.464   4.701   4.611  0.1474 -1.5839  1.7179
   43U      O2' 1360   3.393   4.876   4.692  0.2968 -0.1577  0.4954
   43U     HO'2 1361   3.469   4.902   4.640  0.4541  1.4695  1.4675
   43U      O3' 1362   3.201   4.787   4.506 -0.0834  0.1462 -0.1974
   44A        P 1363   3.270   4.797   4.360 -0.1122  0.4097 -0.1924
   44A      O1P 1364   3.200   4.898   4.278 -0.2143  0.4245 -0.0883
   44A      O2P 1365   3.274   4.660   4.306  0.3733  0.1653  0.4534
   44A      O5' 1366   3.422   4.841   4.393 -0.2320  0.5793  0.1477
   44A      C5' 1367   3.459   4.976   4.395 -0.4471  0.6568 -0.5268
   44A     H5'1 1368   3.398   5.036   4.463 -0.2902  0.2467 -0.0174
   44A     H5'2 1369   3.443   5.019   4.296 -0.1211  1.9194 -0.0589
   44A      C4' 1370   3.604   5.010   4.430 -0.3216 -0.3985 -0.0023
   44A      H4' 1371   3.615   5.118   4.439 -0.9620 -0.3892  0.8455
   44A      O4' 1372   3.641   4.942   4.548 -0.1580 -0.2132  0.0536
   44A      C1' 1373   3.779   4.915   4.531 -0.1336 -0.1355  0.1257
   44A      H1' 1374   3.828   4.969   4.612 -3.0923  2.7555  0.2243
   44A       N9 1375   3.799   4.769   4.526  0.1264 -0.1018  0.1798
   44A       C8 1376   3.705   4.675   4.495 -0.2426  0.2423  0.2462
   44A       H8 1377   3.600   4.695   4.476  0.6033  2.3945 -2.8370
   44A       N7 1378   3.752   4.554   4.507 -0.4961  0.1112 -0.0525
   44A       C5 1379   3.885   4.566   4.544 -0.6735 -0.3636  0.7895
   44A       C6 1380   3.991   4.477   4.568 -0.0262  0.3340  0.5946
   44A       N6 1381   3.985   4.343   4.572  0.4279  0.2883 -0.1164
   44A      H61 1382   3.900   4.291   4.555  1.0064 -0.8408  0.3622
   44A      H62 1383   4.062   4.284   4.598 -1.1475 -0.3976  3.5818
   44A       N1 1384   4.115   4.523   4.590  0.2423  0.0814 -0.3289
   44A       C2 1385   4.126   4.655   4.598 -0.4449  0.1325 -0.1340
   44A       H2 1386   4.227   4.691   4.614 -0.1873 -1.5396  2.6793
   44A       N3 1387   4.038   4.752   4.575 -0.2029  0.2773 -0.4625
   44A       C4 1388   3.915   4.700   4.552  0.1173 -0.4334 -0.6123
   44A      C3' 1389   3.698   4.964   4.319 -0.1472  0.1688 -0.0920
   44A      H3' 1390   3.678   4.868   4.271 -2.3365  1.3134 -1.6360
   44A      C2' 1391   3.829   4.970   4.397 -0.1561 -0.4672 -0.0219
   44A     H2'1 1392   3.902   4.908   4.346  0.6986  1.5285 -1.3261
   44A      O2' 1393   3.880   5.100   4.420 -0.1040 -0.4357 -0.3162
   44A     HO'2 1394   3.975   5.092   4.410 -0.1666  0.3292 -1.6841
   44A      O3' 1395   3.698   5.056   4.212  0.3479  0.3141  0.0299
   45G        P 1396   3.727   5.013   4.060 -0.2298 -0.4247  0.1259
   45G      O1P 1397   3.704   5.138   3.984 -0.3497 -0.4533  0.1140
   45G      O2P 1398   3.649   4.893   4.021 -0.6056 -0.0034 -0.4340
   45G      O5' 1399   3.886   4.992   4.064 -0.0961  0.4144 -0.5307
   45G      C5' 1400   3.977   5.095   4.096  0.2850 -0.3296  0.8596
   45G     H5'1 1401   3.946   5.160   4.178  1.7864 -0.3823  1.4948
   45G     H5'2 1402   3.990   5.151   4.003  0.0623 -0.7704  0.5567
   45G      C4' 1403   4.121   5.052   4.120  0.4077 -0.2985  0.1963
   45G      H4' 1404   4.184   5.137   4.149 -2.5262  1.7858  0.9089
   45G      O4' 1405   4.114   4.976   4.238  0.3757 -0.2161  0.2475
   45G      C1' 1406   4.208   4.871   4.231  0.0647 -0.4789  0.0271
   45G      H1' 1407   4.277   4.867   4.315 -0.5867 -1.2389  0.5471
   45G       N9 1408   4.152   4.734   4.223 -0.0787 -0.4121 -0.1232
   45G       C8 1409   4.021   4.698   4.205 -0.2006 -0.1448  0.2048
   45G       H8 1410   3.947   4.772   4.182  1.4708  1.5405  0.0201
   45G       N7 1411   4.000   4.569   4.217 -0.5556 -0.1369 -0.3126
   45G       C5 1412   4.126   4.520   4.249 -0.4653  0.3413  0.0736
   45G       C6 1413   4.168   4.387   4.277  0.0084  0.5828  0.5291
   45G       O6 1414   4.103   4.283   4.284  1.1328 -0.1575  0.2028
   45G       N1 1415   4.305   4.372   4.286 -0.0224 -0.0032  0.0875
   45G       H1 1416   4.344   4.282   4.308  0.8844  0.1322 -0.8648
   45G       C2 1417   4.391   4.480   4.293 -0.0659  0.0287  0.1167
   45G       N2 1418   4.521   4.459   4.316  0.0476  0.5206 -0.0456
   45G      H21 1419   4.550   4.362   4.315 -0.6039  0.2811  1.3629
   45G      H22 1420   4.589   4.533   4.311 -1.9054  2.6476  2.2397
   45G       N3 1421   4.353   4.608   4.276  0.3784  0.0540 -0.7495
   45G       C4 1422   4.222   4.618   4.246  0.1216 -0.2233  0.2292
   45G      C3' 1423   4.194   4.972   4.012 -0.1871 -0.1473 -0.3208
   45G      H3' 1424   4.111   4.918   3.965  0.0128  1.1168 -2.2415
   45G      C2' 1425   4.285   4.887   4.100  0.1005  0.6762  0.1855
   45G     H2'1 1426   4.317   4.796   4.050 -1.3262 -0.0555  0.5712
   45G      O2' 1427   4.397   4.967   4.131  0.3073  0.3851  0.1912
   45G     HO'2 1428   4.404   5.042   4.072  0.6755 -0.2361 -0.5749
   45G      O3' 1429   4.271   5.055   3.928  0.1025 -0.1625 -0.0712
   46A        P 1430   4.306   5.003   3.781 -0.0240  0.3851 -0.3005
   46A      O1P 1431   4.378   5.114   3.714  0.2231  0.5624  0.2502
   46A      O2P 1432   4.178   4.963   3.719  0.0152 -0.3822  0.1007
   46A      O5' 1433   4.411   4.880   3.791  0.0525  0.4142 -0.7277
   46A      C5' 1434   4.548   4.902   3.813 -0.1320  0.6725  0.2176
   46A     H5'1 1435   4.567   4.968   3.897 -1.9464  1.5530 -0.0140
   46A     H5'2 1436   4.587   4.946   3.722  0.5051 -0.6440 -0.1814
   46A      C4' 1437   4.616   4.768   3.842 -0.3326  0.5405  0.0854
   46A      H4' 1438   4.720   4.795   3.860 -1.2765  2.5994  3.5196
   46A      O4' 1439   4.560   4.701   3.953 -0.2782 -0.2208 -0.3410
   46A      C1' 1440   4.592   4.566   3.928  0.1570 -0.2682  0.4355
   46A      H1' 1441   4.661   4.534   4.005  1.9865  0.7929 -0.7024
   46A       N9 1442   4.470   4.483   3.935 -0.3589  0.4539  0.1262
   46A       C8 1443   4.341   4.525   3.913 -0.4428  0.0432 -0.1865
   46A       H8 1444   4.330   4.625   3.873 -2.2876 -0.3925 -0.8463
   46A       N7 1445   4.247   4.441   3.944 -0.0871 -0.1040  0.4895
   46A       C5 1446   4.325   4.331   3.981  0.2489  0.0240  0.1617
   46A       C6 1447   4.288   4.202   4.022 -0.2747 -0.0096 -0.4047
   46A       N6 1448   4.164   4.149   4.022 -0.2780 -0.0079  0.4037
   46A      H61 1449   4.089   4.210   3.996  1.2876  1.3114 -1.3005
   46A      H62 1450   4.152   4.066   4.078 -0.7727 -1.0735 -1.2169
   46A       N1 1451   4.382   4.109   4.040 -0.1387  0.1752 -0.1581
   46A       C2 1452   4.507   4.151   4.039 -0.0894  0.0378  0.1152
   46A       H2 1453   4.581   4.080   4.074 -0.4946  0.2884  1.5481
   46A       N3 1454   4.560   4.270   4.017 -0.0238 -0.0899 -0.4415
   46A       C4 1455   4.460   4.354   3.981  0.1871  0.3970  0.0874
   46A      C3' 1456   4.599   4.674   3.723 -0.5061  0.1804  0.3924
   46A      H3' 1457   4.493   4.658   3.707 -0.3073 -1.2117  0.3017
   46A      C2' 1458   4.665   4.556   3.794 -0.2757  0.1676  0.1606
   46A     H2'1 1459   4.647   4.462   3.742  0.4250  0.2826 -0.3052
   46A      O2' 1460   4.804   4.569   3.815 -0.1433 -0.5076 -0.2738
   46A     HO'2 1461   4.824   4.502   3.881  0.2156  1.1920  1.4064
   46A      O3' 1462   4.684   4.714   3.618 -0.6550 -0.0093  0.2002
   47G        P 1463   4.673   4.635   3.478 -0.0191 -0.1500  0.2252
   47G      O1P 1464   4.781   4.682   3.389 -0.1955 -0.0103  0.0859
   47G      O2P 1465   4.535   4.652   3.427  0.1727 -0.6137 -0.4567
   47G      O5' 1466   4.697   4.478   3.506  0.1949 -0.1030  0.3106
   47G      C5' 1467   4.825   4.419   3.509  0.3483  0.1635 -0.6075
   47G     H5'1 1468   4.891   4.478   3.572 -0.0543  1.8128 -1.6740
   47G     H5'2 1469   4.864   4.428   3.408  1.5840  1.2108 -0.0649
   47G      C4' 1470   4.842   4.274   3.555 -0.3564  0.2510 -0.0619
   47G      H4' 1471   4.947   4.256   3.576 -1.0325 -0.7018  2.9921
   47G      O4' 1472   4.770   4.251   3.674 -0.0939 -0.3066 -0.0111
   47G      C1' 1473   4.734   4.115   3.684 -0.0732 -0.3425 -0.4250
   47G      H1' 1474   4.767   4.064   3.775  0.2502  0.1655 -0.2591
   47G       N9 1475   4.586   4.108   3.686 -0.0662 -0.4399 -0.3030
   47G       C8 1476   4.505   4.213   3.654  0.4554 -0.0984 -0.5055
   47G       H8 1477   4.544   4.304   3.610  2.5810  0.1476  1.6922
   47G       N7 1478   4.380   4.183   3.670  0.3462  0.4048 -0.4038
   47G       C5 1479   4.379   4.054   3.720  0.2837  0.3047 -0.6624
   47G       C6 1480   4.270   3.967   3.746  0.3100  0.3327 -0.4548
   47G       O6 1481   4.149   3.991   3.746  0.2679  0.1292  0.3214
   47G       N1 1482   4.306   3.838   3.784  0.5630  0.4486 -0.3035
   47G       H1 1483   4.240   3.771   3.821  1.2231  0.6792  1.3966
   47G       C2 1484   4.438   3.799   3.782  0.3841 -0.1839  0.0027
   47G       N2 1485   4.472   3.677   3.827  0.4219 -0.0793  0.2613
   47G      H21 1486   4.397   3.612   3.842  0.0098  0.8532  2.7085
   47G      H22 1487   4.567   3.651   3.809  1.1285  2.0559  0.5906
   47G       N3 1488   4.543   3.874   3.744  0.3409 -0.3421 -0.4272
   47G       C4 1489   4.506   4.002   3.722  0.0727 -0.2126  0.7134
   47G      C3' 1490   4.787   4.167   3.462 -0.0952 -0.0873  0.1719
   47G      H3' 1491   4.685   4.195   3.435 -0.8051 -1.5883  1.1917
   47G      C2' 1492   4.779   4.046   3.555 -0.8008 -0.6095 -0.5459
   47G     H2'1 1493   4.709   3.972   3.518 -1.1676  0.3213 -1.7726
   47G      O2' 1494   4.905   3.989   3.583 -0.3341  0.6386  0.0107
   47G     HO'2 1495   4.970   4.022   3.521 -2.3155  2.5750 -1.1764
   47G      O3' 1496   4.875   4.147   3.353 -0.2791 -0.4952  0.0952
   48U        P 1497   4.823   4.108   3.206 -0.0885  0.0828 -0.1283
   48U      O1P 1498   4.938   4.109   3.113  0.5239  0.2138  0.6181
   48U      O2P 1499   4.703   4.188   3.174  0.2056  0.4845 -0.2437
   48U      O5' 1500   4.769   3.958   3.231 -0.0750  0.1657  0.4002
   48U      C5' 1501   4.860   3.850   3.230 -0.4134 -0.1190  0.0748
   48U     H5'1 1502   4.941   3.884   3.295  0.0719  0.0894 -0.6373
   48U     H5'2 1503   4.901   3.835   3.131  0.9968  0.3418  0.5609
   48U      C4' 1504   4.794   3.721   3.279  0.0454 -0.2861  0.2534
   48U      H4' 1505   4.874   3.647   3.287 -1.5887 -2.0098  1.2550
   48U      O4' 1506   4.728   3.746   3.401  0.6291 -0.0717  0.5323
   48U      C1' 1507   4.613   3.665   3.411  0.1709  0.5170  0.0753
   48U      H1' 1508   4.614   3.596   3.495  0.1152 -2.0984 -1.9417
   48U       N1 1509   4.486   3.741   3.416 -0.1597 -0.0020 -0.3031
   48U       C6 1510   4.483   3.875   3.389 -0.1934  0.1300  0.3520
   48U       H6 1511   4.577   3.918   3.357  0.7448 -1.3604  0.9834
   48U       C5 1512   4.371   3.948   3.403 -0.5337 -0.1906 -0.6213
   48U       H5 1513   4.369   4.053   3.376 -1.6411  0.2551  1.0250
   48U       C4 1514   4.248   3.888   3.449 -0.2247 -0.2566  0.1345
   48U       O4 1515   4.141   3.947   3.462  0.2397  0.5901  0.2081
   48U       N3 1516   4.263   3.752   3.469 -0.4732 -0.4392 -0.8688
   48U       H3 1517   4.181   3.702   3.500 -0.6602  0.2140 -0.2882
   48U       C2 1518   4.373   3.669   3.449 -0.0280 -0.0796 -0.0083
   48U       O2 1519   4.363   3.547   3.462 -0.6920 -0.1260 -0.8084
   48U      C3' 1520   4.685   3.681   3.181  0.1120  0.4903 -0.1502
   48U      H3' 1521   4.620   3.763   3.150 -0.4091  1.4176  3.0279
   48U      C2' 1522   4.614   3.588   3.279  0.3313  0.5444  0.0602
   48U     H2'1 1523   4.513   3.565   3.244  0.8009  1.4248 -2.0363
   48U      O2' 1524   4.685   3.466   3.285 -0.1719  0.2657  0.4704
   48U     HO'2 1525   4.746   3.473   3.211 -1.0016  1.1138 -0.1482
   48U      O3' 1526   4.741   3.603   3.078  0.1130  0.4470 -0.1172
   49C        P 1527   4.677   3.600   2.930 -0.0680 -0.0889 -0.0295
   49C      O1P 1528   4.777   3.541   2.837 -0.0877 -0.0005 -0.1075
   49C      O2P 1529   4.624   3.734   2.896  0.2862 -0.0036 -0.2522
   49C      O5' 1530   4.547   3.506   2.937 -0.2414  0.0487 -1.1272
   49C      C5' 1531   4.561   3.366   2.951  0.2039  0.1928 -0.0112
   49C     H5'1 1532   4.639   3.350   3.025 -0.4337  0.1284  0.6599
   49C     H5'2 1533   4.586   3.338   2.849 -3.2578  3.3778 -1.9538
   49C      C4' 1534   4.433   3.292   2.988 -0.1995  0.5432 -0.6956
   49C      H4' 1535   4.461   3.188   3.005 -0.2497  0.4954 -0.9034
   49C      O4' 1536   4.393   3.339   3.114 -0.4953  0.2382 -0.6729
   49C      C1' 1537   4.252   3.341   3.117 -0.4959 -0.0075 -0.4449
   49C      H1' 1538   4.218   3.291   3.207 -0.3126  1.7029  0.6340
   49C       N1 1539   4.193   3.476   3.131 -0.2375  0.0906 -0.2933
   49C       C6 1540   4.272   3.584   3.107  0.3790 -0.2953 -0.0222
   49C       H6 1541   4.378   3.576   3.086  0.4103 -2.3111  0.6762
   49C       C5 1542   4.223   3.707   3.131  0.2751 -0.3967  0.2912
   49C       H5 1543   4.297   3.785   3.123 -0.1216 -0.0176  0.2468
   49C       C4 1544   4.085   3.720   3.170 -0.0966 -0.3390 -1.0055
   49C       N4 1545   4.025   3.834   3.204  0.4349 -0.1542 -0.6795
   49C      H41 1546   4.070   3.923   3.188 -1.3438  1.1471  1.0180
   49C      H42 1547   3.933   3.823   3.244 -0.3467  0.3669 -2.2775
   49C       N3 1548   4.011   3.611   3.193 -0.2844 -0.0710 -0.3256
   49C       C2 1549   4.062   3.486   3.175 -0.2422 -0.0610 -0.2719
   49C       O2 1550   3.991   3.389   3.201 -0.3057  0.0216 -0.1356
   49C      C3' 1551   4.309   3.297   2.899 -0.6073 -0.5112 -0.2095
   49C      H3' 1552   4.298   3.402   2.870 -0.6384 -0.3663  0.3221
   49C      C2' 1553   4.195   3.267   2.996 -0.7713 -0.0891 -0.2647
   49C     H2'1 1554   4.102   3.306   2.957 -0.5790  0.7968  0.1504
   49C      O2' 1555   4.189   3.133   3.041  0.1601  0.1664  0.6643
   49C     HO'2 1556   4.256   3.077   3.000 -1.5222 -1.7413  0.3619
   49C      O3' 1557   4.317   3.206   2.792 -0.2891 -0.4862 -0.2077
   50G        P 1558   4.226   3.226   2.661  0.0878 -0.1446 -0.4166
   50G      O1P 1559   4.270   3.111   2.578  0.8275  0.2897 -0.6419
   50G      O2P 1560   4.240   3.366   2.614  0.3223 -0.1091 -0.2403
   50G      O5' 1561   4.073   3.211   2.708  0.1870  0.6155  0.1671
   50G      C5' 1562   4.015   3.086   2.740  0.3183  0.6727  0.6398
   50G     H5'1 1563   4.074   3.037   2.817  0.9482 -0.5543 -0.5776
   50G     H5'2 1564   4.012   3.017   2.655 -0.7939  2.3578 -0.7700
   50G      C4' 1565   3.871   3.106   2.785 -0.2057 -0.0422 -0.6631
   50G      H4' 1566   3.826   3.011   2.812  0.4337 -0.0372  0.5029
   50G      O4' 1567   3.869   3.202   2.888  0.2319 -0.2129 -0.4950
   50G      C1' 1568   3.752   3.280   2.881  0.3275 -0.0337 -0.1393
   50G      H1' 1569   3.688   3.261   2.968  0.8029 -1.8008 -0.1338
   50G       N9 1570   3.787   3.423   2.874 -0.2775  0.1529  0.5133
   50G       C8 1571   3.905   3.488   2.851 -0.1786 -0.1288  0.2243
   50G       H8 1572   3.999   3.448   2.815 -0.6061 -1.3433  0.3914
   50G       N7 1573   3.894   3.617   2.856  0.1986 -0.0861 -0.0077
   50G       C5 1574   3.765   3.639   2.903  0.1664  0.4416 -0.3327
   50G       C6 1575   3.695   3.756   2.944 -0.4078 -0.0790  0.1888
   50G       O6 1576   3.735   3.872   2.948 -0.4827 -0.0621  0.4279
   50G       N1 1577   3.561   3.738   2.974 -0.4828  0.0751 -0.0563
   50G       H1 1578   3.501   3.811   3.008 -1.1888 -0.9867  1.0611
   50G       C2 1579   3.501   3.613   2.974  0.1590 -0.2383  0.1480
   50G       N2 1580   3.372   3.600   3.006  0.2226 -0.0434  0.4884
   50G      H21 1581   3.313   3.675   3.040 -0.6462 -0.8886  0.9323
   50G      H22 1582   3.342   3.504   3.000  0.9299 -0.2640  0.4712
   50G       N3 1583   3.567   3.501   2.942  0.0820 -0.2364 -0.0174
   50G       C4 1584   3.697   3.520   2.910  0.0039  0.5628  0.1204
   50G      C3' 1585   3.785   3.173   2.678 -0.0536  0.4967 -0.4548
   50G      H3' 1586   3.846   3.253   2.637  0.1196  1.7583  2.0655
   50G      C2' 1587   3.671   3.229   2.762  0.0089 -0.3218  0.1967
   50G     H2'1 1588   3.626   3.318   2.717 -3.1796 -1.4254  0.8832
   50G      O2' 1589   3.575   3.135   2.806 -0.2606 -0.0387  0.2232
   50G     HO'2 1590   3.541   3.089   2.729  0.0432 -0.3440  0.2724
   50G      O3' 1591   3.739   3.091   2.573 -0.2047  0.0326 -0.0332
   50G      H3T 1592   3.691   3.011   2.597  1.5991 -1.0989  0.0037
   51SOL     OW 1593   1.096   7.351   1.736  0.0713  0.5747 -0.8762
   51SOL    HW1 1594   1.007   7.318   1.747 -0.5754  2.8355  2.0398
   51SOL    HW2 1595   1.150   7.273   1.730 -1.8897 -0.9080 -0.3678
   52SOL     OW 1596   0.519   6.880   0.496 -0.3424  0.1958 -0.3132
   52SOL    HW1 1597   0.504   6.822   0.571 -1.1162 -0.6009 -1.0603
   52SOL    HW2 1598   0.599   6.846   0.455  0.0023  0.5467  0.0493
   53SOL     OW 1599   0.688   7.788   0.306  0.0103  0.1703  0.1555
   53SOL    HW1 1600   0.774   7.761   0.337 -0.0231 -0.5300 -0.3471
   53SOL    HW2 1601   0.703   7.874   0.267  0.7943 -0.6152 -1.3380
   54SOL     OW 1602   0.829   0.861   0.682 -0.0341 -0.0140 -0.3902
   54SOL    HW1 1603   0.844   0.801   0.755 -0.1641 -0.8292 -1.0173
   54SOL    HW2 1604   0.787   0.937   0.722 -0.6194 -0.6816  0.2930
   55SOL     OW 1605   2.445   1.614  12.214  0.0801 -0.2068  0.1305
   55SOL    HW1 1606   2.375   1.558  12.179 -0.4116  0.0714  0.6457
   55SOL    HW2 1607   2.399   1.678  12.268  0.4635  1.7336 -1.7287
   56SOL     OW 1608   1.465   0.968   0.048  0.0822  0.1483 -0.3776
   56SOL    HW1 1609   1.508   1.051   0.028 -0.4428  0.3747 -0.5752
   56SOL    HW2 1610   1.402   0.956  -0.023 -1.8281  0.9685  1.0988
   57SOL     OW 1611   0.701   7.688  11.907  0.0589 -0.4521  0.2177
   57SOL    HW1 1612   0.796   7.699  11.900  0.0534  0.4646  1.3243
   57SOL    HW2 1613   0.689   7.595  11.926  0.5718 -1.0804 -2.1259
   58SOL     OW 1614   3.278   1.221   0.708 -0.6645  0.0262  0.2448
   58SOL    HW1 1615   3.208   1.165   0.741 -0.2789  0.5075  2.0094
   58SOL    HW2 1616   3.247   1.310   0.725 -0.1668  0.2702 -0.1172
   59SOL     OW 1617   6.571   7.524   2.231  0.5782 -0.4099 -0.6384
   59SOL    HW1 1618   6.536   7.455   2.174  0.3296 -2.0855  1.4435
   59SOL    HW2 1619   6.651   7.487   2.268 -0.1279 -0.0424  1.3665
   60SOL     OW 1620   2.670   0.981  12.310  0.0464 -0.5573 -0.7608
   60SOL    HW1 1621   2.684   1.073  12.333 -0.1221 -0.7139  0.0088
   60SOL    HW2 1622   2.611   0.984  12.235 -0.0009 -0.0363 -0.7065
   61SOL     OW 1623   0.985   0.487   2.776 -0.0240 -0.1655  0.4376
   61SOL    HW1 1624   1.049   0.442   2.831  0.3086 -0.7167 -0.3846
   61SOL    HW2 1625   0.917   0.516   2.837  0.5669 -0.3629  1.1963
   62SOL     OW 1626   6.475   0.517   2.040  0.5307 -0.7621 -0.3220
   62SOL    HW1 1627   6.427   0.563   1.971 -0.7671 -1.0949  0.3251
   62SOL    HW2 1628   6.561   0.559   2.042  0.9291 -1.3455 -2.7285
   63SOL     OW 1629   1.796   7.602   0.946 -0.0897  0.0021  0.3199
   63SOL    HW1 1630   1.846   7.520   0.949  0.3887  0.3146  1.0706
   63SOL    HW2 1631   1.727   7.586   0.882 -1.4473 -1.7875  2.1485
   64SOL     OW 1632   2.451   7.013   1.985  0.3528  0.5191 -0.2226
   64SOL    HW1 1633   2.528   7.011   2.041  0.0117  0.6035  0.2549
   64SOL    HW2 1634   2.481   6.977   1.901  0.9121  0.5797 -0.0491
   65SOL     OW 1635   0.163   2.375   0.332  0.5826 -0.0101 -0.2693
   65SOL    HW1 1636   0.146   2.366   0.426  2.3629 -0.0110  0.0981
   65SOL    HW2 1637   0.141   2.466   0.312 -1.2435 -0.4086 -0.2168
   66SOL     OW 1638   2.000   1.329  11.180  0.1999  0.1342  0.4231
   66SOL    HW1 1639   1.932   1.395  11.166 -0.1032  0.8507  4.1556
   66SOL    HW2 1640   1.969   1.252  11.133 -1.3395  1.5153 -0.9514
   67SOL     OW 1641   1.625   0.455   1.077 -0.1166  0.3615 -0.3376
   67SOL    HW1 1642   1.630   0.551   1.084  1.6320  0.2866 -0.0444
   67SOL    HW2 1643   1.538   0.438   1.041 -0.0713  2.1262 -1.4122
   68SOL     OW 1644   6.816   1.521   2.172 -0.0877 -0.6248 -0.3067
   68SOL    HW1 1645   6.839   1.582   2.243  1.3995 -0.4059 -0.9405
   68SOL    HW2 1646   6.748   1.466   2.209  0.3864 -0.2633  1.1805
   69SOL     OW 1647   6.231   0.493   0.202  0.1692  0.5217  0.0011
   69SOL    HW1 1648   6.286   0.416   0.208  0.3882  0.7205  0.6560
   69SOL    HW2 1649   6.146   0.465   0.236  0.3168  0.6273  0.4656
   70SOL     OW 1650   1.335   1.988   0.579  0.2025 -0.4602 -0.2198
   70SOL    HW1 1651   1.263   1.970   0.518  0.1531 -0.3653 -0.1886
   70SOL    HW2 1652   1.392   1.911   0.571  0.5888 -0.1102 -0.9488
   71SOL     OW 1653   0.014   4.156  12.164 -0.1213  0.1733  0.1074
   71SOL    HW1 1654  -0.032   4.140  12.247 -0.1717  1.4624  0.3460
   71SOL    HW2 1655  -0.045   4.213  12.115 -0.4155 -1.1499 -1.1396
   72SOL     OW 1656   2.606   7.141   1.136  0.5683  0.1169  0.2764
   72SOL    HW1 1657   2.546   7.195   1.188  1.0976 -0.4617  1.5361
   72SOL    HW2 1658   2.555   7.061   1.118  1.3435 -0.9578  2.5065
   73SOL     OW 1659   2.542   0.718   0.495 -0.3489 -0.3632  0.3055
   73SOL    HW1 1660   2.560   0.665   0.573 -0.0144 -1.6871 -0.6246
   73SOL    HW2 1661   2.454   0.691   0.468 -1.1070  1.2217  1.0669
   74SOL     OW 1662   2.386   1.418   1.086  0.4705 -0.7475  0.0133
   74SOL    HW1 1663   2.293   1.441   1.085  0.2666 -1.3894  1.7550
   74SOL    HW2 1664   2.429   1.491   1.042 -0.6798  0.4467  0.8038
   75SOL     OW 1665   6.353   3.450  11.430 -0.4111  0.4065  0.6016
   75SOL    HW1 1666   6.444   3.421  11.420 -0.3922  0.1850  1.3582
   75SOL    HW2 1667   6.305   3.369  11.450 -0.9019  0.4041 -0.4865
   76SOL     OW 1668   3.070   1.036   0.722  0.3703  0.4034  0.4339
   76SOL    HW1 1669   3.021   0.955   0.734 -1.4958  1.3874 -0.0998
   76SOL    HW2 1670   3.012   1.092   0.670  1.8108  1.9052  0.3361
   77SOL     OW 1671   1.908   1.095  12.117 -0.0392  0.3425 -0.6378
   77SOL    HW1 1672   1.892   1.188  12.133 -2.0475 -0.2632  1.4649
   77SOL    HW2 1673   1.860   1.075  12.036 -2.5557  0.5295  0.6948
   78SOL     OW 1674   6.650   7.146   2.273 -0.5799 -0.0746  0.1958
   78SOL    HW1 1675   6.715   7.100   2.326  2.3024  2.0589 -1.2224
   78SOL    HW2 1676   6.634   7.089   2.198  0.6534 -0.1040 -0.0580
   79SOL     OW 1677   2.610   1.271   1.413 -0.0506  0.4438  0.5044
   79SOL    HW1 1678   2.535   1.278   1.472 -0.5073  1.6759 -0.1839
   79SOL    HW2 1679   2.677   1.226   1.465 -0.6617  0.8842  1.7206
   80SOL     OW 1680   0.313   0.112   2.332  0.4943 -0.3592 -0.0174
   80SOL    HW1 1681   0.241   0.050   2.324 -0.0921  0.5171 -1.9825
   80SOL    HW2 1682   0.391   0.057   2.340 -0.3746 -1.3285  2.9289
   81SOL     OW 1683   0.593   5.941   1.088  0.4047 -0.4290  0.0417
   81SOL    HW1 1684   0.554   5.965   1.004 -1.1506  0.4283  0.9728
   81SOL    HW2 1685   0.582   5.846   1.094 -1.5099 -0.2248  0.2251
   82SOL     OW 1686   7.123   0.782   2.412  0.0136  0.1310  0.0938
   82SOL    HW1 1687   7.179   0.858   2.395  2.1538 -1.6800 -1.6369
   82SOL    HW2 1688   7.066   0.777   2.335 -2.7761  1.9344  1.8175
   83SOL     OW 1689   1.497   0.904   2.103 -0.1171  0.5265  0.3277
   83SOL    HW1 1690   1.459   0.818   2.119 -1.2969  1.2935  2.0215
   83SOL    HW2 1691   1.450   0.936   2.026  1.0673 -0.7092 -0.9613
   84SOL     OW 1692   7.927   1.695   1.430  0.3868 -0.0212 -0.1362
   84SOL    HW1 1693   8.007   1.735   1.466  0.4244  0.3562 -0.6244
   84SOL    HW2 1694   7.904   1.752   1.357 -0.5638  0.1067  0.2566
   85SOL     OW 1695   1.669   2.723   2.143 -0.7148  0.6586 -0.4559
   85SOL    HW1 1696   1.593   2.717   2.086 -1.8526  0.1716  1.0428
   85SOL    HW2 1697   1.731   2.777   2.095 -2.4943  2.1286 -1.2100
   86SOL     OW 1698   1.780   0.860   0.943 -0.0420  0.4458  0.0247
   86SOL    HW1 1699   1.773   0.842   0.850 -0.7191  0.6768  0.0269
   86SOL    HW2 1700   1.778   0.955   0.950 -2.2324  0.4411  0.4069
   87SOL     OW 1701   2.475   0.641   0.203 -0.7239 -0.5644 -0.1583
   87SOL    HW1 1702   2.418   0.717   0.206  0.4562  0.3260  0.6705
   87SOL    HW2 1703   2.522   0.649   0.119  0.5263  0.5088  0.6118
   88SOL     OW 1704   0.943   1.164   1.061  0.6342  0.1306  0.2432
   88SOL    HW1 1705   1.029   1.124   1.072  0.4384 -0.3197  0.1862
   88SOL    HW2 1706   0.955   1.256   1.085  0.4852 -0.5007  3.0950
   89SOL     OW 1707   3.659   7.902   3.531 -1.0837 -0.4264 -0.0171
   89SOL    HW1 1708   3.649   7.836   3.600  0.9240 -0.4302  0.3179
   89SOL    HW2 1709   3.650   7.853   3.449  1.1946 -1.3251  0.2113
   90SOL     OW 1710   2.441   1.179  11.547 -0.3906 -0.3995  0.0822
   90SOL    HW1 1711   2.452   1.267  11.584 -0.6497 -0.4798  0.3495
   90SOL    HW2 1712   2.414   1.125  11.622 -0.0854 -0.7362 -0.0509
   91SOL     OW 1713   7.456   0.094   1.755 -0.1978  0.1048 -0.1631
   91SOL    HW1 1714   7.489   0.026   1.695  2.0665 -1.3104  2.4481
   91SOL    HW2 1715   7.496   0.175   1.724  0.3557 -0.4610 -0.9714
   92SOL     OW 1716   2.729   0.722   1.811  0.7673  0.4045 -0.1706
   92SOL    HW1 1717   2.694   0.808   1.837 -0.2389 -0.3727  1.1744
   92SOL    HW2 1718   2.661   0.685   1.755  1.7145  0.9265 -1.7235
   93SOL     OW 1719   0.355   0.366   1.957 -0.1365 -0.1959  0.5330
   93SOL    HW1 1720   0.428   0.318   1.917 -0.2171  0.3546 -0.3139
   93SOL    HW2 1721   0.310   0.301   2.011 -0.4550 -1.1970 -0.8581
   94SOL     OW 1722   7.555   7.247   2.476 -0.1053 -0.0232 -0.5866
   94SOL    HW1 1723   7.602   7.201   2.406  1.5009  0.4843  0.1142
   94SOL    HW2 1724   7.506   7.315   2.431  0.4367 -0.0806 -1.2859
   95SOL     OW 1725   1.147   1.916   0.400 -0.0672  0.1163 -0.1498
   95SOL    HW1 1726   1.168   1.874   0.317  0.3941 -1.2334  0.6185
   95SOL    HW2 1727   1.055   1.892   0.417 -0.0695  0.1388 -0.1300
   96SOL     OW 1728   1.094   1.560  12.391 -0.1593  0.0888  0.4911
   96SOL    HW1 1729   1.064   1.496  12.455 -1.4457  0.0576 -0.1054
   96SOL    HW2 1730   1.176   1.524  12.358 -1.4151 -1.8897 -0.6717
   97SOL     OW 1731   6.679   0.551   2.356 -0.3204  0.0910 -0.0704
   97SOL    HW1 1732   6.671   0.624   2.295  1.9971 -1.5433 -2.5609
   97SOL    HW2 1733   6.598   0.501   2.345  0.2354 -0.4213 -2.2834
   98SOL     OW 1734   0.840   7.278  10.784 -0.1991 -0.1694 -0.0009
   98SOL    HW1 1735   0.846   7.267  10.878  0.9306  0.6236  0.0317
   98SOL    HW2 1736   0.788   7.203  10.754 -0.8726 -0.2304  1.2792
   99SOL     OW 1737   3.700   7.809   0.573 -0.0307  0.2943 -0.3726
   99SOL    HW1 1738   3.675   7.717   0.576 -0.4340  0.3997  2.7453
   99SOL    HW2 1739   3.620   7.855   0.548 -0.5296 -0.0558  0.5270
  100SOL     OW 1740   1.565   4.126  11.493  0.1368  0.4883 -0.2177
  100SOL    HW1 1741   1.503   4.061  11.458 -0.4251  1.4490 -1.0562
  100SOL    HW2 1742   1.635   4.073  11.531  0.4824 -0.6485 -2.2614
  101SOL     OW 1743   1.320   1.308   1.483  0.4500  0.2476 -0.3521
  101SOL    HW1 1744   1.263   1.358   1.425  0.1305  1.7171  1.1559
  101SOL    HW2 1745   1.369   1.374   1.532  2.2975 -0.9745 -0.4650
  102SOL     OW 1746   2.220   0.874  12.010  0.0789  0.4643  0.4320
  102SOL    HW1 1747   2.149   0.850  11.950 -0.2518  0.9213  0.6266
  102SOL    HW2 1748   2.258   0.791  12.037 -0.1489  0.2286  0.0398
  103SOL     OW 1749   7.660   1.441   3.293 -0.4954 -0.5115  0.1665
  103SOL    HW1 1750   7.692   1.361   3.334 -0.3828 -0.8851 -0.6297
  103SOL    HW2 1751   7.566   1.428   3.286 -0.3927 -0.8817 -0.5990
  104SOL     OW 1752   2.506   1.624   0.916  0.4708  0.1138  0.4463
  104SOL    HW1 1753   2.545   1.678   0.985  1.3730  0.1040 -0.0463
  104SOL    HW2 1754   2.445   1.684   0.872 -0.1001  0.1228  1.2321
  105SOL     OW 1755   2.217   0.116   0.757 -0.0143  0.0069  0.0180
  105SOL    HW1 1756   2.127   0.139   0.780 -0.3819 -0.2893 -1.0460
  105SOL    HW2 1757   2.232   0.031   0.798 -0.2400  0.0329  0.1527
  106SOL     OW 1758   0.014   0.811  12.258 -0.1736 -0.4914  0.7341
  106SOL    HW1 1759   0.040   0.871  12.188 -2.6191 -0.9375 -0.6909
  106SOL    HW2 1760  -0.051   0.860  12.309 -1.5904 -1.5365  0.0392
  107SOL     OW 1761   0.931   0.377   0.097  0.2021  0.1254  0.2078
  107SOL    HW1 1762   0.887   0.460   0.076  0.7288 -0.3388 -3.2940
  107SOL    HW2 1763   1.024   0.400   0.100  0.2594 -0.1374  0.4475
  108SOL     OW 1764   7.171   7.458   1.208 -0.2731  0.5662  0.0382
  108SOL    HW1 1765   7.141   7.381   1.256 -3.2640  0.9399 -0.9718
  108SOL    HW2 1766   7.126   7.531   1.251 -0.7225  1.2240 -1.4753
  109SOL     OW 1767   1.700   1.629  11.807 -0.1737 -0.8558  0.0431
  109SOL    HW1 1768   1.721   1.535  11.798 -0.7118 -0.8637 -1.5066
  109SOL    HW2 1769   1.780   1.673  11.778 -0.3260 -0.8587 -0.3976
  110SOL     OW 1770   7.584   1.365   1.494 -0.1527  0.0550  0.1303
  110SOL    HW1 1771   7.573   1.337   1.403 -1.8938  0.6938  0.1075
  110SOL    HW2 1772   7.642   1.440   1.489 -2.0224  1.5115 -0.7568
  111SOL     OW 1773   0.960   0.235  12.363 -0.6385 -0.5216 -0.1139
  111SOL    HW1 1774   0.892   0.285  12.317 -0.9455  0.0643  0.9426
  111SOL    HW2 1775   0.955   0.266  12.454  1.5426  0.0783 -0.1441
  112SOL     OW 1776   7.584   1.282   0.480 -0.9129  0.1185 -0.1535
  112SOL    HW1 1777   7.519   1.348   0.455 -0.7556 -0.0587 -1.0891
  112SOL    HW2 1778   7.668   1.323   0.458 -0.8315 -0.5123 -1.0933
  113SOL     OW 1779   2.495   7.554   0.566 -0.0321 -0.4627 -0.1946
  113SOL    HW1 1780   2.469   7.643   0.589  0.0837 -0.6545  0.6869
  113SOL    HW2 1781   2.417   7.502   0.581 -0.0903 -0.5265 -0.6826
  114SOL     OW 1782   1.146   1.626   1.262  0.1457  0.9123  0.3124
  114SOL    HW1 1783   1.091   1.550   1.246  0.6351  0.7644 -0.7857
  114SOL    HW2 1784   1.104   1.672   1.335 -1.2627  0.6568 -0.3049
  115SOL     OW 1785   7.876   2.602   0.015 -0.6064 -0.3814  0.0390
  115SOL    HW1 1786   7.818   2.617  -0.059  0.7852  1.8925 -0.7001
  115SOL    HW2 1787   7.907   2.512   0.003 -2.9849 -1.2433 -0.1781
  116SOL     OW 1788   7.977   6.821   2.714  0.2551 -0.1191 -0.2301
  116SOL    HW1 1789   7.925   6.877   2.657  0.2409  0.6682  0.5282
  116SOL    HW2 1790   7.936   6.831   2.800  1.9751  0.9662  0.5053
  117SOL     OW 1791   2.427   0.688   1.700  0.0062  0.5457 -0.1826
  117SOL    HW1 1792   2.412   0.686   1.795 -0.8076 -0.9873 -0.3252
  117SOL    HW2 1793   2.377   0.614   1.666  2.8292 -0.9281 -1.4511
  118SOL     OW 1794   0.563   6.235  10.942 -0.5653 -0.5208  0.3415
  118SOL    HW1 1795   0.578   6.318  10.896 -0.5042 -0.8876 -0.3215
  118SOL    HW2 1796   0.560   6.259  11.034 -0.5613  0.2229  0.1601
  119SOL     OW 1797   1.581   7.674   1.725 -0.2589 -0.3402 -0.0140
  119SOL    HW1 1798   1.487   7.662   1.715 -0.4762  0.2850  1.1027
  119SOL    HW2 1799   1.608   7.606   1.787 -0.0829 -0.1641  0.1058
  120SOL     OW 1800   1.922   2.059  11.865  0.1246 -0.1520 -0.5095
  120SOL    HW1 1801   1.869   2.104  11.930 -0.2998 -1.3516  0.0123
  120SOL    HW2 1802   1.858   2.013  11.810  0.5821 -1.3819 -0.0492
  121SOL     OW 1803   7.406   7.334   0.959  0.5730 -0.2373  0.1142
  121SOL    HW1 1804   7.360   7.251   0.956  0.9091 -0.3909 -1.2159
  121SOL    HW2 1805   7.482   7.322   0.902  0.1945  1.2363 -0.7548
  122SOL     OW 1806   2.981   1.549  12.498  0.6303 -0.6864  0.2605
  122SOL    HW1 1807   3.014   1.634  12.526  0.0014 -0.1869 -0.4930
  122SOL    HW2 1808   2.948   1.508  12.578  2.3610 -0.9011  0.9200
  123SOL     OW 1809   2.765   7.144   2.450  0.8378  0.0607 -0.1258
  123SOL    HW1 1810   2.690   7.091   2.422  0.6536 -0.3791  1.1352
  123SOL    HW2 1811   2.726   7.216   2.501  1.2055  0.4615 -0.4012
  124SOL     OW 1812   7.666   0.244   0.151 -0.1070 -0.3007 -0.0660
  124SOL    HW1 1813   7.580   0.262   0.190 -0.2696 -0.2483 -0.4389
  124SOL    HW2 1814   7.725   0.233   0.226 -0.6269 -1.2761  0.2204
  125SOL     OW 1815   2.648   0.416  11.623  0.1665  0.3111 -0.4591
  125SOL    HW1 1816   2.569   0.461  11.652  1.3753  1.3289  1.4102
  125SOL    HW2 1817   2.692   0.389  11.703  1.2056 -1.1944 -1.4782
  126SOL     OW 1818   0.128   0.473   2.214  0.4958  0.2686  0.2927
  126SOL    HW1 1819   0.105   0.485   2.122 -0.0957 -0.7522  0.2926
  126SOL    HW2 1820   0.048   0.496   2.261  0.7704  0.7000  0.5574
  127SOL     OW 1821   0.797   1.956  11.900  0.5147 -0.1295  0.3304
  127SOL    HW1 1822   0.833   1.876  11.862 -0.5629 -0.2159 -0.5714
  127SOL    HW2 1823   0.843   1.966  11.983  1.4949 -1.0488 -0.0810
  128SOL     OW 1824   2.572   7.924   1.305 -0.3293  0.1537 -0.3654
  128SOL    HW1 1825   2.513   7.995   1.330  2.8035  3.3512 -1.0528
  128SOL    HW2 1826   2.622   7.905   1.384  0.2968  0.3480 -0.7016
  129SOL     OW 1827   0.204   1.348   1.669  0.0975  0.1306 -0.3731
  129SOL    HW1 1828   0.218   1.365   1.576 -1.6480 -1.4551 -1.0034
  129SOL    HW2 1829   0.118   1.306   1.672 -0.1436  0.6887  2.0421
  130SOL     OW 1830   0.995   1.216   0.471  0.0269 -0.2840 -0.1112
  130SOL    HW1 1831   1.078   1.187   0.511  0.5612  3.0657  1.6347
  130SOL    HW2 1832   1.016   1.228   0.379  1.2685 -0.2840  0.1521
  131SOL     OW 1833   7.889   3.274   1.617  0.1763 -0.4471  0.2512
  131SOL    HW1 1834   7.827   3.320   1.560  0.2015 -2.3319 -1.4250
  131SOL    HW2 1835   7.840   3.198   1.649  1.3697 -1.6681 -0.6714
  132SOL     OW 1836   1.077   7.242  11.284  0.0207  0.3061 -0.7424
  132SOL    HW1 1837   1.152   7.187  11.261 -0.8257 -0.9358 -0.6266
  132SOL    HW2 1838   1.053   7.213  11.372  0.5539  2.0155  0.0062
  133SOL     OW 1839   0.002   1.078   2.729  0.5667 -0.0053 -0.2396
  133SOL    HW1 1840   0.015   1.099   2.637 -0.1022 -1.2096 -0.6301
  133SOL    HW2 1841   0.087   1.093   2.770  1.2360 -0.7620 -1.3126
  134SOL     OW 1842   0.244   7.120   0.184  0.0469  0.1998  0.6143
  134SOL    HW1 1843   0.313   7.107   0.119 -1.2599  0.0467 -0.8023
  134SOL    HW2 1844   0.271   7.197   0.233  1.9243 -0.6846  1.0768
  135SOL     OW 1845   7.931   0.745   1.474 -0.2053 -0.6292  0.1198
  135SOL    HW1 1846   7.914   0.838   1.459  0.7235 -0.5031 -0.2000
  135SOL    HW2 1847   7.980   0.743   1.556 -1.4033 -0.9614  0.8518
  136SOL     OW 1848   0.481   0.784   0.889 -0.3687  0.3279 -0.4436
  136SOL    HW1 1849   0.484   0.874   0.919 -1.5578  0.5927 -1.0555
  136SOL    HW2 1850   0.572   0.755   0.890 -0.1359  0.9923  1.3172
  137SOL     OW 1851   1.975   0.312   0.768  0.3463 -0.1765 -0.4319
  137SOL    HW1 1852   1.921   0.275   0.838  0.5183 -0.9464 -0.6981
  137SOL    HW2 1853   1.929   0.391   0.742 -0.6194 -0.7815 -0.6000
  138SOL     OW 1854   3.627   0.826   0.596  0.0125  0.7412  0.1084
  138SOL    HW1 1855   3.550   0.840   0.650  1.4415  0.6432  2.3033
  138SOL    HW2 1856   3.624   0.896   0.531 -2.0479  0.5501 -0.0747
  139SOL     OW 1857   2.232   1.724  11.938 -0.0271 -0.1755  0.3940
  139SOL    HW1 1858   2.313   1.772  11.921 -0.4240  0.1437 -0.6418
  139SOL    HW2 1859   2.261   1.634  11.955  0.5054 -0.1754 -0.4949
  140SOL     OW 1860   1.245   3.044   0.666 -0.0156 -0.3127  0.3660
  140SOL    HW1 1861   1.301   3.004   0.600 -0.5714  0.2237 -0.4574
  140SOL    HW2 1862   1.170   2.984   0.674  0.8589 -1.2685  1.8055
  141SOL     OW 1863   0.896   1.754   0.360 -0.1698 -0.2724 -0.1841
  141SOL    HW1 1864   0.862   1.746   0.449 -1.7323 -0.6397 -0.7861
  141SOL    HW2 1865   0.832   1.808   0.315  1.7350  1.8270 -0.5484
  142SOL     OW 1866   2.658   7.323  11.853 -0.3981 -0.5603 -0.6772
  142SOL    HW1 1867   2.720   7.308  11.782  0.5215  0.9935 -0.2469
  142SOL    HW2 1868   2.593   7.382  11.816 -1.1840 -1.5278 -0.8752
  143SOL     OW 1869   7.309   0.684  11.845 -0.2552 -0.3674  0.0187
  143SOL    HW1 1870   7.341   0.775  11.845 -0.0515 -0.4363 -0.4005
  143SOL    HW2 1871   7.296   0.664  11.937  0.1820 -0.0759  0.1492
  144SOL     OW 1872   7.965   2.621   1.243  0.1532  0.4179 -0.1957
  144SOL    HW1 1873   7.933   2.535   1.269  0.0140  0.6966  0.5687
  144SOL    HW2 1874   7.892   2.660   1.194  0.2523  0.0720 -0.6263
  145SOL     OW 1875   1.079   7.680   2.290 -0.0747 -0.4091 -0.2626
  145SOL    HW1 1876   1.154   7.650   2.341 -0.8264 -1.0487  0.5153
  145SOL    HW2 1877   1.068   7.772   2.315  1.9723  0.4708 -2.3131
  146SOL     OW 1878   2.627   7.346   1.797  0.2027  0.5236 -0.5188
  146SOL    HW1 1879   2.678   7.270   1.770 -0.9327  0.9019 -4.3910
  146SOL    HW2 1880   2.542   7.310   1.823  0.3338  0.3468 -0.3282
  147SOL     OW 1881   2.545   1.797   0.119 -0.2206  0.2743  0.1802
  147SOL    HW1 1882   2.522   1.804   0.212 -0.6254  0.6562  0.0566
  147SOL    HW2 1883   2.534   1.886   0.085  1.4813  0.4947  0.1096
  148SOL     OW 1884   1.199   1.961   1.412  0.2540 -0.1971  0.0461
  148SOL    HW1 1885   1.260   1.938   1.342 -0.7491 -0.6610 -0.7037
  148SOL    HW2 1886   1.132   1.893   1.408 -0.2562  0.2369  0.9294
  149SOL     OW 1887   0.662   0.430   1.862 -0.6446 -0.1868 -0.2032
  149SOL    HW1 1888   0.690   0.466   1.945 -0.3279 -2.0730  0.5613
  149SOL    HW2 1889   0.694   0.492   1.796 -0.2744  0.9542  1.0279
  150SOL     OW 1890   0.477   6.861   1.533  0.7432  0.1532 -0.3620
  150SOL    HW1 1891   0.512   6.940   1.575 -0.7849  1.1695 -0.8753
  150SOL    HW2 1892   0.465   6.799   1.605  1.5950  0.5379  0.1207
  151SOL     OW 1893   1.781   0.546   1.747 -0.5071  0.0155 -0.0442
  151SOL    HW1 1894   1.723   0.564   1.821  1.4058  1.4084  1.2162
  151SOL    HW2 1895   1.862   0.515   1.786  1.3200  2.7588 -1.2768
  152SOL     OW 1896   0.631   0.523   2.132  0.0964 -0.2173  0.3372
  152SOL    HW1 1897   0.688   0.486   2.200  0.0228 -0.3635  0.3191
  152SOL    HW2 1898   0.545   0.487   2.150 -0.0418  0.2004  0.5111
  153SOL     OW 1899   1.608   0.413   1.553 -0.3557  0.4222 -0.0785
  153SOL    HW1 1900   1.527   0.417   1.604 -0.5406 -0.8234 -0.2463
  153SOL    HW2 1901   1.677   0.440   1.615 -0.6172 -0.7465  0.7421
  154SOL     OW 1902   0.352   1.045   1.483  0.4005 -0.0748  0.8551
  154SOL    HW1 1903   0.413   0.988   1.436  1.6150  1.1758  0.8437
  154SOL    HW2 1904   0.378   1.038   1.575  1.8344  1.8566  0.6579
  155SOL     OW 1905   0.412   2.950   0.177 -0.3666  0.1009  0.2535
  155SOL    HW1 1906   0.475   2.996   0.233  0.4744 -0.6476 -0.0648
  155SOL    HW2 1907   0.360   2.898   0.238 -0.6436  0.6630  0.5099
  156SOL     OW 1908   3.257   0.251   0.096  0.2595  0.2662  0.2697
  156SOL    HW1 1909   3.269   0.179   0.158  0.2245 -0.2193 -0.2889
  156SOL    HW2 1910   3.174   0.233   0.053  0.0401  0.8688  0.4255
  157SOL     OW 1911   7.859   1.251   0.376 -1.0133  0.2228 -0.1936
  157SOL    HW1 1912   7.880   1.219   0.288 -2.3277 -0.0100 -0.4477
  157SOL    HW2 1913   7.892   1.182   0.435  1.2033  1.0563 -0.3667
  158SOL     OW 1914   0.486   6.734   1.788 -0.8496 -0.4160 -0.5109
  158SOL    HW1 1915   0.491   6.639   1.788 -0.2857 -0.4386  1.5931
  158SOL    HW2 1916   0.565   6.762   1.835 -1.2064  1.0590 -0.7388
  159SOL     OW 1917   1.389   1.378   0.609  0.0414  0.1172  0.1845
  159SOL    HW1 1918   1.361   1.458   0.566 -1.8650 -1.0867 -0.9610
  159SOL    HW2 1919   1.327   1.312   0.580  1.4143 -1.7542  1.2500
  160SOL     OW 1920   0.547   0.605   2.863 -0.0001 -0.2511  0.4421
  160SOL    HW1 1921   0.631   0.560   2.876  1.3986  1.7884 -1.0298
  160SOL    HW2 1922   0.554   0.646   2.777 -2.6017 -0.1078  0.2160
  161SOL     OW 1923   1.636   1.775   1.210 -0.4153  0.1362  0.2043
  161SOL    HW1 1924   1.674   1.762   1.297 -0.1542 -1.0617 -0.0663
  161SOL    HW2 1925   1.541   1.770   1.225 -0.3695 -0.1805  0.4042
  162SOL     OW 1926   0.821   7.878   2.025 -0.2985 -0.6809 -0.2957
  162SOL    HW1 1927   0.728   7.892   2.040 -0.0281  1.5741 -0.3095
  162SOL    HW2 1928   0.831   7.882   1.930 -0.0558  0.4559 -0.2444
  163SOL     OW 1929   3.599   7.592  12.354 -0.0756 -0.2106  0.4827
  163SOL    HW1 1930   3.640   7.539  12.423  0.0564  0.2797  0.7843
  163SOL    HW2 1931   3.664   7.659  12.334 -0.1850 -0.2448 -0.0022
  164SOL     OW 1932   2.279   5.664  12.457  0.1047  0.1336 -0.1435
  164SOL    HW1 1933   2.316   5.617  12.382 -0.1403 -0.4415  0.0957
  164SOL    HW2 1934   2.185   5.664  12.441  0.1863  1.8246 -0.8869
  165SOL     OW 1935   0.821   0.690   0.947 -0.1463 -0.4622 -0.3846
  165SOL    HW1 1936   0.882   0.644   1.005 -1.8875 -0.6489  1.4378
  165SOL    HW2 1937   0.792   0.766   0.999 -0.7335  0.1633 -1.5784
  166SOL     OW 1938   2.483   1.137   2.557 -0.0903 -0.4129 -0.2242
  166SOL    HW1 1939   2.536   1.176   2.628  0.6446 -0.6148 -0.6485
  166SOL    HW2 1940   2.500   1.194   2.482 -2.2898  0.8912  0.1733
  167SOL     OW 1941   0.059   1.148  12.342 -0.5852 -0.2650  0.5909
  167SOL    HW1 1942  -0.022   1.100  12.325 -0.8468  0.6377 -0.9208
  167SOL    HW2 1943   0.107   1.144  12.260  0.2380  0.4465  1.0199
  168SOL     OW 1944   7.359   1.420   1.688  0.9339  0.4295  0.0127
  168SOL    HW1 1945   7.413   1.462   1.621  1.7843  2.2045  1.7009
  168SOL    HW2 1946   7.272   1.458   1.676  0.8768  0.1149 -0.5878
  169SOL     OW 1947   7.115   0.354   0.183  0.3297  0.5338 -0.4256
  169SOL    HW1 1948   7.132   0.269   0.144  1.8042 -0.0385  1.2954
  169SOL    HW2 1949   7.065   0.335   0.262 -0.5684  1.4209 -0.7599
  170SOL     OW 1950   7.649   7.520   2.065 -0.0702  0.3306 -0.8666
  170SOL    HW1 1951   7.731   7.471   2.056  0.0771  0.4349 -0.1880
  170SOL    HW2 1952   7.672   7.609   2.039  0.5522  0.8134  1.0937
  171SOL     OW 1953   2.775   0.796   0.747 -0.3123  0.3864 -0.0033
  171SOL    HW1 1954   2.682   0.813   0.738 -0.6659 -0.9812  0.7555
  171SOL    HW2 1955   2.803   0.854   0.818 -1.0311 -0.5244  1.0776
  172SOL     OW 1956   1.052   7.112   1.270 -0.3802  0.6217 -0.4934
  172SOL    HW1 1957   1.040   7.024   1.305 -1.1763  1.2570  0.9246
  172SOL    HW2 1958   1.030   7.105   1.177  0.4386 -0.8366 -0.6018
  173SOL     OW 1959   1.868   1.173  10.945 -0.7729  0.4317  0.2987
  173SOL    HW1 1960   1.874   1.081  10.969 -0.4910  0.6985  1.3093
  173SOL    HW2 1961   1.873   1.173  10.849 -0.3354 -0.5668  0.3025
  174SOL     OW 1962   0.795   0.020   0.188  0.3459 -0.2787 -0.2767
  174SOL    HW1 1963   0.710   0.064   0.181  0.1999 -0.5399 -0.1572
  174SOL    HW2 1964   0.820   0.002   0.097  2.0109  3.0537 -0.6533
  175SOL     OW 1965   7.659   0.848   1.919 -0.0207 -0.0658  0.5943
  175SOL    HW1 1966   7.670   0.812   1.831 -0.4474  0.7748  0.1844
  175SOL    HW2 1967   7.747   0.873   1.946 -0.1030  1.3230 -0.3327
  176SOL     OW 1968   1.812   1.527   1.693 -0.3199 -0.2105 -0.0473
  176SOL    HW1 1969   1.763   1.608   1.681  2.0282  1.5440  1.4408
  176SOL    HW2 1970   1.807   1.509   1.787 -0.4148 -1.5773 -0.2847
  177SOL     OW 1971   7.474   7.661   2.659  0.2330  0.1544 -0.3771
  177SOL    HW1 1972   7.517   7.728   2.713 -0.9982 -0.4773  1.5240
  177SOL    HW2 1973   7.450   7.592   2.722 -2.3154 -0.1221 -1.5109
  178SOL     OW 1974   6.259   6.892   0.632  0.3194 -0.4396  0.2057
  178SOL    HW1 1975   6.325   6.849   0.686 -0.1159 -2.3499 -0.6990
  178SOL    HW2 1976   6.178   6.847   0.652 -0.9520  2.2873  1.7855
  179SOL     OW 1977   3.044   0.752   9.597 -0.5052 -0.4147 -0.1716
  179SOL    HW1 1978   2.954   0.737   9.567 -0.7424  0.2869  0.1735
  179SOL    HW2 1979   3.049   0.846   9.613  0.0099 -0.5797  0.7165
  180SOL     OW 1980   0.931   2.055   0.520 -0.0568  0.2876 -0.0148
  180SOL    HW1 1981   0.849   2.061   0.569  0.4225  0.4283  0.7848
  180SOL    HW2 1982   0.904   2.042   0.429 -0.9789 -2.3678  0.5469
  181SOL     OW 1983   6.413   1.083   1.092  0.2812 -0.0557 -0.5616
  181SOL    HW1 1984   6.396   1.172   1.122  0.8663 -0.0990 -0.0710
  181SOL    HW2 1985   6.485   1.091   1.030  0.7252 -0.2395 -0.0851
  182SOL     OW 1986   2.861   1.203   3.012 -0.0525  0.2796 -0.2347
  182SOL    HW1 1987   2.843   1.180   2.921  0.4438 -1.0214 -0.0246
  182SOL    HW2 1988   2.930   1.270   3.006 -0.4085  0.6021 -0.8227
  183SOL     OW 1989   1.614   6.532   2.185 -0.1153  0.5596 -0.3529
  183SOL    HW1 1990   1.673   6.530   2.260 -0.9176  2.3383  0.3681
  183SOL    HW2 1991   1.536   6.485   2.214 -0.5943  1.6073  0.1199
  184SOL     OW 1992   2.092   6.588   2.031 -0.4811 -0.7259 -0.3438
  184SOL    HW1 1993   2.146   6.635   2.095 -2.9689  1.9581  0.0035
  184SOL    HW2 1994   2.148   6.580   1.954  0.3866  2.3421 -0.1760
  185SOL     OW 1995   0.512   1.606   1.004 -0.1562 -0.4156  0.3716
  185SOL    HW1 1996   0.450   1.626   1.074 -0.7503 -0.1131 -0.2271
  185SOL    HW2 1997   0.477   1.528   0.961  0.0037 -0.3795  0.1699
  186SOL     OW 1998   6.327   0.984   2.289  0.2948  0.0652 -0.4115
  186SOL    HW1 1999   6.380   1.052   2.331  0.7277  0.4564 -1.5469
  186SOL    HW2 2000   6.283   1.028   2.217  1.9344 -1.1547 -2.2769
  187SOL     OW 2001   0.804   6.950   1.134 -0.4859 -0.1008  0.1161
  187SOL    HW1 2002   0.851   6.998   1.066 -1.6212  2.3572  0.9613
  187SOL    HW2 2003   0.732   6.906   1.088 -1.1678  1.4370 -0.3363
  188SOL     OW 2004   2.472   0.364   1.814 -0.3375  0.2151 -0.0959
  188SOL    HW1 2005   2.566   0.348   1.812 -0.0232  1.4894  2.1251
  188SOL    HW2 2006   2.435   0.297   1.756  1.7582 -1.5920  0.5589
  189SOL     OW 2007   6.973   0.980   1.255 -0.3455  0.4515  0.0422
  189SOL    HW1 2008   6.999   0.966   1.346 -1.0615 -1.0580  0.0473
  189SOL    HW2 2009   7.020   1.059   1.228  1.4122 -0.1722  1.1180
  190SOL     OW 2010   6.750   7.650   0.953 -0.0414  0.2587 -0.0812
  190SOL    HW1 2011   6.757   7.734   0.908 -1.2334  0.9444  0.9359
  190SOL    HW2 2012   6.660   7.621   0.935  0.4129 -0.9064 -0.5738
  191SOL     OW 2013   2.547   0.312   3.555 -0.8267  0.3968  0.4451
  191SOL    HW1 2014   2.566   0.297   3.463  1.0563  0.3771  0.7980
  191SOL    HW2 2015   2.612   0.259   3.602 -2.5028 -0.5427  1.8067
  192SOL     OW 2016   6.993   0.876   0.854  0.0756 -0.6107  0.2999
  192SOL    HW1 2017   6.963   0.965   0.868 -1.9304 -1.6039  3.2375
  192SOL    HW2 2018   7.008   0.869   0.759 -1.6708  2.1973 -0.2648
  193SOL     OW 2019   1.977   7.830   1.312  0.2748 -0.0854 -0.0429
  193SOL    HW1 2020   2.016   7.809   1.397  0.8109 -2.1050 -0.7419
  193SOL    HW2 2021   1.959   7.924   1.317  0.7991 -0.0424  2.0885
  194SOL     OW 2022   7.997   1.345   2.160 -0.9026  0.2551  0.1196
  194SOL    HW1 2023   7.969   1.419   2.106  0.5653  0.4476 -0.4301
  194SOL    HW2 2024   8.042   1.385   2.235 -0.2686 -0.0590 -0.0826
  195SOL     OW 2025   1.337   0.724  11.856 -0.0812 -0.2444  0.2366
  195SOL    HW1 2026   1.359   0.778  11.780  0.2696  0.7497  1.0081
  195SOL    HW2 2027   1.243   0.734  11.866 -0.5508 -2.3384 -1.4756
  196SOL     OW 2028   7.927   1.910   0.158 -0.2367  0.1999  0.0522
  196SOL    HW1 2029   7.986   1.955   0.218  1.5364  0.8418 -2.0171
  196SOL    HW2 2030   7.976   1.832   0.130 -0.6995  0.2809 -1.0437
  197SOL     OW 2031   1.287   0.688  12.145 -0.6136  0.2960  0.3595
  197SOL    HW1 2032   1.227   0.627  12.103  0.3602 -1.9756  2.0477
  197SOL    HW2 2033   1.373   0.669  12.106 -0.3116  0.6900  0.8129
  198SOL     OW 2034   0.609   1.489   0.434  0.2043  0.1851 -0.1699
  198SOL    HW1 2035   0.528   1.520   0.393 -0.1673  0.6606  0.8967
  198SOL    HW2 2036   0.653   1.569   0.463  2.8838  0.3094 -3.8751
  199SOL     OW 2037   1.861   1.780   1.408 -0.1581  0.2946 -0.6752
  199SOL    HW1 2038   1.932   1.774   1.471 -2.2337 -1.6154  1.6619
  199SOL    HW2 2039   1.816   1.862   1.431 -1.6076 -0.9672  1.2464
  200SOL     OW 2040   1.237   0.967   3.212  0.2304  0.1598 -0.0475
  200SOL    HW1 2041   1.285   0.967   3.295  1.2443  1.1373 -0.6113
  200SOL    HW2 2042   1.230   1.059   3.188  0.2956 -0.1299 -1.2401
  201SOL     OW 2043   2.188   0.446   0.671 -0.0114 -0.3303  0.3614
  201SOL    HW1 2044   2.135   0.370   0.692 -0.7267 -0.0824 -0.4697
  201SOL    HW2 2045   2.173   0.508   0.743 -0.9297 -0.2265  0.0885
  202SOL     OW 2046   2.112   2.387   0.874  0.4019 -0.2696  0.4485
  202SOL    HW1 2047   2.079   2.356   0.790 -0.1948 -1.2468  1.0214
  202SOL    HW2 2048   2.127   2.481   0.862  1.8058 -0.6672 -1.2166
  203SOL     OW 2049   0.553   2.099   0.314  0.4109 -0.8838 -0.5473
  203SOL    HW1 2050   0.520   2.151   0.241  1.8291  0.9157  0.0335
  203SOL    HW2 2051   0.635   2.062   0.282  2.0363  1.4328  0.6114
  204SOL     OW 2052   1.023   2.695   1.074  0.0236  0.0531  0.0106
  204SOL    HW1 2053   1.023   2.785   1.042  0.7410 -0.0233 -0.2357
  204SOL    HW2 2054   0.956   2.693   1.142  0.3552  0.9028  0.3704
  205SOL     OW 2055   2.291   0.589   0.460  0.5662  0.0351 -0.7991
  205SOL    HW1 2056   2.238   0.556   0.533  0.8995 -0.1768 -0.6483
  205SOL    HW2 2057   2.250   0.552   0.382 -0.5021  1.2049 -0.8311
  206SOL     OW 2058   2.426   0.722   1.356  0.3423  0.2145  0.1293
  206SOL    HW1 2059   2.421   0.787   1.287  1.7732 -0.6444 -0.8438
  206SOL    HW2 2060   2.356   0.660   1.335  0.4740  0.2030 -0.2897
  207SOL     OW 2061   0.921   2.660  11.739 -0.2899  0.1266 -0.0107
  207SOL    HW1 2062   0.840   2.610  11.748 -1.4457  2.1629  1.8055
  207SOL    HW2 2063   0.903   2.743  11.783  2.6522  0.8273  0.0699
  208SOL     OW 2064   2.484   0.102   1.066 -0.1267  0.2349  0.5360
  208SOL    HW1 2065   2.534   0.038   1.117  0.5512 -0.8020 -1.3239
  208SOL    HW2 2066   2.520   0.187   1.091  0.5244 -0.2744  1.3847
  209SOL     OW 2067   3.652   0.020  11.262  0.0590 -0.2683  0.0278
  209SOL    HW1 2068   3.732   0.039  11.214 -0.0936 -0.0176 -0.1353
  209SOL    HW2 2069   3.592   0.090  11.236 -0.0092 -0.1019  0.6251
  210SOL     OW 2070   1.319   0.959   1.896 -0.2299  0.6269 -0.2660
  210SOL    HW1 2071   1.223   0.960   1.900 -0.2545  1.5754 -0.9403
  210SOL    HW2 2072   1.339   0.897   1.826 -0.2985 -0.5231  0.6943
  211SOL     OW 2073   2.029   3.173   1.147 -0.3362 -0.2416  0.3012
  211SOL    HW1 2074   1.968   3.108   1.181  0.5455 -0.9568  0.5694
  211SOL    HW2 2075   2.097   3.121   1.104  0.7219  0.4588  1.0823
  212SOL     OW 2076   1.044   1.307  12.000 -0.3189  0.9338 -0.1362
  212SOL    HW1 2077   1.103   1.371  12.040  1.3709  0.9443 -2.4285
  212SOL    HW2 2078   1.102   1.243  11.959 -1.9495 -0.2257 -0.7638
  213SOL     OW 2079   2.178   7.749   0.516 -0.4311  0.4133 -0.3254
  213SOL    HW1 2080   2.139   7.677   0.467  0.4799  0.7159 -1.5503
  213SOL    HW2 2081   2.169   7.724   0.608  0.1501 -1.4226 -0.7310
  214SOL     OW 2082   7.127   0.432   1.226 -0.7688  0.1814 -0.2505
  214SOL    HW1 2083   7.091   0.367   1.286 -0.6315  0.4617  0.1422
  214SOL    HW2 2084   7.078   0.512   1.245  0.4632  0.7333  0.7204
  215SOL     OW 2085   1.802   2.053   0.237  0.5681 -0.3710  0.5453
  215SOL    HW1 2086   1.834   2.123   0.294 -0.3366 -0.0965  0.7391
  215SOL    HW2 2087   1.833   2.076   0.150 -1.4489  1.4193  0.2353
  216SOL     OW 2088   1.370   0.096   1.828 -0.4355 -0.1417  0.1433
  216SOL    HW1 2089   1.319   0.175   1.849  0.1927  0.0385  1.0458
  216SOL    HW2 2090   1.372   0.047   1.910 -0.0315 -0.6531 -0.1679
  217SOL     OW 2091   0.441   7.286   1.442  0.5587  0.2964  0.0511
  217SOL    HW1 2092   0.470   7.367   1.402 -0.0655  0.2897 -0.4310
  217SOL    HW2 2093   0.487   7.217   1.394  2.0062  0.3783  1.2259
  218SOL     OW 2094   1.921   1.392  12.411 -0.1357 -0.0413 -0.0401
  218SOL    HW1 2095   1.854   1.422  12.472 -0.7045  0.1561 -0.7406
  218SOL    HW2 2096   1.999   1.442  12.434 -0.2436 -0.2228  0.7421
  219SOL     OW 2097   7.919   0.998   1.545  0.4940 -0.4343 -0.3842
  219SOL    HW1 2098   7.862   1.071   1.520  1.9806  0.3420 -1.7159
  219SOL    HW2 2099   7.979   1.036   1.610  0.9896 -0.5860 -0.7498
  220SOL     OW 2100   1.604   1.039   2.643  0.3410 -0.6178  0.0507
  220SOL    HW1 2101   1.515   1.071   2.658 -0.0550 -1.6207 -0.0410
  220SOL    HW2 2102   1.614   1.040   2.548  0.8935  0.6691  0.1081
  221SOL     OW 2103   1.755   1.145   0.608  0.7247 -0.2381  0.0765
  221SOL    HW1 2104   1.826   1.132   0.671 -0.3417 -1.2630  1.1232
  221SOL    HW2 2105   1.753   1.063   0.558 -0.4175 -0.6752  0.8075
  222SOL     OW 2106   1.766   6.612   0.377  0.2432  0.3727  0.2910
  222SOL    HW1 2107   1.808   6.534   0.342 -0.4111  0.4075 -0.6195
  222SOL    HW2 2108   1.750   6.667   0.299 -0.7478  0.7054  0.7155
  223SOL     OW 2109   0.730   0.243  11.588  0.2206  0.0226 -0.2870
  223SOL    HW1 2110   0.795   0.197  11.534 -0.0104 -0.5270 -0.1045
  223SOL    HW2 2111   0.703   0.318  11.534  0.0146 -0.4998 -0.9229
  224SOL     OW 2112   2.473   5.993   2.143  0.3828  0.6649 -0.1012
  224SOL    HW1 2113   2.434   5.951   2.220 -0.3543  1.0693 -0.2396
  224SOL    HW2 2114   2.507   5.921   2.090 -0.7984  0.2228 -0.2982
  225SOL     OW 2115   7.678   2.006   0.118 -0.5720  0.0570 -0.6157
  225SOL    HW1 2116   7.663   2.091   0.161  1.2656  0.2887 -0.3704
  225SOL    HW2 2117   7.773   1.994   0.121 -0.8369 -2.3173 -0.0929
  226SOL     OW 2118   2.124   1.978   0.903  0.2870 -0.6409  0.0324
  226SOL    HW1 2119   2.052   1.996   0.843 -0.6684  0.7628  1.5208
  226SOL    HW2 2120   2.085   1.928   0.975  1.5913 -3.1064 -0.8195
  227SOL     OW 2121   2.107   7.423   0.958  0.8894  0.2004  0.1931
  227SOL    HW1 2122   2.046   7.365   0.913 -0.2998  1.8971 -0.4818
  227SOL    HW2 2123   2.148   7.368   1.025 -1.1419 -1.0755  0.4670
  228SOL     OW 2124   0.102   7.923  11.344  0.1660 -0.2378 -0.6968
  228SOL    HW1 2125   0.077   7.847  11.292 -0.4992 -0.3396 -0.2431
  228SOL    HW2 2126   0.117   7.888  11.432 -2.6297  0.4707  0.1608
  229SOL     OW 2127   0.189   7.804   1.394 -0.4248  0.2143  0.4017
  229SOL    HW1 2128   0.195   7.708   1.399 -0.2925  0.2541  1.0888
  229SOL    HW2 2129   0.243   7.827   1.318 -1.9744 -0.3937 -0.9412
  230SOL     OW 2130   2.083   1.395   1.427  0.3659  0.3584 -0.1685
  230SOL    HW1 2131   2.008   1.358   1.475 -0.0431  2.2779  0.7501
  230SOL    HW2 2132   2.127   1.450   1.490  2.3184 -0.3320 -0.8548
  231SOL     OW 2133   1.984   0.150   0.537 -0.0492  0.1183 -0.6167
  231SOL    HW1 2134   1.890   0.153   0.553  0.0705  1.2219  0.0062
  231SOL    HW2 2135   2.023   0.194   0.612  0.8956  0.5613 -1.3383
  232SOL     OW 2136   0.460   1.209   1.976 -1.0434  0.3138  0.1717
  232SOL    HW1 2137   0.382   1.156   1.990 -0.6290 -0.4872 -0.4704
  232SOL    HW2 2138   0.426   1.294   1.948 -1.6899 -0.0790 -0.2644
  233SOL     OW 2139   1.380   1.232   0.312  0.2601 -0.0533 -0.2127
  233SOL    HW1 2140   1.423   1.244   0.228  0.4919  1.9613  0.1287
  233SOL    HW2 2141   1.447   1.195   0.369  1.0835  1.4498 -0.1445
  234SOL     OW 2142   0.764   7.782   2.290 -0.4995  0.1173  0.0211
  234SOL    HW1 2143   0.781   7.817   2.203 -0.9895 -1.4379 -0.7395
  234SOL    HW2 2144   0.703   7.709   2.275 -0.7822 -0.0321  1.6924
  235SOL     OW 2145   7.942   1.695   1.974  0.5680  0.0679 -0.7332
  235SOL    HW1 2146   7.961   1.712   2.066 -0.0555  1.2978 -0.8067
  235SOL    HW2 2147   8.018   1.729   1.927  0.0315  1.2632 -0.7756
  236SOL     OW 2148   1.319   0.131   1.132  0.0333 -0.0726 -0.3814
  236SOL    HW1 2149   1.372   0.195   1.180 -0.7039  0.1674  0.1297
  236SOL    HW2 2150   1.230   0.143   1.165 -0.0673 -1.6220  0.0074
  237SOL     OW 2151   2.062   0.949   3.845  0.3081  0.0965  0.0313
  237SOL    HW1 2152   2.025   0.874   3.892  0.4569 -0.7787 -1.1893
  237SOL    HW2 2153   1.999   1.020   3.859 -1.3144 -1.0430 -1.0794
  238SOL     OW 2154   0.914   7.776  11.188  0.1204  0.3303  0.6453
  238SOL    HW1 2155   0.945   7.692  11.155  1.2119  0.9530  0.0179
  238SOL    HW2 2156   0.821   7.779  11.162 -0.1887 -1.0433  1.4793
  239SOL     OW 2157   1.374   0.403   1.701  0.1545 -0.3908  0.1443
  239SOL    HW1 2158   1.308   0.396   1.771  0.8976  0.1975  0.9252
  239SOL    HW2 2159   1.341   0.347   1.631 -1.7870  0.7805  0.0378
  240SOL     OW 2160   2.155   7.904   4.521 -0.3878 -0.0173  0.9942
  240SOL    HW1 2161   2.177   7.816   4.551 -0.3701 -0.2657  0.2807
  240SOL    HW2 2162   2.215   7.920   4.448 -0.9003  0.2775  0.6240
  241SOL     OW 2163   0.610   2.541   1.464 -0.3229  0.1563 -0.3480
  241SOL    HW1 2164   0.531   2.519   1.515  1.1413 -0.7763  1.6566
  241SOL    HW2 2165   0.615   2.472   1.398 -1.9372  1.0475 -1.4835
  242SOL     OW 2166   0.424   1.062   0.429 -0.3339 -0.5792  0.3971
  242SOL    HW1 2167   0.408   0.975   0.390  1.3355 -1.4686  1.6023
  242SOL    HW2 2168   0.498   1.097   0.380 -0.1254 -0.4239  0.8206
  243SOL     OW 2169   7.330   2.042   0.211 -0.4978  0.1893 -0.1915
  243SOL    HW1 2170   7.392   1.969   0.207 -1.8604 -0.9490 -1.5452
  243SOL    HW2 2171   7.382   2.115   0.245  1.6893 -0.5991 -1.6188
  244SOL     OW 2172   1.408   7.203   1.083 -0.0044 -0.4342 -0.1063
  244SOL    HW1 2173   1.487   7.255   1.091 -1.9574  2.8186 -0.0737
  244SOL    HW2 2174   1.386   7.180   1.173 -1.1295  2.1764  0.3767
  245SOL     OW 2175   1.219   2.810  12.365 -0.1460  0.1396 -0.2837
  245SOL    HW1 2176   1.306   2.783  12.397  0.7172  0.3180 -2.2928
  245SOL    HW2 2177   1.238   2.858  12.284 -2.1067  0.6809 -0.4582
  246SOL     OW 2178   0.313   0.797   0.622 -0.4891 -0.1754 -0.6113
  246SOL    HW1 2179   0.299   0.891   0.618  0.3297 -0.0595 -1.1106
  246SOL    HW2 2180   0.363   0.783   0.702 -2.5301 -0.4755  0.6676
  247SOL     OW 2181   1.247   0.172   1.535  0.2112 -0.2155  0.1819
  247SOL    HW1 2182   1.253   0.185   1.440  0.3840  0.4516  0.2772
  247SOL    HW2 2183   1.293   0.090   1.551  0.6168 -0.0791 -0.2556
  248SOL     OW 2184   7.579   3.351   0.607 -0.5452 -0.2318  0.3910
  248SOL    HW1 2185   7.562   3.437   0.646 -1.5040 -0.9471  1.6284
  248SOL    HW2 2186   7.565   3.289   0.679  1.5732 -1.3477 -0.0819
  249SOL     OW 2187   0.975   2.928   0.773  0.0167  0.4501 -0.0962
  249SOL    HW1 2188   0.937   2.928   0.861  0.3301 -0.4536  0.0466
  249SOL    HW2 2189   1.051   2.871   0.780 -1.9392 -2.6526 -1.7819
  250SOL     OW 2190   1.754   0.842   0.233  0.1361  0.7166 -0.2835
  250SOL    HW1 2191   1.741   0.802   0.146 -0.1824 -0.9329  0.4717
  250SOL    HW2 2192   1.665   0.859   0.264  0.1174 -0.9393  0.6685
  251SOL     OW 2193   1.713   1.163   1.735 -0.1195 -0.1465 -0.3554
  251SOL    HW1 2194   1.665   1.185   1.815 -1.6401  0.4111 -1.3790
  251SOL    HW2 2195   1.704   1.068   1.727  0.9213 -0.3579  0.6397
  252SOL     OW 2196   0.461   7.791   3.017 -0.3628  0.1089 -0.1403
  252SOL    HW1 2197   0.391   7.726   3.023 -0.5272  0.4173  2.1465
  252SOL    HW2 2198   0.447   7.833   2.932 -1.2247 -1.7297 -0.9633
  253SOL     OW 2199   0.511   7.492   1.286  0.2019  0.3107  0.4026
  253SOL    HW1 2200   0.606   7.482   1.273  0.1465  2.0953 -1.8321
  253SOL    HW2 2201   0.502   7.573   1.336 -0.1682  0.1569  0.5891
  254SOL     OW 2202   2.232   1.812  11.001  0.1600 -1.0957 -0.5163
  254SOL    HW1 2203   2.183   1.732  11.022  1.7799 -2.6966 -2.4118
  254SOL    HW2 2204   2.311   1.781  10.959  1.4689  1.5208 -0.1962
  255SOL     OW 2205   3.334   7.914  12.130  0.4897  0.0883  0.7302
  255SOL    HW1 2206   3.411   7.894  12.077  1.1893 -0.7454  1.9929
  255SOL    HW2 2207   3.370   7.957  12.208 -0.3535 -0.0680  1.2182
  256SOL     OW 2208   0.695   7.127   0.608 -0.1579  0.2042  0.1908
  256SOL    HW1 2209   0.618   7.075   0.585 -0.1044  0.0020  0.4589
  256SOL    HW2 2210   0.770   7.069   0.591 -0.1871 -0.7631  2.8254
  257SOL     OW 2211   1.902   0.514  11.894  0.2515  1.2642 -0.0167
  257SOL    HW1 2212   1.869   0.425  11.903 -0.7288  1.7439  1.6068
  257SOL    HW2 2213   1.824   0.569  11.896  0.8233  2.1729 -1.2014
  258SOL     OW 2214   1.290   2.401   0.002 -0.4156  0.0361  0.2611
  258SOL    HW1 2215   1.299   2.414  -0.093 -0.6340 -1.3187  0.0314
  258SOL    HW2 2216   1.379   2.384   0.032 -0.2197  1.2962  0.4627
  259SOL     OW 2217   1.372   7.674  11.203 -0.4836 -0.2546 -0.6337
  259SOL    HW1 2218   1.463   7.648  11.190 -0.3763  0.0739 -0.5625
  259SOL    HW2 2219   1.348   7.635  11.287 -0.9305 -1.7125 -1.4029
  260SOL     OW 2220   7.726   7.895  12.452 -0.3512 -0.0533 -0.1226
  260SOL    HW1 2221   7.746   7.831  12.385 -0.3626 -0.1679 -0.0173
  260SOL    HW2 2222   7.656   7.855  12.504 -2.6669  1.3564 -1.9884
  261SOL     OW 2223   0.193   7.925   0.320 -0.9441 -0.1083 -0.1134
  261SOL    HW1 2224   0.229   7.959   0.239 -1.7459  0.5603 -0.1925
  261SOL    HW2 2225   0.108   7.888   0.296 -0.8845 -0.5248  0.2959
  262SOL     OW 2226   1.025   0.773   2.389 -0.2691 -0.3250  0.2638
  262SOL    HW1 2227   1.046   0.851   2.441 -0.8692  0.3954 -0.5343
  262SOL    HW2 2228   1.109   0.730   2.374  0.0910  0.2570  0.5847
  263SOL     OW 2229   7.697   1.923   0.459 -0.3533  0.0272 -0.2279
  263SOL    HW1 2230   7.733   1.848   0.411  0.3288 -0.8582  1.5639
  263SOL    HW2 2231   7.760   1.993   0.444 -0.8322  0.1850 -1.6653
  264SOL     OW 2232   1.399   0.160   2.882 -0.2214  0.1242 -0.6734
  264SOL    HW1 2233   1.327   0.132   2.938  0.4602  1.0340  0.7272
  264SOL    HW2 2234   1.360   0.223   2.821 -0.0273  4.1402  2.8754
  265SOL     OW 2235   0.079   1.448   2.737 -0.0987 -0.4450  0.2219
  265SOL    HW1 2236   0.130   1.400   2.671 -1.8030 -3.3963  0.8545
  265SOL    HW2 2237   0.030   1.513   2.687  0.7181 -0.7417 -1.0174
  266SOL     OW 2238   1.073   0.125   1.272 -0.4845 -0.3006  0.4418
  266SOL    HW1 2239   0.997   0.135   1.330 -1.3416 -2.5306 -0.1877
  266SOL    HW2 2240   1.035   0.097   1.189  1.0157 -1.2418  0.0477
  267SOL     OW 2241   7.704   0.708   3.406  0.1422  0.1670  0.4376
  267SOL    HW1 2242   7.655   0.656   3.469 -0.8348  0.6504  0.0960
  267SOL    HW2 2243   7.638   0.761   3.362  0.9182  0.4942 -0.3663
  268SOL     OW 2244   1.453   0.466   3.049 -0.3478  0.0529  0.3628
  268SOL    HW1 2245   1.493   0.536   2.998 -1.0803 -0.3690 -0.8266
  268SOL    HW2 2246   1.361   0.492   3.057 -0.7191 -0.9434 -0.4319
  269SOL     OW 2247   7.943   0.873   1.062  0.8349 -0.0838  0.7144
  269SOL    HW1 2248   8.032   0.867   1.097  0.4113  1.2149  2.1154
  269SOL    HW2 2249   7.945   0.951   1.006  1.3343 -1.7757 -1.8184
  270SOL     OW 2250   7.656   0.028   3.017  0.4288  0.3843  0.2205
  270SOL    HW1 2251   7.678   0.120   3.000 -0.0304  0.6192  0.8239
  270SOL    HW2 2252   7.563   0.030   3.039  0.1297 -0.3907 -0.9055
  271SOL     OW 2253   6.899   7.237   2.987  0.0503  0.6648  0.4372
  271SOL    HW1 2254   6.933   7.171   2.928  1.5048  2.2976 -0.6540
  271SOL    HW2 2255   6.804   7.228   2.980  0.1645 -2.1656  1.4193
  272SOL     OW 2256   1.222   7.514   4.210 -0.3374 -0.4927 -0.2428
  272SOL    HW1 2257   1.272   7.573   4.152  1.3477 -2.7588 -1.2515
  272SOL    HW2 2258   1.165   7.465   4.151 -1.4272 -0.1873  0.5345
  273SOL     OW 2259   0.417   1.176   2.569 -0.0348  0.0186  0.2962
  273SOL    HW1 2260   0.485   1.112   2.548 -0.3994 -0.3751  0.2938
  273SOL    HW2 2261   0.392   1.155   2.659 -0.1867  0.1272  0.2786
  274SOL     OW 2262   1.859   7.254   5.614 -0.9095  0.0463 -0.2357
  274SOL    HW1 2263   1.819   7.233   5.698 -1.9209  0.4804 -0.6042
  274SOL    HW2 2264   1.879   7.169   5.575 -0.3130 -0.1554  0.4926
  275SOL     OW 2265   0.650   1.699   3.558  0.2531 -0.3052 -0.4764
  275SOL    HW1 2266   0.581   1.708   3.493 -1.4323 -1.0600  1.1167
  275SOL    HW2 2267   0.684   1.788   3.570 -0.0914 -0.0011 -1.6170
  276SOL     OW 2268   7.787   7.949   3.898  0.2578 -0.4774  0.0454
  276SOL    HW1 2269   7.859   7.886   3.907  1.6300  0.8842 -0.9060
  276SOL    HW2 2270   7.801   8.012   3.969  1.0773  0.7545 -1.1546
  277SOL     OW 2271   1.322   0.700   2.416 -0.1788  0.5008 -0.2388
  277SOL    HW1 2272   1.407   0.742   2.432 -0.4877  2.2833 -2.7410
  277SOL    HW2 2273   1.343   0.627   2.357 -0.0290 -1.2950  1.8835
  278SOL     OW 2274   1.258   7.551   2.763 -0.2600 -0.3735 -0.2599
  278SOL    HW1 2275   1.205   7.537   2.684  1.5480 -0.7404 -1.4474
  278SOL    HW2 2276   1.246   7.471   2.814 -1.3567 -0.1758 -0.1652
  279SOL     OW 2277   7.349   1.181   2.118 -0.1741  0.2645  0.4217
  279SOL    HW1 2278   7.428   1.140   2.084 -1.6947 -0.9495 -1.9769
  279SOL    HW2 2279   7.324   1.245   2.052 -2.0440 -0.5708  0.2433
  280SOL     OW 2280   0.713   6.974   4.022 -0.4232 -0.0170 -0.3819
  280SOL    HW1 2281   0.675   7.025   4.092 -0.1308 -0.2111 -0.0773
  280SOL    HW2 2282   0.647   6.974   3.953 -0.6637  0.2696 -0.1529
  281SOL     OW 2283   0.577   0.848   4.053  0.1283 -0.4332 -0.1973
  281SOL    HW1 2284   0.630   0.830   3.975 -0.5663  0.5188 -0.9085
  281SOL    HW2 2285   0.594   0.940   4.073 -0.4574 -0.4061  0.1902
  282SOL     OW 2286   2.284   1.718   5.071  0.8736 -0.8054 -0.0054
  282SOL    HW1 2287   2.378   1.716   5.052  0.7019 -0.1793 -1.0149
  282SOL    HW2 2288   2.260   1.811   5.066 -0.2972 -1.1523 -2.5556
  283SOL     OW 2289   0.624   0.994   2.633  0.0028 -0.4491 -0.0592
  283SOL    HW1 2290   0.609   0.900   2.646  0.1609 -0.3096  1.2351
  283SOL    HW2 2291   0.614   1.032   2.720 -0.1752  0.7627 -0.5875
  284SOL     OW 2292   1.763   7.208   3.627  0.2869  0.0327  0.4416
  284SOL    HW1 2293   1.673   7.240   3.624  0.2333 -0.0717  0.9045
  284SOL    HW2 2294   1.760   7.124   3.580 -0.3237 -1.0620  2.3510
  285SOL     OW 2295   6.892   0.409   2.260 -0.4480  0.1296  0.4536
  285SOL    HW1 2296   6.812   0.452   2.291  0.4324  1.7745  0.5827
  285SOL    HW2 2297   6.892   0.424   2.166 -0.8642 -0.9189  0.2724
  286SOL     OW 2298   0.211   1.000   4.200  0.0191  0.5242  0.0726
  286SOL    HW1 2299   0.190   0.985   4.292 -0.9026  0.8843 -0.0677
  286SOL    HW2 2300   0.143   1.060   4.169  0.7386  0.9891 -0.6585
  287SOL     OW 2301   6.974   2.299   1.955 -0.3058 -0.3575  0.3888
  287SOL    HW1 2302   6.914   2.350   2.010 -0.7569 -0.4359 -0.0212
  287SOL    HW2 2303   6.926   2.219   1.934 -1.1188  0.6626 -2.0416
  288SOL     OW 2304   2.429   0.396   2.898  0.2081  0.3139 -0.7178
  288SOL    HW1 2305   2.380   0.363   2.973  0.7015  0.1584 -0.4576
  288SOL    HW2 2306   2.422   0.326   2.832  1.1813 -0.2990 -0.1989
  289SOL     OW 2307   1.117   0.664   1.900  0.2678  0.4739  0.4973
  289SOL    HW1 2308   1.189   0.659   1.837 -0.9027 -0.6317 -0.8144
  289SOL    HW2 2309   1.073   0.746   1.878  0.2255  0.3944  0.2835
  290SOL     OW 2310   6.722   1.568   4.087 -0.0009 -0.0143  0.3507
  290SOL    HW1 2311   6.667   1.645   4.070 -0.5031 -0.4880 -0.2438
  290SOL    HW2 2312   6.811   1.602   4.094 -0.2618  0.6599  0.4095
  291SOL     OW 2313   6.547   7.757   4.885  0.1508 -0.0549 -0.2565
  291SOL    HW1 2314   6.623   7.701   4.900 -0.4051 -0.6249  0.5147
  291SOL    HW2 2315   6.481   7.699   4.849 -0.2786  0.1942  0.1128
  292SOL     OW 2316   2.583   6.790   2.968  0.0952 -0.0395  0.5596
  292SOL    HW1 2317   2.601   6.878   2.934 -0.2656  0.3247  1.2843
  292SOL    HW2 2318   2.491   6.774   2.946  0.0831 -0.1244  0.6694
  293SOL     OW 2319   7.881   7.598   3.200  0.3791 -0.0866 -0.0140
  293SOL    HW1 2320   7.845   7.655   3.269 -1.3654 -3.5549  2.2032
  293SOL    HW2 2321   7.805   7.579   3.144 -0.5194 -3.9499  2.1671
  294SOL     OW 2322   7.870   1.762   2.912  0.4437 -0.0564  0.4303
  294SOL    HW1 2323   7.938   1.779   2.977 -0.5077  1.7421  1.0484
  294SOL    HW2 2324   7.808   1.703   2.956  0.7019 -0.2700  0.5060
  295SOL     OW 2325   1.625   0.104   1.962 -0.1356  0.3126 -0.0275
  295SOL    HW1 2326   1.588   0.031   2.011 -0.8772  0.7749  0.1242
  295SOL    HW2 2327   1.554   0.133   1.904  0.2373  0.7291 -0.2829
  296SOL     OW 2328   0.747   1.734   3.204  0.1348  0.6423 -0.3595
  296SOL    HW1 2329   0.777   1.674   3.136  0.7326 -0.1953  0.6159
  296SOL    HW2 2330   0.808   1.808   3.200  0.5063  0.3359 -0.3646
  297SOL     OW 2331   0.941   0.404   4.356  0.1185  0.3769  0.2577
  297SOL    HW1 2332   0.888   0.453   4.418 -0.2920  0.5764 -0.2408
  297SOL    HW2 2333   1.030   0.437   4.369  0.3282 -0.6904  1.8212
  298SOL     OW 2334   0.079   1.235   4.106  0.0369 -0.6967  0.0905
  298SOL    HW1 2335   0.018   1.285   4.052  1.0667 -0.0577 -0.5280
  298SOL    HW2 2336   0.150   1.297   4.124 -0.0027 -1.0721  1.7176
  299SOL     OW 2337   1.686   1.427   2.654  0.5667  0.4487 -0.7376
  299SOL    HW1 2338   1.666   1.444   2.746 -0.0064  0.6874 -0.9062
  299SOL    HW2 2339   1.738   1.347   2.655 -0.1271 -0.0015 -0.2695
  300SOL     OW 2340   2.271   0.584   2.733 -0.2129 -0.1546 -0.0190
  300SOL    HW1 2341   2.305   0.531   2.805 -0.1257  0.1505  0.1656
  300SOL    HW2 2342   2.212   0.646   2.775  0.2399  0.3651 -0.1529
  301SOL     OW 2343   2.413   0.889   3.599 -0.0386 -0.5476  0.0390
  301SOL    HW1 2344   2.467   0.958   3.561  0.3771  0.0465  1.6410
  301SOL    HW2 2345   2.470   0.846   3.662  0.0370 -3.0664 -1.6269
  302SOL     OW 2346   1.897   0.813   3.187  0.0194  0.0982 -0.3494
  302SOL    HW1 2347   1.916   0.806   3.281  0.0048  1.6066 -0.2030
  302SOL    HW2 2348   1.972   0.773   3.144 -0.2930 -1.2482  0.2918
  303SOL     OW 2349   7.794   2.067   3.227  0.2059 -0.5143 -0.3805
  303SOL    HW1 2350   7.834   2.143   3.187  0.2701 -1.2755 -1.8475
  303SOL    HW2 2351   7.762   2.015   3.153  0.9400 -2.3334  0.5213
  304SOL     OW 2352   7.627   0.266   4.450  0.2737 -0.3118  0.2835
  304SOL    HW1 2353   7.615   0.346   4.500 -0.9762 -0.1073 -0.2901
  304SOL    HW2 2354   7.694   0.217   4.498  1.9162  1.5549  0.0103
  305SOL     OW 2355   2.562   1.077   4.780 -0.5568 -0.3752  0.1522
  305SOL    HW1 2356   2.620   1.152   4.790 -0.7719 -0.1091 -0.5629
  305SOL    HW2 2357   2.556   1.040   4.868 -0.3882  0.3930  0.4974
  306SOL     OW 2358   1.903   6.723   4.185 -0.4314 -0.4736 -0.4283
  306SOL    HW1 2359   1.968   6.736   4.254 -1.4108  1.0349  0.2728
  306SOL    HW2 2360   1.942   6.658   4.127  1.4519 -0.0191  0.2493
  307SOL     OW 2361   1.036   0.961   1.895  0.1807 -0.3639  0.3172
  307SOL    HW1 2362   0.990   0.947   1.978  0.6373  2.5928  1.1679
  307SOL    HW2 2363   1.003   1.045   1.863  1.3095 -0.6033 -1.6337
  308SOL     OW 2364   7.941   0.593   2.392 -0.3817  0.6209 -0.0672
  308SOL    HW1 2365   8.007   0.552   2.449  0.2487  0.0921 -1.1370
  308SOL    HW2 2366   7.896   0.655   2.448  2.0450  2.1168  0.3643
  309SOL     OW 2367   0.759   0.578   4.490 -0.2075 -0.1050  0.2213
  309SOL    HW1 2368   0.734   0.670   4.484 -0.9122 -0.2995  0.1458
  309SOL    HW2 2369   0.709   0.545   4.565 -0.4061 -0.5701 -0.1147
  310SOL     OW 2370   3.353   0.647   2.660  0.1828  0.4242 -0.6142
  310SOL    HW1 2371   3.343   0.730   2.613 -1.6646  0.1551 -0.7663
  310SOL    HW2 2372   3.279   0.594   2.631  0.4250 -0.6795  0.7031
  311SOL     OW 2373   3.165   0.326   3.454  0.6444  0.1015  0.3714
  311SOL    HW1 2374   3.094   0.276   3.413  1.1735  0.9278 -1.6723
  311SOL    HW2 2375   3.217   0.260   3.500  0.3754 -0.9960 -0.8417
  312SOL     OW 2376   3.673   1.678   2.326  0.1554  0.1545 -0.1334
  312SOL    HW1 2377   3.620   1.709   2.252  0.5337 -1.5930 -1.1846
  312SOL    HW2 2378   3.609   1.645   2.389 -0.1456  1.1969  0.1316
  313SOL     OW 2379   3.156   6.922   2.033 -0.0164  0.3512  0.7020
  313SOL    HW1 2380   3.140   6.893   2.123  1.1866  0.1783  0.8816
  313SOL    HW2 2381   3.143   6.844   1.979 -1.7828  0.6980  0.5820
  314SOL     OW 2382   7.598   3.083   3.239  0.2343  0.0565  0.3850
  314SOL    HW1 2383   7.653   3.055   3.166  0.3472 -2.4914  1.3485
  314SOL    HW2 2384   7.647   3.153   3.281  0.6698  0.8131 -1.2920
  315SOL     OW 2385   7.188   1.642   3.322 -0.1196 -0.0771  0.6083
  315SOL    HW1 2386   7.162   1.715   3.378 -1.4942 -2.0692  2.7858
  315SOL    HW2 2387   7.162   1.668   3.234 -1.4459  1.6576  1.4558
  316SOL     OW 2388   0.983   1.518   3.467 -0.0016  0.5902 -0.2138
  316SOL    HW1 2389   0.936   1.452   3.518 -0.1947  0.5376 -0.4578
  316SOL    HW2 2390   0.984   1.596   3.523  0.8516  0.1698  0.3711
  317SOL     OW 2391   1.769   1.167   3.695  0.0132  0.6697 -0.1516
  317SOL    HW1 2392   1.833   1.238   3.691  1.0131 -0.2292 -0.7291
  317SOL    HW2 2393   1.722   1.172   3.612 -0.1666  0.8714 -0.0393
  318SOL     OW 2394   0.868   0.967   3.526  0.4214 -0.0391  0.2268
  318SOL    HW1 2395   0.835   0.878   3.534  0.1732 -0.1286 -1.5351
  318SOL    HW2 2396   0.790   1.022   3.522  0.4897 -0.0190 -1.4110
  319SOL     OW 2397   1.953   0.578   2.603 -0.2858  0.5953  0.7044
  319SOL    HW1 2398   1.975   0.515   2.534 -2.7978  0.7465 -0.3325
  319SOL    HW2 2399   1.994   0.659   2.574 -1.4010  0.6841 -0.7287
  320SOL     OW 2400   1.106   1.324   5.149  0.2351 -0.3462  0.0021
  320SOL    HW1 2401   1.139   1.344   5.236  1.4892  0.5994 -0.6613
  320SOL    HW2 2402   1.038   1.258   5.164  1.7531 -1.6798  1.5239
  321SOL     OW 2403   0.031   2.205   1.021 -0.9248  0.4866  0.1283
  321SOL    HW1 2404  -0.063   2.212   1.037 -0.7549  1.3656  0.7983
  321SOL    HW2 2405   0.038   2.200   0.925 -1.6581  0.3169  0.0773
  322SOL     OW 2406   1.646   7.964   2.245 -0.1649 -0.1858 -0.4797
  322SOL    HW1 2407   1.630   7.929   2.332 -0.5989  0.0274 -0.4701
  322SOL    HW2 2408   1.741   7.977   2.241 -0.0927 -0.6073 -0.2001
  323SOL     OW 2409   0.137   0.268   2.501  0.2237 -0.0043  0.0516
  323SOL    HW1 2410   0.179   0.226   2.576 -1.1619 -1.6283 -0.0095
  323SOL    HW2 2411   0.198   0.254   2.428  0.9552  0.3931  0.5783
  324SOL     OW 2412   7.325   1.052   1.444 -0.2306 -0.0262  0.6240
  324SOL    HW1 2413   7.359   1.006   1.368  0.7568  0.5346  0.7136
  324SOL    HW2 2414   7.385   1.029   1.515 -0.7446  0.0090  1.0770
  325SOL     OW 2415   2.593   0.243   2.396 -0.2682  0.8011 -0.3534
  325SOL    HW1 2416   2.590   0.267   2.304 -0.7187 -0.5522 -0.7170
  325SOL    HW2 2417   2.686   0.227   2.414 -0.4078 -1.6721 -1.3711
  326SOL     OW 2418   7.535   0.559   2.335  0.1110 -0.4379 -0.4346
  326SOL    HW1 2419   7.522   0.650   2.307  1.9816  0.2648  0.7544
  326SOL    HW2 2420   7.524   0.562   2.430  1.2795 -1.2164 -0.2534
  327SOL     OW 2421   6.984   0.873   3.650 -0.0254 -0.0910  0.0030
  327SOL    HW1 2422   6.917   0.941   3.646  1.1443  1.0854  0.0249
  327SOL    HW2 2423   6.968   0.829   3.734 -0.5494  0.4060  0.1710
  328SOL     OW 2424   0.058   7.405   3.263  0.0385 -0.0352  0.1506
  328SOL    HW1 2425   0.035   7.485   3.216  0.3325 -0.4958 -0.8030
  328SOL    HW2 2426   0.093   7.346   3.196 -1.9406 -1.6754  0.4546
  329SOL     OW 2427   2.131   7.533   4.384  0.1345 -0.2944  0.0603
  329SOL    HW1 2428   2.090   7.516   4.468  0.4189 -0.4380  0.1739
  329SOL    HW2 2429   2.205   7.591   4.405  0.7882 -1.1004  0.0545
  330SOL     OW 2430   7.510   0.630   2.614 -0.0253 -0.1431 -0.0340
  330SOL    HW1 2431   7.466   0.692   2.672 -1.7625 -0.5844 -0.8071
  330SOL    HW2 2432   7.484   0.544   2.646 -1.3785 -0.3993 -1.6326
  331SOL     OW 2433   1.020   7.744   2.611 -0.2478 -0.4529 -0.0831
  331SOL    HW1 2434   0.982   7.830   2.595  0.4146 -0.4355 -1.8078
  331SOL    HW2 2435   1.113   7.760   2.623  0.4682 -1.1107 -3.6199
  332SOL     OW 2436   7.784   0.538   2.757  0.2280  0.0697 -0.1228
  332SOL    HW1 2437   7.874   0.537   2.726  0.1502 -0.0667 -0.3473
  332SOL    HW2 2438   7.734   0.578   2.686  0.1055  0.1127 -0.0142
  333SOL     OW 2439   7.394   0.966   4.337  0.1510  0.7432  0.2319
  333SOL    HW1 2440   7.486   0.991   4.350  0.3854  0.0173  0.0258
  333SOL    HW2 2441   7.394   0.871   4.349 -0.8360  0.8865  1.6835
  334SOL     OW 2442   7.910   0.363   4.579  0.6943  0.1171  0.5976
  334SOL    HW1 2443   7.935   0.454   4.561 -0.1710  0.2098 -0.1615
  334SOL    HW2 2444   7.981   0.311   4.541  0.3441  0.4226 -0.5109
  335SOL     OW 2445   0.696   0.851   3.812 -0.0339 -0.2461  0.0539
  335SOL    HW1 2446   0.784   0.817   3.827 -0.1826 -0.6517  0.0233
  335SOL    HW2 2447   0.656   0.788   3.752  0.0152  0.5099 -0.7801
  336SOL     OW 2448   7.706   7.205   2.242  0.2978 -0.2480  0.3368
  336SOL    HW1 2449   7.772   7.161   2.188  0.6977  0.3656  0.3126
  336SOL    HW2 2450   7.624   7.193   2.194  0.5356 -0.2977 -0.0652
  337SOL     OW 2451   0.596   0.734   2.621  0.2264 -0.1513 -0.7031
  337SOL    HW1 2452   0.540   0.699   2.551  0.3448 -0.2819 -0.7321
  337SOL    HW2 2453   0.685   0.714   2.593  0.2207 -1.9082  0.3791
  338SOL     OW 2454   0.514   7.563   3.230 -0.5896 -0.2002  0.5446
  338SOL    HW1 2455   0.543   7.605   3.150 -0.1662 -1.0618  0.2372
  338SOL    HW2 2456   0.419   7.573   3.229 -0.4747  1.1912  0.7442
  339SOL     OW 2457   0.402   0.151   3.399  0.0868  0.5558  0.1527
  339SOL    HW1 2458   0.331   0.183   3.454 -0.1897 -0.4510  0.3918
  339SOL    HW2 2459   0.359   0.112   3.323  0.3099 -0.9035  0.7399
  340SOL     OW 2460   0.161   0.198   4.531  0.0027 -0.6874  0.2007
  340SOL    HW1 2461   0.214   0.218   4.454  0.5025  0.2424  0.7602
  340SOL    HW2 2462   0.211   0.133   4.579 -0.2335 -1.1495 -0.1711
  341SOL     OW 2463   7.867   7.944   1.842 -0.1313  0.4494 -0.2264
  341SOL    HW1 2464   7.827   7.910   1.762 -0.7880 -1.5582  0.8809
  341SOL    HW2 2465   7.939   7.998   1.811  1.4378 -2.4972 -2.2304
  342SOL     OW 2466   7.090   0.503   4.164  0.4178 -0.4644  0.6029
  342SOL    HW1 2467   7.019   0.492   4.227 -0.3901 -0.2702 -0.2509
  342SOL    HW2 2468   7.100   0.418   4.122 -0.1489 -0.1836 -0.1274
  343SOL     OW 2469   0.901   1.249   3.289  0.4737  0.1323  0.4315
  343SOL    HW1 2470   0.846   1.260   3.367  0.1337  0.8576  0.0993
  343SOL    HW2 2471   0.911   1.155   3.281 -1.5579 -0.0977 -0.0508
  344SOL     OW 2472   7.933   0.850   2.286 -0.2149 -0.2306  0.1330
  344SOL    HW1 2473   7.864   0.825   2.347  0.9866 -0.6364  1.3746
  344SOL    HW2 2474   8.002   0.785   2.299  0.4950  0.2838 -0.9236
  345SOL     OW 2475   1.543   0.495   4.245  0.4059  0.3972  0.3476
  345SOL    HW1 2476   1.536   0.508   4.150 -0.2255  1.0661  0.4791
  345SOL    HW2 2477   1.461   0.450   4.268  1.4071 -1.5701  0.2966
  346SOL     OW 2478   7.438   7.982   4.532  0.1429 -0.2241 -0.4085
  346SOL    HW1 2479   7.359   8.002   4.480 -0.9575  0.1713  1.3311
  346SOL    HW2 2480   7.460   8.065   4.575  0.5701 -0.7174  0.3464
  347SOL     OW 2481   7.897   7.570   1.716 -0.1237  0.5106  0.0359
  347SOL    HW1 2482   7.946   7.592   1.795 -2.6417 -1.5839  2.3683
  347SOL    HW2 2483   7.926   7.482   1.693 -1.5994 -0.1186  0.5035
  348SOL     OW 2484   1.892   6.532   2.371 -0.0880  0.6209 -0.4649
  348SOL    HW1 2485   1.897   6.530   2.467 -2.1949  0.4111 -0.3228
  348SOL    HW2 2486   1.974   6.491   2.343 -0.4019 -1.4591  1.2998
  349SOL     OW 2487   0.119   2.837   2.473 -0.0544 -0.0174  0.0329
  349SOL    HW1 2488   0.096   2.929   2.460  0.7236  0.2073  0.2481
  349SOL    HW2 2489   0.126   2.801   2.385  0.5518  0.3555 -0.0736
  350SOL     OW 2490   1.166   5.805   3.856  0.1959 -0.5548 -0.1923
  350SOL    HW1 2491   1.193   5.880   3.803 -0.4382 -0.6297 -0.6412
  350SOL    HW2 2492   1.247   5.760   3.877  0.5311 -0.0827 -0.4365
  351SOL     OW 2493   1.108   0.970   2.560 -0.0356 -0.4538  0.6342
  351SOL    HW1 2494   1.171   1.031   2.598 -1.5363  2.1038 -0.6175
  351SOL    HW2 2495   1.061   0.934   2.635  0.5098  0.4306  1.4260
  352SOL     OW 2496   6.996   1.035   2.050 -0.3600  0.4977  0.0491
  352SOL    HW1 2497   7.043   1.118   2.049  1.0377 -0.2141  1.6309
  352SOL    HW2 2498   6.908   1.057   2.082 -0.3720  1.5188 -0.6719
  353SOL     OW 2499   1.704   1.681   3.731  0.5003 -0.0079 -0.0216
  353SOL    HW1 2500   1.754   1.721   3.660  0.4664  1.4373  0.7140
  353SOL    HW2 2501   1.770   1.642   3.788  0.5387 -1.0134 -0.7267
  354SOL     OW 2502   2.720   0.878   2.715  0.6319  0.1876 -0.0399
  354SOL    HW1 2503   2.779   0.813   2.753 -0.3660 -1.5281 -1.2934
  354SOL    HW2 2504   2.633   0.838   2.723  0.1555  0.6708 -2.1988
  355SOL     OW 2505   0.411   7.412   1.977  0.1718  0.0673 -0.4224
  355SOL    HW1 2506   0.377   7.479   2.037  0.5712 -1.5007  1.6807
  355SOL    HW2 2507   0.497   7.445   1.951  0.4174  0.3532  0.6789
  356SOL     OW 2508   0.304   0.678   3.496 -0.5350 -0.5070 -0.2079
  356SOL    HW1 2509   0.308   0.628   3.578  2.7844  0.5707  0.4527
  356SOL    HW2 2510   0.379   0.738   3.501 -0.0025 -0.5976 -4.1751
  357SOL     OW 2511   0.160   2.387   2.402 -0.1081  0.1441 -0.3907
  357SOL    HW1 2512   0.160   2.317   2.336 -0.6242  0.2676 -0.5206
  357SOL    HW2 2513   0.235   2.366   2.458  1.0602  0.6893 -1.6891
  358SOL     OW 2514   2.352   4.520   4.994  0.1582 -0.0474 -0.1556
  358SOL    HW1 2515   2.389   4.437   4.964  0.7806  0.1000  0.2048
  358SOL    HW2 2516   2.418   4.556   5.052  0.0510  0.8819 -0.6031
  359SOL     OW 2517   0.538   1.223   3.666  0.6087 -0.1725 -0.1328
  359SOL    HW1 2518   0.572   1.194   3.581  0.5158  1.9145 -0.9435
  359SOL    HW2 2519   0.444   1.205   3.661  0.8012 -1.4017  0.1583
  360SOL     OW 2520   1.028   0.841   2.792  0.2061  0.0877 -0.0872
  360SOL    HW1 2521   1.055   0.894   2.866 -0.8780  0.0555  0.3530
  360SOL    HW2 2522   0.961   0.782   2.827 -1.1429  0.8159 -1.2784
  361SOL     OW 2523   7.607   1.354   2.295 -0.1371  0.4284 -0.5037
  361SOL    HW1 2524   7.541   1.419   2.272 -0.4593  0.8974  1.5170
  361SOL    HW2 2525   7.594   1.283   2.232  0.2807  2.2792 -2.8162
  362SOL     OW 2526   0.358   0.078   4.643  0.1490  0.0174  0.0124
  362SOL    HW1 2527   0.425   0.015   4.616  0.5617  0.6408 -0.4605
  362SOL    HW2 2528   0.316   0.038   4.719 -2.1375 -2.5663 -2.3938
  363SOL     OW 2529   0.537   7.914   1.635 -0.2023  0.0544 -0.1991
  363SOL    HW1 2530   0.592   7.992   1.641 -0.0427 -0.0357 -0.4670
  363SOL    HW2 2531   0.471   7.926   1.703  0.4449 -0.0704  0.4688
  364SOL     OW 2532   0.011   2.055   1.679 -0.2201 -0.1362 -0.3652
  364SOL    HW1 2533  -0.039   2.045   1.759 -0.6844  1.1778 -0.4795
  364SOL    HW2 2534   0.077   1.985   1.683  1.2307  1.2476  2.2322
  365SOL     OW 2535   6.859   6.977   1.319  0.0638  0.0332 -0.3677
  365SOL    HW1 2536   6.908   7.000   1.240  0.2631 -1.4697 -0.7321
  365SOL    HW2 2537   6.884   6.886   1.336  0.1270  0.3530  1.5163
  366SOL     OW 2538   1.133   0.667   3.415  0.2734 -0.2189  0.1295
  366SOL    HW1 2539   1.190   0.722   3.469  1.4392 -0.8936 -0.3801
  366SOL    HW2 2540   1.189   0.595   3.387 -0.2657  0.1702 -2.0932
  367SOL     OW 2541   5.980   1.768   1.812 -0.6636 -0.4841 -0.7129
  367SOL    HW1 2542   5.900   1.724   1.782  0.5104 -0.7315 -3.7811
  367SOL    HW2 2543   6.042   1.696   1.827 -0.5797 -0.2060  0.3774
  368SOL     OW 2544   7.661   1.501   3.624  0.1420  0.5961 -0.2801
  368SOL    HW1 2545   7.616   1.563   3.681  0.5623  1.2243 -0.6278
  368SOL    HW2 2546   7.597   1.432   3.608 -0.9867  1.8439 -1.3788
  369SOL     OW 2547   2.089   7.304   1.293  0.6154 -0.1463  0.5795
  369SOL    HW1 2548   2.022   7.240   1.270 -0.3319  1.3119 -0.9678
  369SOL    HW2 2549   2.143   7.259   1.358 -0.6087 -2.1172  0.3424
  370SOL     OW 2550   1.434   1.644   3.450 -0.7519 -0.4028 -0.1640
  370SOL    HW1 2551   1.464   1.733   3.468 -0.5226 -0.3606 -0.7428
  370SOL    HW2 2552   1.364   1.629   3.514  0.2088 -0.3617  0.9313
  371SOL     OW 2553   1.616   7.837   2.481 -0.0516 -0.2589  0.6606
  371SOL    HW1 2554   1.658   7.752   2.497  0.8427  0.4035  2.0146
  371SOL    HW2 2555   1.602   7.873   2.569 -3.1862 -0.2714  0.2812
  372SOL     OW 2556   7.220   1.354   1.314  0.7145  0.9990  0.2060
  372SOL    HW1 2557   7.224   1.431   1.370  1.5155  0.5544  0.7764
  372SOL    HW2 2558   7.166   1.291   1.362 -1.6888  1.8886 -1.1607
  373SOL     OW 2559   7.501   7.269   4.529 -0.1692  0.2630  0.1488
  373SOL    HW1 2560   7.518   7.178   4.553 -1.0430  0.5131  1.8270
  373SOL    HW2 2561   7.588   7.308   4.518  0.2137 -0.5326  0.3482
  374SOL     OW 2562   1.286   1.070   3.471  0.1330  0.4598  0.3674
  374SOL    HW1 2563   1.230   1.140   3.438  1.8235  0.1792 -3.6827
  374SOL    HW2 2564   1.365   1.116   3.502 -0.1901  0.5152  1.1376
  375SOL     OW 2565   1.224   7.924   4.078  0.1896  0.3218  0.1752
  375SOL    HW1 2566   1.265   7.839   4.091  0.5582  0.3807 -0.5238
  375SOL    HW2 2567   1.255   7.978   4.151  0.9154  0.2003 -0.0332
  376SOL     OW 2568   7.099   5.690   4.481 -0.1638  0.0846 -0.4986
  376SOL    HW1 2569   7.012   5.727   4.494  0.1740  1.0007 -0.8134
  376SOL    HW2 2570   7.143   5.752   4.424  1.0128  0.0859  0.3883
  377SOL     OW 2571   1.363   0.389   2.547  0.3522  0.3179 -0.4105
  377SOL    HW1 2572   1.314   0.463   2.583  0.7359  0.0263  0.7567
  377SOL    HW2 2573   1.436   0.377   2.608  1.3214  0.1059 -1.5555
  378SOL     OW 2574   2.408   0.983   3.071 -0.1149 -0.1383 -0.2974
  378SOL    HW1 2575   2.354   1.000   3.148  0.6357 -0.3128  0.2716
  378SOL    HW2 2576   2.467   1.058   3.066  0.0873 -0.3087 -0.4918
  379SOL     OW 2577   0.593   0.784   3.217 -0.1691 -0.0951 -0.2937
  379SOL    HW1 2578   0.632   0.699   3.239  0.2872  0.8268  3.1170
  379SOL    HW2 2579   0.503   0.764   3.191  0.1473 -1.6587 -0.2705
  380SOL     OW 2580   6.543   0.499   3.070  0.0869  0.0598 -0.2891
  380SOL    HW1 2581   6.628   0.479   3.031  0.3281  0.4469  0.0336
  380SOL    HW2 2582   6.513   0.578   3.023  0.5696  0.7755  0.5774
  381SOL     OW 2583   1.215   0.581   2.655  0.3352  0.3555  0.4682
  381SOL    HW1 2584   1.135   0.545   2.695 -0.7970  2.0615 -0.1767
  381SOL    HW2 2585   1.184   0.630   2.579  2.1668 -0.2172 -0.7114
  382SOL     OW 2586   6.648   6.967   2.534  0.0687 -0.3207  0.4065
  382SOL    HW1 2587   6.644   6.984   2.628 -0.3164  0.2638  0.2881
  382SOL    HW2 2588   6.562   6.931   2.512  0.3464 -0.9818  0.3721
  383SOL     OW 2589   2.011   1.064   3.127  0.4277 -0.5890 -0.4048
  383SOL    HW1 2590   1.959   0.983   3.122 -1.0316  0.2760 -0.0262
  383SOL    HW2 2591   2.046   1.076   3.039  0.9975 -1.8305 -0.3653
  384SOL     OW 2592   0.939   6.865   2.297  0.1379 -0.1131  0.1311
  384SOL    HW1 2593   0.968   6.775   2.313  3.5926  1.1429  1.7338
  384SOL    HW2 2594   0.938   6.873   2.201 -1.2837 -2.0652 -0.0824
  385SOL     OW 2595   1.809   6.172   2.332 -0.3835  0.3479  0.1434
  385SOL    HW1 2596   1.862   6.248   2.355 -1.9933  2.2908 -2.1601
  385SOL    HW2 2597   1.811   6.169   2.236 -1.8673 -1.4048  0.1063
  386SOL     OW 2598   0.620   0.361   2.663  0.1396  0.0177 -0.5445
  386SOL    HW1 2599   0.611   0.300   2.590 -1.8765  0.6106 -0.8653
  386SOL    HW2 2600   0.659   0.440   2.624 -1.4918  0.5607 -1.1939
  387SOL     OW 2601   2.292   1.536   5.290  0.0174 -0.4541 -0.8908
  387SOL    HW1 2602   2.244   1.580   5.220 -0.2263 -0.6873 -0.8733
  387SOL    HW2 2603   2.224   1.506   5.350  0.2773  0.6787  0.0047
  388SOL     OW 2604   2.161   3.377   0.761  0.3381 -0.2457 -0.3538
  388SOL    HW1 2605   2.241   3.402   0.715 -0.1608  0.0876 -1.0596
  388SOL    HW2 2606   2.173   3.409   0.850  1.6638 -1.6178  0.0060
  389SOL     OW 2607   1.671   7.724   4.044 -0.3787 -0.0644  0.1133
  389SOL    HW1 2608   1.654   7.672   3.965 -1.1674  1.0892 -0.5084
  389SOL    HW2 2609   1.760   7.758   4.032 -0.3478 -0.2157 -0.0959
  390SOL     OW 2610   3.398   1.963   3.100  0.3826  0.7168 -0.2658
  390SOL    HW1 2611   3.312   2.003   3.112  0.9391  1.6042  0.9437
  390SOL    HW2 2612   3.451   2.031   3.058  0.4610  0.0949 -1.2229
  391SOL     OW 2613   1.371   0.387   0.949  0.2077 -0.7603  0.3762
  391SOL    HW1 2614   1.354   0.381   0.855 -0.3485 -1.4417  0.5135
  391SOL    HW2 2615   1.284   0.381   0.989  0.4688 -0.7399  0.9481
  392SOL     OW 2616   0.872   1.263   2.482  0.1876 -0.3731  0.0178
  392SOL    HW1 2617   0.816   1.340   2.481  1.2422  0.5109 -3.0256
  392SOL    HW2 2618   0.816   1.192   2.451  0.3557  0.2339 -1.7642
  393SOL     OW 2619   6.785   0.860   3.936 -0.4359  0.0365  0.5121
  393SOL    HW1 2620   6.699   0.890   3.967 -0.1752  0.1871  1.1156
  393SOL    HW2 2621   6.782   0.765   3.944 -1.0200 -0.0670 -0.7491
  394SOL     OW 2622   0.534   7.841   2.742 -0.1053  0.2438 -0.4085
  394SOL    HW1 2623   0.468   7.829   2.673 -1.0628  1.9384  0.1382
  394SOL    HW2 2624   0.597   7.771   2.727 -2.1391 -1.6179 -0.8111
  395SOL     OW 2625   0.866   7.643   3.574 -0.5781 -0.2419  0.3585
  395SOL    HW1 2626   0.936   7.635   3.510 -0.8087  1.2353 -0.1300
  395SOL    HW2 2627   0.786   7.645   3.522 -0.8768 -0.4326  0.7994
  396SOL     OW 2628   1.932   7.750   2.570  0.4418 -0.1584 -0.1297
  396SOL    HW1 2629   1.962   7.819   2.510 -0.5131  0.4269  0.0397
  396SOL    HW2 2630   1.999   7.682   2.564  1.3537  0.7371 -0.3813
  397SOL     OW 2631   7.298   0.208   2.393  0.2244 -0.1519  0.4898
  397SOL    HW1 2632   7.382   0.217   2.348  0.8136 -0.0176  1.5902
  397SOL    HW2 2633   7.296   0.118   2.424 -0.3070 -0.3277 -0.0290
  398SOL     OW 2634   6.808   2.026   2.706 -0.4169 -0.3577  0.0517
  398SOL    HW1 2635   6.856   2.091   2.756 -1.5816 -0.2671  1.1063
  398SOL    HW2 2636   6.854   2.020   2.622  0.5784  0.7153  0.5066
  399SOL     OW 2637   7.811   1.192   4.670 -0.2822  0.4894  0.3469
  399SOL    HW1 2638   7.835   1.277   4.706 -1.2812  0.9725 -0.1024
  399SOL    HW2 2639   7.887   1.136   4.688  1.5751  2.1543 -1.6922
  400SOL     OW 2640   1.534   1.192   0.795 -0.0129  0.2669  0.0173
  400SOL    HW1 2641   1.451   1.213   0.753 -0.0788  0.7514  0.3735
  400SOL    HW2 2642   1.588   1.155   0.726 -0.7370 -0.6398 -0.0813
  401SOL     OW 2643   7.301   0.938   4.076  0.1360  0.2695  0.1335
  401SOL    HW1 2644   7.309   0.976   4.163  0.5945 -0.5122  0.4494
  401SOL    HW2 2645   7.217   0.893   4.076  0.2912 -0.0247  0.2998
  402SOL     OW 2646   1.268   1.479   3.706  0.3837  0.4423  0.0651
  402SOL    HW1 2647   1.204   1.545   3.678  0.6781  0.0829 -1.4970
  402SOL    HW2 2648   1.234   1.447   3.790 -0.6743  1.3402 -0.0035
  403SOL     OW 2649   6.255   7.639   1.137  0.6684 -0.2964 -0.5577
  403SOL    HW1 2650   6.171   7.677   1.112  0.1372  1.2844  3.0005
  403SOL    HW2 2651   6.301   7.709   1.183  3.6054 -1.4012 -1.5293
  404SOL     OW 2652   2.353   7.839   1.758  0.4870  0.3851  0.2647
  404SOL    HW1 2653   2.302   7.831   1.839 -1.1900  0.1604 -0.7737
  404SOL    HW2 2654   2.432   7.787   1.775 -0.2723 -0.4593  1.4192
  405SOL     OW 2655   0.814   1.290   2.764  0.3646  0.1933  0.2724
  405SOL    HW1 2656   0.751   1.218   2.764  0.1632  0.3667 -0.0189
  405SOL    HW2 2657   0.850   1.290   2.675 -0.1967  0.9350  0.0352
  406SOL     OW 2658   0.685   1.461   2.485  0.0496 -0.6523  0.0105
  406SOL    HW1 2659   0.702   1.502   2.401 -2.4062 -1.7610 -1.1309
  406SOL    HW2 2660   0.635   1.526   2.535 -0.2473 -0.7120 -0.2028
  407SOL     OW 2661   7.006   0.092   2.394  0.2251  0.0831  0.0474
  407SOL    HW1 2662   7.009   0.071   2.488  0.7704 -2.0436 -0.3896
  407SOL    HW2 2663   6.914   0.078   2.370  0.2376 -0.1092  0.1099
  408SOL     OW 2664   7.860   0.253   3.699  0.6190  0.2848 -0.0610
  408SOL    HW1 2665   7.924   0.183   3.702 -0.5138 -0.7685  2.6830
  408SOL    HW2 2666   7.874   0.302   3.780 -2.9143 -0.9802  1.5379
  409SOL     OW 2667   2.089   7.566   1.484 -0.1833  0.1749  0.0189
  409SOL    HW1 2668   2.099   7.472   1.496 -0.2994  0.0981 -0.4430
  409SOL    HW2 2669   2.172   7.604   1.513 -0.2122 -0.0504  0.3946
  410SOL     OW 2670   7.104   1.874   3.464  0.6200 -0.3069 -0.0609
  410SOL    HW1 2671   7.029   1.918   3.425 -0.9589 -1.5615  1.4234
  410SOL    HW2 2672   7.123   1.924   3.543  0.9432 -0.3627 -0.1016
  411SOL     OW 2673   0.966   0.151   4.017 -0.5535 -0.0397  0.2802
  411SOL    HW1 2674   0.920   0.223   3.974 -0.4517  0.7845  1.4940
  411SOL    HW2 2675   0.928   0.072   3.979 -1.1439  0.6459 -0.5994
  412SOL     OW 2676   2.236   0.437   0.057  0.4247  0.2722  0.4107
  412SOL    HW1 2677   2.181   0.417   0.132  0.1487  0.4457  0.2555
  412SOL    HW2 2678   2.301   0.499   0.091 -0.3534  1.2002  0.2606
  413SOL     OW 2679   1.456   2.415   2.681  0.3235 -0.1753 -0.2814
  413SOL    HW1 2680   1.382   2.473   2.695  1.5690  1.3370  0.3206
  413SOL    HW2 2681   1.443   2.343   2.742 -0.6842  0.0193 -0.2549
  414SOL     OW 2682   0.534   2.611   1.884 -0.4336  0.2273 -0.1136
  414SOL    HW1 2683   0.628   2.607   1.868 -0.4890  0.9828 -0.6598
  414SOL    HW2 2684   0.512   2.703   1.873 -1.5476 -0.2005 -1.7833
  415SOL     OW 2685   7.563   1.556   1.118  0.8607  0.2357  0.1110
  415SOL    HW1 2686   7.539   1.624   1.181  1.0730 -0.9987  1.5869
  415SOL    HW2 2687   7.544   1.473   1.163 -0.8644 -0.7342 -2.1911
  416SOL     OW 2688   0.910   2.618   3.937 -0.1278  0.0031 -0.2648
  416SOL    HW1 2689   0.860   2.537   3.939 -0.6125  0.3034  0.7903
  416SOL    HW2 2690   0.861   2.678   3.994  1.0850  0.5033  0.3009
  417SOL     OW 2691   3.492   6.574   1.608 -0.0968  0.3841 -0.0544
  417SOL    HW1 2692   3.563   6.635   1.591 -0.5434  0.6700 -0.9192
  417SOL    HW2 2693   3.467   6.541   1.522  1.6656 -2.8193  0.5094
  418SOL     OW 2694   0.420   1.650   2.080  0.0695  0.0546  0.4517
  418SOL    HW1 2695   0.450   1.591   2.149  1.3930 -0.1403 -0.2492
  418SOL    HW2 2696   0.410   1.595   2.003 -0.9929  0.3454  0.3596
  419SOL     OW 2697   7.774   0.243   4.129  0.0993  0.0541  0.1193
  419SOL    HW1 2698   7.781   0.324   4.180 -2.3771  0.5480 -0.1982
  419SOL    HW2 2699   7.720   0.267   4.054  0.8106 -1.4950 -0.9254
  420SOL     OW 2700   1.032   0.407   2.433  0.0805  0.0673 -0.3284
  420SOL    HW1 2701   1.027   0.380   2.525  0.4916  0.2099 -0.2630
  420SOL    HW2 2702   1.095   0.348   2.393  0.9116  0.8490 -0.2062
  421SOL     OW 2703   3.628   7.121   4.200  0.3189  0.1971  0.0332
  421SOL    HW1 2704   3.638   7.078   4.285  0.9902 -1.4941 -0.8501
  421SOL    HW2 2705   3.582   7.203   4.219  1.5559  0.4606  2.1754
  422SOL     OW 2706   0.391   1.071   0.711  0.3894 -0.0931 -0.0924
  422SOL    HW1 2707   0.417   1.058   0.620  0.8823  0.9138 -0.1083
  422SOL    HW2 2708   0.412   1.163   0.729 -1.2948  0.2049  0.5194
  423SOL     OW 2709   1.582   0.992   3.820  0.2113  0.2308  0.0814
  423SOL    HW1 2710   1.654   1.048   3.792  1.2043 -0.2139  1.6470
  423SOL    HW2 2711   1.539   1.042   3.889  0.9457 -0.7863  1.3104
  424SOL     OW 2712   2.831   0.055   2.205  0.2637  0.6504  0.5121
  424SOL    HW1 2713   2.854  -0.038   2.196 -1.3179  0.3583 -1.0490
  424SOL    HW2 2714   2.759   0.068   2.143 -0.6241  2.5563  1.8474
  425SOL     OW 2715   6.452   0.038   3.236 -0.0290  0.3012  0.4116
  425SOL    HW1 2716   6.439  -0.047   3.280  0.6315  0.3305  0.6779
  425SOL    HW2 2717   6.528   0.023   3.179  0.9251  1.0643  1.4280
  426SOL     OW 2718   7.840   2.375   2.140 -0.1536 -0.2387 -0.5220
  426SOL    HW1 2719   7.798   2.459   2.119  1.6067  1.7393  2.9555
  426SOL    HW2 2720   7.927   2.382   2.102  0.0914 -0.3536  0.0080
  427SOL     OW 2721   1.308   7.607   3.134  0.2342  0.6385  0.3391
  427SOL    HW1 2722   1.329   7.667   3.206 -0.4334 -1.0237  2.0185
  427SOL    HW2 2723   1.230   7.645   3.093 -3.2890 -1.2518  4.4464
  428SOL     OW 2724   0.406   0.395   2.240  0.0872 -0.2444  0.0184
  428SOL    HW1 2725   0.379   0.305   2.224 -1.2662  0.6001 -3.1902
  428SOL    HW2 2726   0.327   0.447   2.226  0.8743  1.5043  1.5593
  429SOL     OW 2727   1.567   1.571   2.424  0.0528  0.1070 -0.0794
  429SOL    HW1 2728   1.621   1.601   2.498 -0.0879  0.4032 -0.0958
  429SOL    HW2 2729   1.583   1.477   2.419  0.0335  0.0801  0.3533
  430SOL     OW 2730   7.838   1.239   3.395 -0.2850  0.0937 -0.1425
  430SOL    HW1 2731   7.786   1.165   3.427 -2.6394  1.2085 -1.1349
  430SOL    HW2 2732   7.878   1.207   3.314  1.0818 -0.9372  0.8857
  431SOL     OW 2733   2.756   2.272   4.621 -0.0614 -0.2096  0.6836
  431SOL    HW1 2734   2.822   2.250   4.555  0.0985  0.2196  0.6966
  431SOL    HW2 2735   2.715   2.351   4.588 -1.4421 -1.1424  0.0543
  432SOL     OW 2736   0.757   1.593   2.230  0.1964 -0.1315 -0.1114
  432SOL    HW1 2737   0.722   1.679   2.208  0.3229  0.7142  2.6135
  432SOL    HW2 2738   0.686   1.532   2.213 -0.5764  0.7880 -0.2534
  433SOL     OW 2739   0.223   6.953   2.124  0.2642  0.3345 -0.3601
  433SOL    HW1 2740   0.279   7.027   2.102  1.1936  0.1290  1.1273
  433SOL    HW2 2741   0.245   6.933   2.215 -1.5059 -0.4273 -0.0594
  434SOL     OW 2742   7.282   0.709   2.870  0.3488 -0.0570 -0.2810
  434SOL    HW1 2743   7.242   0.765   2.804 -2.3654 -1.2015  0.2712
  434SOL    HW2 2744   7.230   0.724   2.949  1.1710 -1.4260  0.5667
  435SOL     OW 2745   1.334   7.785   3.355  0.0856  0.1515 -0.4089
  435SOL    HW1 2746   1.417   7.809   3.397 -0.0691  1.2839 -0.7323
  435SOL    HW2 2747   1.285   7.867   3.349 -0.9789 -0.4593 -0.4264
  436SOL     OW 2748   5.755   1.358   3.204 -0.3937 -0.0896 -0.1622
  436SOL    HW1 2749   5.689   1.427   3.199 -1.5704 -1.2138 -0.6670
  436SOL    HW2 2750   5.802   1.375   3.286 -0.5915  1.3511 -0.3295
  437SOL     OW 2751   0.436   2.323   2.789  0.5310 -0.5511  0.0030
  437SOL    HW1 2752   0.527   2.350   2.801  0.8027 -0.2321 -2.3275
  437SOL    HW2 2753   0.421   2.258   2.858  2.5071 -0.6043  0.4420
  438SOL     OW 2754   7.781   6.901   2.905  0.5730 -0.5280 -0.4486
  438SOL    HW1 2755   7.743   6.969   2.960 -0.1675 -0.7435 -0.6902
  438SOL    HW2 2756   7.787   6.824   2.962 -0.7097 -0.9129 -0.8079
  439SOL     OW 2757   0.839   7.318   1.856  0.3859 -0.2420  0.1433
  439SOL    HW1 2758   0.800   7.395   1.899  1.8312  1.0317 -0.7567
  439SOL    HW2 2759   0.773   7.290   1.793 -0.1781  0.2331  0.5105
  440SOL     OW 2760   7.250   0.878   3.723  0.0728 -0.5763  0.3428
  440SOL    HW1 2761   7.157   0.889   3.705  0.2263 -1.7608 -1.3334
  440SOL    HW2 2762   7.265   0.930   3.802 -1.2621  2.5495 -1.2746
  441SOL     OW 2763   1.495   1.483   1.906  0.4461  0.0969  0.2461
  441SOL    HW1 2764   1.494   1.388   1.901  0.9466  0.1140 -0.2854
  441SOL    HW2 2765   1.578   1.504   1.950 -0.3626  0.2445  1.7897
  442SOL     OW 2766   0.886   0.187   2.695  0.5519 -0.3920 -0.2639
  442SOL    HW1 2767   0.828   0.130   2.645  0.4532  0.3974 -1.0923
  442SOL    HW2 2768   0.831   0.262   2.718  1.2774  0.4491 -1.2118
  443SOL     OW 2769   1.783   7.679   4.989 -0.2775  0.4853 -0.7474
  443SOL    HW1 2770   1.702   7.649   5.031  0.1835 -0.2396 -0.3351
  443SOL    HW2 2771   1.823   7.737   5.053 -1.2488  2.1617 -1.6137
  444SOL     OW 2772   1.140   2.480   1.662 -0.4840  0.0463  0.2635
  444SOL    HW1 2773   1.109   2.504   1.750  0.6421 -1.3113  1.0712
  444SOL    HW2 2774   1.234   2.466   1.673 -0.4254 -0.6939 -1.0374
  445SOL     OW 2775   0.940   2.344   4.047 -0.2559  0.7826 -0.5495
  445SOL    HW1 2776   0.920   2.383   4.132  1.0256 -0.0837  0.1910
  445SOL    HW2 2777   0.893   2.261   4.046 -0.0750  0.6777 -0.5675
  446SOL     OW 2778   1.814   0.407   2.373  0.5018 -0.3106  0.4992
  446SOL    HW1 2779   1.722   0.394   2.348  0.4076 -0.3295  0.8562
  446SOL    HW2 2780   1.837   0.329   2.423  1.0090 -0.7688 -0.4100
  447SOL     OW 2781   7.882   1.391   1.445 -0.3847 -0.2414  0.5261
  447SOL    HW1 2782   7.864   1.480   1.476 -0.4333  0.2950 -0.9937
  447SOL    HW2 2783   7.897   1.400   1.351  1.1512 -1.6374  0.5906
  448SOL     OW 2784   0.187   0.464   4.145  0.4994  0.2004  0.2267
  448SOL    HW1 2785   0.207   0.558   4.136  0.8439  0.0247 -1.0989
  448SOL    HW2 2786   0.155   0.455   4.234 -1.0953  1.8783 -0.1212
  449SOL     OW 2787   0.903   1.174   1.845  0.0143  0.1777  0.4791
  449SOL    HW1 2788   0.912   1.226   1.765  2.2312 -0.1239  0.4709
  449SOL    HW2 2789   0.935   1.231   1.915  2.2755 -1.0202  0.4967
  450SOL     OW 2790   7.839   0.867   2.786  0.0617 -0.2721  0.0608
  450SOL    HW1 2791   7.873   0.798   2.842  0.2948 -0.5307 -0.3913
  450SOL    HW2 2792   7.916   0.920   2.765  0.0171 -0.3042 -0.1869
  451SOL     OW 2793   2.595   0.258   3.264  0.1757  0.0251 -0.2459
  451SOL    HW1 2794   2.511   0.283   3.226  0.3813 -0.5810 -1.1135
  451SOL    HW2 2795   2.653   0.332   3.245 -0.1269  0.4123  0.2910
  452SOL     OW 2796   1.050   0.074   4.306  0.6658  0.1525 -0.0616
  452SOL    HW1 2797   1.035   0.102   4.216  0.4115 -0.1557 -0.1171
  452SOL    HW2 2798   1.104  -0.005   4.298  2.2353  1.1710  0.1306
  453SOL     OW 2799   7.936   1.242   1.705  0.0818  0.0311 -0.3029
  453SOL    HW1 2800   7.852   1.229   1.747 -0.3258  1.1999 -0.7049
  453SOL    HW2 2801   7.917   1.298   1.629  0.9823 -0.9702 -1.3073
  454SOL     OW 2802   6.215   0.971   2.535  0.4910 -0.1335 -0.1831
  454SOL    HW1 2803   6.241   0.954   2.444  0.0466  0.4341 -0.4153
  454SOL    HW2 2804   6.121   0.985   2.532  0.4099 -0.4777  0.4239
  455SOL     OW 2805   0.748   0.091   1.685  0.3626  0.4576 -0.4640
  455SOL    HW1 2806   0.791   0.032   1.622  1.0077 -1.5943  1.7479
  455SOL    HW2 2807   0.818   0.149   1.714  0.7338 -0.3428  0.2821
  456SOL     OW 2808   7.924   2.076   1.926 -0.2931  0.1509 -0.2111
  456SOL    HW1 2809   7.969   2.031   1.997  0.4584  0.8558 -0.2157
  456SOL    HW2 2810   7.941   2.169   1.942 -0.2349  0.3295 -1.2204
  457SOL     OW 2811   1.482   6.780   2.120  0.1828  0.5122  0.6515
  457SOL    HW1 2812   1.506   6.867   2.149 -0.5326  0.5455  1.1743
  457SOL    HW2 2813   1.548   6.722   2.158  2.3208  1.0505 -1.9291
  458SOL     OW 2814   0.272   1.400   2.951 -0.3053 -0.1972  0.1238
  458SOL    HW1 2815   0.236   1.403   3.040 -0.1893 -0.7593  0.1919
  458SOL    HW2 2816   0.195   1.405   2.894 -0.3459  0.8067  0.2352
  459SOL     OW 2817   7.936   0.634   3.617 -0.8375 -0.5877 -0.1951
  459SOL    HW1 2818   8.022   0.674   3.604 -1.0543  0.3762  1.1178
  459SOL    HW2 2819   7.941   0.551   3.570  0.2641  0.1379 -1.4405
  460SOL     OW 2820   7.428   7.759   4.326  0.1832 -0.3658  0.5242
  460SOL    HW1 2821   7.450   7.846   4.360  1.7120 -0.2787 -0.5788
  460SOL    HW2 2822   7.401   7.776   4.236  1.4511 -1.1164 -0.0132
  461SOL     OW 2823   2.253   0.605   4.365  0.4854 -0.0735  0.3503
  461SOL    HW1 2824   2.282   0.548   4.294 -3.1587 -0.1486 -1.3304
  461SOL    HW2 2825   2.309   0.683   4.358  1.4030 -0.8391 -1.4026
  462SOL     OW 2826   0.421   6.145   1.623  0.3027  0.0279 -0.2911
  462SOL    HW1 2827   0.380   6.207   1.562 -0.2054 -0.3898 -0.3784
  462SOL    HW2 2828   0.347   6.097   1.662  0.7569 -2.8460 -2.6272
  463SOL     OW 2829   1.250   2.607   2.368  0.2119  0.2014 -0.3894
  463SOL    HW1 2830   1.212   2.679   2.318 -0.4118  0.6712  0.7060
  463SOL    HW2 2831   1.342   2.632   2.379 -0.1052  1.1184  0.4078
  464SOL     OW 2832   6.147   0.366   3.021 -0.0664 -0.0262 -0.5356
  464SOL    HW1 2833   6.215   0.348   3.086 -2.1986 -0.3728  1.7387
  464SOL    HW2 2834   6.158   0.296   2.956  1.0173 -0.7716  0.4042
  465SOL     OW 2835   7.806   1.963   1.503 -0.5314 -0.0261  0.0378
  465SOL    HW1 2836   7.727   1.995   1.546 -0.0685 -1.2557  1.8945
  465SOL    HW2 2837   7.878   1.995   1.557 -0.0125 -3.3287  1.5110
  466SOL     OW 2838   1.583   7.963   3.979  0.0856 -0.3994  0.4148
  466SOL    HW1 2839   1.602   7.875   4.011  1.2915 -0.2868  0.0511
  466SOL    HW2 2840   1.622   8.021   4.045 -0.0850 -0.1435  0.2900
  467SOL     OW 2841   1.148   7.898   2.828  0.0876 -0.6305  0.0675
  467SOL    HW1 2842   1.169   7.932   2.915 -0.2844 -1.0759  0.3408
  467SOL    HW2 2843   1.104   7.815   2.845  0.4790 -0.9748 -0.5680
  468SOL     OW 2844   5.735   7.351   2.615  0.1224 -0.0690  0.9853
  468SOL    HW1 2845   5.780   7.400   2.685  1.0722 -2.7690  2.3939
  468SOL    HW2 2846   5.806   7.312   2.564 -0.5759 -1.4503  1.0292
  469SOL     OW 2847   0.230   0.276   3.784 -0.0665  0.0976 -0.0149
  469SOL    HW1 2848   0.205   0.261   3.693  1.0999 -0.4650 -0.2568
  469SOL    HW2 2849   0.305   0.218   3.799  0.2073  0.7019  1.0971
  470SOL     OW 2850   7.407   7.083   0.560 -0.8612 -0.2298  0.5068
  470SOL    HW1 2851   7.422   6.991   0.538 -0.5853  0.1963 -1.2213
  470SOL    HW2 2852   7.334   7.110   0.504 -0.6986  0.6930  0.7187
  471SOL     OW 2853   1.108   2.332   2.345 -0.5374  0.4612 -0.5304
  471SOL    HW1 2854   1.107   2.425   2.365 -0.1601  0.0669  1.4501
  471SOL    HW2 2855   1.194   2.301   2.373 -0.9388 -0.6347 -0.4451
  472SOL     OW 2856   2.527   0.608   1.966  0.5237 -0.1203  0.1678
  472SOL    HW1 2857   2.496   0.522   1.940 -1.8820  0.3926  1.1620
  472SOL    HW2 2858   2.456   0.646   2.016  1.6400  2.3409  0.0414
  473SOL     OW 2859   7.882   7.366   1.967 -0.1401 -0.1424  0.4464
  473SOL    HW1 2860   7.890   7.300   2.037 -2.0495 -1.2217 -0.2821
  473SOL    HW2 2861   7.971   7.374   1.932  0.4056 -1.3039  1.4651
  474SOL     OW 2862   6.979   2.436   0.835  0.3896  0.0802  0.3353
  474SOL    HW1 2863   6.953   2.344   0.830 -1.4427  0.6151 -1.1891
  474SOL    HW2 2864   6.914   2.483   0.782  3.5997  1.7714 -2.5442
  475SOL     OW 2865   6.532   1.073   5.881  0.1439  0.1963 -0.2665
  475SOL    HW1 2866   6.471   1.103   5.948 -2.6289  0.3657 -2.7024
  475SOL    HW2 2867   6.580   1.151   5.855 -0.3920  0.5941 -0.0706
  476SOL     OW 2868   0.488   6.548   4.396  0.2846  0.0500  0.2156
  476SOL    HW1 2869   0.576   6.516   4.375 -0.1987 -1.4287  0.3219
  476SOL    HW2 2870   0.430   6.476   4.371 -0.7340  0.2591  1.8509
  477SOL     OW 2871   7.360   1.105   5.302  0.8657  0.8008 -0.2570
  477SOL    HW1 2872   7.384   1.170   5.368  1.6351 -1.4976  1.8828
  477SOL    HW2 2873   7.375   1.148   5.219 -0.3042  3.9273  0.9975
  478SOL     OW 2874   7.538   3.057   6.916 -0.0747 -0.2494 -0.1824
  478SOL    HW1 2875   7.555   3.011   6.998 -0.0876 -0.0823 -0.0838
  478SOL    HW2 2876   7.493   3.137   6.943  1.1070  0.4537 -0.2263
  479SOL     OW 2877   1.214   0.544   4.097  0.5104 -0.2953  0.0339
  479SOL    HW1 2878   1.201   0.510   4.008  1.7684 -0.2700 -0.1889
  479SOL    HW2 2879   1.137   0.598   4.114  0.1149 -0.5353 -0.9339
  480SOL     OW 2880   7.025   2.128   6.356  0.0337 -0.1568 -0.2010
  480SOL    HW1 2881   7.104   2.087   6.319 -0.9292 -2.0238 -0.3260
  480SOL    HW2 2882   6.975   2.054   6.392 -0.4863  1.2629  2.1682
  481SOL     OW 2883   7.957   6.971   4.868 -0.0182  0.1408 -0.1443
  481SOL    HW1 2884   7.904   6.894   4.883 -0.8882  0.9091  0.9027
  481SOL    HW2 2885   7.927   7.006   4.784  0.3540 -0.6124 -0.6030
  482SOL     OW 2886   1.468   1.566   3.184  0.2874 -0.3074  0.0152
  482SOL    HW1 2887   1.458   1.601   3.272 -0.9436 -0.3948 -0.0632
  482SOL    HW2 2888   1.501   1.477   3.197 -1.6884 -1.0226  0.5357
  483SOL     OW 2889   0.328   7.270   4.608 -0.1269 -0.1510 -0.1242
  483SOL    HW1 2890   0.275   7.321   4.669  0.1173 -0.2063  0.1359
  483SOL    HW2 2891   0.412   7.316   4.605 -0.5260  0.5381 -1.3354
  484SOL     OW 2892   2.681   6.362   4.403  0.0756  0.1863  0.0532
  484SOL    HW1 2893   2.689   6.384   4.496  0.3619 -0.5952  0.2255
  484SOL    HW2 2894   2.587   6.372   4.384 -0.0819 -0.2211  0.5829
  485SOL     OW 2895   0.365   1.845   6.990  0.0368  0.3931  0.2157
  485SOL    HW1 2896   0.323   1.877   7.070  0.2586  0.4430  0.3150
  485SOL    HW2 2897   0.430   1.912   6.969  1.1222 -0.4069  0.9254
  486SOL     OW 2898   0.650   1.386   3.978 -0.0305 -0.1022 -0.0341
  486SOL    HW1 2899   0.671   1.389   3.885  0.2126  1.9216  0.0374
  486SOL    HW2 2900   0.561   1.420   3.984  0.0683  0.0695  0.5056
  487SOL     OW 2901   6.865   1.128   4.837  0.4060  0.0515  0.0892
  487SOL    HW1 2902   6.843   1.045   4.795  1.3466  0.0277 -0.3748
  487SOL    HW2 2903   6.920   1.174   4.774 -1.1705  1.6238 -0.2286
  488SOL     OW 2904   0.399   2.219   5.441 -0.6010  0.0119  0.0855
  488SOL    HW1 2905   0.422   2.143   5.388  2.5977  1.0192 -0.1691
  488SOL    HW2 2906   0.395   2.186   5.530  2.1181 -0.3363  0.1594
  489SOL     OW 2907   1.399   7.697   3.662  0.2981 -0.3009 -0.6977
  489SOL    HW1 2908   1.396   7.790   3.683  0.5081 -0.4105 -0.1350
  489SOL    HW2 2909   1.320   7.661   3.702  0.9611 -0.5994  0.3962
  490SOL     OW 2910   0.762   0.242   5.422 -0.1638  0.1984 -0.5312
  490SOL    HW1 2911   0.775   0.337   5.428  0.4991  0.1721 -1.2880
  490SOL    HW2 2912   0.810   0.217   5.343 -0.1368 -0.8086 -0.2058
  491SOL     OW 2913   2.640   0.567   2.914 -0.2413 -0.1812 -0.0945
  491SOL    HW1 2914   2.616   0.645   2.963 -0.1336  0.1760 -0.5974
  491SOL    HW2 2915   2.563   0.511   2.918  0.1146 -0.5986  1.3271
  492SOL     OW 2916   7.851   1.521   4.322  0.3411 -0.1696 -0.0079
  492SOL    HW1 2917   7.876   1.602   4.365 -1.4216 -0.6944  2.2031
  492SOL    HW2 2918   7.825   1.548   4.234 -0.0438  1.6541  0.6142
  493SOL     OW 2919   0.526   7.703   4.018 -0.0571  0.3530 -0.2271
  493SOL    HW1 2920   0.595   7.733   3.959  2.0546  0.0659  1.9390
  493SOL    HW2 2921   0.551   7.614   4.042 -0.5659  0.6197  1.4489
  494SOL     OW 2922   1.493   1.815   5.207  0.5486 -0.3069 -0.2502
  494SOL    HW1 2923   1.576   1.837   5.249  0.9427  0.1771 -1.2544
  494SOL    HW2 2924   1.431   1.806   5.280  1.1613  0.7268  0.4228
  495SOL     OW 2925   1.124   1.958   5.103  0.2270  0.0171  0.2916
  495SOL    HW1 2926   1.203   2.000   5.136  0.2531  0.0937  0.1349
  495SOL    HW2 2927   1.140   1.947   5.009  0.2933 -0.5125  0.3617
  496SOL     OW 2928   1.491   6.573   3.009  0.2273 -0.5093  0.1397
  496SOL    HW1 2929   1.505   6.496   2.955 -1.0529 -0.8904  0.3209
  496SOL    HW2 2930   1.479   6.538   3.098 -0.2381 -0.1015  0.2411
  497SOL     OW 2931   0.290   0.377   4.839  0.6427  0.4036 -0.2114
  497SOL    HW1 2932   0.352   0.368   4.910  0.6292  0.7177 -0.1590
  497SOL    HW2 2933   0.267   0.287   4.815  3.7294  0.0845 -2.5568
  498SOL     OW 2934   1.762   1.060   5.514 -0.1058  0.3696  0.0799
  498SOL    HW1 2935   1.804   0.977   5.539  0.0940  1.0374  2.1128
  498SOL    HW2 2936   1.720   1.041   5.430 -2.6399 -2.7110  1.8433
  499SOL     OW 2937   7.801   0.479   4.267 -0.3809 -0.0951  0.4979
  499SOL    HW1 2938   7.861   0.538   4.313  0.9184 -0.9977  0.0113
  499SOL    HW2 2939   7.734   0.538   4.231  1.1330  1.1845 -0.3879
  500SOL     OW 2940   0.029   7.705   5.809 -0.5867  0.1733  0.3511
  500SOL    HW1 2941  -0.058   7.674   5.782 -1.5109  2.7043  0.1157
  500SOL    HW2 2942   0.076   7.717   5.726 -0.5149  0.1387  0.3873
  501SOL     OW 2943   1.349   0.821   4.294  0.6147 -0.4892 -0.0224
  501SOL    HW1 2944   1.307   0.906   4.298 -0.5944 -0.9645 -1.5441
  501SOL    HW2 2945   1.327   0.779   4.377 -0.9806 -0.2653 -0.2973
  502SOL     OW 2946   1.026   2.583   4.851 -0.1543 -0.1752 -0.2265
  502SOL    HW1 2947   1.104   2.554   4.805 -0.9472 -1.1529 -1.0035
  502SOL    HW2 2948   1.059   2.624   4.932  1.1862  0.3651 -1.0167
  503SOL     OW 2949   0.727   1.817   5.326  0.2361  0.4299  0.0461
  503SOL    HW1 2950   0.716   1.895   5.381 -0.6793  0.5729 -0.3278
  503SOL    HW2 2951   0.708   1.744   5.385 -0.0675  0.5530  0.1056
  504SOL     OW 2952   0.489   2.683   5.461  0.3158  0.4179  0.1529
  504SOL    HW1 2953   0.468   2.714   5.549  1.0832 -0.5966  0.7185
  504SOL    HW2 2954   0.508   2.590   5.473  0.6463  0.3156 -1.0596
  505SOL     OW 2955   1.962   7.003   4.976 -0.0378 -0.1286  0.0793
  505SOL    HW1 2956   1.870   6.980   4.964 -0.3162  1.0103 -0.1095
  505SOL    HW2 2957   1.998   6.932   5.029 -0.7464 -1.1493 -0.7494
  506SOL     OW 2958   7.686   1.372   4.506 -0.3032 -0.5649 -0.3798
  506SOL    HW1 2959   7.744   1.307   4.545 -1.2218 -1.8543 -1.0957
  506SOL    HW2 2960   7.735   1.406   4.431  0.7689  0.6793  0.8170
  507SOL     OW 2961   0.328   1.249   5.478  0.2342 -0.0749 -0.1684
  507SOL    HW1 2962   0.359   1.187   5.544  2.2499 -0.0188 -0.9975
  507SOL    HW2 2963   0.280   1.196   5.415  2.1258 -0.9165 -0.9940
  508SOL     OW 2964   1.339   1.505   7.105 -0.1482 -0.8242 -0.2407
  508SOL    HW1 2965   1.249   1.535   7.120  0.0022  0.2774 -1.4145
  508SOL    HW2 2966   1.329   1.421   7.060 -0.5778 -1.0819  0.3222
  509SOL     OW 2967   0.044   1.071   4.679  0.3730  0.2278 -0.4426
  509SOL    HW1 2968   0.110   1.130   4.713  0.1376 -0.2306  0.8564
  509SOL    HW2 2969   0.049   0.994   4.735 -0.8576 -0.0529 -0.6850
  510SOL     OW 2970   1.380   1.376   5.094 -0.2209 -0.4037 -0.0786
  510SOL    HW1 2971   1.285   1.370   5.100 -0.2317  0.6409  1.1574
  510SOL    HW2 2972   1.399   1.470   5.087  0.7718 -0.4487  1.4318
  511SOL     OW 2973   0.893   7.941   3.866  0.4073 -0.0328  0.0054
  511SOL    HW1 2974   0.814   7.889   3.853  0.5100 -0.2697  0.3216
  511SOL    HW2 2975   0.965   7.878   3.858  0.4918 -0.1274  1.3533
  512SOL     OW 2976   1.138   1.314   4.848 -0.4914 -0.2796 -0.0900
  512SOL    HW1 2977   1.127   1.295   4.941 -3.5244 -0.7194 -0.4281
  512SOL    HW2 2978   1.166   1.405   4.845  0.7942 -0.5852  1.2316
  513SOL     OW 2979   6.926   0.105   4.705 -0.6389 -0.1947 -0.2419
  513SOL    HW1 2980   7.016   0.072   4.703  0.0097  1.5612 -1.8507
  513SOL    HW2 2981   6.873   0.027   4.721  1.2401 -0.9975  3.1390
  514SOL     OW 2982   2.058   1.824   4.755  0.6077 -0.2117  0.1395
  514SOL    HW1 2983   2.025   1.781   4.676 -1.4158  1.5450 -0.0678
  514SOL    HW2 2984   2.085   1.752   4.812  1.7439 -1.5368 -1.9583
  515SOL     OW 2985   7.533   2.227   6.608  0.0638 -0.1268 -0.5793
  515SOL    HW1 2986   7.598   2.246   6.541  2.1536 -0.4549  1.2669
  515SOL    HW2 2987   7.574   2.162   6.665 -1.7049 -0.0130  0.9339
  516SOL     OW 2988   1.186   1.330   5.415  0.0262 -0.6288  0.1683
  516SOL    HW1 2989   1.218   1.266   5.479  0.8959 -0.7407 -0.3603
  516SOL    HW2 2990   1.161   1.406   5.468  1.2451 -0.5115  0.6230
  517SOL     OW 2991   1.255   0.646   5.769 -0.0739  0.2696  0.2782
  517SOL    HW1 2992   1.250   0.738   5.742 -0.6923  0.3061  0.5075
  517SOL    HW2 2993   1.336   0.614   5.730 -0.0815  0.7936 -0.1726
  518SOL     OW 2994   1.213   0.435   6.349 -0.2662 -0.0825  1.1070
  518SOL    HW1 2995   1.183   0.402   6.265 -0.4816  0.2831  1.0397
  518SOL    HW2 2996   1.301   0.468   6.333  0.1827 -1.1518  1.3034
  519SOL     OW 2997   0.309   1.890   4.818  0.2047 -0.4547 -0.3168
  519SOL    HW1 2998   0.379   1.824   4.813  0.2978 -0.3318 -0.6883
  519SOL    HW2 2999   0.228   1.839   4.808  0.2002 -0.6783  0.7696
  520SOL     OW 3000   0.524   1.669   4.842 -0.0947  0.0480  0.3014
  520SOL    HW1 3001   0.540   1.604   4.909 -0.3899 -0.0169  0.3111
  520SOL    HW2 3002   0.610   1.685   4.802 -0.1200 -0.8024 -0.1196
  521SOL     OW 3003   0.172   2.377   5.810 -0.2229 -0.2939 -0.6992
  521SOL    HW1 3004   0.128   2.380   5.725 -0.2543  0.2887 -0.6649
  521SOL    HW2 3005   0.243   2.441   5.803 -0.7028  0.3250 -0.0283
  522SOL     OW 3006   1.657   7.963   5.027  0.4435  0.5690 -0.0011
  522SOL    HW1 3007   1.748   7.990   5.018  0.3273  1.5135  1.3445
  522SOL    HW2 3008   1.606   8.040   5.003  0.0106  0.2740 -0.0466
  523SOL     OW 3009   3.816   0.317   4.454 -0.1235  0.0498  0.0291
  523SOL    HW1 3010   3.885   0.289   4.515 -0.9736  0.2076  1.0935
  523SOL    HW2 3011   3.828   0.411   4.446  0.1049  0.0016 -0.1893
  524SOL     OW 3012   0.747   6.711   4.438 -0.1038  0.2428 -0.0584
  524SOL    HW1 3013   0.768   6.664   4.357  1.1391  1.1890 -0.3175
  524SOL    HW2 3014   0.786   6.798   4.426  0.0817  0.4109  1.5356
  525SOL     OW 3015   1.659   7.819   5.287 -0.5290 -0.4675  0.1004
  525SOL    HW1 3016   1.640   7.874   5.211 -0.5428 -0.8632 -0.1868
  525SOL    HW2 3017   1.634   7.731   5.259 -0.1474 -0.6805  0.4194
  526SOL     OW 3018   7.712   7.823   5.043  0.0886  0.1119 -0.7511
  526SOL    HW1 3019   7.750   7.894   4.991  0.0933  0.2917 -0.5046
  526SOL    HW2 3020   7.748   7.743   5.005  1.0570  0.2933 -0.2464
  527SOL     OW 3021   0.398   1.444   3.764 -0.4474 -0.5675  0.2337
  527SOL    HW1 3022   0.403   1.535   3.734 -0.5504  0.0119  1.8722
  527SOL    HW2 3023   0.478   1.403   3.732 -0.2966  0.1611 -0.3410
  528SOL     OW 3024   2.386   1.343   5.504 -0.2400  0.3928  0.0582
  528SOL    HW1 3025   2.444   1.405   5.459  0.0307  1.1814  1.4463
  528SOL    HW2 3026   2.304   1.391   5.514 -0.3580  0.1490  0.2367
  529SOL     OW 3027   2.365   2.566   4.243  1.1147 -0.1397 -0.3014
  529SOL    HW1 3028   2.436   2.591   4.184 -0.7932  3.0516 -1.5412
  529SOL    HW2 3029   2.380   2.618   4.322  0.5096  0.1628 -0.3749
  530SOL     OW 3030   0.126   7.370   3.510 -0.5189 -0.4378  0.0782
  530SOL    HW1 3031   0.109   7.383   3.416  1.4509  0.3199 -0.2216
  530SOL    HW2 3032   0.067   7.431   3.553  0.9200  1.7738 -0.8758
  531SOL     OW 3033   2.139   7.438   5.001 -0.4077 -0.0950  0.0340
  531SOL    HW1 3034   2.091   7.468   4.924 -1.7427 -1.4856  0.2855
  531SOL    HW2 3035   2.189   7.515   5.029 -1.0880  0.8813 -1.2987
  532SOL     OW 3036   0.849   2.683   5.372 -0.2828  0.5789  0.2878
  532SOL    HW1 3037   0.758   2.661   5.395 -0.6957  0.2526 -1.4684
  532SOL    HW2 3038   0.886   2.601   5.340  0.5956  0.7530  0.8445
  533SOL     OW 3039   2.206   0.853   2.929 -0.4213  0.0677 -0.1831
  533SOL    HW1 3040   2.185   0.783   2.992  0.8057  0.1224  0.3148
  533SOL    HW2 3041   2.283   0.896   2.967 -0.8366  1.3425 -0.7712
  534SOL     OW 3042   0.016   0.198   5.973  0.6008  0.1051 -0.5443
  534SOL    HW1 3043   0.060   0.187   6.058 -1.3609  0.6271  0.6118
  534SOL    HW2 3044   0.040   0.119   5.924  1.7708 -0.2274  0.5050
  535SOL     OW 3045   2.178   2.036   5.939  0.1057  0.3783  0.1415
  535SOL    HW1 3046   2.127   2.117   5.933 -1.8745 -0.7337  0.7412
  535SOL    HW2 3047   2.182   2.017   6.033  1.1114  0.1098  0.0519
  536SOL     OW 3048   1.459   1.618   5.030 -1.1922 -0.2144  0.1282
  536SOL    HW1 3049   1.490   1.648   4.944  1.4147 -1.8489  0.4070
  536SOL    HW2 3050   1.499   1.678   5.093 -0.3321 -1.0269  0.3702
  537SOL     OW 3051   1.417   7.545   4.886 -0.5676  0.2208  0.1877
  537SOL    HW1 3052   1.406   7.540   4.981 -0.2566 -0.6783  0.1789
  537SOL    HW2 3053   1.369   7.470   4.852  0.2564 -0.0971 -0.2906
  538SOL     OW 3054   1.387   7.916   4.924 -0.1678 -0.1320 -0.3859
  538SOL    HW1 3055   1.406   8.004   4.891 -1.1696 -0.0781 -0.8641
  538SOL    HW2 3056   1.463   7.893   4.977  0.6331  0.5488 -1.2093
  539SOL     OW 3057   7.947   1.934   4.721 -0.0334  0.5380  0.3576
  539SOL    HW1 3058   7.987   1.992   4.785  1.6134 -0.0531 -0.0836
  539SOL    HW2 3059   7.979   1.846   4.744 -1.4951 -0.0429  0.2732
  540SOL     OW 3060   1.014   0.249   4.747 -0.1448  0.1732 -0.0923
  540SOL    HW1 3061   1.001   0.197   4.668 -1.0046  1.3839 -0.7831
  540SOL    HW2 3062   1.109   0.258   4.754 -0.0671  0.5250 -1.3306
  541SOL     OW 3063   2.320   7.258   6.244  1.0540 -0.3131 -0.3795
  541SOL    HW1 3064   2.357   7.329   6.296 -0.8804  0.3995  0.0947
  541SOL    HW2 3065   2.303   7.297   6.158 -0.0418 -0.1565 -0.1101
  542SOL     OW 3066   0.338   7.845   2.531  0.4982 -0.5318 -0.6549
  542SOL    HW1 3067   0.408   7.882   2.477  0.5029  0.3999 -0.0312
  542SOL    HW2 3068   0.260   7.851   2.477 -0.0061  2.6154  0.2032
  543SOL     OW 3069   1.442   0.558   5.393 -0.4658  0.2142 -0.1964
  543SOL    HW1 3070   1.366   0.611   5.417 -0.1944  0.0828  0.9784
  543SOL    HW2 3071   1.493   0.550   5.473  1.4464  1.3291 -1.2166
  544SOL     OW 3072   7.045   7.856   5.098 -0.8147 -0.2630  0.6104
  544SOL    HW1 3073   7.052   7.761   5.101 -1.6125 -0.3571 -0.0797
  544SOL    HW2 3074   7.127   7.887   5.137  0.5070 -1.2395 -1.1877
  545SOL     OW 3075   2.229   7.209   5.789 -0.3715 -0.2977  0.0063
  545SOL    HW1 3076   2.186   7.124   5.804  0.0449 -0.3604  0.9222
  545SOL    HW2 3077   2.218   7.225   5.696 -4.5789  0.8299  0.4587
  546SOL     OW 3078   7.891   1.167   5.986  0.4373 -0.2414  0.0116
  546SOL    HW1 3079   7.829   1.097   5.967  1.0806 -0.8125 -0.0111
  546SOL    HW2 3080   7.942   1.135   6.061  0.9020  0.0915 -0.1556
  547SOL     OW 3081   6.492   7.429   5.938 -0.3557 -0.0130  0.4941
  547SOL    HW1 3082   6.429   7.358   5.950  1.0694 -1.1608  1.4690
  547SOL    HW2 3083   6.508   7.430   5.843  0.9950 -2.2809  0.6452
  548SOL     OW 3084   0.342   7.545   3.562  0.5624 -0.0843  0.1988
  548SOL    HW1 3085   0.271   7.506   3.511  0.5805 -0.2875  0.3306
  548SOL    HW2 3086   0.336   7.503   3.647 -0.5304  1.4247  0.9259
  549SOL     OW 3087   2.123   2.272   4.826  0.1512 -0.3532  0.1338
  549SOL    HW1 3088   2.135   2.331   4.751 -1.9039 -1.0682 -0.8153
  549SOL    HW2 3089   2.153   2.323   4.901  1.1015  0.8396 -1.0116
  550SOL     OW 3090   6.917   7.702   4.266 -0.4898  0.2755 -0.3841
  550SOL    HW1 3091   6.990   7.698   4.204 -0.8196 -0.9711 -0.7335
  550SOL    HW2 3092   6.935   7.633   4.329 -1.2823  0.0514 -0.3868
  551SOL     OW 3093   0.149   7.639   1.825  0.2810 -0.2128 -0.1300
  551SOL    HW1 3094   0.224   7.657   1.769 -1.1803 -0.9261 -2.4718
  551SOL    HW2 3095   0.155   7.546   1.846 -0.3059 -0.4428 -0.9381
  552SOL     OW 3096   0.791   0.748   5.607 -0.1076 -0.6073  0.4462
  552SOL    HW1 3097   0.708   0.796   5.615  0.7796  0.9355  0.7566
  552SOL    HW2 3098   0.839   0.770   5.687  1.0521 -0.5731 -0.2421
  553SOL     OW 3099   1.770   1.352   4.851 -0.2627  0.1699 -0.6009
  553SOL    HW1 3100   1.675   1.360   4.850 -0.6248 -2.2480  1.6173
  553SOL    HW2 3101   1.793   1.312   4.767 -1.6373 -2.0371  0.0016
  554SOL     OW 3102   2.593   1.521   5.324 -0.0551 -0.0631 -0.3302
  554SOL    HW1 3103   2.506   1.557   5.305  0.7801  1.6065 -1.2191
  554SOL    HW2 3104   2.612   1.463   5.250 -0.3196 -0.2893 -0.2247
  555SOL     OW 3105   2.774   1.020   4.514 -0.4009 -0.0270 -0.0491
  555SOL    HW1 3106   2.751   0.956   4.580 -2.8047 -1.4671 -2.1136
  555SOL    HW2 3107   2.726   1.099   4.539 -1.1917 -0.5199  0.0277
  556SOL     OW 3108   2.353   0.791   4.689 -0.2911 -0.0144 -0.1641
  556SOL    HW1 3109   2.324   0.712   4.643 -1.9327  0.7146 -0.4446
  556SOL    HW2 3110   2.389   0.758   4.772  2.2540 -1.3079 -1.6714
  557SOL     OW 3111   7.935   0.635   7.788  0.1121  0.0849  0.6130
  557SOL    HW1 3112   7.892   0.550   7.785  0.3667 -0.0266 -0.2282
  557SOL    HW2 3113   8.012   0.625   7.732 -1.5236  1.7389 -2.2057
  558SOL     OW 3114   1.401   0.741   4.582 -0.1543 -0.0194  0.2061
  558SOL    HW1 3115   1.354   0.671   4.537 -2.8540  0.4951  1.9561
  558SOL    HW2 3116   1.473   0.696   4.627 -0.1596 -1.2079 -0.9160
  559SOL     OW 3117   7.944   7.131   2.081  0.1711  0.1900  0.4840
  559SOL    HW1 3118   7.931   7.132   1.986 -1.6961  1.5596  0.7058
  559SOL    HW2 3119   8.035   7.103   2.092  0.1538 -0.9473 -1.6558
  560SOL     OW 3120   7.189   7.344   4.786 -0.5946  0.5809  0.3058
  560SOL    HW1 3121   7.244   7.276   4.824 -2.7454 -0.5581  1.5562
  560SOL    HW2 3122   7.201   7.420   4.843  0.4387  0.7072 -0.0539
  561SOL     OW 3123   2.712   0.842   4.688 -0.3138 -0.1993 -0.2225
  561SOL    HW1 3124   2.644   0.889   4.735  0.8918 -0.0141  1.4192
  561SOL    HW2 3125   2.674   0.755   4.672 -1.2833  0.2146 -0.2569
  562SOL     OW 3126   1.476   6.563   3.929 -0.1884 -0.1212  0.5743
  562SOL    HW1 3127   1.554   6.542   3.981 -0.1401  0.3031  0.6740
  562SOL    HW2 3128   1.480   6.501   3.856  0.3234 -0.0096  0.4994
  563SOL     OW 3129   2.147   0.481   6.036  0.4773  0.0931 -0.0194
  563SOL    HW1 3130   2.103   0.396   6.044  2.5889 -1.1367 -0.7378
  563SOL    HW2 3131   2.197   0.489   6.117  0.7714  0.3779 -0.2285
  564SOL     OW 3132   0.968   0.542   6.154  0.0081 -0.0903 -0.0699
  564SOL    HW1 3133   0.972   0.449   6.131  0.5073  0.0050 -0.4021
  564SOL    HW2 3134   1.055   0.575   6.133 -0.1534  0.4435  0.0862
  565SOL     OW 3135   2.157   0.240   5.523 -0.1476  0.2746 -0.6467
  565SOL    HW1 3136   2.155   0.146   5.542  2.2827  0.4234  0.6653
  565SOL    HW2 3137   2.170   0.282   5.607  0.6599  1.6633 -1.4238
  566SOL     OW 3138   0.768   0.195   4.252  0.0439 -0.0552 -0.7114
  566SOL    HW1 3139   0.820   0.115   4.247  0.0473 -0.3697  2.1700
  566SOL    HW2 3140   0.832   0.263   4.275 -0.4173  0.0070  0.4961
  567SOL     OW 3141   1.117   7.654   5.669 -0.0356 -0.3198  0.6096
  567SOL    HW1 3142   1.069   7.731   5.700 -1.0668 -1.2855  1.4871
  567SOL    HW2 3143   1.118   7.595   5.744  2.3771 -0.4483  0.5687
  568SOL     OW 3144   1.953   2.070   4.864  0.3450  0.6603 -0.0602
  568SOL    HW1 3145   2.025   2.133   4.856  2.6078 -1.2293  3.1205
  568SOL    HW2 3146   1.989   1.988   4.830 -0.7851 -0.0228  0.3416
  569SOL     OW 3147   0.965   2.100   5.498  0.5755  0.4773 -0.2150
  569SOL    HW1 3148   1.030   2.164   5.530  0.1704  0.5192  0.5553
  569SOL    HW2 3149   0.959   2.117   5.404  0.0835  1.9564  0.0485
  570SOL     OW 3150   4.255   1.059   4.136 -0.1324 -0.1075  0.0694
  570SOL    HW1 3151   4.260   1.137   4.082  1.9479 -0.7034 -0.6965
  570SOL    HW2 3152   4.284   0.988   4.079  0.7743 -0.9779  1.5370
  571SOL     OW 3153   1.644   0.894   3.134 -0.0545  0.2291 -0.8407
  571SOL    HW1 3154   1.732   0.872   3.164  0.3287  0.5818 -1.6972
  571SOL    HW2 3155   1.609   0.812   3.099 -0.0368  0.1134 -0.5921
  572SOL     OW 3156   2.562   1.100   5.481 -0.4194  0.0483 -0.0453
  572SOL    HW1 3157   2.504   1.137   5.415 -0.2795  0.4843  0.0719
  572SOL    HW2 3158   2.602   1.176   5.524  0.5457 -0.2474 -0.3924
  573SOL     OW 3159   0.397   0.684   5.067  0.4636  0.5904  0.6869
  573SOL    HW1 3160   0.449   0.613   5.029  0.1968  1.1278 -0.7367
  573SOL    HW2 3161   0.402   0.670   5.162 -0.4841 -1.9769  0.4289
  574SOL     OW 3162   1.986   0.289   4.469 -0.5803  0.3333  0.1806
  574SOL    HW1 3163   1.923   0.326   4.407 -0.8649  0.6809  0.6707
  574SOL    HW2 3164   1.957   0.199   4.482  0.2257 -0.1459 -1.1632
  575SOL     OW 3165   7.717   0.758   3.713  0.0982 -0.0158 -0.1833
  575SOL    HW1 3166   7.808   0.740   3.689 -0.2006 -0.6809 -0.8280
  575SOL    HW2 3167   7.669   0.680   3.685 -0.7321  0.4916 -0.1853
  576SOL     OW 3168   0.483   0.248   4.212 -0.1725  0.1066  0.1676
  576SOL    HW1 3169   0.565   0.264   4.260 -1.3903 -1.8794  3.2177
  576SOL    HW2 3170   0.497   0.163   4.171 -0.0972  0.5834 -0.8049
  577SOL     OW 3171   0.610   7.696   3.450 -0.0714  0.3219 -0.5876
  577SOL    HW1 3172   0.569   7.659   3.528  0.8928  0.4266 -0.0120
  577SOL    HW2 3173   0.600   7.629   3.382  1.0676 -0.7465  0.2578
  578SOL     OW 3174   6.418   0.380   6.338  0.1708 -0.5079 -0.1331
  578SOL    HW1 3175   6.501   0.333   6.326  0.0047 -0.3684 -1.9804
  578SOL    HW2 3176   6.352   0.311   6.342 -0.0034 -0.4975 -2.2256
  579SOL     OW 3177   0.398   0.657   4.769 -0.0138  0.0287  0.1194
  579SOL    HW1 3178   0.349   0.576   4.789 -0.9594  1.0597  2.3951
  579SOL    HW2 3179   0.488   0.628   4.754 -0.3078 -1.4559  1.0134
  580SOL     OW 3180   7.925   1.727   6.192 -0.6787  0.4514 -0.8952
  580SOL    HW1 3181   7.910   1.702   6.283 -1.3098  4.4008  0.2825
  580SOL    HW2 3182   7.864   1.672   6.142 -1.6190 -0.5907  1.2535
  581SOL     OW 3183   0.246   0.644   2.539 -0.0930  0.4932  0.0833
  581SOL    HW1 3184   0.242   0.735   2.509 -0.2135  0.8270  1.0521
  581SOL    HW2 3185   0.334   0.614   2.514 -1.0592 -0.1475 -2.9507
  582SOL     OW 3186   2.623   0.792   3.756  0.1443 -0.3250  0.4379
  582SOL    HW1 3187   2.700   0.847   3.741 -1.2947  1.4629 -0.9508
  582SOL    HW2 3188   2.626   0.727   3.686 -1.0764  1.5740 -1.4879
  583SOL     OW 3189   7.851   1.236   4.254  0.3396  0.3540  0.2637
  583SOL    HW1 3190   7.874   1.326   4.277  0.4959  0.0083  1.5445
  583SOL    HW2 3191   7.917   1.210   4.190  0.1140  1.2471 -0.3425
  584SOL     OW 3192   7.231   1.355   5.803 -0.3998  0.4511  0.6917
  584SOL    HW1 3193   7.185   1.392   5.879 -3.0961  1.2968 -1.2158
  584SOL    HW2 3194   7.176   1.282   5.775  0.7986 -0.1336 -0.1875
  585SOL     OW 3195   0.952   2.717   7.046  0.3058  0.2897  0.0189
  585SOL    HW1 3196   0.941   2.645   7.107  1.2494  0.5448  0.5109
  585SOL    HW2 3197   0.927   2.795   7.095 -4.3016  0.0918 -1.5554
  586SOL     OW 3198   1.660   1.024   5.243 -0.3337  0.1149  0.2868
  586SOL    HW1 3199   1.705   1.108   5.237  0.0990 -0.1131  0.2903
  586SOL    HW2 3200   1.723   0.961   5.207 -0.3435 -0.3222  1.0312
  587SOL     OW 3201   0.745   7.647   5.256  0.4133  0.3308 -0.0679
  587SOL    HW1 3202   0.818   7.586   5.268  0.1095  0.0739  0.5109
  587SOL    HW2 3203   0.721   7.638   5.164 -0.0529 -0.9148  0.1622
  588SOL     OW 3204   1.972   1.166   5.008  0.5089 -0.1534 -0.6130
  588SOL    HW1 3205   1.946   1.221   4.934  2.3524 -1.3849 -2.2467
  588SOL    HW2 3206   1.920   1.201   5.082  1.8117  4.0229 -1.3818
  589SOL     OW 3207   0.343   1.601   5.230  0.1755 -0.6734 -0.3061
  589SOL    HW1 3208   0.296   1.532   5.276  1.8910 -1.6001  0.1419
  589SOL    HW2 3209   0.290   1.680   5.243 -1.7956 -1.8619 -0.7718
  590SOL     OW 3210   1.100   0.704   4.791  0.9369  0.0071 -0.2606
  590SOL    HW1 3211   1.124   0.675   4.703  1.4966 -0.3873  0.0125
  590SOL    HW2 3212   1.167   0.769   4.814  0.6975  0.2289 -0.1910
  591SOL     OW 3213   0.517   0.480   5.575 -0.1980  0.1709 -0.5579
  591SOL    HW1 3214   0.584   0.491   5.643  1.0594 -0.2254 -1.6900
  591SOL    HW2 3215   0.522   0.387   5.551 -2.9667 -0.5170  1.1090
  592SOL     OW 3216   0.584   1.318   5.409 -0.3236  0.0916 -0.4905
  592SOL    HW1 3217   0.492   1.303   5.428 -0.0749 -0.4310  0.3866
  592SOL    HW2 3218   0.597   1.283   5.321 -0.8105 -0.5244 -0.3256
  593SOL     OW 3219   1.604   1.950   4.940  0.3242  0.1343 -0.5673
  593SOL    HW1 3220   1.618   1.889   5.012  1.5350  0.5709 -0.4037
  593SOL    HW2 3221   1.603   1.895   4.862  0.3693 -0.2036 -0.3310
  594SOL     OW 3222   1.082   1.895   4.418  0.0304 -0.0906 -0.3784
  594SOL    HW1 3223   1.011   1.847   4.376 -1.7385  1.9367  0.1787
  594SOL    HW2 3224   1.061   1.987   4.406  1.0426  0.5866  2.2509
  595SOL     OW 3225   0.464   7.846   7.276 -0.1671  0.5989  0.2912
  595SOL    HW1 3226   0.523   7.874   7.206  0.3282  0.5987  0.7093
  595SOL    HW2 3227   0.380   7.834   7.232  0.3291 -0.2166 -0.4745
  596SOL     OW 3228   0.113   0.796   4.792 -0.1951  0.2861 -0.2404
  596SOL    HW1 3229   0.083   0.705   4.795  0.0691  0.2168  0.4748
  596SOL    HW2 3230   0.208   0.790   4.787  0.0116  0.5012  2.1884
  597SOL     OW 3231   2.203   7.269   3.466  0.1789 -0.3611 -0.2510
  597SOL    HW1 3232   2.124   7.320   3.449  0.5047 -0.3056 -1.7063
  597SOL    HW2 3233   2.173   7.198   3.524 -0.3604  1.1685  1.4214
  598SOL     OW 3234   1.133   0.313   6.109  0.9754  0.1089  0.2562
  598SOL    HW1 3235   1.150   0.220   6.122  0.8048  0.0132 -0.1967
  598SOL    HW2 3236   1.176   0.334   6.026 -0.4377  0.0288 -0.5418
  599SOL     OW 3237   0.107   1.992   6.598  0.5496  0.1882 -0.0150
  599SOL    HW1 3238   0.063   1.937   6.533  1.8535 -1.2914  0.2806
  599SOL    HW2 3239   0.036   2.037   6.644 -0.4849 -0.1268 -1.2470
  600SOL     OW 3240   1.428   2.979   5.207 -0.2189 -0.6439  0.5852
  600SOL    HW1 3241   1.494   2.997   5.140 -0.4489  0.8688  0.7300
  600SOL    HW2 3242   1.344   2.990   5.163 -0.3670 -0.5977  0.8704
  601SOL     OW 3243   2.166   1.630   6.367 -0.1830  0.3245  0.2349
  601SOL    HW1 3244   2.132   1.718   6.350 -0.6939  0.6081  2.4224
  601SOL    HW2 3245   2.260   1.643   6.379 -0.1894  0.5046  0.0990
  602SOL     OW 3246   1.538   7.867   4.384 -0.3792 -0.1116 -0.0641
  602SOL    HW1 3247   1.537   7.861   4.479 -0.1433  1.8356  0.1103
  602SOL    HW2 3248   1.446   7.865   4.358 -0.4447 -0.6076  0.2046
  603SOL     OW 3249   1.874   7.771   4.734 -0.4664 -0.6906 -0.3138
  603SOL    HW1 3250   1.800   7.751   4.791 -0.4988 -1.0405 -0.4747
  603SOL    HW2 3251   1.894   7.687   4.691 -0.7987 -0.3120 -1.2283
  604SOL     OW 3252   2.201   1.158   5.193 -0.1297 -1.0971 -0.2033
  604SOL    HW1 3253   2.179   1.211   5.269  1.7157 -0.1858 -0.2575
  604SOL    HW2 3254   2.129   1.174   5.131  1.1003  2.7094 -0.8726
  605SOL     OW 3255   1.783   0.335   6.161  0.0525  0.2890 -0.7355
  605SOL    HW1 3256   1.704   0.349   6.109  0.1187  0.5336 -0.7733
  605SOL    HW2 3257   1.751   0.304   6.246 -0.0715  0.1866 -0.8185
  606SOL     OW 3258   1.402   0.861   6.429 -0.3989 -0.2605 -0.3641
  606SOL    HW1 3259   1.312   0.880   6.456 -0.3944  0.3253 -0.7444
  606SOL    HW2 3260   1.392   0.824   6.341 -0.4450 -2.4851  0.4969
  607SOL     OW 3261   0.450   0.890   7.062  0.4071 -0.6388  0.1305
  607SOL    HW1 3262   0.541   0.872   7.039 -0.3251 -2.1175 -1.8950
  607SOL    HW2 3263   0.409   0.804   7.070 -0.8476 -0.0021  0.9939
  608SOL     OW 3264   2.496   0.454   4.487  0.4288  0.2175  0.1174
  608SOL    HW1 3265   2.517   0.377   4.540 -2.0395 -0.5878  0.0426
  608SOL    HW2 3266   2.516   0.529   4.543  1.1118 -0.5143  0.8723
  609SOL     OW 3267   1.075   1.424   3.883  0.1380 -0.1198  0.3350
  609SOL    HW1 3268   0.999   1.400   3.831  0.8240 -1.6368 -0.0256
  609SOL    HW2 3269   1.040   1.474   3.956 -0.9240  1.3846 -1.1451
  610SOL     OW 3270   0.203   0.710   3.839  0.1940 -0.9623 -0.3474
  610SOL    HW1 3271   0.224   0.798   3.806  2.1492 -0.9290  0.8245
  610SOL    HW2 3272   0.112   0.697   3.815  0.4606  0.5075 -2.4988
  611SOL     OW 3273   0.333   3.621   4.555 -0.9000  0.1022  0.5416
  611SOL    HW1 3274   0.328   3.613   4.650 -0.2109 -0.3978  0.5415
  611SOL    HW2 3275   0.291   3.705   4.536 -2.2327 -0.3848  1.1560
  612SOL     OW 3276   2.166   1.637   2.619 -0.1987 -0.4266  0.5048
  612SOL    HW1 3277   2.185   1.726   2.650 -0.3571 -0.7935  1.7210
  612SOL    HW2 3278   2.116   1.597   2.690  1.4890 -2.1033  0.8378
  613SOL     OW 3279   0.970   7.972   2.369 -0.8589  0.8916 -0.8065
  613SOL    HW1 3280   1.022   8.006   2.442 -0.3579  0.8958 -1.1622
  613SOL    HW2 3281   0.882   7.963   2.405 -0.6457  1.0214 -0.2392
  614SOL     OW 3282   0.934   0.539   5.202 -0.0154 -0.1528  0.5312
  614SOL    HW1 3283   1.030   0.536   5.195 -0.0288  1.7412 -1.4833
  614SOL    HW2 3284   0.916   0.507   5.291  2.4379 -0.9375  0.8295
  615SOL     OW 3285   2.154   1.524   4.968  0.6112  0.0809 -0.6520
  615SOL    HW1 3286   2.069   1.507   5.008  0.5024 -0.4288 -1.0816
  615SOL    HW2 3287   2.188   1.599   5.015 -0.1017  0.3212 -0.5073
  616SOL     OW 3288   0.727   1.563   4.577  0.4318 -0.0122 -0.0688
  616SOL    HW1 3289   0.734   1.657   4.594  0.7075 -0.0314 -0.0757
  616SOL    HW2 3290   0.780   1.523   4.646  1.3938 -0.1044 -0.8491
  617SOL     OW 3291   3.461   7.961   4.246  0.3395  0.1434  0.3730
  617SOL    HW1 3292   3.521   8.021   4.290  1.0175 -0.4682  0.3095
  617SOL    HW2 3293   3.501   7.948   4.160  1.0203 -1.5608  0.9119
  618SOL     OW 3294   0.959   1.596   4.996  0.0633 -0.6435 -0.1925
  618SOL    HW1 3295   1.043   1.579   4.954  0.0154 -0.4967 -0.3465
  618SOL    HW2 3296   0.976   1.579   5.089  0.0892 -1.2601 -0.3029
  619SOL     OW 3297   7.196   7.346   5.698 -0.0835 -0.0936 -0.0234
  619SOL    HW1 3298   7.195   7.296   5.780  0.7026 -0.3365 -0.1504
  619SOL    HW2 3299   7.288   7.366   5.684 -0.3740  1.2829 -0.0593
  620SOL     OW 3300   1.513   0.633   5.657 -0.6700  0.1273 -0.1494
  620SOL    HW1 3301   1.512   0.556   5.714 -2.2595  0.2673  0.0799
  620SOL    HW2 3302   1.567   0.696   5.703  1.1226 -1.0089 -0.6008
  621SOL     OW 3303   6.696   0.741   2.077 -0.3618 -0.3879  0.0420
  621SOL    HW1 3304   6.737   0.827   2.066 -0.7569 -0.3682 -1.5637
  621SOL    HW2 3305   6.625   0.755   2.139  0.5809  0.0878  1.0299
  622SOL     OW 3306   7.178   0.703   5.585  0.5493 -0.3503  0.0501
  622SOL    HW1 3307   7.192   0.778   5.526  1.6671  0.2336  1.0146
  622SOL    HW2 3308   7.158   0.742   5.670 -1.3391 -1.1866  0.0316
  623SOL     OW 3309   2.591   0.077   5.666  0.0260  0.4131 -0.0922
  623SOL    HW1 3310   2.552   0.021   5.599 -1.5310 -0.2854  1.3121
  623SOL    HW2 3311   2.684   0.056   5.665 -0.3848 -1.6034 -0.2014
  624SOL     OW 3312   1.790   0.695   2.811 -0.3389  0.6298  0.2949
  624SOL    HW1 3313   1.799   0.635   2.886  1.9911  0.1813 -0.2553
  624SOL    HW2 3314   1.821   0.644   2.736  0.3785  2.0512 -0.4260
  625SOL     OW 3315   1.883   1.912   5.595 -0.1319 -0.3909  0.0937
  625SOL    HW1 3316   1.975   1.889   5.589 -0.3522 -1.3329  0.2116
  625SOL    HW2 3317   1.857   1.888   5.684  0.0025  1.8117  0.7969
  626SOL     OW 3318   2.008   0.680   4.953  0.0338 -0.0965  0.1134
  626SOL    HW1 3319   2.044   0.606   4.904 -0.1438 -0.1909  0.1238
  626SOL    HW2 3320   2.066   0.753   4.933 -0.2317 -0.0497 -0.5110
  627SOL     OW 3321   1.939   1.096   2.370  0.8000  0.1447 -0.5358
  627SOL    HW1 3322   1.984   1.023   2.328  1.1284  1.0161 -1.7312
  627SOL    HW2 3323   1.866   1.055   2.417  2.0438 -1.1472  0.3616
  628SOL     OW 3324   7.849   3.634   4.226 -0.1562 -0.6452  0.6178
  628SOL    HW1 3325   7.764   3.650   4.267  0.1621 -1.8709  1.8310
  628SOL    HW2 3326   7.846   3.684   4.144 -1.5821  0.2707  1.1849
  629SOL     OW 3327   1.718   7.154   6.579 -0.5891 -0.0810  0.4780
  629SOL    HW1 3328   1.752   7.164   6.491 -0.6127 -1.1985  0.3241
  629SOL    HW2 3329   1.740   7.064   6.603 -4.1043 -1.2076  0.0299
  630SOL     OW 3330   2.175   7.963   4.802  0.1962  0.0100 -0.5541
  630SOL    HW1 3331   2.147   7.941   4.713  2.4295 -1.5527 -0.9527
  630SOL    HW2 3332   2.219   8.047   4.793  0.3768 -0.1204 -0.9400
  631SOL     OW 3333   7.906   3.202   5.874 -0.6330  0.4449  0.0214
  631SOL    HW1 3334   7.931   3.217   5.783  0.7785  2.3089  0.6628
  631SOL    HW2 3335   7.844   3.272   5.893 -0.0334  0.7665  0.8191
  632SOL     OW 3336   1.702   6.945   4.996  0.0071  0.3157  0.6738
  632SOL    HW1 3337   1.609   6.970   4.994 -0.2240 -0.4778  1.1304
  632SOL    HW2 3338   1.722   6.935   5.089  0.2961 -0.4302  0.5328
  633SOL     OW 3339   1.506   1.018   5.657  0.2129  0.1249 -0.0517
  633SOL    HW1 3340   1.595   1.012   5.621 -0.5559  1.0768 -2.3140
  633SOL    HW2 3341   1.491   1.112   5.668 -0.3335 -0.0562  0.8327
  634SOL     OW 3342   1.258   0.711   3.063  0.3922 -0.3704 -0.2608
  634SOL    HW1 3343   1.337   0.709   3.009  0.9823 -1.5085  0.6131
  634SOL    HW2 3344   1.261   0.796   3.107  0.4153  0.1506 -1.2341
  635SOL     OW 3345   3.217   0.935   4.677  0.1610  0.0655  0.1202
  635SOL    HW1 3346   3.268   1.015   4.694  2.2105 -1.5459  2.0979
  635SOL    HW2 3347   3.186   0.908   4.764 -0.4664 -1.3423 -0.5175
  636SOL     OW 3348   2.289   0.778   5.675 -0.2797 -0.6655 -0.6028
  636SOL    HW1 3349   2.271   0.790   5.768 -0.8313 -2.8945 -0.3660
  636SOL    HW2 3350   2.376   0.738   5.672 -0.0162 -0.0801 -1.1097
  637SOL     OW 3351   6.799   0.207   7.882  0.0206  0.1922  0.0307
  637SOL    HW1 3352   6.839   0.293   7.872 -1.4541  0.8960  0.0057
  637SOL    HW2 3353   6.738   0.200   7.808 -0.3280 -0.6097  0.3857
  638SOL     OW 3354   0.786   1.464   4.181 -0.4911  0.0325 -0.2113
  638SOL    HW1 3355   0.747   1.422   4.105  2.8888 -1.4875 -1.3194
  638SOL    HW2 3356   0.801   1.393   4.244  0.3719  0.5184  0.1609
  639SOL     OW 3357   0.842   0.524   5.458  0.6684 -0.0752 -0.6014
  639SOL    HW1 3358   0.800   0.607   5.478 -0.4570 -0.8313  0.3204
  639SOL    HW2 3359   0.919   0.521   5.514  1.3281  0.8005 -1.4317
  640SOL     OW 3360   0.552   7.893   4.566  0.2984  0.3870 -0.1008
  640SOL    HW1 3361   0.607   7.827   4.608  0.7956  0.5722 -0.4409
  640SOL    HW2 3362   0.530   7.855   4.480  2.3418  1.4971 -1.1868
  641SOL     OW 3363   2.676   2.713   4.731  0.0981  0.6866  0.4414
  641SOL    HW1 3364   2.661   2.674   4.817 -2.2041 -1.7054 -0.9171
  641SOL    HW2 3365   2.596   2.763   4.713  0.3974  0.8638 -0.4727
  642SOL     OW 3366   7.382   1.875   5.273  0.1431 -0.0063 -0.3756
  642SOL    HW1 3367   7.403   1.825   5.194 -1.9112  1.8881 -2.2831
  642SOL    HW2 3368   7.287   1.869   5.281 -0.1600  3.0882 -0.4609
  643SOL     OW 3369   3.236   1.814   4.966  0.5489  0.2845  0.1264
  643SOL    HW1 3370   3.229   1.768   5.049 -0.6200  0.8171  0.3546
  643SOL    HW2 3371   3.254   1.746   4.901 -2.0269 -0.6959  0.3060
  644SOL     OW 3372   1.023   7.698   3.770 -0.0543 -0.8528  0.2333
  644SOL    HW1 3373   1.082   7.632   3.807 -1.1547 -1.4948  0.8874
  644SOL    HW2 3374   0.964   7.649   3.714  1.0379 -0.0000 -1.7847
  645SOL     OW 3375   7.543   7.746   3.660  0.0420  0.8685 -0.9862
  645SOL    HW1 3376   7.616   7.799   3.628  1.2146 -0.8752 -1.3597
  645SOL    HW2 3377   7.532   7.678   3.594  0.4505 -0.9729  0.7324
  646SOL     OW 3378   1.936   3.323   3.877  0.1957  0.2195 -0.3746
  646SOL    HW1 3379   1.977   3.380   3.812 -1.8023  0.1266 -1.8340
  646SOL    HW2 3380   1.889   3.258   3.825 -1.1192 -0.1191  1.1650
  647SOL     OW 3381   2.047   1.213   5.406  0.1264 -0.6225  0.4834
  647SOL    HW1 3382   2.051   1.122   5.437  1.8263 -0.3326  1.2339
  647SOL    HW2 3383   2.061   1.265   5.485  0.4318  0.2502 -0.1391
  648SOL     OW 3384   7.313   7.911   3.815 -0.0367 -0.5413  0.3935
  648SOL    HW1 3385   7.330   7.869   3.730  0.0238  0.2860 -0.0135
  648SOL    HW2 3386   7.376   7.983   3.818 -0.9601  0.2689  0.5417
  649SOL     OW 3387   0.260   7.107   5.346  0.5112  0.8801 -0.2950
  649SOL    HW1 3388   0.210   7.047   5.290 -1.3457  1.8070  0.2896
  649SOL    HW2 3389   0.332   7.054   5.380 -0.8667 -0.9355 -0.0760
  650SOL     OW 3390   7.528   0.477   4.599  0.1318  0.5013  0.2040
  650SOL    HW1 3391   7.509   0.527   4.519 -0.7821  0.5087  0.4227
  650SOL    HW2 3392   7.494   0.531   4.670  0.5864  0.3049  0.5797
  651SOL     OW 3393   1.259   7.804   4.368  0.6236 -0.1872  0.4562
  651SOL    HW1 3394   1.229   7.715   4.349  0.7445 -0.3117  0.8469
  651SOL    HW2 3395   1.213   7.828   4.448 -2.1054  1.3956 -1.4032
  652SOL     OW 3396   1.620   1.226   6.429 -0.3961  0.4485 -0.4421
  652SOL    HW1 3397   1.598   1.316   6.408  1.0710  0.6946 -1.0441
  652SOL    HW2 3398   1.694   1.205   6.372 -1.2515 -1.4295 -0.9432
  653SOL     OW 3399   6.843   7.556   5.156 -0.2007  0.3899 -0.0980
  653SOL    HW1 3400   6.873   7.483   5.210 -0.6088 -1.0549 -1.7020
  653SOL    HW2 3401   6.750   7.564   5.176  0.1039  1.3394  1.0035
  654SOL     OW 3402   2.196   1.232   4.718 -0.1058 -0.9919  0.0377
  654SOL    HW1 3403   2.118   1.263   4.674  0.9790 -0.2268 -1.4229
  654SOL    HW2 3404   2.208   1.143   4.686  0.1535 -0.7655 -0.5086
  655SOL     OW 3405   0.377   2.059   5.193  0.9434 -0.4151  0.0200
  655SOL    HW1 3406   0.317   1.991   5.222  2.9095 -2.5525 -0.6592
  655SOL    HW2 3407   0.336   2.094   5.113 -0.0692 -0.8384  0.3393
  656SOL     OW 3408   2.088   0.886   5.252 -0.7015 -0.1071  0.1665
  656SOL    HW1 3409   2.108   0.963   5.199 -2.0635  0.4295  0.3990
  656SOL    HW2 3410   2.117   0.909   5.341  2.5726 -1.4002 -0.4098
  657SOL     OW 3411   1.490   0.504   7.689  0.4551 -0.0046 -0.3406
  657SOL    HW1 3412   1.526   0.592   7.689 -0.4656  0.3857 -0.9456
  657SOL    HW2 3413   1.550   0.454   7.745  0.9133  1.0244  0.1221
  658SOL     OW 3414   2.146   0.966   3.583 -0.4799 -0.4836  0.5042
  658SOL    HW1 3415   2.240   0.950   3.595 -0.2503  0.0694 -0.4524
  658SOL    HW2 3416   2.109   0.957   3.671  0.4376 -0.8919  0.8626
  659SOL     OW 3417   6.905   3.751   5.019 -0.8116  0.3161  0.5519
  659SOL    HW1 3418   6.901   3.791   4.932  2.0602 -0.3455  0.0197
  659SOL    HW2 3419   6.983   3.790   5.059 -1.7565  0.1819  2.6588
  660SOL     OW 3420   2.727   0.157   3.711 -0.5920 -0.1456  0.0801
  660SOL    HW1 3421   2.744   0.191   3.799 -0.2228 -3.4153  1.4203
  660SOL    HW2 3422   2.814   0.133   3.679 -0.8859 -0.4507 -0.4896
  661SOL     OW 3423   1.386   7.699   4.094  0.1786 -0.4162 -0.0463
  661SOL    HW1 3424   1.456   7.672   4.154 -0.3571 -1.1887  0.2549
  661SOL    HW2 3425   1.431   7.732   4.017  0.9452 -3.3116 -0.9548
  662SOL     OW 3426   7.405   0.192   3.707  0.0821 -0.0153  0.2940
  662SOL    HW1 3427   7.396   0.187   3.802 -0.1780  1.4795  0.3665
  662SOL    HW2 3428   7.337   0.254   3.679  0.3713 -0.1744 -0.8339
  663SOL     OW 3429   1.193   0.886   6.732  0.3861 -0.2495  0.2129
  663SOL    HW1 3430   1.233   0.937   6.662  2.8335 -1.8376  0.2887
  663SOL    HW2 3431   1.242   0.912   6.811 -0.5430 -0.3590  0.8356
  664SOL     OW 3432   3.566   7.769   5.845 -0.1280  0.1589 -0.0445
  664SOL    HW1 3433   3.618   7.689   5.849 -1.2944 -0.6438 -0.4352
  664SOL    HW2 3434   3.543   7.778   5.752  1.0492  1.6745 -0.2378
  665SOL     OW 3435   1.259   2.100   2.671 -0.5872  0.1004 -0.4219
  665SOL    HW1 3436   1.351   2.080   2.652 -0.2848  2.4271 -1.7180
  665SOL    HW2 3437   1.247   2.074   2.762  1.7522  0.9875  0.1924
  666SOL     OW 3438   7.930   2.048   4.284 -0.6310  0.3741  0.0651
  666SOL    HW1 3439   7.849   2.070   4.330 -0.2529 -0.2494  1.0643
  666SOL    HW2 3440   7.998   2.054   4.351  0.2395  1.3674 -0.8597
  667SOL     OW 3441   2.161   7.060   4.756  0.0138 -0.2665 -0.2887
  667SOL    HW1 3442   2.247   7.084   4.790  0.6162 -0.2078 -1.7554
  667SOL    HW2 3443   2.114   7.025   4.831  0.6810  1.3599  0.9468
  668SOL     OW 3444   7.898   0.718   4.105  0.2394 -0.1108 -0.3738
  668SOL    HW1 3445   7.885   0.783   4.036  1.0009 -0.7093 -1.1096
  668SOL    HW2 3446   7.815   0.717   4.153 -0.4599  0.0480 -1.5253
  669SOL     OW 3447   2.407   7.034   4.126 -0.2259 -0.0671 -0.2142
  669SOL    HW1 3448   2.323   7.008   4.088 -0.8232  0.5927  0.6047
  669SOL    HW2 3449   2.413   7.128   4.108  0.4888 -0.1671 -0.5288
  670SOL     OW 3450   0.230   2.730   5.380 -0.2039  0.1258  0.3289
  670SOL    HW1 3451   0.325   2.737   5.386 -0.2508  0.3913  0.7962
  670SOL    HW2 3452   0.213   2.708   5.288  0.2482  1.2178 -0.0355
  671SOL     OW 3453   6.653   1.489   6.240  0.2198 -0.0779 -0.6184
  671SOL    HW1 3454   6.636   1.493   6.146 -1.1678  0.4393 -0.3764
  671SOL    HW2 3455   6.565   1.486   6.280  0.6855  2.1945  0.7612
  672SOL     OW 3456   1.464   0.814   4.998 -0.6144 -0.2700  0.3248
  672SOL    HW1 3457   1.482   0.720   5.001 -3.0250 -0.8216 -0.0723
  672SOL    HW2 3458   1.413   0.831   5.077 -0.1924  0.7165  0.3989
  673SOL     OW 3459   1.910   0.671   5.969 -0.2855 -0.7632 -0.0387
  673SOL    HW1 3460   1.956   0.755   5.972 -1.3630 -0.1128 -1.2310
  673SOL    HW2 3461   1.971   0.609   6.010  0.5598  0.5664  0.7679
  674SOL     OW 3462   6.680   7.444   5.369  0.3122  0.2761  0.5770
  674SOL    HW1 3463   6.694   7.360   5.326 -0.9745 -0.0988  0.8437
  674SOL    HW2 3464   6.739   7.443   5.444  1.8550  0.5212 -0.5868
  675SOL     OW 3465   2.096   6.965   5.278 -0.1878 -0.1329 -1.0023
  675SOL    HW1 3466   2.128   7.054   5.264 -2.8166  1.4507  1.8843
  675SOL    HW2 3467   2.137   6.937   5.360  0.2535 -1.4772 -1.6440
  676SOL     OW 3468   0.120   0.662   5.184 -0.1448  0.0100 -0.3929
  676SOL    HW1 3469   0.214   0.654   5.168  0.4733  3.8440  0.2627
  676SOL    HW2 3470   0.111   0.654   5.279 -0.0956  1.8089 -0.2084
  677SOL     OW 3471   0.781   0.434   2.338 -0.3060  0.2397  0.3042
  677SOL    HW1 3472   0.744   0.510   2.383 -2.0471 -0.5990  0.4050
  677SOL    HW2 3473   0.874   0.436   2.359  0.0728  3.3054 -1.1353
  678SOL     OW 3474   3.309   7.193   4.902  0.1103 -0.2699  0.1760
  678SOL    HW1 3475   3.222   7.207   4.939  0.9381  1.8643  1.5253
  678SOL    HW2 3476   3.355   7.139   4.966 -0.0990 -1.1029 -0.3671
  679SOL     OW 3477   1.807   0.927   6.352  0.3514  0.2922  0.4135
  679SOL    HW1 3478   1.902   0.916   6.355  0.1447 -2.0880  0.4178
  679SOL    HW2 3479   1.793   1.006   6.301  2.3223  0.2206 -0.3092
  680SOL     OW 3480   0.586   7.910   3.279 -0.3414 -0.4092 -0.2600
  680SOL    HW1 3481   0.595   7.830   3.331 -1.2123 -2.1498 -2.6071
  680SOL    HW2 3482   0.515   7.891   3.218  0.5548  1.5218 -2.0420
  681SOL     OW 3483   0.096   2.783   5.604 -0.0378 -0.7077 -0.0567
  681SOL    HW1 3484   0.170   2.804   5.660 -0.4687  1.2612 -0.1668
  681SOL    HW2 3485   0.132   2.785   5.515  0.1884 -1.7992 -0.0126
  682SOL     OW 3486   1.211   6.679   2.065 -0.1729 -0.5245 -0.5852
  682SOL    HW1 3487   1.219   6.626   1.985 -0.1205 -0.6010 -0.5298
  682SOL    HW2 3488   1.298   6.717   2.077  0.0068 -1.0530 -0.1910
  683SOL     OW 3489   0.970   1.001   4.455 -0.0277 -0.0565 -0.1969
  683SOL    HW1 3490   1.000   1.078   4.504 -0.5087  1.0101 -1.5085
  683SOL    HW2 3491   0.912   0.955   4.516  2.1075 -0.7317  1.4601
  684SOL     OW 3492   1.471   6.309   4.278 -0.1010  0.6199 -0.0365
  684SOL    HW1 3493   1.555   6.341   4.310  1.5914 -2.3365 -1.1268
  684SOL    HW2 3494   1.494   6.240   4.215 -3.3520  0.0301 -0.7564
  685SOL     OW 3495   0.519   7.852   4.304  0.1130  0.2649  0.3437
  685SOL    HW1 3496   0.425   7.864   4.316 -0.3582 -1.5152 -1.1019
  685SOL    HW2 3497   0.529   7.831   4.212  2.2805  2.9563 -0.1711
  686SOL     OW 3498   1.231   1.215   4.439  0.0504 -0.1345  0.1383
  686SOL    HW1 3499   1.226   1.141   4.379  1.6078  0.3993 -0.7237
  686SOL    HW2 3500   1.179   1.189   4.515 -0.2958 -1.6579 -0.5898
  687SOL     OW 3501   1.166   0.511   4.544 -0.1411  0.0439 -0.3723
  687SOL    HW1 3502   1.092   0.454   4.565  0.2482 -0.4084 -0.2221
  687SOL    HW2 3503   1.243   0.454   4.550  0.2988  0.6930  0.2555
  688SOL     OW 3504   2.028   6.968   6.809 -0.6460 -0.3860  0.2346
  688SOL    HW1 3505   2.096   7.036   6.804 -0.3110 -0.6897  0.6062
  688SOL    HW2 3506   1.991   6.978   6.897 -0.7636 -0.5325  0.2017
  689SOL     OW 3507   0.309   0.452   8.087  0.2625 -0.2078  0.1214
  689SOL    HW1 3508   0.291   0.458   7.993  2.0995 -1.0622 -0.3185
  689SOL    HW2 3509   0.348   0.366   8.098 -1.5449 -0.8674  1.9916
  690SOL     OW 3510   1.187   3.376   8.207 -0.3163  0.5677  0.2657
  690SOL    HW1 3511   1.147   3.289   8.209 -1.8869  1.2533  0.4748
  690SOL    HW2 3512   1.278   3.361   8.230 -0.7090 -0.9510  0.9654
  691SOL     OW 3513   7.319   1.445   7.806  0.5190 -0.1304 -0.2121
  691SOL    HW1 3514   7.302   1.489   7.889 -0.2011 -0.5417 -0.1339
  691SOL    HW2 3515   7.300   1.511   7.740  1.7442  0.4118 -0.0492
  692SOL     OW 3516   1.415   2.260   8.130 -0.4738 -0.1590 -0.3033
  692SOL    HW1 3517   1.466   2.288   8.054  1.6239 -0.3278  0.9741
  692SOL    HW2 3518   1.386   2.171   8.108  0.8578 -0.5463 -0.5962
  693SOL     OW 3519   0.402   0.314   6.249  0.6949  0.1559  0.1327
  693SOL    HW1 3520   0.335   0.355   6.304  0.4244  0.0523 -0.1132
  693SOL    HW2 3521   0.353   0.282   6.172  1.0076 -0.0290  0.0093
  694SOL     OW 3522   7.459   1.758   5.050  0.0016  0.5975 -0.0134
  694SOL    HW1 3523   7.470   1.680   4.996  1.4378  1.6537 -1.3298
  694SOL    HW2 3524   7.392   1.809   5.005 -1.3639 -0.1098  1.1664
  695SOL     OW 3525   1.083   6.064   6.624  0.4989 -0.4088  0.4915
  695SOL    HW1 3526   1.082   6.145   6.676 -1.4191 -0.7490  1.0642
  695SOL    HW2 3527   1.075   5.994   6.689 -3.1035 -0.8068 -0.1512
  696SOL     OW 3528   7.569   2.474   4.857 -0.2856 -0.7439  0.2574
  696SOL    HW1 3529   7.504   2.519   4.803 -0.9785  0.5468  2.0708
  696SOL    HW2 3530   7.621   2.423   4.794 -1.7012 -0.1554 -1.4752
  697SOL     OW 3531   1.716   0.147   8.223 -0.0636  0.0049  0.3387
  697SOL    HW1 3532   1.696   0.174   8.313  0.0589  1.2633  0.0106
  697SOL    HW2 3533   1.790   0.203   8.198 -0.1906 -0.2389 -0.5944
  698SOL     OW 3534   2.513   1.131   5.863 -0.1145 -0.2690 -0.2041
  698SOL    HW1 3535   2.551   1.215   5.889  0.4188 -0.2571 -0.9630
  698SOL    HW2 3536   2.454   1.152   5.790 -0.4777 -0.4697  0.0311
  699SOL     OW 3537   2.036   0.121   6.656  0.2347 -0.1016 -0.3691
  699SOL    HW1 3538   2.011   0.094   6.744  3.6531 -2.5133  0.0262
  699SOL    HW2 3539   1.954   0.152   6.616 -2.0170 -1.7960  2.5881
  700SOL     OW 3540   1.699   0.679   8.845  0.0801  0.4571 -0.7474
  700SOL    HW1 3541   1.673   0.756   8.793 -2.8018  1.6742  2.1380
  700SOL    HW2 3542   1.762   0.713   8.909 -0.2454  0.1635 -0.2630
  701SOL     OW 3543   7.923   0.529   7.253  0.1893  0.2779  0.0666
  701SOL    HW1 3544   7.991   0.542   7.187  0.9302  2.2177  1.1428
  701SOL    HW2 3545   7.940   0.441   7.288  0.2965 -0.4401 -1.6893
  702SOL     OW 3546   0.487   1.017   5.616 -0.1896  0.2306 -0.2053
  702SOL    HW1 3547   0.486   0.925   5.644  0.2461 -0.3610 -2.0465
  702SOL    HW2 3548   0.541   1.018   5.538  0.4892  2.2222  0.2391
  703SOL     OW 3549   0.913   1.566   8.026  0.6473 -0.5626  0.5255
  703SOL    HW1 3550   0.932   1.605   7.940 -1.8457 -2.0811 -0.8453
  703SOL    HW2 3551   0.941   1.475   8.018 -0.5311 -0.9745  0.9510
  704SOL     OW 3552   6.942   3.078   7.915  0.4464 -0.0891  0.1344
  704SOL    HW1 3553   6.882   3.140   7.875  0.5416  0.3599  0.6734
  704SOL    HW2 3554   7.020   3.129   7.935  0.7067 -0.4911  0.1516
  705SOL     OW 3555   0.293   3.518   8.448 -0.3808 -0.5306 -0.1966
  705SOL    HW1 3556   0.217   3.472   8.413 -1.3358  0.5221  0.4080
  705SOL    HW2 3557   0.339   3.550   8.370 -0.0440 -1.9232 -0.5956
  706SOL     OW 3558   0.577   1.187   8.523 -0.6850  0.2976 -0.6797
  706SOL    HW1 3559   0.538   1.177   8.610  0.0858  0.0467 -0.3545
  706SOL    HW2 3560   0.528   1.125   8.468 -1.9007  1.2359 -0.6854
  707SOL     OW 3561   0.341   1.568   6.995 -1.2926 -0.0563 -0.6779
  707SOL    HW1 3562   0.399   1.533   6.928 -1.7178 -0.5116 -0.8145
  707SOL    HW2 3563   0.355   1.662   6.991 -0.3822 -0.1757 -0.5355
  708SOL     OW 3564   1.667   0.191   7.140  0.1354  0.3478  0.6325
  708SOL    HW1 3565   1.699   0.183   7.050  0.6121 -4.6446  0.9741
  708SOL    HW2 3566   1.574   0.169   7.134 -0.3056  1.9242  1.2189
  709SOL     OW 3567   7.885   0.713   4.553 -0.3222 -0.2326  0.6793
  709SOL    HW1 3568   7.805   0.704   4.605 -0.1782 -0.7489  0.8213
  709SOL    HW2 3569   7.908   0.806   4.559 -0.6567 -0.1695  1.0134
  710SOL     OW 3570   1.299   2.946   7.410 -0.4666  0.2858  0.3580
  710SOL    HW1 3571   1.275   2.976   7.322 -2.4827  0.2433  0.8425
  710SOL    HW2 3572   1.219   2.904   7.443  0.5592 -0.5779  1.8431
  711SOL     OW 3573   0.205   2.723   6.268  0.4532 -0.7243  0.2818
  711SOL    HW1 3574   0.127   2.778   6.258  1.5855  0.8156 -0.5360
  711SOL    HW2 3575   0.182   2.662   6.338 -1.4034 -0.1796  0.2078
  712SOL     OW 3576   1.142   1.480   6.703 -0.7452 -0.1457 -0.3662
  712SOL    HW1 3577   1.122   1.547   6.768  0.7959  1.0151 -1.0413
  712SOL    HW2 3578   1.067   1.421   6.707 -1.7151  1.0893  0.9106
  713SOL     OW 3579   1.944   2.653   5.564  0.1601  0.3283 -0.9000
  713SOL    HW1 3580   1.971   2.569   5.526 -0.3752 -0.5660  0.6142
  713SOL    HW2 3581   1.986   2.655   5.650 -0.3302  1.3318 -0.6687
  714SOL     OW 3582   7.680   0.453   6.828 -0.0215  0.2190 -0.7055
  714SOL    HW1 3583   7.608   0.477   6.887  0.9340  0.6527  0.3353
  714SOL    HW2 3584   7.638   0.411   6.754 -1.4060  1.1077 -0.4580
  715SOL     OW 3585   0.210   1.653   5.768 -0.1298 -0.1516 -0.4007
  715SOL    HW1 3586   0.241   1.591   5.703 -0.2325 -0.5597 -0.0630
  715SOL    HW2 3587   0.114   1.647   5.764 -0.1442  0.1570 -0.5337
  716SOL     OW 3588   2.011   1.661   6.613 -0.0549  0.5356 -0.3686
  716SOL    HW1 3589   2.039   1.656   6.521 -0.5420  0.7309 -0.5318
  716SOL    HW2 3590   2.023   1.753   6.636  1.1028  0.2762  0.1043
  717SOL     OW 3591   1.355   1.341   6.210 -0.1258  0.1192 -0.3370
  717SOL    HW1 3592   1.351   1.247   6.193  0.9132 -0.2067  1.0717
  717SOL    HW2 3593   1.420   1.351   6.279  0.2099  1.9393 -0.8463
  718SOL     OW 3594   1.348   1.761   8.140  0.9051 -0.3009 -0.1149
  718SOL    HW1 3595   1.281   1.784   8.204  2.5419 -0.0618  1.5825
  718SOL    HW2 3596   1.346   1.832   8.076 -0.8067 -0.5916 -0.4415
  719SOL     OW 3597   1.687   2.543   5.931  0.5205  0.0224  0.2225
  719SOL    HW1 3598   1.699   2.601   5.856  0.2745 -0.5742 -0.2919
  719SOL    HW2 3599   1.593   2.542   5.946  0.6858  1.4300  1.6059
  720SOL     OW 3600   1.999   1.523   7.032 -0.0695  0.6956 -0.3271
  720SOL    HW1 3601   2.021   1.431   7.018  0.1116  0.9112 -1.6218
  720SOL    HW2 3602   1.903   1.523   7.037 -0.0294  0.3269  0.6979
  721SOL     OW 3603   0.827   0.088   7.536 -0.0343 -0.3526  0.5097
  721SOL    HW1 3604   0.832   0.174   7.579  0.1715 -0.0897 -0.0279
  721SOL    HW2 3605   0.916   0.054   7.540 -0.0903 -0.4877  0.6102
  722SOL     OW 3606   1.570   1.745   6.033  0.0447 -0.4425  0.3347
  722SOL    HW1 3607   1.645   1.761   6.090  0.1992 -1.4085  0.4153
  722SOL    HW2 3608   1.566   1.649   6.024 -0.8915 -0.3798 -0.0446
  723SOL     OW 3609   0.577   2.001   6.898 -0.3425 -0.0840  0.4870
  723SOL    HW1 3610   0.604   2.086   6.864  0.1825 -0.0172  1.0516
  723SOL    HW2 3611   0.609   1.938   6.832  0.3427  0.0716  0.6610
  724SOL     OW 3612   0.300   1.291   5.879  0.6804  1.2162 -0.1794
  724SOL    HW1 3613   0.273   1.333   5.961 -0.0653 -0.0113  0.2336
  724SOL    HW2 3614   0.304   1.362   5.815  0.7222  2.1001  0.7935
  725SOL     OW 3615   0.687   0.283   7.947  0.3603  0.7502  0.0271
  725SOL    HW1 3616   0.675   0.377   7.955 -3.9630  0.3790  0.4935
  725SOL    HW2 3617   0.665   0.249   8.034  1.0740 -0.7142 -0.3418
  726SOL     OW 3618   7.920   2.150   6.177 -0.0229 -0.1624 -0.5618
  726SOL    HW1 3619   7.985   2.218   6.157 -0.0266 -0.5916 -2.1619
  726SOL    HW2 3620   7.836   2.195   6.168 -0.1570  1.1375  4.0532
  727SOL     OW 3621   1.196   0.318   8.007 -0.1603 -0.2551 -0.2774
  727SOL    HW1 3622   1.105   0.289   8.019  0.0768 -1.4472 -1.1495
  727SOL    HW2 3623   1.226   0.340   8.095 -1.8211  1.8494 -0.1576
  728SOL     OW 3624   6.992   7.730   5.378  0.1042 -0.2201 -0.3065
  728SOL    HW1 3625   7.079   7.735   5.340  0.0157 -0.2549 -0.5131
  728SOL    HW2 3626   7.003   7.675   5.456  0.4665  0.5875  0.2367
  729SOL     OW 3627   1.218   2.591   7.294  0.3403  0.6633  0.5158
  729SOL    HW1 3628   1.245   2.682   7.299  1.4636  0.3083  1.2254
  729SOL    HW2 3629   1.300   2.541   7.295 -0.2847 -0.4696  2.8579
  730SOL     OW 3630   1.016   1.137   6.546  0.2681  0.5355 -0.0078
  730SOL    HW1 3631   0.978   1.188   6.618 -0.2301 -0.2973  0.3383
  730SOL    HW2 3632   1.092   1.187   6.518  0.4062  0.9291  1.0375
  731SOL     OW 3633   0.189   0.386   6.401 -0.2296 -0.5223  0.0883
  731SOL    HW1 3634   0.220   0.476   6.391  0.2935 -0.7779 -0.7054
  731SOL    HW2 3635   0.201   0.366   6.494 -1.9260  0.7787  0.6370
  732SOL     OW 3636   1.368   0.382   8.227 -0.0003  0.6910 -0.1214
  732SOL    HW1 3637   1.433   0.435   8.181  0.3107  1.6249  1.3264
  732SOL    HW2 3638   1.347   0.433   8.306 -0.3469 -0.9316  0.8797
  733SOL     OW 3639   1.291   2.259   9.060 -0.0602  0.4585 -0.5033
  733SOL    HW1 3640   1.284   2.215   9.145  1.0625 -2.1349 -1.6657
  733SOL    HW2 3641   1.205   2.247   9.020 -0.4174  1.2084  0.0123
  734SOL     OW 3642   7.994   1.950   6.352  0.4533 -0.1326 -0.2992
  734SOL    HW1 3643   7.951   2.026   6.312  2.3421  0.6905 -0.8679
  734SOL    HW2 3644   8.026   1.899   6.278 -1.0051 -1.6805  0.0672
  735SOL     OW 3645   3.584   1.373   7.694  0.2487 -0.0875  0.2440
  735SOL    HW1 3646   3.677   1.393   7.689  0.1702  0.0192 -0.8836
  735SOL    HW2 3647   3.575   1.286   7.655 -0.3011  0.4957 -0.9809
  736SOL     OW 3648   1.382   1.589   6.439  0.8124 -0.2903  0.4283
  736SOL    HW1 3649   1.319   1.630   6.381  0.0114 -0.7456  0.9477
  736SOL    HW2 3650   1.387   1.647   6.515  1.2399 -0.1091  0.2646
  737SOL     OW 3651   0.776   7.551   7.553  0.1723  0.5487 -0.1250
  737SOL    HW1 3652   0.718   7.517   7.486  1.7952 -1.5115 -0.6011
  737SOL    HW2 3653   0.860   7.506   7.537  0.6755  0.0825  3.1577
  738SOL     OW 3654   0.066   1.398   4.599 -0.2559 -0.8791  0.0047
  738SOL    HW1 3655   0.107   1.332   4.543 -0.4292  0.0212 -1.2150
  738SOL    HW2 3656   0.123   1.474   4.593 -1.4795  0.0214 -0.8379
  739SOL     OW 3657   0.687   1.298   5.049  0.5851 -0.2678  0.3529
  739SOL    HW1 3658   0.619   1.239   5.079 -0.1276 -0.2823 -1.1679
  739SOL    HW2 3659   0.664   1.383   5.087 -0.6812 -0.1326 -0.6458
  740SOL     OW 3660   2.389   0.092   9.017 -0.6123  0.0797  0.2975
  740SOL    HW1 3661   2.394   0.092   8.921 -0.4129  1.9947  0.2721
  740SOL    HW2 3662   2.473   0.058   9.046  0.3153  1.8058 -0.2370
  741SOL     OW 3663   7.499   1.222   5.843 -0.2260 -0.1815 -0.2337
  741SOL    HW1 3664   7.430   1.186   5.788  0.5364 -1.7959 -0.2055
  741SOL    HW2 3665   7.464   1.305   5.876 -0.9750  0.4867 -2.5636
  742SOL     OW 3666   0.675   0.217   4.584 -0.4507 -0.5854  0.2968
  742SOL    HW1 3667   0.620   0.147   4.549  0.8594 -0.4882 -2.1539
  742SOL    HW2 3668   0.763   0.178   4.589 -0.0994  0.2599  0.9344
  743SOL     OW 3669   0.938   0.812   6.218  0.8829  0.0286 -0.5085
  743SOL    HW1 3670   0.947   0.717   6.222  0.0849 -0.0449 -0.3471
  743SOL    HW2 3671   0.996   0.838   6.147  0.0299 -0.7367 -1.5138
  744SOL     OW 3672   1.385   0.936   8.818 -0.0574 -0.3749 -0.6411
  744SOL    HW1 3673   1.303   0.982   8.836  0.0424 -0.5838  0.4137
  744SOL    HW2 3674   1.427   0.927   8.904  1.9181  1.3053 -1.3597
  745SOL     OW 3675   2.374   1.491   6.148 -0.2090  0.2975  0.0115
  745SOL    HW1 3676   2.363   1.400   6.177  0.3503  0.0102 -0.6583
  745SOL    HW2 3677   2.383   1.541   6.229  3.4960 -0.7438  0.4185
  746SOL     OW 3678   1.847   1.400   7.850  0.0193  0.1958  0.8597
  746SOL    HW1 3679   1.884   1.315   7.877 -0.2660 -0.2346 -0.0614
  746SOL    HW2 3680   1.898   1.465   7.898  2.2501 -0.3525 -0.6040
  747SOL     OW 3681   2.100   1.112   6.403  0.7708 -0.1885  0.2543
  747SOL    HW1 3682   2.090   1.098   6.309  0.9701 -2.7996  0.5287
  747SOL    HW2 3683   2.031   1.173   6.426  0.4399  0.1683 -1.5091
  748SOL     OW 3684   7.135   3.141   4.965 -0.6727 -0.7007  0.5266
  748SOL    HW1 3685   7.230   3.143   4.976 -0.4579  0.1512 -1.1398
  748SOL    HW2 3686   7.101   3.198   5.033  0.0658 -0.4766  0.7115
  749SOL     OW 3687   7.973   1.049   4.981  0.6933  0.0171  0.2496
  749SOL    HW1 3688   7.905   1.094   5.030  0.7632 -0.5142  0.8580
  749SOL    HW2 3689   8.024   1.118   4.940  0.6776  0.4819  0.9972
  750SOL     OW 3690   0.861   2.604   8.417 -0.1143  0.1901  0.8431
  750SOL    HW1 3691   0.901   2.615   8.331 -0.4513 -1.4902  0.4198
  750SOL    HW2 3692   0.875   2.687   8.462  2.4025  0.2118  0.1399
  751SOL     OW 3693   7.713   2.250   6.399 -0.0135 -0.7356 -0.0317
  751SOL    HW1 3694   7.667   2.260   6.315  0.3864 -3.2372 -0.6185
  751SOL    HW2 3695   7.802   2.278   6.381  0.0445 -1.1605 -0.4314
  752SOL     OW 3696   0.452   2.876   6.295 -0.2497  0.0716  0.1516
  752SOL    HW1 3697   0.384   2.819   6.262 -0.5156  1.2023 -1.3544
  752SOL    HW2 3698   0.414   2.916   6.373 -1.2619  0.5524 -0.5662
  753SOL     OW 3699   7.523   6.472   9.159 -0.2158 -0.5351 -0.2483
  753SOL    HW1 3700   7.475   6.395   9.128 -1.4295  0.3028 -0.4902
  753SOL    HW2 3701   7.489   6.544   9.107  2.1368 -0.0515 -1.2508
  754SOL     OW 3702   6.837   1.679   6.660 -0.4153  0.6952 -0.0659
  754SOL    HW1 3703   6.822   1.633   6.577  1.5764 -0.5055  0.1802
  754SOL    HW2 3704   6.893   1.752   6.637 -1.5962  1.6367 -0.0643
  755SOL     OW 3705   0.866   0.237   5.936 -0.0073  0.1288 -0.2694
  755SOL    HW1 3706   0.946   0.229   5.987  0.4103 -0.3191 -0.9743
  755SOL    HW2 3707   0.854   0.150   5.897 -0.8710  0.1747 -0.1224
  756SOL     OW 3708   1.961   1.606   7.451 -0.4664  0.1648  0.2251
  756SOL    HW1 3709   2.027   1.648   7.396 -0.7300  0.6458  0.2766
  756SOL    HW2 3710   1.881   1.609   7.400 -0.4253 -0.5520  0.1034
  757SOL     OW 3711   7.356   1.079   4.781  0.1621 -0.4401  0.2329
  757SOL    HW1 3712   7.391   0.990   4.771  0.6602 -0.2818  0.5832
  757SOL    HW2 3713   7.419   1.124   4.837  0.6297  0.5563 -1.0500
  758SOL     OW 3714   6.297   2.486   7.406  0.2954 -0.4070  0.6545
  758SOL    HW1 3715   6.291   2.492   7.502  0.1453  0.5650  0.5958
  758SOL    HW2 3716   6.219   2.532   7.375 -0.0061 -1.2914  0.0565
  759SOL     OW 3717   1.148   0.836   8.467 -0.3354  0.5843 -0.2921
  759SOL    HW1 3718   1.238   0.822   8.497 -1.3069  0.5169  3.0076
  759SOL    HW2 3719   1.146   0.929   8.443  0.5118  0.7225  0.1115
  760SOL     OW 3720   2.048   0.578   4.681 -0.6504 -0.3651 -0.3135
  760SOL    HW1 3721   1.988   0.531   4.623 -0.2082  0.3173 -1.3665
  760SOL    HW2 3722   2.119   0.516   4.698 -0.8722 -0.6328 -0.3646
  761SOL     OW 3723   1.319   0.505   7.049  0.0809  0.0596  0.1885
  761SOL    HW1 3724   1.393   0.554   7.084 -0.4691  1.1486 -0.1059
  761SOL    HW2 3725   1.336   0.414   7.073  0.5108  0.5569  1.8692
  762SOL     OW 3726   1.070   7.516   6.316 -0.4421  0.4488 -0.1907
  762SOL    HW1 3727   1.093   7.608   6.304  0.0427  0.4344  0.5579
  762SOL    HW2 3728   1.043   7.509   6.407 -1.3361  0.0184 -0.4739
  763SOL     OW 3729   1.648   1.018   4.345  0.2680  0.3547  0.3193
  763SOL    HW1 3730   1.665   0.983   4.432  1.8602  0.8067  0.2250
  763SOL    HW2 3731   1.686   0.953   4.286 -1.9949 -0.6315 -0.1407
  764SOL     OW 3732   0.588   2.119   7.149 -0.4961  0.3569  0.4895
  764SOL    HW1 3733   0.583   2.085   7.060  0.1245  0.1839  0.5177
  764SOL    HW2 3734   0.529   2.194   7.149  0.4406  1.1358 -0.4278
  765SOL     OW 3735   7.847   1.529   7.190 -0.4150  0.4768  0.2818
  765SOL    HW1 3736   7.790   1.590   7.236 -0.9054 -0.6467  1.2198
  765SOL    HW2 3737   7.886   1.580   7.120 -2.1249  1.4295 -0.0285
  766SOL     OW 3738   7.461   4.081   5.720 -0.4239  0.5877 -0.5285
  766SOL    HW1 3739   7.495   4.171   5.719 -0.7664  0.7336 -0.0108
  766SOL    HW2 3740   7.475   4.051   5.810 -1.4855  0.5968 -0.3430
  767SOL     OW 3741   7.918   2.428   6.347 -0.5470  0.0408 -0.0586
  767SOL    HW1 3742   7.885   2.474   6.270 -0.6452 -1.1168 -0.7346
  767SOL    HW2 3743   8.012   2.446   6.348 -0.3069 -0.9920 -1.2290
  768SOL     OW 3744   0.896   1.084   5.389  0.0985 -0.3030  0.0609
  768SOL    HW1 3745   0.935   1.112   5.307  1.0984 -1.2053  0.2060
  768SOL    HW2 3746   0.886   1.164   5.440  3.2538 -0.1769  0.6508
  769SOL     OW 3747   0.819   7.089   5.702 -0.5929  0.1178 -0.3525
  769SOL    HW1 3748   0.797   7.009   5.653 -0.7281  0.5808 -1.0665
  769SOL    HW2 3749   0.839   7.058   5.790 -1.1593 -0.6490 -0.4786
  770SOL     OW 3750   0.601   0.328   7.242 -0.0256 -0.3336  0.3226
  770SOL    HW1 3751   0.673   0.390   7.254 -0.5890  0.2097  1.0414
  770SOL    HW2 3752   0.596   0.313   7.148  0.7990 -0.1062  0.2426
  771SOL     OW 3753   0.596   0.316   6.957 -0.8509  0.0863  0.0498
  771SOL    HW1 3754   0.555   0.395   6.921 -2.3905 -0.3519  0.7315
  771SOL    HW2 3755   0.643   0.278   6.883  0.2341  1.8040 -0.1998
  772SOL     OW 3756   7.794   0.586   5.883 -0.3931  0.1778  0.6015
  772SOL    HW1 3757   7.784   0.507   5.831  0.4904  1.1570 -1.1512
  772SOL    HW2 3758   7.887   0.609   5.876 -0.4359  0.8647  1.8720
  773SOL     OW 3759   1.597   2.164   6.236 -0.1144 -0.0669 -0.8983
  773SOL    HW1 3760   1.569   2.229   6.171 -0.4531 -0.0689 -0.7528
  773SOL    HW2 3761   1.662   2.211   6.290 -1.2467  0.5483 -0.0217
  774SOL     OW 3762   0.287   1.992   7.686  0.1964  0.0731  0.1860
  774SOL    HW1 3763   0.196   1.984   7.659  0.4052 -0.5018 -0.3557
  774SOL    HW2 3764   0.326   2.053   7.623  0.2794  0.0305  0.1957
  775SOL     OW 3765   2.987   7.719   6.529  0.0306  0.4680  0.0154
  775SOL    HW1 3766   2.933   7.796   6.545 -0.5081 -0.0488  0.7391
  775SOL    HW2 3767   2.948   7.651   6.583  0.0965 -0.4902 -1.1104
  776SOL     OW 3768   0.399   0.597   6.152  0.3573 -0.2393  0.2487
  776SOL    HW1 3769   0.444   0.528   6.104  1.6575  0.8223 -0.1142
  776SOL    HW2 3770   0.316   0.609   6.105  1.1107 -0.0060 -1.0551
  777SOL     OW 3771   1.526   2.804   6.231 -0.0406 -0.3746 -0.5631
  777SOL    HW1 3772   1.585   2.832   6.161  0.1248 -0.6218 -0.5242
  777SOL    HW2 3773   1.583   2.781   6.304 -0.2999  2.3345  0.6077
  778SOL     OW 3774   0.166   7.513   5.998  0.6820  0.3250 -0.3754
  778SOL    HW1 3775   0.132   7.437   5.952 -0.5166  0.8368 -0.3616
  778SOL    HW2 3776   0.131   7.588   5.950  1.2496  0.8686  0.0439
  779SOL     OW 3777   1.288   7.672   5.303 -0.7277  0.0002  0.2253
  779SOL    HW1 3778   1.266   7.614   5.376  0.0511  0.2359  0.6532
  779SOL    HW2 3779   1.358   7.728   5.337  0.2768 -0.4879 -0.9912
  780SOL     OW 3780   0.805   1.602   6.402 -0.0033 -0.2444  1.2618
  780SOL    HW1 3781   0.845   1.521   6.369 -1.2723 -0.5517  0.4067
  780SOL    HW2 3782   0.789   1.655   6.324  1.9794  1.4433  1.9113
  781SOL     OW 3783   1.792   1.209   6.892  0.1231  0.0340 -0.0165
  781SOL    HW1 3784   1.723   1.267   6.861 -0.5302  0.1890  1.6525
  781SOL    HW2 3785   1.747   1.146   6.948  0.8911 -1.7921 -1.3398
  782SOL     OW 3786   1.323   1.215   9.900 -0.1122 -0.3536 -0.4361
  782SOL    HW1 3787   1.413   1.185   9.896  0.1527  0.5837 -2.2822
  782SOL    HW2 3788   1.311   1.242   9.991  2.6719  2.9239 -0.8628
  783SOL     OW 3789   0.031   0.789   6.909 -0.2943  0.0722 -0.4239
  783SOL    HW1 3790   0.086   0.867   6.912  0.7054 -0.6369  0.8469
  783SOL    HW2 3791  -0.057   0.822   6.893  0.5833  1.1711 -3.7961
  784SOL     OW 3792   2.101   1.015   6.143 -0.4488 -0.3040  0.2019
  784SOL    HW1 3793   2.186   0.994   6.182 -0.0183  0.3805 -0.3202
  784SOL    HW2 3794   2.123   1.041   6.053 -1.2179 -0.1404  0.0584
  785SOL     OW 3795   2.965   1.060   9.325 -0.3226  0.4218  0.0520
  785SOL    HW1 3796   2.920   1.045   9.242  0.5540  1.5274 -0.6722
  785SOL    HW2 3797   3.024   0.985   9.335 -0.5619  0.1937 -0.2365
  786SOL     OW 3798   1.124   7.717   6.912  0.0040 -0.2981  0.1577
  786SOL    HW1 3799   1.124   7.678   6.825 -0.8027 -0.7202  0.3381
  786SOL    HW2 3800   1.051   7.779   6.910 -0.2063 -0.5269  0.6228
  787SOL     OW 3801   2.452   0.695   4.966 -0.0495 -0.5120 -0.4479
  787SOL    HW1 3802   2.384   0.696   5.033 -0.1402  1.2922 -0.5083
  787SOL    HW2 3803   2.533   0.714   5.013 -0.0776  0.5098 -0.7767
  788SOL     OW 3804   2.097   7.975   8.824 -0.4792 -0.1146 -0.0080
  788SOL    HW1 3805   2.050   8.058   8.820 -0.2506  0.0241  0.1693
  788SOL    HW2 3806   2.135   7.964   8.737 -1.5312 -0.6365 -0.4233
  789SOL     OW 3807   2.846   0.330   7.349  0.7489 -0.1660  0.1500
  789SOL    HW1 3808   2.834   0.377   7.431 -0.6206 -0.0541 -0.0902
  789SOL    HW2 3809   2.897   0.390   7.294  1.4104 -0.1202  0.8025
  790SOL     OW 3810   0.390   1.702   7.418 -0.4888 -0.3763 -0.1066
  790SOL    HW1 3811   0.329   1.690   7.346  0.4466 -1.4169 -0.7552
  790SOL    HW2 3812   0.436   1.784   7.398 -1.4194  0.2325  0.2123
  791SOL     OW 3813   7.292   1.612   7.129  0.2925 -0.2449 -0.8646
  791SOL    HW1 3814   7.242   1.686   7.093 -0.1821 -0.0220  0.2061
  791SOL    HW2 3815   7.227   1.544   7.144  0.1745  0.2030  0.9635
  792SOL     OW 3816   3.160   0.327   6.977 -0.1712  0.5264  0.1298
  792SOL    HW1 3817   3.109   0.407   6.967 -2.2724 -0.5538  1.4981
  792SOL    HW2 3818   3.234   0.338   6.917 -0.3573  3.4640  0.2852
  793SOL     OW 3819   2.293   0.415   7.810  0.2305  0.0265 -0.4898
  793SOL    HW1 3820   2.307   0.487   7.749  2.3905  0.6383  0.6452
  793SOL    HW2 3821   2.377   0.405   7.855 -0.3941 -2.3807  0.2731
  794SOL     OW 3822   1.263   1.780   9.675  0.5880  0.2919  0.0919
  794SOL    HW1 3823   1.313   1.741   9.603  1.3868  0.0667  0.7414
  794SOL    HW2 3824   1.205   1.843   9.634 -0.0881 -0.9467 -0.9045
  795SOL     OW 3825   7.438   0.358   5.377 -0.2614  0.4980  0.3610
  795SOL    HW1 3826   7.359   0.359   5.324 -0.6091  1.0606  0.8731
  795SOL    HW2 3827   7.443   0.268   5.411 -1.6652  0.9048  1.7431
  796SOL     OW 3828   7.806   2.046   7.441 -0.3456 -0.3532 -0.1188
  796SOL    HW1 3829   7.788   2.076   7.352 -0.1707  2.1035  0.6047
  796SOL    HW2 3830   7.755   1.965   7.449 -1.3681  0.0291 -2.0232
  797SOL     OW 3831   7.122   1.087   5.949  0.5563 -0.0214 -0.6595
  797SOL    HW1 3832   7.198   1.104   6.003  1.0042 -1.3215 -0.8306
  797SOL    HW2 3833   7.048   1.124   5.998  1.0459 -0.5403  0.4930
  798SOL     OW 3834   2.097   1.236   8.233 -0.5210 -0.1498  0.6179
  798SOL    HW1 3835   2.041   1.208   8.160 -1.4629 -0.6836  1.5232
  798SOL    HW2 3836   2.035   1.259   8.303  0.3197  1.5317  0.8498
  799SOL     OW 3837   7.393   7.670   7.590  0.2575  0.2267  0.1923
  799SOL    HW1 3838   7.329   7.740   7.599 -1.1019 -0.8107 -0.9440
  799SOL    HW2 3839   7.450   7.679   7.666 -0.6600  1.7569  0.7383
  800SOL     OW 3840   0.491   6.978   8.754  0.6360  0.6905 -0.1593
  800SOL    HW1 3841   0.505   6.900   8.806  0.3970  1.4193  1.0441
  800SOL    HW2 3842   0.516   6.953   8.665 -0.1790 -0.9650  0.0517
  801SOL     OW 3843   0.569   0.321   8.858  0.1063  0.3911 -0.3890
  801SOL    HW1 3844   0.649   0.358   8.821  1.4951 -1.6930  0.3273
  801SOL    HW2 3845   0.501   0.386   8.840  1.8727  2.0518 -1.3687
  802SOL     OW 3846   0.471   7.813   6.412  0.0454  0.0595 -0.1151
  802SOL    HW1 3847   0.415   7.777   6.344 -0.7567 -0.4322  0.7934
  802SOL    HW2 3848   0.464   7.908   6.402  0.5480 -0.0054 -1.2003
  803SOL     OW 3849   7.245   0.621   5.145  0.4264 -0.1341  0.0393
  803SOL    HW1 3850   7.155   0.632   5.115 -0.1033 -1.3816  1.0628
  803SOL    HW2 3851   7.248   0.531   5.178  1.4569  0.5550  1.9528
  804SOL     OW 3852   0.700   1.228   7.213 -0.2008  0.0416 -0.4251
  804SOL    HW1 3853   0.608   1.206   7.204 -0.2603 -0.2112  0.6833
  804SOL    HW2 3854   0.741   1.149   7.248  0.7607 -0.4161 -2.4282
  805SOL     OW 3855   0.536   1.512   6.832  0.1596  0.1235 -0.0391
  805SOL    HW1 3856   0.559   1.448   6.765  1.0937 -1.1272  1.3874
  805SOL    HW2 3857   0.591   1.587   6.814  3.7437 -1.8024  1.7287
  806SOL     OW 3858   7.560   1.821   6.550 -0.2087 -0.0632 -0.3654
  806SOL    HW1 3859   7.571   1.889   6.484  1.1141 -0.8155 -0.9541
  806SOL    HW2 3860   7.641   1.822   6.601 -0.3015 -0.9588 -0.1704
  807SOL     OW 3861   1.438   2.266   7.828 -0.4240  0.0684 -0.0788
  807SOL    HW1 3862   1.480   2.352   7.839 -0.0398 -0.2168  0.7463
  807SOL    HW2 3863   1.511   2.205   7.818 -0.6785 -0.2753  0.1629
  808SOL     OW 3864   1.075   0.624   7.033 -0.0123  0.8599  0.0298
  808SOL    HW1 3865   1.163   0.588   7.046  0.3513  1.6413 -0.2378
  808SOL    HW2 3866   1.075   0.654   6.942 -1.0856 -0.5710 -0.4770
  809SOL     OW 3867   1.515   7.261   5.536 -0.0894  0.4210  0.2014
  809SOL    HW1 3868   1.506   7.348   5.574 -0.7453  0.2074  0.5456
  809SOL    HW2 3869   1.599   7.264   5.490  0.5971  0.7850  1.4225
  810SOL     OW 3870   6.997   0.883   6.505  0.2194  0.5400 -0.0956
  810SOL    HW1 3871   7.024   0.934   6.428 -2.5078  1.0044 -0.8529
  810SOL    HW2 3872   6.963   0.948   6.566 -0.4244 -0.0970  0.2358
  811SOL     OW 3873   1.329   1.290   6.934 -0.2709  0.3270 -0.1739
  811SOL    HW1 3874   1.268   1.318   6.866 -0.2790  0.3077 -0.1748
  811SOL    HW2 3875   1.352   1.200   6.910  0.6612  0.7209 -0.8202
  812SOL     OW 3876   3.237   1.719   8.929 -0.4067  0.3370  1.3745
  812SOL    HW1 3877   3.214   1.771   9.005  1.0638  3.0698  0.1020
  812SOL    HW2 3878   3.222   1.777   8.854  3.1547 -0.2400 -0.0140
  813SOL     OW 3879   2.596   1.358   8.500  0.3801 -0.1541 -0.2021
  813SOL    HW1 3880   2.525   1.396   8.448  0.3208 -0.0930 -0.0782
  813SOL    HW2 3881   2.636   1.433   8.544 -0.4563 -0.3438  0.9293
  814SOL     OW 3882   7.878   0.268   6.610  0.5951 -0.5714  0.7352
  814SOL    HW1 3883   7.934   0.339   6.578  1.3044 -0.8035  1.4087
  814SOL    HW2 3884   7.791   0.290   6.579  1.1331 -0.4327 -0.7479
  815SOL     OW 3885   3.023   0.292   7.651 -0.8632  0.4287  0.0955
  815SOL    HW1 3886   2.931   0.313   7.667 -0.5455  1.4263  0.7042
  815SOL    HW2 3887   3.021   0.213   7.597 -2.0720  0.4030  0.1616
  816SOL     OW 3888   0.321   2.200   6.178  0.1044 -0.1096  0.3480
  816SOL    HW1 3889   0.382   2.226   6.109  0.8987 -0.0476  1.0576
  816SOL    HW2 3890   0.235   2.230   6.147  0.4833  0.1295 -0.4928
  817SOL     OW 3891   1.145   1.656   6.910 -0.6619  0.4685  0.5232
  817SOL    HW1 3892   1.139   1.646   7.005 -0.7338  0.7572  0.5481
  817SOL    HW2 3893   1.140   1.750   6.894  1.6758  0.6291  0.3925
  818SOL     OW 3894   0.602   6.869   4.710 -0.2766 -0.1884  0.2194
  818SOL    HW1 3895   0.691   6.897   4.689 -0.2324 -0.1438  0.4675
  818SOL    HW2 3896   0.593   6.784   4.667 -0.0957 -0.2200  0.2450
  819SOL     OW 3897   1.689   7.590   7.717 -0.4725  0.5905 -0.0573
  819SOL    HW1 3898   1.655   7.676   7.691 -0.4526  0.4208 -0.6586
  819SOL    HW2 3899   1.782   7.593   7.693 -0.4542  0.4314 -0.0073
  820SOL     OW 3900   0.392   7.802   8.073  0.3192  0.2927  0.3891
  820SOL    HW1 3901   0.348   7.814   7.990  1.0023  1.8189  0.2226
  820SOL    HW2 3902   0.360   7.872   8.129 -1.4615 -1.6920  2.0617
  821SOL     OW 3903   0.185   1.326   6.119 -0.2576  0.0817  0.4440
  821SOL    HW1 3904   0.214   1.407   6.162 -0.2672  0.1785  0.2668
  821SOL    HW2 3905   0.093   1.319   6.143  0.5142 -1.7245  3.4207
  822SOL     OW 3906   0.366   2.263   6.720  0.5319 -0.3119  0.0303
  822SOL    HW1 3907   0.366   2.207   6.642 -1.7215 -0.4175  0.0381
  822SOL    HW2 3908   0.417   2.340   6.694  2.4738 -1.6720 -0.4589
  823SOL     OW 3909   1.917   0.534   7.088  0.6410 -0.3535  0.0307
  823SOL    HW1 3910   1.954   0.616   7.055  1.3316 -0.9446 -0.7100
  823SOL    HW2 3911   1.992   0.487   7.124  0.5554 -1.3814 -1.0876
  824SOL     OW 3912   1.923   1.008   8.359 -0.1874  0.0660 -0.1862
  824SOL    HW1 3913   1.992   0.947   8.332  0.0429  0.3062 -0.1412
  824SOL    HW2 3914   1.858   1.003   8.289 -0.6086 -0.9224  0.2654
  825SOL     OW 3915   1.064   1.427   6.366  0.4572  0.4216 -0.4063
  825SOL    HW1 3916   1.142   1.409   6.418  0.8217 -0.3701 -1.2023
  825SOL    HW2 3917   1.083   1.390   6.280 -0.9513 -0.1598 -0.5021
  826SOL     OW 3918   0.218   6.847   8.050 -0.0797  0.3136 -0.0550
  826SOL    HW1 3919   0.201   6.829   8.142  2.1536  2.1732  0.8202
  826SOL    HW2 3920   0.291   6.789   8.027 -1.2645 -0.8781 -1.0291
  827SOL     OW 3921   2.054   0.784   7.068  0.3935  0.3256 -0.0878
  827SOL    HW1 3922   2.053   0.802   6.974 -1.7710 -0.0191 -0.1786
  827SOL    HW2 3923   2.092   0.863   7.107  0.2598  0.9333 -1.1654
  828SOL     OW 3924   0.597   7.520   5.666 -0.0163 -0.0161  0.2042
  828SOL    HW1 3925   0.591   7.519   5.571 -1.0329  0.0137  0.2482
  828SOL    HW2 3926   0.505   7.521   5.695  0.2755  1.8689  1.1594
  829SOL     OW 3927   0.334   0.166   5.978  0.6359  0.5112  0.2408
  829SOL    HW1 3928   0.415   0.119   5.958  0.1468 -0.5752  0.7283
  829SOL    HW2 3929   0.267   0.119   5.928  0.2778  1.3432 -0.0807
  830SOL     OW 3930   1.706   0.999   5.839 -0.0596  0.0960 -0.4870
  830SOL    HW1 3931   1.631   1.044   5.802  1.6539  1.0698 -3.0326
  830SOL    HW2 3932   1.759   1.069   5.877  0.3835 -0.3612 -0.2541
  831SOL     OW 3933   0.208   1.614   6.146 -0.3869  0.3835  0.3526
  831SOL    HW1 3934   0.118   1.645   6.138 -0.2396  1.1578  1.5160
  831SOL    HW2 3935   0.256   1.688   6.183  1.1039  0.5885 -1.8005
  832SOL     OW 3936   0.288   0.023   7.061  0.0874 -0.4849  0.5261
  832SOL    HW1 3937   0.286   0.011   7.156  1.6625 -0.2517  0.6208
  832SOL    HW2 3938   0.379   0.005   7.036 -0.3754 -0.9013 -0.9973
  833SOL     OW 3939   7.722   7.949   7.313 -0.3274  0.3931  0.3628
  833SOL    HW1 3940   7.718   7.968   7.220  2.5112  1.4063  0.3762
  833SOL    HW2 3941   7.692   7.858   7.320 -2.6216  0.9357 -1.1990
  834SOL     OW 3942   1.656   2.074   7.394 -0.1024 -0.4518  0.0790
  834SOL    HW1 3943   1.677   2.092   7.302  2.7110  1.2037  0.9272
  834SOL    HW2 3944   1.631   2.159   7.430 -0.3307 -0.9229  1.0580
  835SOL     OW 3945   2.056   7.522   8.193 -0.0328 -0.0355  0.5951
  835SOL    HW1 3946   2.108   7.484   8.122 -2.0725 -1.6520 -0.1407
  835SOL    HW2 3947   2.091   7.482   8.273  1.3873  0.7565  0.3936
  836SOL     OW 3948   1.463   1.072   6.572  0.2834  0.4190 -0.1368
  836SOL    HW1 3949   1.463   0.986   6.530  1.3439  0.4536 -0.2501
  836SOL    HW2 3950   1.524   1.124   6.519  0.0713  1.0766  0.2523
  837SOL     OW 3951   3.312   1.207   8.511 -0.1156  0.1321  0.0557
  837SOL    HW1 3952   3.381   1.260   8.473  0.6785 -0.3818  0.7486
  837SOL    HW2 3953   3.314   1.227   8.605 -0.8109  0.0066  0.1078
  838SOL     OW 3954   0.452   3.134   7.969 -0.5084 -0.0864 -0.0111
  838SOL    HW1 3955   0.523   3.141   8.033 -1.2638 -1.7861  1.0929
  838SOL    HW2 3956   0.495   3.139   7.884  1.1083 -1.9362  0.6093
  839SOL     OW 3957   1.407   1.921   7.350  0.5229  0.1954  0.0878
  839SOL    HW1 3958   1.316   1.949   7.361 -0.2558 -1.7679 -0.8698
  839SOL    HW2 3959   1.457   2.002   7.350 -1.0584  1.2587  1.9264
  840SOL     OW 3960   1.805   2.920   8.483  0.7792 -0.3574  0.5174
  840SOL    HW1 3961   1.821   3.011   8.507  0.8003 -0.4726  0.9546
  840SOL    HW2 3962   1.892   2.883   8.471  0.8165  0.6161 -3.4275
  841SOL     OW 3963   1.629   2.360   7.401  0.1340  0.1773  0.3444
  841SOL    HW1 3964   1.715   2.401   7.386 -0.2365  0.4645 -1.1351
  841SOL    HW2 3965   1.582   2.424   7.454  0.6599  0.2396  0.7514
  842SOL     OW 3966   1.530   0.782   7.635 -0.3484  0.4179  0.0257
  842SOL    HW1 3967   1.551   0.825   7.552 -0.0872  0.4671  0.1133
  842SOL    HW2 3968   1.523   0.854   7.698  1.1130  0.2924  0.3881
  843SOL     OW 3969   1.362   7.778   8.407 -0.0679 -0.1654 -0.7126
  843SOL    HW1 3970   1.369   7.750   8.498  0.1192  0.8025 -0.4113
  843SOL    HW2 3971   1.275   7.817   8.401  0.6581  1.6006 -0.3854
  844SOL     OW 3972   0.875   0.701   5.897  0.0057  0.2058  0.3974
  844SOL    HW1 3973   0.856   0.662   5.982  1.1639  0.2041  0.6651
  844SOL    HW2 3974   0.954   0.753   5.911 -0.0486  0.5647 -0.5682
  845SOL     OW 3975   2.190   2.225   6.186  0.0417  0.3281 -0.2853
  845SOL    HW1 3976   2.245   2.294   6.148 -0.2442 -0.4720 -2.2500
  845SOL    HW2 3977   2.247   2.183   6.251  0.6036  1.6415  0.1174
  846SOL     OW 3978   0.927   1.132   5.116  0.3104 -0.1272  0.1565
  846SOL    HW1 3979   0.909   1.040   5.095 -0.1940  0.0316 -0.1177
  846SOL    HW2 3980   0.863   1.181   5.065 -0.1985  0.3162  1.2014
  847SOL     OW 3981   3.064   0.334   5.481 -0.7461 -0.1752 -0.1862
  847SOL    HW1 3982   3.154   0.353   5.506 -1.4386  0.6185  2.0768
  847SOL    HW2 3983   3.063   0.241   5.461  0.8732  0.1333 -2.0084
  848SOL     OW 3984   0.776   1.174   7.591  0.2865  0.1197 -0.5247
  848SOL    HW1 3985   0.810   1.084   7.596 -1.0299 -0.3632  0.3442
  848SOL    HW2 3986   0.802   1.205   7.505 -0.4590 -1.6117 -1.4162
  849SOL     OW 3987   6.775   2.020   5.982 -0.1609 -0.3342  0.2047
  849SOL    HW1 3988   6.681   2.013   5.964 -0.0707 -0.5979 -0.1704
  849SOL    HW2 3989   6.779   2.062   6.068 -0.6352 -0.9152  0.5238
  850SOL     OW 3990   2.190   1.983   3.729  0.5257  0.3268  0.6569
  850SOL    HW1 3991   2.178   2.069   3.770 -0.2178  0.6787 -0.2608
  850SOL    HW2 3992   2.124   1.927   3.771  1.4713 -0.0076  1.7594
  851SOL     OW 3993   0.649   1.692   5.788 -0.1778 -0.4256  0.1981
  851SOL    HW1 3994   0.733   1.725   5.819  0.6431 -0.5210 -1.7902
  851SOL    HW2 3995   0.636   1.734   5.704 -0.9134 -2.2787 -0.6848
  852SOL     OW 3996   0.568   1.913   7.344 -0.2999  0.4768  0.2434
  852SOL    HW1 3997   0.490   1.955   7.308 -1.3381 -0.9065  0.7782
  852SOL    HW2 3998   0.610   1.871   7.269 -1.1926 -0.4469  0.2305
  853SOL     OW 3999   2.565   1.382   5.954  0.1139  0.3070  0.1165
  853SOL    HW1 4000   2.569   1.467   5.909 -1.4175  1.1493  1.4671
  853SOL    HW2 4001   2.548   1.404   6.046 -1.6219 -1.4833  0.2895
  854SOL     OW 4002   1.071   7.239   5.324 -0.5834  0.2969 -0.2001
  854SOL    HW1 4003   1.134   7.217   5.257 -1.0962 -2.1537  0.0478
  854SOL    HW2 4004   1.114   7.216   5.407 -0.7719  1.2472  0.1800
  855SOL     OW 4005   0.911   0.954   6.787  0.5404 -0.4604 -0.2752
  855SOL    HW1 4006   0.985   0.967   6.729 -0.4207  3.0050 -0.9677
  855SOL    HW2 4007   0.945   0.975   6.874  0.4256  1.2120 -0.6032
  856SOL     OW 4008   0.032   0.710   6.319 -0.2666  0.5867 -0.1839
  856SOL    HW1 4009   0.030   0.615   6.325  1.1661  0.5958  1.0273
  856SOL    HW2 4010  -0.058   0.735   6.298 -0.2240 -1.1482 -2.9547
  857SOL     OW 4011   0.487   0.085   6.572  0.1042  0.0199  0.5909
  857SOL    HW1 4012   0.513   0.087   6.480 -1.7797  0.4465  0.0284
  857SOL    HW2 4013   0.469   0.176   6.594  0.3938 -0.0978  1.3596
  858SOL     OW 4014   0.598   2.051   6.336 -0.1220  0.6038  0.9373
  858SOL    HW1 4015   0.549   1.991   6.280 -0.5555  0.3399  1.5953
  858SOL    HW2 4016   0.535   2.080   6.402  1.1028 -1.5498  3.2498
  859SOL     OW 4017   3.614   7.868   6.757  0.1186 -0.4435  0.8203
  859SOL    HW1 4018   3.622   7.785   6.803 -0.8952 -1.5459 -0.8832
  859SOL    HW2 4019   3.704   7.892   6.734  0.3368 -1.7420  0.2503
  860SOL     OW 4020   1.465   0.527   6.280 -0.5102 -0.5599  0.3472
  860SOL    HW1 4021   1.526   0.594   6.247 -1.1820  0.1694  0.5475
  860SOL    HW2 4022   1.508   0.495   6.360 -0.6874  0.4412  0.8661
  861SOL     OW 4023   0.316   6.991   5.822 -0.5792 -0.8983 -0.2398
  861SOL    HW1 4024   0.277   6.983   5.909 -1.1938  0.8463 -0.3004
  861SOL    HW2 4025   0.343   6.902   5.799 -0.5178 -1.4263  1.6629
  862SOL     OW 4026   1.349   0.482   9.702  0.1105 -0.3252 -0.4598
  862SOL    HW1 4027   1.386   0.427   9.634  0.1024  0.0628 -0.7838
  862SOL    HW2 4028   1.292   0.423   9.752  1.2929 -0.9650  0.1619
  863SOL     OW 4029   7.186   1.169   6.817  0.1776 -0.3858  0.4754
  863SOL    HW1 4030   7.219   1.131   6.736 -0.8638 -1.3374  0.4724
  863SOL    HW2 4031   7.249   1.238   6.838  1.9992 -1.9099  0.3336
  864SOL     OW 4032   1.547   7.372   7.626  0.4585  0.3874 -0.2337
  864SOL    HW1 4033   1.610   7.302   7.642  1.2387  0.8084 -1.3528
  864SOL    HW2 4034   1.592   7.452   7.651  1.3749  0.9714 -3.2816
  865SOL     OW 4035   2.122   1.494   5.970  0.0043 -0.5179 -0.0455
  865SOL    HW1 4036   2.144   1.572   5.918 -0.6305 -0.8236 -0.7883
  865SOL    HW2 4037   2.204   1.469   6.012  0.4908 -0.1634 -0.7714
  866SOL     OW 4038   0.095   7.971   7.645 -0.1303  0.0537  0.1422
  866SOL    HW1 4039   0.162   7.914   7.605 -0.2833  0.8023 -1.2558
  866SOL    HW2 4040   0.137   8.057   7.650 -0.6829  0.3303  0.0884
  867SOL     OW 4041   0.188   1.447   7.990  0.1961 -0.6586 -0.1014
  867SOL    HW1 4042   0.273   1.482   7.964  0.1745  0.1877  0.9317
  867SOL    HW2 4043   0.186   1.360   7.950  1.0519 -0.2415 -1.1087
  868SOL     OW 4044   3.133   0.410   7.326  0.2634  0.7469 -0.2477
  868SOL    HW1 4045   3.127   0.316   7.312 -0.0355  0.5932  0.8062
  868SOL    HW2 4046   3.162   0.446   7.242  0.8130 -0.3244 -0.5202
  869SOL     OW 4047   1.459   7.058   6.024  0.0464  0.2428  0.2215
  869SOL    HW1 4048   1.487   7.035   6.112 -0.7807  0.3455  0.5204
  869SOL    HW2 4049   1.412   6.981   5.992 -1.5601  0.9684  0.7188
  870SOL     OW 4050   0.845   2.285   9.756 -0.9740  0.0913 -0.6064
  870SOL    HW1 4051   0.896   2.364   9.772  1.5692 -1.4787 -0.2606
  870SOL    HW2 4052   0.864   2.262   9.665 -0.6235 -0.7766 -0.3298
  871SOL     OW 4053   2.491   2.258   6.865 -0.5771  0.0746  0.1017
  871SOL    HW1 4054   2.427   2.235   6.932  0.1269 -1.1322  0.3867
  871SOL    HW2 4055   2.575   2.260   6.911 -0.2543  0.5836 -0.4805
  872SOL     OW 4056   1.332   7.639   7.981 -0.0485 -0.3104  0.1106
  872SOL    HW1 4057   1.364   7.690   8.055 -0.7554  0.7275 -0.2821
  872SOL    HW2 4058   1.355   7.692   7.904 -0.7817 -0.5911 -0.3057
  873SOL     OW 4059   0.362   7.723   5.820  0.1048 -0.0271  0.1313
  873SOL    HW1 4060   0.336   7.758   5.734  0.4600  0.0423  0.0479
  873SOL    HW2 4061   0.345   7.630   5.814 -2.1845  0.3032  0.8476
  874SOL     OW 4062   7.399   0.545   4.820  0.3628  0.3269  0.0239
  874SOL    HW1 4063   7.392   0.631   4.863 -2.8839  0.4122 -0.4816
  874SOL    HW2 4064   7.369   0.483   4.886  2.9387 -0.5701  0.4753
  875SOL     OW 4065   1.036   1.908   9.545  0.0621 -0.4645  0.5646
  875SOL    HW1 4066   0.984   1.931   9.622  0.1946  0.3033  0.4320
  875SOL    HW2 4067   0.974   1.865   9.486 -0.0854 -0.8750  1.0073
  876SOL     OW 4068   2.600   2.110   8.422  0.3598  0.5334  0.2199
  876SOL    HW1 4069   2.689   2.128   8.393  1.0143 -0.0896  1.7501
  876SOL    HW2 4070   2.587   2.167   8.498 -0.6739  0.8580 -0.1843
  877SOL     OW 4071   7.536   1.932   6.115 -0.2743  0.4140 -0.5208
  877SOL    HW1 4072   7.542   1.960   6.024 -1.5341  0.0518 -0.7379
  877SOL    HW2 4073   7.592   1.854   6.120 -0.3318  0.3346 -1.0327
  878SOL     OW 4074   1.231   2.471   8.131  0.0051  0.7859  0.3914
  878SOL    HW1 4075   1.196   2.456   8.218  0.1394  2.4846  0.7795
  878SOL    HW2 4076   1.301   2.406   8.121 -1.8702 -1.3280  0.3821
  879SOL     OW 4077   1.387   1.364   8.826 -0.1037 -0.4274 -0.4101
  879SOL    HW1 4078   1.477   1.354   8.796  0.0728  1.5023 -0.6405
  879SOL    HW2 4079   1.360   1.449   8.792 -0.9613  0.4629  2.2498
  880SOL     OW 4080   1.455   1.918   6.851 -0.6938  0.5310  0.0854
  880SOL    HW1 4081   1.451   1.855   6.778 -0.2046  1.4248 -0.7320
  880SOL    HW2 4082   1.501   1.870   6.920  0.9862  0.4422 -1.0327
  881SOL     OW 4083   1.480   2.074   6.487  0.0271  0.7967  0.2272
  881SOL    HW1 4084   1.556   2.028   6.523  0.1273  0.3267 -0.5613
  881SOL    HW2 4085   1.506   2.097   6.398 -1.0977 -0.2385 -0.4037
  882SOL     OW 4086   0.898   1.330   6.710  0.6145 -0.2804 -0.3915
  882SOL    HW1 4087   0.821   1.365   6.666  0.9139  0.8315 -0.0699
  882SOL    HW2 4088   0.868   1.309   6.798  0.6927  0.2347 -0.2396
  883SOL     OW 4089   1.422   2.272   6.021 -0.1466  0.1708 -0.4547
  883SOL    HW1 4090   1.408   2.324   5.942 -0.1887  1.1475  0.1822
  883SOL    HW2 4091   1.339   2.279   6.069 -0.2242 -0.6599 -0.4611
  884SOL     OW 4092   6.555   1.910   7.609 -0.3290 -0.0786 -0.2333
  884SOL    HW1 4093   6.626   1.866   7.658 -0.4082 -0.8471 -0.7935
  884SOL    HW2 4094   6.479   1.854   7.623 -0.8049  0.6857  0.2677
  885SOL     OW 4095   2.894   6.235   6.450 -0.3807 -0.7725  0.2566
  885SOL    HW1 4096   2.901   6.156   6.503  0.2343 -0.3405  0.8456
  885SOL    HW2 4097   2.801   6.257   6.451 -0.9419 -2.6830 -1.7524
  886SOL     OW 4098   0.450   1.044   6.586 -0.3032 -0.6502  0.3105
  886SOL    HW1 4099   0.477   1.115   6.528 -1.5295 -2.2424 -2.4186
  886SOL    HW2 4100   0.530   1.018   6.631  1.0157 -0.0444 -1.5511
  887SOL     OW 4101   2.831   2.111   6.326  0.3531 -0.1575  0.6179
  887SOL    HW1 4102   2.920   2.138   6.349  1.2758 -1.6594 -0.9567
  887SOL    HW2 4103   2.829   2.110   6.231 -1.1644 -0.7243  0.6175
  888SOL     OW 4104   0.621   1.383   6.616  0.3046 -0.0795 -0.6978
  888SOL    HW1 4105   0.684   1.349   6.552 -0.3635  0.4778 -1.6884
  888SOL    HW2 4106   0.567   1.445   6.566 -0.8024 -0.2757  0.1947
  889SOL     OW 4107   2.409   0.061   8.757  0.1444 -0.0175 -0.0039
  889SOL    HW1 4108   2.490   0.013   8.739 -1.2838 -2.3065 -0.7944
  889SOL    HW2 4109   2.346   0.028   8.693 -1.6869  0.9859  1.1558
  890SOL     OW 4110   0.997   1.704   8.463  0.2529  0.2018 -0.3671
  890SOL    HW1 4111   1.083   1.667   8.445 -0.3481 -2.4130  1.6204
  890SOL    HW2 4112   1.008   1.751   8.546  0.1953  1.7734 -1.1945
  891SOL     OW 4113   3.496   7.736   7.381 -0.3592  0.1037  0.2828
  891SOL    HW1 4114   3.563   7.668   7.379 -1.3626 -0.9131  0.4123
  891SOL    HW2 4115   3.520   7.791   7.455 -0.1116 -0.7230  0.8348
  892SOL     OW 4116   0.008   0.982   5.526  0.7109 -0.1520 -0.5973
  892SOL    HW1 4117   0.024   0.989   5.620  0.6188 -0.4589 -0.5563
  892SOL    HW2 4118  -0.088   0.985   5.518  0.7457  0.6055 -0.7462
  893SOL     OW 4119   0.644   3.049   7.626  0.8269  0.0775 -0.0137
  893SOL    HW1 4120   0.687   2.975   7.582  1.5748 -0.2389  1.2211
  893SOL    HW2 4121   0.552   3.023   7.631  0.9333 -0.3922 -0.3494
  894SOL     OW 4122   1.871   7.596   4.261 -0.3975  0.5934 -0.2189
  894SOL    HW1 4123   1.942   7.546   4.300 -0.8792 -0.5805 -0.7983
  894SOL    HW2 4124   1.909   7.682   4.244  1.0986 -0.2000 -1.1031
  895SOL     OW 4125   0.503   0.425   4.603  0.5188  0.2206 -0.2472
  895SOL    HW1 4126   0.442   0.390   4.668  1.1963  0.3106  0.4552
  895SOL    HW2 4127   0.564   0.353   4.587  0.1958  0.1102 -0.9904
  896SOL     OW 4128   7.269   1.578   6.119  0.0414 -0.3288  0.4477
  896SOL    HW1 4129   7.238   1.640   6.053  0.8883 -0.5825 -0.2058
  896SOL    HW2 4130   7.231   1.609   6.201  0.8891  1.3741  0.2316
  897SOL     OW 4131   0.362   0.797   6.718  0.3798 -0.0866  0.2652
  897SOL    HW1 4132   0.410   0.864   6.670 -0.0393  0.2435  0.2997
  897SOL    HW2 4133   0.310   0.845   6.782 -1.4090 -0.2494 -0.9859
  898SOL     OW 4134   1.306   2.041   8.002 -0.0549 -0.2919 -0.6081
  898SOL    HW1 4135   1.215   2.055   8.027 -0.0726  0.9443 -1.2501
  898SOL    HW2 4136   1.302   2.022   7.908  0.3705  0.3962 -0.7792
  899SOL     OW 4137   0.643   0.241   8.247  0.3626  0.3268  0.3163
  899SOL    HW1 4138   0.628   0.251   8.341  0.3676 -0.5866  0.4235
  899SOL    HW2 4139   0.560   0.211   8.212  0.9422 -1.4844  0.3898
  900SOL     OW 4140   2.134   1.222   8.751 -0.4777 -0.0332 -0.0807
  900SOL    HW1 4141   2.215   1.176   8.732  1.0323  2.2493  0.3852
  900SOL    HW2 4142   2.072   1.191   8.685  1.0764 -1.0326 -1.1374
  901SOL     OW 4143   0.639   7.498   8.486 -0.1934  0.3122  0.0911
  901SOL    HW1 4144   0.569   7.433   8.479 -0.7375  0.9185 -0.2917
  901SOL    HW2 4145   0.593   7.581   8.499  0.5126  0.5267  1.3542
  902SOL     OW 4146   0.408   7.602   7.412  0.3024 -0.0162  0.4505
  902SOL    HW1 4147   0.419   7.528   7.352  1.4219  0.1455  0.4403
  902SOL    HW2 4148   0.421   7.680   7.358 -0.6312  0.1866  0.5109
  903SOL     OW 4149   1.314   0.760   9.674  0.2778  0.1796 -0.1692
  903SOL    HW1 4150   1.226   0.788   9.648  0.0622  1.5449  1.8010
  903SOL    HW2 4151   1.313   0.665   9.664 -2.0834 -0.0821  1.5554
  904SOL     OW 4152   1.226   7.729   8.661 -0.1816  0.1799  0.0988
  904SOL    HW1 4153   1.137   7.763   8.650 -0.7036 -1.0314  0.4300
  904SOL    HW2 4154   1.263   7.780   8.732 -0.6280  0.6660 -0.0167
  905SOL     OW 4155   1.639   2.455   9.494 -0.5580 -0.2519  0.2601
  905SOL    HW1 4156   1.677   2.380   9.448  2.2815  1.2133  0.0179
  905SOL    HW2 4157   1.671   2.532   9.447 -1.8259  1.1793  1.6050
  906SOL     OW 4158   1.346   0.269   7.778 -0.2599 -0.0181 -0.0907
  906SOL    HW1 4159   1.297   0.287   7.858 -0.7792  0.0908 -0.4248
  906SOL    HW2 4160   1.329   0.345   7.722  0.1678 -0.0532 -0.2720
  907SOL     OW 4161   2.236   0.544   9.963  0.1011 -0.2399  0.5277
  907SOL    HW1 4162   2.149   0.579   9.982  0.2465 -0.0039  0.7554
  907SOL    HW2 4163   2.296   0.615   9.984  0.3301 -0.2966  0.0783
  908SOL     OW 4164   0.533   0.393   5.988 -0.3470 -0.4395 -0.2157
  908SOL    HW1 4165   0.601   0.401   5.921 -0.5707 -1.6290 -0.5951
  908SOL    HW2 4166   0.538   0.302   6.017 -0.3338  0.0113  1.3141
  909SOL     OW 4167   0.610   2.096  10.839 -1.3374  0.1357 -0.0267
  909SOL    HW1 4168   0.661   2.074  10.917 -0.7275 -0.0091 -0.4594
  909SOL    HW2 4169   0.553   2.168  10.867  1.6986  2.9334 -0.4708
  910SOL     OW 4170   1.595   1.264   8.638  0.2009 -0.0236  0.2451
  910SOL    HW1 4171   1.605   1.349   8.596  0.6635  0.2284  0.8603
  910SOL    HW2 4172   1.683   1.242   8.669  0.0873 -0.7324  0.0816
  911SOL     OW 4173   1.759   2.464  10.710 -0.0644 -0.5707  0.2769
  911SOL    HW1 4174   1.725   2.435  10.795  0.4899 -0.5438  0.5171
  911SOL    HW2 4175   1.812   2.391  10.679 -0.9306 -0.9020 -0.4414
  912SOL     OW 4176   0.181   0.940   9.525 -0.2454 -0.0495 -0.1400
  912SOL    HW1 4177   0.173   0.908   9.435  0.7219 -1.8991  0.3847
  912SOL    HW2 4178   0.270   0.974   9.531 -0.8620  1.6888 -0.3321
  913SOL     OW 4179   1.354   1.333   9.408  0.3646  0.1974  0.1280
  913SOL    HW1 4180   1.273   1.295   9.375  0.1608 -0.8379  1.7242
  913SOL    HW2 4181   1.420   1.311   9.343 -0.1110 -1.3309  0.1445
  914SOL     OW 4182   0.612   1.973   9.168 -0.3891  0.7734  0.3442
  914SOL    HW1 4183   0.602   2.042   9.102 -1.2503 -0.0066 -0.3875
  914SOL    HW2 4184   0.631   1.894   9.116  0.7353  0.4853  1.1716
  915SOL     OW 4185   1.592   7.989   8.057 -0.9176  0.0144  0.6573
  915SOL    HW1 4186   1.543   8.041   7.993 -0.0635 -0.0097 -0.0350
  915SOL    HW2 4187   1.622   8.053   8.122  0.7468  0.5549 -0.5718
  916SOL     OW 4188   1.002   1.917   9.864 -0.9311 -0.1376  0.1607
  916SOL    HW1 4189   0.978   1.867   9.942 -3.3131  2.2988  1.1463
  916SOL    HW2 4190   0.918   1.933   9.820  0.1193  0.3541 -1.7589
  917SOL     OW 4191   1.439   2.066   8.959 -0.7163 -0.2910 -0.2515
  917SOL    HW1 4192   1.426   2.160   8.964  2.5685  0.1891  1.7641
  917SOL    HW2 4193   1.402   2.032   9.041 -1.3902 -0.7273 -0.7211
  918SOL     OW 4194   6.429   2.279   7.207 -0.0263 -0.2115  0.2209
  918SOL    HW1 4195   6.385   2.318   7.283 -0.9608 -0.4248 -0.2043
  918SOL    HW2 4196   6.522   2.302   7.219 -0.1685 -0.2077  1.3962
  919SOL     OW 4197   0.954   0.765   7.257  0.1919 -0.0884  0.4434
  919SOL    HW1 4198   0.982   0.738   7.170  0.4711 -1.5818  0.9623
  919SOL    HW2 4199   1.005   0.845   7.275 -0.2018  0.4952 -0.9112
  920SOL     OW 4200   2.521   1.270   9.721  0.2411  0.2659  0.3409
  920SOL    HW1 4201   2.535   1.351   9.672  0.9176  1.0800  1.8093
  920SOL    HW2 4202   2.530   1.201   9.656  1.8451  1.2654 -0.5697
  921SOL     OW 4203   0.508   0.300   7.724  0.5466 -0.1723 -0.1145
  921SOL    HW1 4204   0.490   0.210   7.695 -0.9503 -0.0876  0.4622
  921SOL    HW2 4205   0.579   0.292   7.787  0.5828 -0.9278 -0.2463
  922SOL     OW 4206   1.938   0.632   7.945  0.0821 -0.6388 -0.4057
  922SOL    HW1 4207   1.876   0.653   7.875 -0.1581 -0.4890 -0.1504
  922SOL    HW2 4208   2.009   0.585   7.901  0.3526  0.2090 -0.9044
  923SOL     OW 4209   0.449   1.065   9.585 -0.4185 -0.3998 -0.0833
  923SOL    HW1 4210   0.471   1.020   9.666 -2.0447 -0.5256  0.3293
  923SOL    HW2 4211   0.473   1.156   9.601  0.6731 -0.6776 -0.0436
  924SOL     OW 4212   4.745   6.857   8.508 -0.3467  0.2125 -0.3832
  924SOL    HW1 4213   4.749   6.771   8.550 -0.7282 -0.4789 -1.6974
  924SOL    HW2 4214   4.675   6.903   8.555  0.2170  0.0170  0.6786
  925SOL     OW 4215   2.242   7.993   6.504 -0.0030  0.1185 -0.0452
  925SOL    HW1 4216   2.186   8.050   6.557 -2.0498 -1.5779 -0.2442
  925SOL    HW2 4217   2.257   8.042   6.424  0.1981  1.2810  0.6791
  926SOL     OW 4218   7.739   0.391   9.627 -0.3149 -0.0042  0.8544
  926SOL    HW1 4219   7.805   0.325   9.648  0.6138  1.4166  2.6647
  926SOL    HW2 4220   7.780   0.445   9.559 -0.4717 -0.3930  0.4507
  927SOL     OW 4221   2.099   3.899   8.722  0.3310 -0.1759  0.3357
  927SOL    HW1 4222   2.163   3.970   8.713  0.6303 -0.1297  2.3485
  927SOL    HW2 4223   2.015   3.939   8.698  0.8735  0.0457 -1.3141
  928SOL     OW 4224   0.310   3.280  11.693  0.4873 -0.3473 -0.2957
  928SOL    HW1 4225   0.361   3.256  11.615  3.7682  0.9503  1.2657
  928SOL    HW2 4226   0.314   3.202  11.749  2.1483  0.2016  0.4198
  929SOL     OW 4227   1.516   1.270   7.410 -0.7286  0.2575 -0.1638
  929SOL    HW1 4228   1.491   1.349   7.458  0.1562 -0.8854  2.3358
  929SOL    HW2 4229   1.584   1.299   7.349 -1.2584  1.5953 -0.1626
  930SOL     OW 4230   1.381   0.934   9.983  0.2821 -0.5822  0.0517
  930SOL    HW1 4231   1.449   0.977   9.931  0.7679  0.5774  1.5635
  930SOL    HW2 4232   1.299   0.969   9.949  0.5311 -0.5975 -0.5803
  931SOL     OW 4233   3.369   0.036   7.843 -0.3613  0.0940  0.1311
  931SOL    HW1 4234   3.308  -0.001   7.779  1.3157  0.1953 -1.6473
  931SOL    HW2 4235   3.387   0.124   7.809 -0.0310  0.4543  1.2056
  932SOL     OW 4236   0.078   1.693  10.137  0.2217  0.2905  0.5468
  932SOL    HW1 4237   0.057   1.626  10.203 -1.7678  0.2145 -0.0976
  932SOL    HW2 4238   0.061   1.776  10.181  1.6597  0.3794  0.9992
  933SOL     OW 4239   7.671   0.574  10.553 -0.0496 -0.4960 -0.0881
  933SOL    HW1 4240   7.684   0.493  10.503 -2.4209 -0.7360 -0.4472
  933SOL    HW2 4241   7.703   0.643  10.496  0.0279 -1.0212 -0.6884
  934SOL     OW 4242   2.307   1.298   9.465  0.0487  0.4209 -0.2043
  934SOL    HW1 4243   2.243   1.306   9.395  1.4611 -1.3761 -1.8290
  934SOL    HW2 4244   2.382   1.350   9.436 -0.0722  1.2649  0.9361
  935SOL     OW 4245   1.908   1.565   8.176 -0.3817  0.2732 -0.2246
  935SOL    HW1 4246   2.001   1.547   8.166 -0.8227 -1.5384 -1.6181
  935SOL    HW2 4247   1.895   1.652   8.139  0.6711  0.3175 -0.5017
  936SOL     OW 4248   0.556   1.225   6.344  0.0121 -0.4892 -0.4227
  936SOL    HW1 4249   0.645   1.248   6.315  0.0349  0.2574  0.2174
  936SOL    HW2 4250   0.507   1.307   6.338 -0.1748 -0.4834  0.8969
  937SOL     OW 4251   2.068   3.058   7.246  0.1564 -0.2793 -0.0646
  937SOL    HW1 4252   2.078   2.984   7.187 -0.5156  0.8213 -1.6254
  937SOL    HW2 4253   2.000   3.032   7.308 -2.0286 -0.0205 -2.2462
  938SOL     OW 4254   1.190   2.474  10.236  0.1384 -0.5891  0.1328
  938SOL    HW1 4255   1.149   2.436  10.158  2.7818  0.5249 -1.9816
  938SOL    HW2 4256   1.252   2.407  10.265 -0.6262 -0.8799  1.1575
  939SOL     OW 4257   1.616   1.468   8.440 -0.1497 -0.1490  0.1822
  939SOL    HW1 4258   1.631   1.433   8.352 -1.9793 -0.6284  0.0174
  939SOL    HW2 4259   1.673   1.545   8.446  0.0880 -0.1793 -1.3687
  940SOL     OW 4260   1.594   1.176   9.419 -0.7522 -0.2785 -0.3526
  940SOL    HW1 4261   1.635   1.127   9.347 -1.3562 -2.5081  0.7102
  940SOL    HW2 4262   1.551   1.108   9.472 -0.6950  1.3258  1.8792
  941SOL     OW 4263   2.239   1.666   8.268  0.4054 -0.0676  0.0681
  941SOL    HW1 4264   2.324   1.632   8.240 -0.1025  0.1851 -1.8949
  941SOL    HW2 4265   2.238   1.756   8.235 -1.7771 -0.9628 -2.6149
  942SOL     OW 4266   7.491   6.667   9.373 -0.3815  0.1605 -0.0816
  942SOL    HW1 4267   7.407   6.629   9.398 -0.3075 -0.3906 -0.6259
  942SOL    HW2 4268   7.538   6.594   9.333 -0.5833  1.0242 -2.0015
  943SOL     OW 4269   2.067   0.334   7.339 -0.0364  0.1091 -0.1723
  943SOL    HW1 4270   2.073   0.292   7.253 -2.0562  2.0310 -1.3603
  943SOL    HW2 4271   1.995   0.288   7.384 -2.2178  2.0417 -1.4557
  944SOL     OW 4272   0.131   1.066   8.803 -0.0099 -0.0128 -0.1123
  944SOL    HW1 4273   0.204   1.076   8.865 -0.7832  1.5473  0.5774
  944SOL    HW2 4274   0.112   1.155   8.773 -1.1062 -0.5005 -0.9304
  945SOL     OW 4275   7.988   2.550   8.648 -0.2382 -0.2751 -0.5775
  945SOL    HW1 4276   7.911   2.585   8.603  0.2449 -0.6833 -1.7801
  945SOL    HW2 4277   7.953   2.491   8.714 -0.9735  0.2921 -0.4463
  946SOL     OW 4278   0.996   7.464   8.531 -0.1070 -0.4209 -0.1382
  946SOL    HW1 4279   0.970   7.556   8.534  1.0796 -0.0713  0.2635
  946SOL    HW2 4280   0.972   7.435   8.443  0.4739  0.5901 -0.6501
  947SOL     OW 4281   0.446   0.516  10.506 -0.1759  0.1185 -0.0437
  947SOL    HW1 4282   0.354   0.540  10.494 -0.6473 -1.7416 -0.4651
  947SOL    HW2 4283   0.492   0.599  10.514 -1.6488  1.1386 -1.5822
  948SOL     OW 4284   0.227   0.749   9.013 -0.4962 -0.0121  0.1147
  948SOL    HW1 4285   0.156   0.746   8.948  0.8597 -1.2098 -1.3805
  948SOL    HW2 4286   0.295   0.693   8.977  0.8302  0.2934  2.0071
  949SOL     OW 4287   0.770   7.262   8.634 -0.0215 -0.0742  0.1550
  949SOL    HW1 4288   0.686   7.223   8.658 -0.6491  1.6124  0.8326
  949SOL    HW2 4289   0.746   7.339   8.582  1.1424 -0.0331 -0.3439
  950SOL     OW 4290   0.370   1.190   8.127  0.3525  0.0414  0.2927
  950SOL    HW1 4291   0.285   1.207   8.088 -1.0817  3.6644  4.1220
  950SOL    HW2 4292   0.433   1.206   8.057 -2.0153 -0.0697 -1.9929
  951SOL     OW 4293   1.609   2.903   7.411  0.1034  0.0839  0.0279
  951SOL    HW1 4294   1.523   2.928   7.445 -1.0528 -2.1589 -1.0419
  951SOL    HW2 4295   1.605   2.922   7.317  0.5175 -0.6710 -0.1535
  952SOL     OW 4296   1.586   2.315   8.961  0.2764  0.0084  0.0176
  952SOL    HW1 4297   1.598   2.400   9.005 -0.9451  0.3976 -0.3682
  952SOL    HW2 4298   1.621   2.251   9.023  0.9273  0.7610  0.4479
  953SOL     OW 4299   1.387   1.681   9.952  0.2020  0.1959  0.2830
  953SOL    HW1 4300   1.364   1.720   9.868 -2.3344 -0.8044  0.4008
  953SOL    HW2 4301   1.397   1.587   9.932  2.9588  0.3479  0.5665
  954SOL     OW 4302   1.197   0.857   7.537  0.1212 -0.1632 -0.2935
  954SOL    HW1 4303   1.217   0.789   7.602  1.0087 -0.1818 -0.5692
  954SOL    HW2 4304   1.234   0.937   7.575 -0.9969  0.2057  0.0719
  955SOL     OW 4305   3.323   1.482   9.265  0.8473 -0.4333  0.1964
  955SOL    HW1 4306   3.234   1.484   9.298  0.6434  1.2317 -0.3808
  955SOL    HW2 4307   3.353   1.573   9.270  2.0392 -0.7375 -0.8374
  956SOL     OW 4308   1.632   0.928   8.718  0.0898  0.0821  0.1438
  956SOL    HW1 4309   1.635   0.971   8.632  0.8668  3.3509  1.6551
  956SOL    HW2 4310   1.554   0.963   8.760  2.4174  2.7541  2.6334
  957SOL     OW 4311   2.944   1.243   8.207 -0.0751  0.0116 -1.1223
  957SOL    HW1 4312   2.987   1.328   8.211  0.4820 -0.2916 -0.5634
  957SOL    HW2 4313   2.947   1.210   8.297  0.8929 -1.1692 -1.5548
  958SOL     OW 4314   0.297   0.818   7.842  0.2031  0.1628  0.8640
  958SOL    HW1 4315   0.331   0.780   7.761 -0.7716 -1.4681  1.1580
  958SOL    HW2 4316   0.212   0.854   7.818  0.2936  0.4476  0.9755
  959SOL     OW 4317   0.023   0.826   8.438 -0.4405  0.2147 -0.4847
  959SOL    HW1 4318   0.056   0.871   8.361  0.5240  1.8590  0.8402
  959SOL    HW2 4319   0.088   0.841   8.506 -1.7289 -0.3425  0.9487
  960SOL     OW 4320   6.813   2.539   6.707  0.7680  0.0822  0.3064
  960SOL    HW1 4321   6.894   2.507   6.668  0.8181  0.3038  0.2263
  960SOL    HW2 4322   6.750   2.539   6.635  1.0344  1.1300  0.0459
  961SOL     OW 4323   2.569   0.674   9.110  0.6845 -0.0780 -0.0406
  961SOL    HW1 4324   2.484   0.642   9.080  0.0642  1.2217  0.2865
  961SOL    HW2 4325   2.605   0.721   9.035  1.5852 -1.4479 -0.5122
  962SOL     OW 4326   7.427   2.924   9.681 -0.1529  0.3470  0.6032
  962SOL    HW1 4327   7.423   2.919   9.777 -0.3254  1.4363  0.6657
  962SOL    HW2 4328   7.452   3.015   9.664  2.3379 -0.4449 -0.3201
  963SOL     OW 4329   0.634   2.739   7.899  0.1046  0.3068  0.2966
  963SOL    HW1 4330   0.548   2.724   7.860  0.1787  0.7817 -0.0579
  963SOL    HW2 4331   0.696   2.704   7.836  0.1126 -2.6850  1.7935
  964SOL     OW 4332   2.985   0.001   9.195  0.5298 -0.3991  0.3510
  964SOL    HW1 4333   2.943  -0.063   9.137  1.7477  0.2641 -1.3475
  964SOL    HW2 4334   2.938   0.083   9.179  0.2179 -0.4354  1.0708
  965SOL     OW 4335   2.208   7.996  10.578  0.2647 -0.2108 -0.0099
  965SOL    HW1 4336   2.289   8.040  10.602  0.9407 -0.2001 -2.0822
  965SOL    HW2 4337   2.229   7.903  10.579  0.3231 -0.2072 -0.5806
  966SOL     OW 4338   3.109   0.126   7.264  0.5449  0.0090  0.2315
  966SOL    HW1 4339   3.029   0.134   7.212  1.9007  0.5383 -1.9029
  966SOL    HW2 4340   3.115   0.033   7.285 -0.2750 -0.1413 -0.1778
  967SOL     OW 4341   1.001   2.740  10.798  0.6165  0.9696 -0.1657
  967SOL    HW1 4342   1.052   2.704  10.871 -1.9667 -0.7238  0.9241
  967SOL    HW2 4343   0.977   2.664  10.745 -1.4482  1.5420 -0.1482
  968SOL     OW 4344   1.747   1.760  11.178  0.0385 -0.0470 -0.7532
  968SOL    HW1 4345   1.734   1.720  11.264 -0.3474  0.2030 -0.6931
  968SOL    HW2 4346   1.742   1.687  11.117 -1.2617 -0.0148 -0.6945
  969SOL     OW 4347   1.208   1.814  10.087  0.3524 -0.1346 -0.3195
  969SOL    HW1 4348   1.291   1.771  10.067  1.0557  1.2168 -0.4191
  969SOL    HW2 4349   1.197   1.879  10.018  0.3946  1.2933  0.9549
  970SOL     OW 4350   1.094   2.325   7.522  0.3360  0.1396  0.0034
  970SOL    HW1 4351   1.184   2.297   7.538 -0.1084 -1.0436  0.5154
  970SOL    HW2 4352   1.040   2.260   7.566 -0.8203 -0.2306 -1.8387
  971SOL     OW 4353   2.993   0.258   8.518 -0.4285 -0.3549 -0.3762
  971SOL    HW1 4354   2.950   0.181   8.480 -1.1613 -0.1996  0.1314
  971SOL    HW2 4355   3.056   0.284   8.451 -0.7348 -0.9132 -0.9023
  972SOL     OW 4356   7.108   6.832  10.541 -0.5963 -0.3423 -0.3468
  972SOL    HW1 4357   7.104   6.895  10.614  0.4408 -0.2323 -0.3708
  972SOL    HW2 4358   7.167   6.873  10.478 -2.1842 -0.0143 -1.6960
  973SOL     OW 4359   2.425   2.542   8.396  0.1258 -0.1497  0.6033
  973SOL    HW1 4360   2.505   2.595   8.390  0.1745 -0.3402 -0.9855
  973SOL    HW2 4361   2.386   2.548   8.309 -2.2434  0.8795  1.6613
  974SOL     OW 4362   7.162   0.570   7.958 -0.0820  0.0984 -0.1939
  974SOL    HW1 4363   7.170   0.635   8.027 -2.7246 -0.4049  0.6902
  974SOL    HW2 4364   7.200   0.612   7.881 -0.7601  2.2786  0.5851
  975SOL     OW 4365   7.970   7.279   7.100  0.3096  0.2216  0.0259
  975SOL    HW1 4366   7.904   7.343   7.074 -1.1920 -0.3556  2.2126
  975SOL    HW2 4367   7.930   7.194   7.080 -0.0392 -0.1622  2.1512
  976SOL     OW 4368   0.753   0.813  10.763  0.2330  0.1591  0.2349
  976SOL    HW1 4369   0.794   0.893  10.729 -0.2589 -0.1758 -1.2553
  976SOL    HW2 4370   0.660   0.834  10.769  0.0550 -0.3611 -0.4527
  977SOL     OW 4371   1.422   1.228  10.169 -0.0756 -0.2192 -0.4511
  977SOL    HW1 4372   1.395   1.317  10.145 -0.4984 -0.2070  0.0362
  977SOL    HW2 4373   1.470   1.239  10.251  0.1855 -0.4021 -0.5801
  978SOL     OW 4374   0.700   0.736   6.506 -0.3749 -0.4010  0.2094
  978SOL    HW1 4375   0.628   0.749   6.445  0.2400 -1.0240 -0.6613
  978SOL    HW2 4376   0.778   0.765   6.459 -0.1120  1.0117  1.4149
  979SOL     OW 4377   1.826   1.685   7.696 -0.3989  0.0957  0.0176
  979SOL    HW1 4378   1.813   1.594   7.670 -2.4175  0.7134 -1.4487
  979SOL    HW2 4379   1.870   1.725   7.620  0.3168  0.3871  0.5780
  980SOL     OW 4380   0.636   0.117   6.059 -1.0894 -0.5112  0.4028
  980SOL    HW1 4381   0.709   0.169   6.026 -0.9202 -1.7152 -1.2349
  980SOL    HW2 4382   0.653   0.029   6.026 -3.5987 -0.6978 -0.5303
  981SOL     OW 4383   0.193   6.500   8.472 -0.4801  0.2033  0.4404
  981SOL    HW1 4384   0.140   6.492   8.393  0.2777 -1.2058  0.0462
  981SOL    HW2 4385   0.189   6.414   8.512  0.6334  0.3823  0.9754
  982SOL     OW 4386   1.605   7.652   8.673 -0.1876  0.2935 -0.3098
  982SOL    HW1 4387   1.600   7.594   8.597 -1.3210 -0.9263  0.6412
  982SOL    HW2 4388   1.595   7.740   8.638 -1.2365 -0.2857 -1.5101
  983SOL     OW 4389   0.676   0.434   9.851  0.5009 -0.0608 -0.2597
  983SOL    HW1 4390   0.596   0.457   9.805 -0.1926 -0.1740  0.8605
  983SOL    HW2 4391   0.733   0.511   9.841  0.2940 -0.0036 -1.1015
  984SOL     OW 4392   2.844   0.044   8.471 -0.0903  0.5068  0.0523
  984SOL    HW1 4393   2.769  -0.008   8.500  1.0865 -2.2776 -1.5476
  984SOL    HW2 4394   2.905  -0.020   8.434  2.7106  2.7449  0.4408
  985SOL     OW 4395   3.374   1.978   8.215  0.6432 -0.1245 -0.2573
  985SOL    HW1 4396   3.412   1.908   8.163 -0.7520 -0.8935 -0.2839
  985SOL    HW2 4397   3.325   2.031   8.152  0.0694 -0.2763  0.0529
  986SOL     OW 4398   0.621   0.154   9.792 -0.0998 -0.4840 -0.1734
  986SOL    HW1 4399   0.656   0.242   9.807 -0.3990 -0.7916  2.9322
  986SOL    HW2 4400   0.528   0.161   9.814  0.0254 -1.6973  0.8699
  987SOL     OW 4401   0.933   0.188   6.316  0.6546 -0.6785 -0.6095
  987SOL    HW1 4402   0.913   0.095   6.304  0.4442 -0.4219 -2.5576
  987SOL    HW2 4403   1.022   0.198   6.283  0.6752 -0.1875 -0.4108
  988SOL     OW 4404   1.001   1.075   8.414  0.2234 -0.3642 -0.0357
  988SOL    HW1 4405   0.946   1.153   8.402  1.9897  1.1602  1.2309
  988SOL    HW2 4406   1.078   1.092   8.359  0.0600 -1.8408 -0.7536
  989SOL     OW 4407   0.789   1.612   6.850  0.1747 -0.2046  0.0447
  989SOL    HW1 4408   0.852   1.599   6.779 -1.8416  2.3153 -2.4435
  989SOL    HW2 4409   0.821   1.690   6.896 -0.6771  0.6307 -0.7507
  990SOL     OW 4410   2.435   7.738  10.115  0.2551  0.1565 -0.5766
  990SOL    HW1 4411   2.447   7.819  10.165  1.4439 -0.0391 -0.5088
  990SOL    HW2 4412   2.369   7.689  10.164 -1.7553  1.7747 -1.5268
  991SOL     OW 4413   0.183   0.129   7.876 -0.4083  0.0601 -0.8921
  991SOL    HW1 4414   0.136   0.052   7.908 -1.1131  0.8665  0.0749
  991SOL    HW2 4415   0.275   0.105   7.883 -0.5987 -0.4164  0.1541
  992SOL     OW 4416   2.258   0.189  10.865 -0.4893 -0.2260  0.6371
  992SOL    HW1 4417   2.192   0.225  10.805  0.3677  0.7596  0.2400
  992SOL    HW2 4418   2.332   0.250  10.857  0.6721 -1.5849  0.6674
  993SOL     OW 4419   0.410   3.192  10.160 -0.3107  0.2019  0.4710
  993SOL    HW1 4420   0.479   3.129  10.139 -0.6470 -0.0165  0.0076
  993SOL    HW2 4421   0.454   3.260  10.210  0.2959  0.1946 -0.0441
  994SOL     OW 4422   7.607   2.223  10.858  0.2025 -0.4779  0.3651
  994SOL    HW1 4423   7.520   2.247  10.826 -1.3306 -3.6932  1.6368
  994SOL    HW2 4424   7.665   2.235  10.782 -1.6782  0.0792 -1.0616
  995SOL     OW 4425   3.583   1.860   9.949 -0.0261 -0.3183 -0.3145
  995SOL    HW1 4426   3.565   1.917  10.024  1.0158 -0.4508  0.0492
  995SOL    HW2 4427   3.519   1.888   9.883 -0.0498  0.7377  0.1267
  996SOL     OW 4428   2.022   1.064   9.328  0.1426  0.0665 -0.4289
  996SOL    HW1 4429   2.065   1.005   9.266  1.0415 -0.1828  0.4106
  996SOL    HW2 4430   2.079   1.141   9.331 -1.3626  1.3443 -2.0361
  997SOL     OW 4431   2.193   0.923   9.135  0.2182  0.4830 -0.1084
  997SOL    HW1 4432   2.254   0.995   9.117  0.0815  0.4488 -0.7460
  997SOL    HW2 4433   2.250   0.849   9.156  0.3480  1.3672  3.1270
  998SOL     OW 4434   2.384   0.694   9.674  0.2447  0.0820  0.1434
  998SOL    HW1 4435   2.362   0.742   9.754 -0.7610 -1.0028  0.5388
  998SOL    HW2 4436   2.411   0.607   9.704  1.0187  0.0372 -0.6331
  999SOL     OW 4437   1.712   1.303   7.646  0.4674 -0.2806  0.3118
  999SOL    HW1 4438   1.758   1.362   7.706 -0.6147  0.2288  0.6559
  999SOL    HW2 4439   1.780   1.274   7.585  1.4466 -0.2752  1.3593
 1000SOL     OW 4440   0.236   2.129   8.564  0.1188 -0.1182 -0.3523
 1000SOL    HW1 4441   0.155   2.087   8.590  0.2470 -0.2198 -0.1155
 1000SOL    HW2 4442   0.209   2.206   8.514 -0.1320  0.2873  0.4007
 1001SOL     OW 4443   1.463   2.522   8.353  0.5618 -0.5708 -0.1011
 1001SOL    HW1 4444   1.399   2.552   8.417  0.4981 -0.7360 -0.0876
 1001SOL    HW2 4445   1.523   2.596   8.343 -0.0433 -0.1323 -0.6546
 1002SOL     OW 4446   0.566   2.532   9.624  0.1575 -0.1407  0.0890
 1002SOL    HW1 4447   0.478   2.532   9.585 -0.2984  1.8546  1.0056
 1002SOL    HW2 4448   0.606   2.613   9.592  0.1942  0.9861  2.6953
 1003SOL     OW 4449   6.391   1.531   6.390  0.4871 -0.4226 -0.0050
 1003SOL    HW1 4450   6.301   1.520   6.360 -0.3606  4.8824 -0.2863
 1003SOL    HW2 4451   6.384   1.544   6.485  1.0613 -0.5486  0.0605
 1004SOL     OW 4452   1.978   0.328   9.687 -0.0227  0.7474 -0.0940
 1004SOL    HW1 4453   2.044   0.328   9.618  1.9973 -0.6514  1.6882
 1004SOL    HW2 4454   1.996   0.407   9.738 -0.3033  0.8090 -0.0876
 1005SOL     OW 4455   1.496   0.076   7.398 -0.3510 -0.1509 -0.4439
 1005SOL    HW1 4456   1.585   0.098   7.425 -0.5510 -0.2656  0.3503
 1005SOL    HW2 4457   1.447   0.158   7.411 -0.7698 -0.5912  1.0504
 1006SOL     OW 4458   0.743   7.927   9.924  0.0849  0.0206 -0.3494
 1006SOL    HW1 4459   0.829   7.923   9.882 -0.6058 -0.2231 -1.7905
 1006SOL    HW2 4460   0.696   7.994   9.876 -0.7601 -0.3201 -0.0162
 1007SOL     OW 4461   1.142   0.052   8.179 -0.3728  0.7609 -0.0357
 1007SOL    HW1 4462   1.107  -0.002   8.250  0.3813 -1.0834 -1.0091
 1007SOL    HW2 4463   1.186   0.124   8.223  1.8601 -1.4067  1.5336
 1008SOL     OW 4464   0.182   1.809   8.817  0.3808  0.1397  0.0344
 1008SOL    HW1 4465   0.276   1.799   8.829  0.2491 -1.0060  0.2525
 1008SOL    HW2 4466   0.166   1.781   8.726  0.1604 -0.4548  0.2495
 1009SOL     OW 4467   7.874   1.633  11.424 -0.2773  0.3964 -0.2475
 1009SOL    HW1 4468   7.807   1.585  11.376 -0.8132  1.6928 -0.8429
 1009SOL    HW2 4469   7.955   1.618  11.375 -0.6528  0.9851 -1.0661
 1010SOL     OW 4470   0.972   0.203   9.746 -0.0684  0.3661 -0.4394
 1010SOL    HW1 4471   1.068   0.202   9.746 -0.0207 -1.6713  1.1403
 1010SOL    HW2 4472   0.949   0.247   9.828 -0.4116 -1.0932  0.2749
 1011SOL     OW 4473   1.140   6.432  10.179 -0.2536  0.4988 -0.1311
 1011SOL    HW1 4474   1.118   6.339  10.173  0.0627  0.3036  1.3377
 1011SOL    HW2 4475   1.060   6.478  10.154  0.6949 -0.0121 -5.2423
 1012SOL     OW 4476   7.268   0.327   9.657 -0.2634  0.1450  0.0049
 1012SOL    HW1 4477   7.210   0.311   9.583 -1.6005 -0.0989  1.0703
 1012SOL    HW2 4478   7.253   0.418   9.681 -1.4590 -0.3415  1.2729
 1013SOL     OW 4479   7.944   2.685  10.182 -0.3987  0.5011 -0.0146
 1013SOL    HW1 4480   7.899   2.618  10.131  0.7317  0.6733 -1.2747
 1013SOL    HW2 4481   8.031   2.649  10.198  0.2080  1.6433 -0.6694
 1014SOL     OW 4482   2.437   1.529   8.117  0.0002 -0.2375 -0.3012
 1014SOL    HW1 4483   2.519   1.492   8.083 -0.1049  0.2058 -1.0523
 1014SOL    HW2 4484   2.372   1.461   8.103 -0.1091  0.0551 -1.3119
 1015SOL     OW 4485   1.808   1.872   9.222  0.0977  0.1136 -0.5399
 1015SOL    HW1 4486   1.859   1.805   9.178  0.6091  0.2054 -0.1036
 1015SOL    HW2 4487   1.757   1.825   9.288  0.2950  0.1203 -0.3792
 1016SOL     OW 4488   0.687   1.280  10.272 -0.3283  0.0799  0.4339
 1016SOL    HW1 4489   0.615   1.271  10.209 -0.3360  1.5529  0.1825
 1016SOL    HW2 4490   0.690   1.374  10.290 -0.4405 -0.2988  2.7833
 1017SOL     OW 4491   1.441   1.931  10.520 -0.0246 -0.1991 -0.3981
 1017SOL    HW1 4492   1.511   1.992  10.498  0.6233 -1.3438 -1.6477
 1017SOL    HW2 4493   1.443   1.926  10.616  0.9392  0.5487 -0.3636
 1018SOL     OW 4494   0.370   0.133   9.847 -0.1289  0.5439 -0.2618
 1018SOL    HW1 4495   0.392   0.042   9.868  0.0824  0.4435 -0.9075
 1018SOL    HW2 4496   0.344   0.171   9.931  0.3698  0.0547  0.1237
 1019SOL     OW 4497   2.069   0.700  11.059 -0.1972 -0.0179  0.1647
 1019SOL    HW1 4498   2.055   0.701  11.154 -1.4736 -1.7849  0.0305
 1019SOL    HW2 4499   2.158   0.734  11.048  0.4726 -1.0090  2.1003
 1020SOL     OW 4500   0.997   0.384   9.220  0.1835 -0.5671 -0.2164
 1020SOL    HW1 4501   0.907   0.390   9.188  0.0154  0.3221  0.3831
 1020SOL    HW2 4502   0.989   0.347   9.307  0.0971  2.0454  0.9759
 1021SOL     OW 4503   2.507   0.151   5.957 -0.7632 -0.3580 -0.4807
 1021SOL    HW1 4504   2.497   0.183   5.867  0.1232  0.0257 -0.4518
 1021SOL    HW2 4505   2.601   0.149   5.972 -0.8853  2.1393  1.3090
 1022SOL     OW 4506   7.520   4.463   8.344  0.0822 -0.1273  0.9658
 1022SOL    HW1 4507   7.570   4.542   8.324 -0.1301  0.1237  1.3986
 1022SOL    HW2 4508   7.479   4.438   8.261 -1.0316  1.0619  1.1278
 1023SOL     OW 4509   2.135   7.712   6.678  0.2230  0.8349 -0.2161
 1023SOL    HW1 4510   2.158   7.805   6.683 -0.9576  1.1911 -0.8820
 1023SOL    HW2 4511   2.110   7.699   6.586 -1.1593  0.2581  0.2180
 1024SOL     OW 4512   1.661   3.759  10.075  0.0091 -0.3479  0.1901
 1024SOL    HW1 4513   1.593   3.796  10.131  0.8585 -0.1126  1.0881
 1024SOL    HW2 4514   1.693   3.833  10.023  0.6751 -0.1274  0.9117
 1025SOL     OW 4515   0.036   0.545  10.036 -0.6999 -0.1144 -0.0241
 1025SOL    HW1 4516   0.118   0.552   9.988 -0.2149 -0.3187  0.7582
 1025SOL    HW2 4517   0.029   0.453  10.059 -1.3605 -0.1777 -0.4292
 1026SOL     OW 4518   3.648   7.600   7.894 -0.2411 -0.0149  0.1422
 1026SOL    HW1 4519   3.698   7.554   7.826  2.2947  0.2400  1.7066
 1026SOL    HW2 4520   3.643   7.690   7.863  0.8585  0.0934  0.2407
 1027SOL     OW 4521   0.585   0.937   7.330  0.1671 -0.1726  0.0829
 1027SOL    HW1 4522   0.601   0.892   7.247  1.5417  0.7179 -0.1712
 1027SOL    HW2 4523   0.621   0.877   7.396 -0.6494 -0.7415  0.0302
 1028SOL     OW 4524   1.309   1.798   8.454 -0.1131 -0.4218  0.1902
 1028SOL    HW1 4525   1.333   1.724   8.398 -0.2571  0.0683 -0.5261
 1028SOL    HW2 4526   1.391   1.825   8.495 -0.2838 -1.9514  1.6876
 1029SOL     OW 4527   7.424   2.661   9.689  0.1273 -0.5096 -0.2818
 1029SOL    HW1 4528   7.476   2.618   9.620  1.4656  0.5587  0.0110
 1029SOL    HW2 4529   7.437   2.754   9.674 -0.5241 -0.2466  0.7204
 1030SOL     OW 4530   1.426   0.334   7.367  0.4990  0.3879 -0.3534
 1030SOL    HW1 4531   1.473   0.404   7.322 -0.8076  0.2996 -1.9491
 1030SOL    HW2 4532   1.337   0.367   7.376  0.6990  0.4142  2.3155
 1031SOL     OW 4533   0.089   4.049  10.456 -0.6162 -0.1086 -0.2194
 1031SOL    HW1 4534   0.008   3.999  10.450 -0.7795  0.2843 -1.6877
 1031SOL    HW2 4535   0.062   4.138  10.477 -0.6386  0.1579 -1.3119
 1032SOL     OW 4536   1.805   2.458   8.314 -0.2264 -0.0032  0.1074
 1032SOL    HW1 4537   1.791   2.364   8.310 -1.3443  0.1718 -0.6729
 1032SOL    HW2 4538   1.767   2.484   8.398  0.3890 -0.2876  0.4773
 1033SOL     OW 4539   1.247   1.895   8.869 -0.3431  0.0229  0.0470
 1033SOL    HW1 4540   1.332   1.936   8.882  0.6033 -2.2101  1.6466
 1033SOL    HW2 4541   1.185   1.955   8.910  0.4988  1.4445 -0.6934
 1034SOL     OW 4542   0.333   3.191   8.200  0.5247  0.3809 -0.4453
 1034SOL    HW1 4543   0.372   3.198   8.113  2.0252  0.7300  0.2366
 1034SOL    HW2 4544   0.260   3.253   8.198  0.6393  0.5014 -1.3931
 1035SOL     OW 4545   2.304   0.538   9.118 -0.0600  0.2458  0.2141
 1035SOL    HW1 4546   2.310   0.481   9.041  0.3860 -0.8466  1.0320
 1035SOL    HW2 4547   2.211   0.553   9.130 -0.1725 -0.2184 -0.0751
 1036SOL     OW 4548   0.395   6.809   9.394  0.0157  0.1073 -0.2747
 1036SOL    HW1 4549   0.430   6.819   9.482 -0.5168  0.4031 -0.0874
 1036SOL    HW2 4550   0.416   6.892   9.350  0.3418 -0.0663 -0.4520
 1037SOL     OW 4551   7.889   1.077   9.751  0.4509 -0.3602 -0.1443
 1037SOL    HW1 4552   7.870   1.124   9.671 -1.5653  1.2094  1.1593
 1037SOL    HW2 4553   7.828   1.003   9.751  0.6511 -0.5292 -0.1701
 1038SOL     OW 4554   1.250   1.602   9.166 -0.0633  0.7766 -0.0373
 1038SOL    HW1 4555   1.207   1.517   9.168 -0.0064  0.7454  1.8052
 1038SOL    HW2 4556   1.194   1.656   9.111 -2.0472  0.4958  1.5820
 1039SOL     OW 4557   2.024   0.559   9.111 -0.3746  0.6381 -0.9479
 1039SOL    HW1 4558   1.933   0.535   9.095 -0.4782  1.2111 -1.2639
 1039SOL    HW2 4559   2.027   0.654   9.095  0.0430  0.8164  0.1335
 1040SOL     OW 4560   0.840   6.980   8.921  0.0759  0.1076  0.1661
 1040SOL    HW1 4561   0.910   6.928   8.961 -1.0081 -0.4532  1.3905
 1040SOL    HW2 4562   0.766   6.921   8.915 -0.4271  0.8095 -0.7479
 1041SOL     OW 4563   0.531   2.493   9.901 -0.3196  0.1468  0.4283
 1041SOL    HW1 4564   0.538   2.469   9.809 -0.0975 -0.9519  0.7144
 1041SOL    HW2 4565   0.610   2.543   9.919 -0.7171  0.9898 -0.1538
 1042SOL     OW 4566   0.757   1.370   9.718 -0.2178  0.2604  0.2313
 1042SOL    HW1 4567   0.841   1.346   9.757  1.1771  0.4056 -2.4402
 1042SOL    HW2 4568   0.744   1.461   9.745 -0.0389 -0.0826  1.5103
 1043SOL     OW 4569   0.377   0.572   8.856 -0.4354 -0.1369 -0.5917
 1043SOL    HW1 4570   0.470   0.568   8.833 -0.6371 -1.3786 -1.3307
 1043SOL    HW2 4571   0.332   0.549   8.774 -1.3165 -1.3944  0.2212
 1044SOL     OW 4572   2.532   1.090   9.515  0.4089 -0.1205 -0.0277
 1044SOL    HW1 4573   2.565   1.151   9.448  0.1120 -1.0508 -1.0542
 1044SOL    HW2 4574   2.439   1.082   9.496  0.2983 -0.3088  0.5871
 1045SOL     OW 4575   0.973   7.771   6.490  0.6653  0.0118 -0.1153
 1045SOL    HW1 4576   0.925   7.854   6.483  1.2065  0.4649  1.2263
 1045SOL    HW2 4577   1.026   7.768   6.410  0.5623  0.9143 -0.2361
 1046SOL     OW 4578   1.980   1.804  10.446 -0.7260 -0.3463  0.4836
 1046SOL    HW1 4579   2.047   1.813  10.514  0.1126  0.9115 -0.4557
 1046SOL    HW2 4580   1.983   1.887  10.399 -0.9144 -1.3699 -1.4186
 1047SOL     OW 4581   3.176   7.418   8.032  0.0855  0.0595 -0.6329
 1047SOL    HW1 4582   3.179   7.451   8.122  0.6901  1.7630 -1.2261
 1047SOL    HW2 4583   3.261   7.441   7.996  0.5491 -2.2538 -1.1269
 1048SOL     OW 4584   1.246   3.522   8.566  0.4477 -0.2848  0.1813
 1048SOL    HW1 4585   1.162   3.500   8.528 -0.0948  0.2495  1.0370
 1048SOL    HW2 4586   1.258   3.457   8.636  2.2226 -2.3570 -1.8557
 1049SOL     OW 4587   2.046   3.062   7.594 -0.5144  0.0230  0.5717
 1049SOL    HW1 4588   2.090   3.012   7.663  1.2003  0.0346 -0.4542
 1049SOL    HW2 4589   2.008   2.995   7.537  2.8706 -0.3865 -1.5225
 1050SOL     OW 4590   2.445   1.162   7.773 -0.2518  0.0164 -0.2057
 1050SOL    HW1 4591   2.499   1.238   7.796 -0.3353  0.4707 -1.4675
 1050SOL    HW2 4592   2.452   1.105   7.850  0.1146  1.1169  0.6106
 1051SOL     OW 4593   0.721   2.413   7.347  0.1211  0.0727 -0.2132
 1051SOL    HW1 4594   0.747   2.321   7.345 -0.6785 -0.2250  1.4308
 1051SOL    HW2 4595   0.796   2.460   7.309  0.4997 -1.2365 -1.1675
 1052SOL     OW 4596   0.276   1.161  10.134  0.3145  0.4661  0.8629
 1052SOL    HW1 4597   0.308   1.238  10.179  1.8068 -0.2337  1.0591
 1052SOL    HW2 4598   0.321   1.161  10.050 -0.4205  0.3305  0.4600
 1053SOL     OW 4599   1.712   7.185   5.823 -0.0112 -0.3780  0.1594
 1053SOL    HW1 4600   1.641   7.247   5.840 -0.7118 -0.8490 -0.9714
 1053SOL    HW2 4601   1.743   7.160   5.910  0.4075  1.6677  0.6489
 1054SOL     OW 4602   2.027   0.267   9.229 -0.1691 -0.1168  0.2265
 1054SOL    HW1 4603   1.954   0.207   9.211  1.3319 -2.0711  0.2680
 1054SOL    HW2 4604   2.011   0.341   9.171 -3.0267  0.3358  1.4063
 1055SOL     OW 4605   0.314   2.196  10.805 -0.7152  0.2649  0.5083
 1055SOL    HW1 4606   0.343   2.262  10.743 -0.6579  1.2348  1.5337
 1055SOL    HW2 4607   0.246   2.239  10.857 -0.2594 -0.2619  1.5820
 1056SOL     OW 4608   1.426   1.434   9.788 -0.6851  0.1784  0.0997
 1056SOL    HW1 4609   1.463   1.439   9.700  0.3207  1.3874  0.5618
 1056SOL    HW2 4610   1.400   1.342   9.798  2.0704 -0.7293 -0.3290
 1057SOL     OW 4611   1.573   2.413  10.323  0.3779 -0.0226  0.0938
 1057SOL    HW1 4612   1.627   2.334  10.330 -0.4900 -0.9335 -2.3938
 1057SOL    HW2 4613   1.483   2.381  10.327 -0.0127  1.0875  0.7449
 1058SOL     OW 4614   1.171   3.041   7.180 -0.0967  0.4192  0.0186
 1058SOL    HW1 4615   1.159   2.977   7.110  1.2295  0.8460 -0.6369
 1058SOL    HW2 4616   1.085   3.081   7.191 -0.3407  0.3275 -1.3563
 1059SOL     OW 4617   4.223   0.087   8.884  0.0139  0.6733 -0.2292
 1059SOL    HW1 4618   4.233   0.180   8.861  1.3145  0.7356  0.4903
 1059SOL    HW2 4619   4.304   0.046   8.855 -0.5818 -0.2741 -0.6014
 1060SOL     OW 4620   1.717   1.618   7.308 -0.0434 -0.4638 -0.1533
 1060SOL    HW1 4621   1.715   1.538   7.255  0.6241  0.3913 -1.5244
 1060SOL    HW2 4622   1.664   1.681   7.259  0.7083  0.4021  0.1148
 1061SOL     OW 4623   0.326   1.155   9.275 -0.1547  0.0959 -0.3512
 1061SOL    HW1 4624   0.412   1.153   9.318  0.0632  0.5359 -0.7540
 1061SOL    HW2 4625   0.298   1.064   9.273  0.0542  0.0167  0.2870
 1062SOL     OW 4626   1.798   0.638   7.318 -0.2842 -0.4119  0.1853
 1062SOL    HW1 4627   1.856   0.598   7.253  0.2866 -0.1835  0.5510
 1062SOL    HW2 4628   1.854   0.654   7.394 -0.4365  1.2886 -0.0161
 1063SOL     OW 4629   0.729   7.235  10.033  0.0753  0.2464  0.2383
 1063SOL    HW1 4630   0.657   7.172  10.040 -0.5110  0.7776 -0.9666
 1063SOL    HW2 4631   0.805   7.186  10.066 -0.3652 -1.1018 -0.6629
 1064SOL     OW 4632   2.154   1.216   7.767 -0.1465 -0.2795  0.2899
 1064SOL    HW1 4633   2.124   1.289   7.714  0.0011  0.7936  1.6281
 1064SOL    HW2 4634   2.249   1.227   7.772 -0.1007 -0.6770  0.3382
 1065SOL     OW 4635   2.341   1.915   8.165  0.2021  0.2477  0.3222
 1065SOL    HW1 4636   2.423   1.876   8.135  0.7826  2.3056 -0.9829
 1065SOL    HW2 4637   2.355   2.009   8.155 -1.8943  0.6996  1.2533
 1066SOL     OW 4638   0.931   0.723   8.086  0.3508 -0.0469  0.0051
 1066SOL    HW1 4639   0.923   0.812   8.121  1.3091  0.0844 -0.0799
 1066SOL    HW2 4640   0.990   0.678   8.147  1.7874  0.0872 -1.2252
 1067SOL     OW 4641   1.715   2.332   7.754  0.0024 -0.1137 -0.0234
 1067SOL    HW1 4642   1.732   2.265   7.821 -0.4644 -0.8633 -0.6431
 1067SOL    HW2 4643   1.741   2.290   7.672 -1.9035 -0.1841 -0.6348
 1068SOL     OW 4644   0.591   7.390   7.868 -0.3338  0.1062 -0.4240
 1068SOL    HW1 4645   0.518   7.343   7.828 -1.1481 -0.3982  1.5093
 1068SOL    HW2 4646   0.591   7.475   7.825 -2.3792  0.2897 -0.2056
 1069SOL     OW 4647   0.012   7.452   9.745  0.1366  0.2132  0.1227
 1069SOL    HW1 4648  -0.078   7.447   9.712 -0.2851 -0.1280  1.2965
 1069SOL    HW2 4649   0.067   7.449   9.666 -0.8624 -0.0440 -0.5730
 1070SOL     OW 4650   0.589   3.007   9.249 -0.6022  0.0166  0.4212
 1070SOL    HW1 4651   0.670   3.012   9.197 -1.0116 -0.5078 -0.2951
 1070SOL    HW2 4652   0.567   2.914   9.249 -1.6389  0.2486 -0.0763
 1071SOL     OW 4653   1.776   1.865   9.958 -0.2570 -0.4628  0.0692
 1071SOL    HW1 4654   1.776   1.846   9.864  1.3740  1.0937 -0.2809
 1071SOL    HW2 4655   1.834   1.798   9.995 -1.1245 -1.2558  0.0430
 1072SOL     OW 4656   0.705   0.037   8.708  0.0404 -0.2437 -0.3324
 1072SOL    HW1 4657   0.705   0.131   8.692  2.3604  0.2743  1.9838
 1072SOL    HW2 4658   0.629   0.022   8.765 -0.2824  0.2288 -0.6343
 1073SOL     OW 4659   6.614   0.326   6.901  0.3145  0.0406 -0.0696
 1073SOL    HW1 4660   6.705   0.301   6.917  0.7317  1.3665 -0.2759
 1073SOL    HW2 4661   6.598   0.399   6.961 -1.1150 -1.1212  1.0671
 1074SOL     OW 4662   1.542   0.091   9.773 -0.3546 -0.2698  0.0976
 1074SOL    HW1 4663   1.535   0.011   9.825 -1.1251 -0.1824  0.1467
 1074SOL    HW2 4664   1.535   0.063   9.682 -1.1166 -0.2167  0.1338
 1075SOL     OW 4665   1.658   0.290   7.519 -0.6886 -0.3036 -0.0184
 1075SOL    HW1 4666   1.576   0.335   7.500 -0.5325  0.3560  0.8075
 1075SOL    HW2 4667   1.673   0.305   7.612  0.8929  0.4698 -0.3607
 1076SOL     OW 4668   7.972   0.812   8.861 -0.1893 -0.1401  0.2625
 1076SOL    HW1 4669   8.012   0.892   8.827 -1.2529  0.0872 -0.4916
 1076SOL    HW2 4670   7.878   0.825   8.850 -0.3514 -1.7771 -0.5383
 1077SOL     OW 4671   2.518   0.567   9.393 -0.2199  0.5681 -0.2567
 1077SOL    HW1 4672   2.550   0.647   9.351 -1.3079  0.9172 -0.4306
 1077SOL    HW2 4673   2.485   0.596   9.478 -0.8397  0.3432 -0.4201
 1078SOL     OW 4674   0.764   2.424   9.058  0.9227 -0.1748 -0.2829
 1078SOL    HW1 4675   0.669   2.438   9.062  0.7933 -1.1074  0.0986
 1078SOL    HW2 4676   0.780   2.348   9.114  1.6986 -1.0221 -1.5909
 1079SOL     OW 4677   2.507   0.349   7.950  0.2555 -0.3868  0.3411
 1079SOL    HW1 4678   2.568   0.308   7.889  0.5717  1.8048 -0.9230
 1079SOL    HW2 4679   2.561   0.408   8.001 -0.6580  1.1358 -0.3835
 1080SOL     OW 4680   2.349   7.754  10.544  0.2954 -0.2207 -0.1240
 1080SOL    HW1 4681   2.414   7.800  10.490  0.0046 -0.6775 -0.8805
 1080SOL    HW2 4682   2.313   7.687  10.486 -1.8654  0.9146 -0.2006
 1081SOL     OW 4683   1.070   1.795   9.100 -0.0238  0.2906  0.4452
 1081SOL    HW1 4684   1.097   1.820   9.189 -0.3011 -0.2235  0.6796
 1081SOL    HW2 4685   1.035   1.876   9.063  2.5102  1.1876 -0.1641
 1082SOL     OW 4686   2.395   0.325   9.362 -0.0355  0.4204  0.6561
 1082SOL    HW1 4687   2.428   0.414   9.373 -0.1623  0.7673 -1.3244
 1082SOL    HW2 4688   2.301   0.331   9.379  0.1344  0.3982  1.6701
 1083SOL     OW 4689   2.253   1.596   7.753 -0.1713 -0.3915 -0.2521
 1083SOL    HW1 4690   2.336   1.570   7.713 -1.4745 -2.0380 -2.0976
 1083SOL    HW2 4691   2.244   1.689   7.733  1.1346 -0.2409 -0.1859
 1084SOL     OW 4692   1.825   7.839   8.020 -0.0463  0.5227  0.3971
 1084SOL    HW1 4693   1.797   7.780   8.090  0.0106  0.9526  0.7894
 1084SOL    HW2 4694   1.752   7.899   8.008 -0.1015  0.3788  0.0048
 1085SOL     OW 4695   0.226   7.606   8.406  0.0333  1.1521 -0.1749
 1085SOL    HW1 4696   0.205   7.522   8.365 -2.1426  0.9520  1.1881
 1085SOL    HW2 4697   0.216   7.590   8.500  1.9244  2.3562  0.2834
 1086SOL     OW 4698   3.702   1.484   9.294  0.0325  0.7120 -0.4866
 1086SOL    HW1 4699   3.726   1.576   9.281 -1.1900  1.3804  1.5544
 1086SOL    HW2 4700   3.629   1.486   9.356  0.4042 -1.6664  0.1557
 1087SOL     OW 4701   2.838   0.408   8.875 -0.0106 -0.0495 -0.5695
 1087SOL    HW1 4702   2.818   0.314   8.873 -0.7603 -0.1117  3.0004
 1087SOL    HW2 4703   2.934   0.411   8.883 -0.0240 -0.5539 -0.1280
 1088SOL     OW 4704   0.406   1.577   7.862  0.0145 -0.0487  0.1480
 1088SOL    HW1 4705   0.400   1.662   7.907  1.5268  0.1404  0.0330
 1088SOL    HW2 4706   0.497   1.549   7.876  0.0039 -0.8493 -1.2525
 1089SOL     OW 4707   1.264   2.971   8.133 -0.1809 -0.3273  0.3008
 1089SOL    HW1 4708   1.267   2.900   8.197 -0.6317 -0.4883  0.1512
 1089SOL    HW2 4709   1.203   3.035   8.170  1.7343  0.9631  1.3983
 1090SOL     OW 4710   1.984   2.171   8.939 -0.3639 -0.0186  0.5785
 1090SOL    HW1 4711   2.052   2.112   8.907  0.9456  1.5190  0.4353
 1090SOL    HW2 4712   2.031   2.247   8.972 -2.0402  1.5181 -0.3885
 1091SOL     OW 4713   7.745   7.101  10.827  0.2501  0.4269  0.4313
 1091SOL    HW1 4714   7.720   7.013  10.855 -0.3003  0.2076 -0.6871
 1091SOL    HW2 4715   7.767   7.092  10.734  0.3727  1.4392  0.3429
 1092SOL     OW 4716   1.891   2.827   9.117  0.6438 -0.3978 -0.2680
 1092SOL    HW1 4717   1.962   2.878   9.157  1.0596 -1.3190  0.1945
 1092SOL    HW2 4718   1.848   2.783   9.190 -0.9930  0.8376 -0.4436
 1093SOL     OW 4719   1.345   7.922  11.065 -0.0962  0.4825 -0.0749
 1093SOL    HW1 4720   1.354   7.846  11.122  0.3446 -0.3103 -1.1604
 1093SOL    HW2 4721   1.250   7.937  11.061 -0.2105 -0.1703 -0.0352
 1094SOL     OW 4722   0.465   1.608   9.665 -0.2779 -0.1896  0.5891
 1094SOL    HW1 4723   0.414   1.687   9.648  0.3597  0.7341  2.6428
 1094SOL    HW2 4724   0.550   1.640   9.696  1.4294 -1.6867 -2.1220
 1095SOL     OW 4725   1.052   0.679   9.953  0.8185 -0.7174  0.3984
 1095SOL    HW1 4726   1.148   0.688   9.955  0.8445 -0.7656 -0.4580
 1095SOL    HW2 4727   1.027   0.710   9.866  0.0105 -0.3365  0.7546
 1096SOL     OW 4728   1.968   0.983   9.584  0.3357 -0.0976 -0.4134
 1096SOL    HW1 4729   1.928   1.020   9.505  1.1872  1.8445  0.0074
 1096SOL    HW2 4730   2.051   0.945   9.554  1.2232  1.6896 -0.3217
 1097SOL     OW 4731   7.837   0.250   6.949  0.2341  0.5855 -0.0022
 1097SOL    HW1 4732   7.920   0.296   6.937 -0.2668  2.0616  1.8265
 1097SOL    HW2 4733   7.771   0.310   6.916 -0.1785 -0.5192 -1.3092
 1098SOL     OW 4734   2.949   1.164   8.509  0.1005  0.0711 -0.2021
 1098SOL    HW1 4735   3.028   1.118   8.480  0.9589  1.7589 -0.7246
 1098SOL    HW2 4736   2.928   1.125   8.593  0.7669 -1.2544 -0.6120
 1099SOL     OW 4737   1.386   2.003   9.201  0.4950  0.2982 -0.6314
 1099SOL    HW1 4738   1.357   2.064   9.270  0.5460 -1.3358  0.9080
 1099SOL    HW2 4739   1.441   1.939   9.247  1.5776 -0.1478 -2.4376
 1100SOL     OW 4740   0.923   1.072   8.797 -0.4979 -0.3119  0.3050
 1100SOL    HW1 4741   0.966   1.032   8.721  3.4506  0.3346  1.9162
 1100SOL    HW2 4742   0.932   1.166   8.783  2.0016 -0.1533  2.2360
 1101SOL     OW 4743   2.391   2.897   8.361  0.0525  0.2957  0.5317
 1101SOL    HW1 4744   2.409   2.990   8.351 -0.9178  0.5794  1.2424
 1101SOL    HW2 4745   2.476   2.854   8.351  0.6736  1.3397  1.2146
 1102SOL     OW 4746   1.401   0.786   8.545 -0.0392 -0.0089  0.3656
 1102SOL    HW1 4747   1.459   0.856   8.514  0.3871  0.4483  2.0691
 1102SOL    HW2 4748   1.394   0.801   8.639 -1.3474 -1.2493  0.4965
 1103SOL     OW 4749   1.062   0.869   5.955 -0.3057 -0.0121 -0.6814
 1103SOL    HW1 4750   1.149   0.880   5.917 -0.2714  1.5215 -0.2236
 1103SOL    HW2 4751   1.028   0.958   5.964 -1.1854 -0.4585  0.8339
 1104SOL     OW 4752   0.977   2.525   9.820  0.0625  0.1807  0.4781
 1104SOL    HW1 4753   0.904   2.579   9.850  0.2904 -0.3231  2.0508
 1104SOL    HW2 4754   1.055   2.577   9.838  0.2524 -0.4423  1.5593
 1105SOL     OW 4755   1.554   6.815   7.561  0.1719 -0.4905  0.5364
 1105SOL    HW1 4756   1.610   6.867   7.504 -1.1563 -0.2871 -0.6348
 1105SOL    HW2 4757   1.570   6.849   7.649  0.5894  0.7277  0.0035
 1106SOL     OW 4758   3.509   1.026   9.217  0.2782 -0.5062 -0.2161
 1106SOL    HW1 4759   3.482   0.935   9.229  1.3456 -1.0431 -1.6134
 1106SOL    HW2 4760   3.458   1.075   9.282 -1.6127 -1.8568 -0.5990
 1107SOL     OW 4761   2.505   4.456   8.051 -0.1247  0.1921 -0.0749
 1107SOL    HW1 4762   2.473   4.546   8.044  0.2750  0.3579  0.1753
 1107SOL    HW2 4763   2.600   4.465   8.050 -0.0776 -0.3098 -1.0603
 1108SOL     OW 4764   0.056   1.908   8.430 -0.5096  0.1756  0.4209
 1108SOL    HW1 4765  -0.002   1.875   8.361 -1.7235  1.6554  0.6790
 1108SOL    HW2 4766   0.144   1.900   8.394 -1.0497  0.0239 -0.9151
 1109SOL     OW 4767   2.348   3.686   8.198  0.1740 -0.0093  0.5379
 1109SOL    HW1 4768   2.371   3.777   8.180  2.5214 -0.2203  2.0072
 1109SOL    HW2 4769   2.394   3.635   8.131 -0.1918 -0.1805  0.4139
 1110SOL     OW 4770   0.670   7.289   9.742  0.3783 -0.1139 -0.6915
 1110SOL    HW1 4771   0.598   7.229   9.720 -1.3870  2.3608 -2.1125
 1110SOL    HW2 4772   0.674   7.285   9.838 -1.2230 -0.8192 -0.6018
 1111SOL     OW 4773   7.756   0.398  10.848  0.0700  0.2036  0.1375
 1111SOL    HW1 4774   7.851   0.387  10.851  0.0909  0.1526 -0.5979
 1111SOL    HW2 4775   7.742   0.492  10.864  0.2623  0.2833 -0.1684
 1112SOL     OW 4776   6.797   0.928   8.017  0.2969  0.0446  0.0239
 1112SOL    HW1 4777   6.708   0.952   7.994  0.1652  0.7351  1.1631
 1112SOL    HW2 4778   6.842   0.916   7.933 -0.7044  0.2615 -0.5552
 1113SOL     OW 4779   0.671   1.906  11.072  0.2294 -0.3436 -0.6341
 1113SOL    HW1 4780   0.584   1.933  11.101 -0.1644 -0.4746 -1.6212
 1113SOL    HW2 4781   0.700   1.842  11.137 -0.2431 -0.0093 -0.0868
 1114SOL     OW 4782   1.576   0.996   9.007 -0.0950  0.0517 -0.3875
 1114SOL    HW1 4783   1.544   1.080   9.040 -2.1202 -1.3775  1.5584
 1114SOL    HW2 4784   1.640   0.967   9.073 -0.0629 -0.3437 -0.5903
 1115SOL     OW 4785   0.407   7.326  11.397 -0.4184  0.1493 -0.3001
 1115SOL    HW1 4786   0.463   7.403  11.409 -0.5520  0.0489  1.2444
 1115SOL    HW2 4787   0.461   7.253  11.426 -0.7089 -0.1785 -0.5867
 1116SOL     OW 4788   0.691   0.738   9.835  0.3331 -0.7244 -0.0426
 1116SOL    HW1 4789   0.729   0.723   9.922 -0.2581  1.0203  0.5524
 1116SOL    HW2 4790   0.599   0.757   9.853  0.6601  1.9451 -0.7796
 1117SOL     OW 4791   1.083   1.228  11.255 -0.4284  0.0908 -0.0996
 1117SOL    HW1 4792   0.992   1.241  11.226 -0.8172  2.4795  1.8435
 1117SOL    HW2 4793   1.127   1.310  11.231  0.8195 -0.4516  0.2984
 1118SOL     OW 4794   2.030   0.729   0.358  0.6834 -0.0670  0.0441
 1118SOL    HW1 4795   2.019   0.685   0.274 -0.0725 -0.6798  0.4423
 1118SOL    HW2 4796   1.943   0.765   0.378  0.6777 -0.5174  0.8732
 1119SOL     OW 4797   2.238   1.926  10.534 -0.2294  0.4483 -0.1844
 1119SOL    HW1 4798   2.261   1.834  10.531 -1.9923 -0.0137 -0.6675
 1119SOL    HW2 4799   2.296   1.963  10.601  1.4163 -0.6992 -0.9159
 1120SOL     OW 4800   2.803   0.559   9.119 -0.1014  0.6320 -0.2054
 1120SOL    HW1 4801   2.810   0.503   9.042  0.3892  0.7244 -0.2281
 1120SOL    HW2 4802   2.710   0.584   9.122  0.0654  1.4766 -1.3761
 1121SOL     OW 4803   0.882   1.171  10.417  0.7471  0.2200 -0.0807
 1121SOL    HW1 4804   0.963   1.218  10.437  0.4844  0.3463  0.7234
 1121SOL    HW2 4805   0.840   1.223  10.348  0.3329  1.3363  0.9802
 1122SOL     OW 4806   3.245   7.275   8.455  0.5558  0.3407  0.1638
 1122SOL    HW1 4807   3.199   7.301   8.535 -0.0098  2.2191 -0.7191
 1122SOL    HW2 4808   3.198   7.197   8.425 -1.7402  1.8338 -0.3701
 1123SOL     OW 4809   2.966   0.638  10.324 -0.4149 -0.0815  0.5318
 1123SOL    HW1 4810   2.900   0.619  10.391 -1.0896 -2.0062 -0.6047
 1123SOL    HW2 4811   2.915   0.656  10.245  0.4062  0.3450  0.0923
 1124SOL     OW 4812   3.695   7.919  10.010 -0.0540  0.0036 -0.1847
 1124SOL    HW1 4813   3.696   7.824  10.001  0.0200  0.1503 -2.1132
 1124SOL    HW2 4814   3.746   7.936  10.089 -1.7334 -1.6356  1.3528
 1125SOL     OW 4815   0.270   3.483  11.462 -0.4329  0.2536  0.2623
 1125SOL    HW1 4816   0.320   3.403  11.477 -0.3149  0.4078  0.7168
 1125SOL    HW2 4817   0.288   3.537  11.539 -1.1442  0.3854  0.3448
 1126SOL     OW 4818   1.566   1.602  10.190  0.2931 -0.0568  0.1786
 1126SOL    HW1 4819   1.555   1.672  10.127  0.7969  0.2526  0.4296
 1126SOL    HW2 4820   1.605   1.644  10.267  2.8303 -0.9605 -0.4954
 1127SOL     OW 4821   0.573   0.937  10.119  0.6162 -0.0833  0.2328
 1127SOL    HW1 4822   0.534   0.994  10.053  0.0192 -1.0112 -0.2322
 1127SOL    HW2 4823   0.627   0.996  10.172  0.2268  0.8648 -0.3911
 1128SOL     OW 4824   6.902   2.161   9.695  0.2361  0.0246 -0.0455
 1128SOL    HW1 4825   6.894   2.252   9.669 -0.0056 -0.2091 -0.8024
 1128SOL    HW2 4826   6.984   2.158   9.746  0.7765  0.4688 -0.8702
 1129SOL     OW 4827   7.785   0.746  10.381 -0.0105  0.4477  0.0512
 1129SOL    HW1 4828   7.874   0.750  10.347  1.6120 -0.1047  3.8190
 1129SOL    HW2 4829   7.751   0.835  10.369  0.9776  0.6536 -1.5033
 1130SOL     OW 4830   1.133   0.851  10.916  0.1811  0.8039 -0.4070
 1130SOL    HW1 4831   1.099   0.844  11.005  0.8903 -0.4727 -0.1984
 1130SOL    HW2 4832   1.149   0.944  10.903 -0.5777  1.0851  0.5486
 1131SOL     OW 4833   7.034   0.650  11.821 -0.2430 -0.4343 -0.3042
 1131SOL    HW1 4834   7.126   0.661  11.797 -0.5488  1.0310 -0.9265
 1131SOL    HW2 4835   7.002   0.739  11.834 -1.1178 -1.0098  1.7695
 1132SOL     OW 4836   0.510   1.739   9.044 -0.0328  0.1911  0.3523
 1132SOL    HW1 4837   0.587   1.709   8.996 -0.8474  0.0470 -0.9384
 1132SOL    HW2 4838   0.459   1.788   8.979 -0.7765  0.7314  1.3107
 1133SOL     OW 4839   1.288   3.560   9.154 -0.2339 -0.0283 -0.4481
 1133SOL    HW1 4840   1.311   3.480   9.201 -1.6651 -0.2323 -0.0458
 1133SOL    HW2 4841   1.316   3.631   9.212 -1.2130 -0.2734  0.3493
 1134SOL     OW 4842   1.487   1.838   9.389 -0.1682 -0.3054 -0.2325
 1134SOL    HW1 4843   1.561   1.784   9.417 -0.1481  0.5430  1.4819
 1134SOL    HW2 4844   1.410   1.784   9.404 -0.0765 -0.2318  0.5417
 1135SOL     OW 4845   2.073   2.963   9.256  0.2167 -0.2121  0.4960
 1135SOL    HW1 4846   2.043   3.051   9.278  0.7599  0.2263 -0.4552
 1135SOL    HW2 4847   2.156   2.976   9.211  0.9145 -1.2960  1.4082
 1136SOL     OW 4848   1.464   2.091  10.166 -0.1517  0.9831  0.1634
 1136SOL    HW1 4849   1.391   2.031  10.150 -0.5105  1.3522  0.3948
 1136SOL    HW2 4850   1.503   2.106  10.080 -0.8170  1.3679 -0.0764
 1137SOL     OW 4851   7.598   2.786  10.990 -0.4064  0.0958  0.1133
 1137SOL    HW1 4852   7.532   2.855  11.001 -0.9411 -0.3975  0.0451
 1137SOL    HW2 4853   7.626   2.765  11.079  0.0317  0.6634  0.1100
 1138SOL     OW 4854   7.541   1.979  11.014  0.1727  0.0333  0.1399
 1138SOL    HW1 4855   7.567   2.066  10.985 -0.4426  0.2930  0.3654
 1138SOL    HW2 4856   7.494   1.942  10.940 -0.4685  0.2881  0.4209
 1139SOL     OW 4857   1.285   2.846  10.607 -0.2249 -0.2488 -0.3632
 1139SOL    HW1 4858   1.292   2.848  10.512  0.2907 -1.1486 -0.3504
 1139SOL    HW2 4859   1.304   2.936  10.634 -0.0811 -0.0584 -1.0906
 1140SOL     OW 4860   1.305   0.550  10.106 -0.1308  0.4054  0.1304
 1140SOL    HW1 4861   1.237   0.500  10.061  0.2243  0.0137  0.0222
 1140SOL    HW2 4862   1.357   0.484  10.152 -0.7642  0.8378  1.5040
 1141SOL     OW 4863   7.729   1.590   1.870  0.3541 -0.1275 -0.0006
 1141SOL    HW1 4864   7.728   1.505   1.915  1.4644 -0.4189 -0.4657
 1141SOL    HW2 4865   7.807   1.634   1.905  0.2879  0.3302 -0.4190
 1142SOL     OW 4866   0.876   2.431  10.093  0.1355 -0.1081 -0.0849
 1142SOL    HW1 4867   0.908   2.507  10.044  0.4561 -1.2560 -1.7349
 1142SOL    HW2 4868   0.781   2.436  10.086  0.1906 -0.5660 -1.3549
 1143SOL     OW 4869   1.799   2.328  11.727  0.0423  0.2783  0.6221
 1143SOL    HW1 4870   1.761   2.241  11.728  1.0258 -0.1672  1.0007
 1143SOL    HW2 4871   1.728   2.386  11.700 -0.1558 -0.8388 -1.3929
 1144SOL     OW 4872   0.502   0.330  11.749 -0.1830 -0.0911  0.0165
 1144SOL    HW1 4873   0.467   0.389  11.682 -0.8951 -0.2121  0.2760
 1144SOL    HW2 4874   0.575   0.286  11.706  1.2513  1.9326  0.2116
 1145SOL     OW 4875   1.904   0.569  10.878  0.0609 -0.2672  0.1506
 1145SOL    HW1 4876   1.943   0.621  10.948 -0.0840 -2.7280  2.2183
 1145SOL    HW2 4877   1.885   0.485  10.918 -1.3626 -1.3670 -2.5230
 1146SOL     OW 4878   1.530   2.845   9.813 -0.1395 -0.4534 -0.4095
 1146SOL    HW1 4879   1.613   2.798   9.816 -0.2838 -1.0421 -3.1050
 1146SOL    HW2 4880   1.555   2.936   9.800  0.0866 -0.3344  0.7758
 1147SOL     OW 4881   1.041   1.750   8.182  0.2398 -0.2898  0.3873
 1147SOL    HW1 4882   0.982   1.788   8.246  1.7097  0.8685  1.1106
 1147SOL    HW2 4883   0.986   1.690   8.131 -1.3561  0.1571  1.5154
 1148SOL     OW 4884   0.489   7.290   8.536 -0.0107 -0.1264 -0.0200
 1148SOL    HW1 4885   0.418   7.245   8.582 -0.6207  0.0339 -0.7762
 1148SOL    HW2 4886   0.497   7.243   8.453  0.5572  0.0540 -0.0670
 1149SOL     OW 4887   1.340   3.128  11.133  0.1722  0.4363 -0.2262
 1149SOL    HW1 4888   1.271   3.104  11.195 -0.2055  0.3172 -0.6949
 1149SOL    HW2 4889   1.315   3.087  11.051 -0.3629  2.2011 -0.9942
 1150SOL     OW 4890   2.596   0.939  11.399  0.3577  0.3106 -0.2753
 1150SOL    HW1 4891   2.636   0.883  11.467  1.0300  2.4202  1.1777
 1150SOL    HW2 4892   2.504   0.943  11.423  0.1904 -0.5698 -0.7141
 1151SOL     OW 4893   2.085   2.031  11.380  0.0949 -0.5116  0.2146
 1151SOL    HW1 4894   2.107   2.085  11.304 -2.2966 -0.5075 -0.5644
 1151SOL    HW2 4895   2.086   2.092  11.454  0.1580 -0.0131 -0.1943
 1152SOL     OW 4896   1.541   7.878  11.428 -0.1285 -0.1404  0.3268
 1152SOL    HW1 4897   1.548   7.785  11.407  2.1984  0.3987 -1.7322
 1152SOL    HW2 4898   1.514   7.879  11.520 -0.7560 -2.7985  0.2804
 1153SOL     OW 4899   7.056   0.957  10.943  0.2536 -0.1943  0.2788
 1153SOL    HW1 4900   6.988   0.925  10.884  0.8122 -0.1030 -0.4283
 1153SOL    HW2 4901   7.043   0.907  11.024 -0.8162  0.0172  0.2554
 1154SOL     OW 4902   2.044   1.861   8.464 -1.0468 -0.1267  0.0802
 1154SOL    HW1 4903   2.081   1.932   8.412 -1.3455 -0.6701 -0.8918
 1154SOL    HW2 4904   2.020   1.903   8.547 -0.1711  0.6569 -0.0476
 1155SOL     OW 4905   7.052   1.307   9.223 -0.5806  0.2353 -0.1236
 1155SOL    HW1 4906   7.128   1.302   9.164 -0.7814  0.0032 -0.3646
 1155SOL    HW2 4907   6.999   1.379   9.187 -1.0341 -0.3386 -0.6251
 1156SOL     OW 4908   1.896   3.644  10.158  0.3051 -0.5409  0.0001
 1156SOL    HW1 4909   1.955   3.677  10.090  1.3110 -0.5179  0.8577
 1156SOL    HW2 4910   1.818   3.698  10.149  0.8610  0.2279 -0.4130
 1157SOL     OW 4911   0.995   1.156  10.785  0.4776  0.7779 -0.1363
 1157SOL    HW1 4912   1.056   1.170  10.713  0.2328  2.7957 -0.0097
 1157SOL    HW2 4913   1.017   1.223  10.849 -0.7086  0.3976  0.7093
 1158SOL     OW 4914   3.196   0.890  11.214  0.7111  0.0748  0.1323
 1158SOL    HW1 4915   3.205   0.797  11.195  0.8607  0.1957 -0.3992
 1158SOL    HW2 4916   3.102   0.907  11.206  0.4034 -0.4255  2.1326
 1159SOL     OW 4917   3.689   1.712   8.410 -0.3022 -0.0654 -0.9286
 1159SOL    HW1 4918   3.647   1.776   8.468 -0.0602 -0.4993 -0.2701
 1159SOL    HW2 4919   3.650   1.730   8.324 -1.6935 -0.3123 -0.3846
 1160SOL     OW 4920   0.700   0.568  10.382 -0.1739 -0.3174 -0.1242
 1160SOL    HW1 4921   0.777   0.568  10.439  0.9317 -0.4680 -1.5705
 1160SOL    HW2 4922   0.634   0.617  10.431  0.8820 -0.0606  1.0872
 1161SOL     OW 4923   1.790   1.693   8.879  0.2290 -0.3817 -0.6956
 1161SOL    HW1 4924   1.732   1.617   8.881  1.8595 -1.7532 -1.8926
 1161SOL    HW2 4925   1.836   1.691   8.963 -0.2639 -0.2463 -0.4166
 1162SOL     OW 4926   0.632   2.624  11.631  0.3334 -0.0982  0.1717
 1162SOL    HW1 4927   0.536   2.634  11.632  0.3042  0.0882  2.7612
 1162SOL    HW2 4928   0.665   2.713  11.645  0.9548 -0.0580 -1.3745
 1163SOL     OW 4929   3.004   3.382   9.265  0.0357  0.1159 -0.0705
 1163SOL    HW1 4930   3.030   3.292   9.285 -0.0298  0.1026 -0.0451
 1163SOL    HW2 4931   3.070   3.413   9.203  1.0426  0.6350  1.2223
 1164SOL     OW 4932   1.645   2.541   9.756 -0.4894  0.0717 -0.6109
 1164SOL    HW1 4933   1.650   2.528   9.662  0.4479  2.2689 -0.9196
 1164SOL    HW2 4934   1.700   2.617   9.773  0.3806 -1.0127  1.8906
 1165SOL     OW 4935   0.366   1.698  10.240  0.0861  0.1116  0.2409
 1165SOL    HW1 4936   0.394   1.789  10.250 -0.2096  0.5224 -2.0463
 1165SOL    HW2 4937   0.277   1.696  10.276  0.0868  0.7367  0.2843
 1166SOL     OW 4938   2.464   2.303  10.389  0.1534 -0.0750  0.1703
 1166SOL    HW1 4939   2.499   2.217  10.410 -2.4655 -0.9427  1.4881
 1166SOL    HW2 4940   2.382   2.285  10.343 -1.0832  1.5941  1.5468
 1167SOL     OW 4941   2.611   0.917  12.004 -0.4726  0.4289  0.1173
 1167SOL    HW1 4942   2.537   0.862  12.029  1.1253 -0.8004  2.3710
 1167SOL    HW2 4943   2.675   0.857  11.965  1.0008  0.7309  1.9623
 1168SOL     OW 4944   0.633   1.948  10.184 -0.1366 -0.5358 -0.3485
 1168SOL    HW1 4945   0.704   2.003  10.217  0.3015 -1.4279  0.2440
 1168SOL    HW2 4946   0.674   1.862  10.171 -1.3773 -1.4136  1.2244
 1169SOL     OW 4947   0.425   0.238   0.376 -0.4726  0.2314  0.2280
 1169SOL    HW1 4948   0.376   0.301   0.428  0.9062  1.2773  0.3318
 1169SOL    HW2 4949   0.500   0.214   0.431  0.3291  0.3890 -0.7614
 1170SOL     OW 4950   1.049   3.014  10.907  0.5236 -0.0187  0.0673
 1170SOL    HW1 4951   1.142   3.034  10.896  0.4501 -0.1647 -0.8941
 1170SOL    HW2 4952   1.037   2.930  10.863 -0.0743  0.0183  0.1498
 1171SOL     OW 4953   0.053   1.144  11.220 -0.1467 -0.0010  0.3897
 1171SOL    HW1 4954   0.121   1.084  11.250 -0.0098 -0.6320 -1.1027
 1171SOL    HW2 4955   0.089   1.184  11.141 -0.5307  1.5229  0.9487
 1172SOL     OW 4956   1.552   1.427   9.181  0.3020  0.5651 -0.2841
 1172SOL    HW1 4957   1.521   1.509   9.141  2.2254  1.4510 -0.0475
 1172SOL    HW2 4958   1.500   1.359   9.137 -1.7919  1.9062 -0.0405
 1173SOL     OW 4959   7.518   2.157  11.930  0.1916 -0.6874 -0.5470
 1173SOL    HW1 4960   7.503   2.214  11.854  1.1066 -0.2966 -0.4489
 1173SOL    HW2 4961   7.500   2.213  12.005  1.8607 -0.2441 -0.4289
 1174SOL     OW 4962   1.101   3.065   9.593 -0.2348 -0.3460  0.7656
 1174SOL    HW1 4963   1.157   3.143   9.587 -0.4695 -0.2826 -1.4214
 1174SOL    HW2 4964   1.128   3.012   9.518 -2.9164 -0.4241 -0.2377
 1175SOL     OW 4965   6.558   0.829  10.444  0.2595  0.6787 -0.2362
 1175SOL    HW1 4966   6.467   0.845  10.466  1.1330  2.7422  2.5595
 1175SOL    HW2 4967   6.587   0.764  10.508  0.7231 -0.1770 -1.2809
 1176SOL     OW 4968   1.420   6.818  11.202  0.3883  0.5538 -0.2588
 1176SOL    HW1 4969   1.387   6.791  11.116 -1.2425 -0.8050  0.7039
 1176SOL    HW2 4970   1.515   6.825  11.191  0.2479  0.0909 -2.0735
 1177SOL     OW 4971   7.432   7.955  10.300 -0.1523 -0.3542 -0.6476
 1177SOL    HW1 4972   7.346   7.972  10.263 -1.6732 -0.7353  2.4277
 1177SOL    HW2 4973   7.423   7.871  10.345  1.9060 -0.5065 -0.4127
 1178SOL     OW 4974   0.425   7.870  11.255 -0.3716 -0.0831  0.0118
 1178SOL    HW1 4975   0.343   7.918  11.244 -0.3412  0.1051  0.5616
 1178SOL    HW2 4976   0.421   7.834  11.344  0.2725  0.1899  0.1616
 1179SOL     OW 4977   0.581   0.909   9.386  0.1994  0.1835 -0.1864
 1179SOL    HW1 4978   0.580   0.840   9.452 -0.3893 -0.5523 -0.9537
 1179SOL    HW2 4979   0.577   0.990   9.437  0.4483 -0.3463  0.7045
 1180SOL     OW 4980   1.816   1.169  10.680  0.1218  0.2429  0.0090
 1180SOL    HW1 4981   1.767   1.190  10.601 -0.1590  0.7052  0.2984
 1180SOL    HW2 4982   1.892   1.120  10.649 -0.3414 -0.1778 -0.4794
 1181SOL     OW 4983   0.856   1.032   9.600 -0.2061 -0.8481 -0.2679
 1181SOL    HW1 4984   0.948   1.035   9.624 -0.0399 -0.4836 -0.9203
 1181SOL    HW2 4985   0.845   0.947   9.557 -0.2354 -0.9999  0.0373
 1182SOL     OW 4986   1.939   0.062  10.965 -0.2614 -0.2664  0.2408
 1182SOL    HW1 4987   1.991   0.005  10.908 -0.0953 -1.3749  1.4440
 1182SOL    HW2 4988   1.999   0.088  11.035 -0.1623  1.9425 -0.5795
 1183SOL     OW 4989   7.156   0.941   9.086  0.4644 -0.6997  0.0130
 1183SOL    HW1 4990   7.222   0.914   9.151  0.1223 -0.9159  0.2738
 1183SOL    HW2 4991   7.078   0.960   9.138  0.3492 -0.3501 -0.2891
 1184SOL     OW 4992   7.124   7.031   9.618 -0.4557  0.0712  0.3623
 1184SOL    HW1 4993   7.073   6.952   9.638 -0.3744  0.2839  1.4329
 1184SOL    HW2 4994   7.206   6.998   9.581 -0.3624 -0.3584  0.9392
 1185SOL     OW 4995   0.676   6.747   8.904 -0.5059 -0.1413 -0.0672
 1185SOL    HW1 4996   0.686   6.671   8.847 -0.8676  0.6740 -1.2688
 1185SOL    HW2 4997   0.622   6.716   8.977 -1.5870 -0.7632 -1.1002
 1186SOL     OW 4998   1.110   0.727  10.638  0.0896  0.4186 -0.1921
 1186SOL    HW1 4999   1.070   0.749  10.722  0.9295  2.0439 -0.1683
 1186SOL    HW2 5000   1.062   0.781  10.575  0.9314  0.9287 -0.4166
 1187SOL     OW 5001   0.534   2.296  11.012 -0.0163  0.1603  0.1566
 1187SOL    HW1 5002   0.486   2.376  10.991 -0.0015 -0.0048 -0.5297
 1187SOL    HW2 5003   0.571   2.313  11.098 -0.0431  0.8798  0.0364
 1188SOL     OW 5004   2.521   3.204  10.483 -0.0701 -0.2998 -0.2264
 1188SOL    HW1 5005   2.432   3.172  10.469 -0.5726 -1.2448  3.9120
 1188SOL    HW2 5006   2.510   3.297  10.506 -0.3519 -0.9160  2.4047
 1189SOL     OW 5007   7.051   1.614  10.806  0.2185  0.7485 -0.0287
 1189SOL    HW1 5008   6.993   1.690  10.808 -2.2222 -0.8684 -1.9709
 1189SOL    HW2 5009   7.030   1.566  10.887 -0.0007  0.9619  0.0403
 1190SOL     OW 5010   1.290   2.873   9.462 -0.1864 -0.2513  0.4521
 1190SOL    HW1 5011   1.293   2.823   9.381  0.1938 -1.0420  0.9330
 1190SOL    HW2 5012   1.322   2.811   9.529  0.2290  0.6160  1.0757
 1191SOL     OW 5013   0.359   1.451  10.506 -0.3384 -0.0678  0.1934
 1191SOL    HW1 5014   0.421   1.409  10.566 -1.1066 -0.9588  0.3802
 1191SOL    HW2 5015   0.352   1.541  10.539  0.5838 -0.0485  0.3724
 1192SOL     OW 5016   1.718   6.434  10.418  0.2604 -0.4094 -0.0518
 1192SOL    HW1 5017   1.703   6.362  10.480 -2.9625 -0.0254 -0.2471
 1192SOL    HW2 5018   1.708   6.394  10.332  1.0285 -0.1808 -0.2608
 1193SOL     OW 5019   1.117   7.113  11.688  0.2837 -0.4583  0.3948
 1193SOL    HW1 5020   1.161   7.029  11.683  0.1248 -0.4932 -0.4726
 1193SOL    HW2 5021   1.026   7.095  11.662  0.5741  0.2155 -1.1597
 1194SOL     OW 5022   1.988   0.598  12.141  0.0940  0.1612  0.7744
 1194SOL    HW1 5023   1.913   0.656  12.152  0.1000 -0.0502  2.1249
 1194SOL    HW2 5024   1.992   0.580  12.047  0.0606  2.2762  0.3303
 1195SOL     OW 5025   1.373   6.418  10.034  0.0597  0.1438 -0.1621
 1195SOL    HW1 5026   1.358   6.460   9.950  2.5234  3.5132  0.8326
 1195SOL    HW2 5027   1.304   6.451  10.091 -1.2575 -1.6744 -0.6132
 1196SOL     OW 5028   1.248   1.128  11.020 -0.3474 -0.0535  0.8970
 1196SOL    HW1 5029   1.239   1.066  11.092 -1.1447 -2.2619 -0.9678
 1196SOL    HW2 5030   1.180   1.193  11.035 -0.3093 -0.3084  2.2650
 1197SOL     OW 5031   0.705   0.071  10.590 -0.2936 -0.4883  0.6677
 1197SOL    HW1 5032   0.660   0.054  10.673  0.2902 -0.6315  0.9608
 1197SOL    HW2 5033   0.747   0.156  10.603  1.1355 -1.2418  1.1150
 1198SOL     OW 5034   2.533   1.971   7.002 -0.2369 -0.2281 -0.2302
 1198SOL    HW1 5035   2.593   1.971   6.928 -0.8514 -0.2147 -0.7310
 1198SOL    HW2 5036   2.561   2.046   7.055  0.4063 -0.4305 -0.2770
 1199SOL     OW 5037   7.938   2.913   8.406  0.4023  0.1148  0.0300
 1199SOL    HW1 5038   7.954   2.993   8.457  1.2433  0.0644 -0.1380
 1199SOL    HW2 5039   8.020   2.864   8.413 -0.3985 -1.1709  0.8895
 1200SOL     OW 5040   2.279   0.218   9.655 -0.1653 -0.0495  0.0470
 1200SOL    HW1 5041   2.231   0.239   9.575 -1.2521 -1.2252  0.3513
 1200SOL    HW2 5042   2.247   0.131   9.680  0.8660 -0.1216  1.2260
 1201SOL     OW 5043   2.199   7.122  10.599 -0.6709 -1.0217  0.0998
 1201SOL    HW1 5044   2.254   7.084  10.530 -0.0897 -1.0268  0.5560
 1201SOL    HW2 5045   2.234   7.086  10.680 -1.0297 -0.6259  0.4351
 1202SOL     OW 5046   1.533   0.090   9.147 -0.3280  0.2133 -0.7850
 1202SOL    HW1 5047   1.526   0.095   9.243  1.8756 -0.2056 -0.5395
 1202SOL    HW2 5048   1.529  -0.003   9.128 -1.6998  0.3373 -1.2453
 1203SOL     OW 5049   2.577   1.345   9.361  0.0399 -0.0630 -0.1352
 1203SOL    HW1 5050   2.653   1.317   9.412 -1.3333 -0.9998  1.4765
 1203SOL    HW2 5051   2.585   1.441   9.358  2.0219 -0.2065 -1.2634
 1204SOL     OW 5052   7.769   1.915  10.801 -0.5019 -0.2124  0.4446
 1204SOL    HW1 5053   7.737   1.907  10.711  2.3993  0.6652 -0.7983
 1204SOL    HW2 5054   7.724   1.992  10.835 -0.6367  0.2720 -0.7620
 1205SOL     OW 5055   2.239   1.487  12.126  0.0137  0.3141 -0.6933
 1205SOL    HW1 5056   2.160   1.461  12.174  0.1923  0.3318 -0.3820
 1205SOL    HW2 5057   2.279   1.405  12.099  0.4991  0.2505  0.1603
 1206SOL     OW 5058   7.960   2.566  11.375  0.5092  0.2613 -0.3430
 1206SOL    HW1 5059   7.960   2.661  11.387 -0.4609  0.3335 -0.8374
 1206SOL    HW2 5060   7.973   2.554  11.281  3.0497 -0.1754 -0.0018
 1207SOL     OW 5061   0.552   7.158   8.304  0.5843 -0.1313  0.5384
 1207SOL    HW1 5062   0.504   7.213   8.241 -0.0590  0.0932  1.2092
 1207SOL    HW2 5063   0.637   7.143   8.262 -0.2363 -0.9596 -0.9069
 1208SOL     OW 5064   1.358   7.696  10.793  0.7122  0.1598 -0.2321
 1208SOL    HW1 5065   1.404   7.775  10.820  0.2865  0.9722 -1.7996
 1208SOL    HW2 5066   1.270   7.706  10.828  0.7414  0.2205 -0.1758
 1209SOL     OW 5067   0.431   2.337   0.164  0.4693 -0.1870  0.8178
 1209SOL    HW1 5068   0.447   2.314   0.072  0.3616 -1.7563  1.1691
 1209SOL    HW2 5069   0.342   2.308   0.181  0.5429 -0.0482  1.4671
 1210SOL     OW 5070   1.084   7.613   9.462 -0.3028 -0.0741 -0.1118
 1210SOL    HW1 5071   1.056   7.595   9.552  0.2067 -1.3449 -0.1773
 1210SOL    HW2 5072   1.020   7.677   9.430 -0.0020  1.0476  1.4001
 1211SOL     OW 5073   0.605   1.483  11.080  0.4182 -0.3001  0.9351
 1211SOL    HW1 5074   0.599   1.549  11.012  0.2172 -0.1669  1.0813
 1211SOL    HW2 5075   0.528   1.497  11.135  1.5734  0.8776  2.3539
 1212SOL     OW 5076   1.337   0.385  10.785 -0.3928 -0.0584 -0.0940
 1212SOL    HW1 5077   1.334   0.444  10.860  0.0999 -0.4971  0.2808
 1212SOL    HW2 5078   1.271   0.419  10.725 -0.9431  0.1784  0.6289
 1213SOL     OW 5079   1.021   1.287   9.784  0.6045  0.0872  0.1938
 1213SOL    HW1 5080   1.075   1.364   9.800 -0.6953  1.1074 -0.0985
 1213SOL    HW2 5081   1.062   1.242   9.711  0.4724  1.4403 -0.7450
 1214SOL     OW 5082   0.155   0.980   9.794 -0.3942 -0.1538 -0.1178
 1214SOL    HW1 5083   0.077   1.031   9.819 -1.0878 -1.2849  0.0820
 1214SOL    HW2 5084   0.134   0.947   9.706  1.5957  2.9444 -1.9659
 1215SOL     OW 5085   0.126   2.854   9.373  0.0532  0.1602  0.6060
 1215SOL    HW1 5086   0.062   2.813   9.316  0.7556  0.0473 -0.1129
 1215SOL    HW2 5087   0.145   2.938   9.332 -0.5821  0.7607  1.5031
 1216SOL     OW 5088   1.214   2.711   8.775 -0.0438 -0.1888 -0.1121
 1216SOL    HW1 5089   1.239   2.801   8.797 -0.5659 -0.1364  0.2742
 1216SOL    HW2 5090   1.244   2.660   8.850 -0.2571 -0.2538 -0.0707
 1217SOL     OW 5091   0.450   3.082  10.590 -0.2949 -0.1445  0.3833
 1217SOL    HW1 5092   0.527   3.106  10.641 -0.3608 -0.5274  0.6692
 1217SOL    HW2 5093   0.391   3.157  10.599  1.2744  1.6432 -2.4800
 1218SOL     OW 5094   2.536   0.163   9.596  0.0534  0.3770  0.0398
 1218SOL    HW1 5095   2.443   0.188   9.592  0.1371  0.5761 -2.6491
 1218SOL    HW2 5096   2.544   0.090   9.534  1.1293 -1.9890  2.7209
 1219SOL     OW 5097   6.489   2.067   9.657  0.0783 -0.0838 -0.3936
 1219SOL    HW1 5098   6.538   1.986   9.639 -0.0884 -0.9597  2.6454
 1219SOL    HW2 5099   6.550   2.137   9.634  1.5539 -1.1280  0.1783
 1220SOL     OW 5100   1.544   0.241  10.566  0.0342 -0.3403 -0.0915
 1220SOL    HW1 5101   1.568   0.293  10.490  0.8515  0.8512  0.9366
 1220SOL    HW2 5102   1.454   0.213  10.549  0.0201  0.3440 -1.2397
 1221SOL     OW 5103   1.655   0.388  10.366  0.2483 -0.2222  0.5401
 1221SOL    HW1 5104   1.599   0.369  10.291  0.7479  0.9670 -0.1756
 1221SOL    HW2 5105   1.652   0.483  10.375  3.7127  0.1951 -0.8633
 1222SOL     OW 5106   7.698   1.328  10.822 -0.4343 -0.3709  0.0755
 1222SOL    HW1 5107   7.620   1.275  10.838  0.3999 -1.8638 -0.5909
 1222SOL    HW2 5108   7.665   1.408  10.780 -1.5685 -1.1468 -0.5472
 1223SOL     OW 5109   0.735   1.140   0.578  0.5189  0.1125 -0.4747
 1223SOL    HW1 5110   0.811   1.149   0.520  0.9704  0.5900  0.1783
 1223SOL    HW2 5111   0.766   1.172   0.663 -0.0047 -0.9623  0.1386
 1224SOL     OW 5112   0.349   1.680  10.618 -0.1246  0.1510 -0.0485
 1224SOL    HW1 5113   0.300   1.676  10.700  0.5648 -0.9638  0.3368
 1224SOL    HW2 5114   0.421   1.740  10.636 -0.7732  1.0308 -0.3096
 1225SOL     OW 5115   2.368   1.085  10.849  0.4056 -0.2007 -0.1087
 1225SOL    HW1 5116   2.308   1.012  10.862  0.6192 -0.2134  0.9144
 1225SOL    HW2 5117   2.444   1.046  10.805  1.2999 -1.0087  2.0363
 1226SOL     OW 5118   1.677   2.105  11.700 -0.0293 -0.2548  0.3843
 1226SOL    HW1 5119   1.635   2.088  11.784 -0.2139 -1.2223  0.1129
 1226SOL    HW2 5120   1.657   2.028  11.647 -0.0562  0.4099 -0.6062
 1227SOL     OW 5121   7.785   6.472  10.184 -0.3495 -0.4120 -0.8523
 1227SOL    HW1 5122   7.763   6.379  10.190  1.0292 -0.7354 -0.4923
 1227SOL    HW2 5123   7.744   6.502  10.103 -2.4387 -0.8520 -0.0162
 1228SOL     OW 5124   0.872   1.096   0.188 -1.3318  0.1618  0.0530
 1228SOL    HW1 5125   0.826   1.162   0.240  0.0620  1.5720 -0.4046
 1228SOL    HW2 5126   0.964   1.112   0.206 -0.9398 -1.6568 -0.1397
 1229SOL     OW 5127   0.679   0.310  10.293 -0.1949  0.1039  0.3764
 1229SOL    HW1 5128   0.662   0.402  10.309  1.7518  0.2775  1.8828
 1229SOL    HW2 5129   0.609   0.264  10.339 -0.3369  0.8066  0.8716
 1230SOL     OW 5130   0.229   0.693  10.516  0.6874  0.8982  0.2731
 1230SOL    HW1 5131   0.158   0.671  10.576 -0.7128  1.3014 -1.1620
 1230SOL    HW2 5132   0.186   0.742  10.445  2.7277  3.0026  0.3750
 1231SOL     OW 5133   0.465   0.574  11.286  0.8960  0.1712 -0.0997
 1231SOL    HW1 5134   0.479   0.661  11.323 -0.9624  0.8138 -0.7759
 1231SOL    HW2 5135   0.388   0.584  11.229  0.2866 -2.0324  0.2321
 1232SOL     OW 5136   1.417   0.848  10.684 -0.3985  0.1155 -0.1136
 1232SOL    HW1 5137   1.335   0.803  10.668 -0.2684 -0.5502  0.9735
 1232SOL    HW2 5138   1.392   0.939  10.703 -0.7383  0.2939 -1.3498
 1233SOL     OW 5139   0.322   7.593  10.056  0.5990  0.1694  0.2098
 1233SOL    HW1 5140   0.387   7.547  10.004 -0.0595  1.3240 -1.7647
 1233SOL    HW2 5141   0.240   7.546  10.040  0.6607 -0.4532  1.5762
 1234SOL     OW 5142   2.242   1.979   9.830  0.2166 -0.7623  0.1593
 1234SOL    HW1 5143   2.307   1.909   9.824  1.9962  0.6056  2.1369
 1234SOL    HW2 5144   2.218   1.983   9.922  0.8398  1.7527  0.2878
 1235SOL     OW 5145   7.667   3.208  10.023 -0.1802 -0.3278 -0.5058
 1235SOL    HW1 5146   7.654   3.302  10.013  0.4870 -0.3375 -1.6725
 1235SOL    HW2 5147   7.727   3.200  10.098  0.4896  0.2443 -0.9664
 1236SOL     OW 5148   0.818   0.852  11.075  0.4614 -0.2947  0.0156
 1236SOL    HW1 5149   0.831   0.823  10.985  1.2062  0.1049 -0.0083
 1236SOL    HW2 5150   0.795   0.772  11.123  0.9282 -0.6572 -0.3549
 1237SOL     OW 5151   1.451   0.686   9.005 -0.2123 -0.5522 -0.4350
 1237SOL    HW1 5152   1.443   0.595   8.978  0.4675 -0.7097 -0.1280
 1237SOL    HW2 5153   1.542   0.709   8.986 -0.0530 -0.2970  0.5779
 1238SOL     OW 5154   1.454   7.780   8.165  0.1619 -0.1519  0.0781
 1238SOL    HW1 5155   1.401   7.787   8.244 -0.8199 -1.9143 -0.3744
 1238SOL    HW2 5156   1.450   7.867   8.125 -2.8281 -0.3211 -0.1783
 1239SOL     OW 5157   0.073   2.813   9.063 -0.3634  0.0723 -0.3786
 1239SOL    HW1 5158   0.055   2.720   9.049 -0.6205  0.1888 -0.8368
 1239SOL    HW2 5159  -0.008   2.857   9.037 -0.5777  0.3615  0.7261
 1240SOL     OW 5160   0.305   7.913  10.271 -0.0031 -0.1645 -0.0147
 1240SOL    HW1 5161   0.231   7.901  10.212 -0.7428  2.8027  0.1524
 1240SOL    HW2 5162   0.381   7.925  10.214  0.3060 -2.5579 -0.1936
 1241SOL     OW 5163   0.154   0.008  10.768  0.5905  0.2533  0.1176
 1241SOL    HW1 5164   0.173  -0.049  10.842 -0.4070  0.6884  0.7235
 1241SOL    HW2 5165   0.201  -0.032  10.694  0.8435 -0.6920  0.7760
 1242SOL     OW 5166   2.314   0.867   9.470 -0.4088  0.3717 -0.4230
 1242SOL    HW1 5167   2.399   0.870   9.426 -1.3062 -1.5368 -2.4888
 1242SOL    HW2 5168   2.334   0.838   9.559  1.4031  3.6449  0.3798
 1243SOL     OW 5169   0.150   0.710  11.479 -0.1736 -0.5294 -0.1530
 1243SOL    HW1 5170   0.156   0.792  11.527 -0.9119 -0.9962  0.7833
 1243SOL    HW2 5171   0.216   0.654  11.519 -0.1049 -0.5916 -0.3560
 1244SOL     OW 5172   1.248   1.952  10.847  0.6938 -0.7330 -0.2744
 1244SOL    HW1 5173   1.303   2.029  10.830  0.1836 -0.7757 -2.4000
 1244SOL    HW2 5174   1.162   1.975  10.812  0.3304 -1.9808 -0.2506
 1245SOL     OW 5175   7.266   1.151  10.782 -0.4920  0.1346  0.3369
 1245SOL    HW1 5176   7.175   1.179  10.789 -0.8159 -0.8938  0.4919
 1245SOL    HW2 5177   7.263   1.056  10.797  0.6427  0.1360  0.6778
 1246SOL     OW 5178   7.528   2.048  10.335  0.3924  0.6944  1.0439
 1246SOL    HW1 5179   7.461   2.103  10.375  0.0737  0.7680  0.4185
 1246SOL    HW2 5180   7.508   2.049  10.242 -0.9044 -2.1180  1.1731
 1247SOL     OW 5181   0.154   1.663  10.801 -0.8745 -0.3544 -0.4579
 1247SOL    HW1 5182   0.080   1.708  10.843 -0.9504 -1.4168  0.5839
 1247SOL    HW2 5183   0.113   1.597  10.746 -0.7138 -0.8371 -0.0042
 1248SOL     OW 5184   1.122   7.975   0.832 -0.1562 -0.0500 -0.2463
 1248SOL    HW1 5185   1.206   8.019   0.848  0.0506 -0.6580  0.3791
 1248SOL    HW2 5186   1.078   8.031   0.769  0.0868  1.0929  0.5629
 1249SOL     OW 5187   2.943   0.171  12.194 -0.4671 -0.4435  0.1365
 1249SOL    HW1 5188   2.858   0.168  12.150 -0.8248  1.6669  0.5738
 1249SOL    HW2 5189   3.002   0.124  12.135 -1.0373  1.8457 -2.4921
 1250SOL     OW 5190   3.186   0.190  10.420 -0.0213  0.2989 -0.4769
 1250SOL    HW1 5191   3.128   0.134  10.369  0.1337  0.8757 -1.3123
 1250SOL    HW2 5192   3.259   0.210  10.360  0.7685  0.0283  0.3664
 1251SOL     OW 5193   0.247   0.658   9.640  0.9801 -0.0338 -0.8157
 1251SOL    HW1 5194   0.156   0.681   9.655  0.3895 -1.9000 -1.2756
 1251SOL    HW2 5195   0.266   0.690   9.551 -0.1769 -2.1516 -1.9094
 1252SOL     OW 5196   1.390   7.304   9.559 -0.3845  0.4779  0.3769
 1252SOL    HW1 5197   1.297   7.284   9.572 -1.2518  2.6024 -1.8407
 1252SOL    HW2 5198   1.397   7.328   9.467  2.0250  2.1273  0.9066
 1253SOL     OW 5199   0.458   2.578  10.854 -0.0447 -0.2694 -0.1172
 1253SOL    HW1 5200   0.387   2.627  10.811 -1.0772 -1.2450  0.4201
 1253SOL    HW2 5201   0.498   2.641  10.914  0.4659  0.6922 -1.4221
 1254SOL     OW 5202   1.627   7.607  11.393 -0.4006  0.0729  0.2030
 1254SOL    HW1 5203   1.702   7.662  11.370 -0.3407  0.1373  0.5392
 1254SOL    HW2 5204   1.647   7.521  11.355 -0.8896  0.5012 -1.0591
 1255SOL     OW 5205   0.608   3.242  11.181 -0.2013  0.6843  0.2495
 1255SOL    HW1 5206   0.631   3.273  11.093 -3.4424  1.3945 -0.4656
 1255SOL    HW2 5207   0.529   3.190  11.169 -1.8216  2.2957  2.8947
 1256SOL     OW 5208   0.668   7.475  10.417 -0.0853  0.4651 -0.1505
 1256SOL    HW1 5209   0.704   7.499  10.332 -0.0350 -1.8988 -0.8717
 1256SOL    HW2 5210   0.738   7.428  10.460 -1.0238 -0.8743 -0.0164
 1257SOL     OW 5211   0.526   1.436  10.746 -0.1315  0.3388 -0.1645
 1257SOL    HW1 5212   0.555   1.517  10.786  0.7216  0.2844 -0.6684
 1257SOL    HW2 5213   0.470   1.396  10.813 -0.4009  1.2345  0.1616
 1258SOL     OW 5214   2.451   7.820   0.348 -0.3972  0.9211  0.2250
 1258SOL    HW1 5215   2.464   7.823   0.442 -0.0208 -0.6494  0.2647
 1258SOL    HW2 5216   2.367   7.776   0.336  0.1436 -0.0729 -0.1423
 1259SOL     OW 5217   2.450   0.400   8.581  1.1278 -0.2402  0.1089
 1259SOL    HW1 5218   2.501   0.330   8.621  1.1029 -0.8232 -0.8542
 1259SOL    HW2 5219   2.477   0.401   8.490  2.6373  2.3852  0.5014
 1260SOL     OW 5220   0.745   2.216  11.774  0.5267 -0.1344 -0.0449
 1260SOL    HW1 5221   0.726   2.275  11.847 -0.1923 -0.3172 -0.0806
 1260SOL    HW2 5222   0.791   2.143  11.814  2.7176  1.0702 -0.1967
 1261SOL     OW 5223   1.555   2.154   9.917 -0.3331 -0.2935  0.4136
 1261SOL    HW1 5224   1.475   2.198   9.888 -0.8060 -0.6430  1.1706
 1261SOL    HW2 5225   1.589   2.111   9.839 -0.1307  0.9919 -0.2372
 1262SOL     OW 5226   0.800   0.897  11.665 -0.4168  0.2601 -0.4245
 1262SOL    HW1 5227   0.817   0.931  11.753 -1.9185  0.1341 -0.0566
 1262SOL    HW2 5228   0.743   0.962  11.625  2.3673  1.7132 -2.3621
 1263SOL     OW 5229   1.852   0.330  11.625 -0.0180  0.4894 -0.1169
 1263SOL    HW1 5230   1.861   0.334  11.529 -0.0687 -0.4364 -0.1745
 1263SOL    HW2 5231   1.763   0.300  11.639 -0.6964  2.5667  0.2890
 1264SOL     OW 5232   1.325   0.133  10.270 -0.7650 -0.0186 -0.2564
 1264SOL    HW1 5233   1.245   0.082  10.255 -0.6113 -0.3971  0.1872
 1264SOL    HW2 5234   1.297   0.205  10.327 -0.4257 -1.2514  1.5395
 1265SOL     OW 5235   0.598   3.570   9.029 -0.0124 -0.1957  0.1920
 1265SOL    HW1 5236   0.656   3.591   8.955  2.0125 -1.8127  1.2042
 1265SOL    HW2 5237   0.536   3.506   8.994  1.1548 -1.2288 -0.0654
 1266SOL     OW 5238   7.329   0.594  10.191 -0.0769 -0.2421  0.2435
 1266SOL    HW1 5239   7.331   0.619  10.283 -0.4824 -0.2399  0.2532
 1266SOL    HW2 5240   7.348   0.500  10.191  0.7980 -0.0747  0.2565
 1267SOL     OW 5241   0.408   0.316  10.316  0.7379  0.0498  0.0743
 1267SOL    HW1 5242   0.447   0.355  10.237 -1.8591  1.3269 -0.6916
 1267SOL    HW2 5243   0.428   0.378  10.386  0.2085  0.6528 -0.2953
 1268SOL     OW 5244   0.894   3.062  11.165 -0.2861  0.6773 -0.3837
 1268SOL    HW1 5245   0.969   3.094  11.216  0.8721  0.4172 -1.8380
 1268SOL    HW2 5246   0.933   3.030  11.084 -2.0481  0.9754 -1.3899
 1269SOL     OW 5247   7.170   2.711   8.318  0.0235  0.1015  0.8176
 1269SOL    HW1 5248   7.121   2.649   8.265  1.4846 -1.2347  0.9481
 1269SOL    HW2 5249   7.239   2.658   8.359  1.7627  1.9187  0.4036
 1270SOL     OW 5250   1.705   2.975  10.591 -0.0083  0.0556 -0.0954
 1270SOL    HW1 5251   1.738   2.891  10.622 -1.5897 -0.8630 -0.7751
 1270SOL    HW2 5252   1.776   3.012  10.538  0.8553 -0.6406  0.5630
 1271SOL     OW 5253   2.490   7.111  11.556  0.0612  0.0845 -0.0038
 1271SOL    HW1 5254   2.511   7.124  11.649  1.8512  1.3507 -0.5383
 1271SOL    HW2 5255   2.457   7.196  11.527 -0.5794 -0.3287 -0.5242
 1272SOL     OW 5256   0.547   7.715  10.580 -0.2908 -0.3895 -0.2940
 1272SOL    HW1 5257   0.642   7.727  10.581  0.1977 -3.1108  2.5454
 1272SOL    HW2 5258   0.529   7.669  10.498  0.5369  1.4966 -1.5978
 1273SOL     OW 5259   1.807   6.972   8.334  0.5178 -0.5896  0.1356
 1273SOL    HW1 5260   1.745   6.902   8.314 -0.9763  0.1010  1.9812
 1273SOL    HW2 5261   1.758   7.030   8.393  1.6344  2.0742 -1.3871
 1274SOL     OW 5262   1.371   2.908  11.710 -0.0735  0.1081  0.1010
 1274SOL    HW1 5263   1.465   2.906  11.725 -0.1031  1.8806  0.8235
 1274SOL    HW2 5264   1.347   2.818  11.688  1.6393 -0.5310  0.7608
 1275SOL     OW 5265   1.159   2.803  11.426  0.0503 -0.4019 -0.5254
 1275SOL    HW1 5266   1.221   2.871  11.399  1.1481 -1.5093 -0.9101
 1275SOL    HW2 5267   1.214   2.737  11.470 -1.1635 -0.4355  1.0157
 1276SOL     OW 5268   2.328   2.147   9.147 -0.0421  0.5110 -0.2409
 1276SOL    HW1 5269   2.361   2.178   9.062  0.4119 -2.1012 -1.1339
 1276SOL    HW2 5270   2.405   2.107   9.188 -0.9576 -1.2319 -0.1361
 1277SOL     OW 5271   0.421   2.027  11.156  0.0182 -0.0975 -0.7841
 1277SOL    HW1 5272   0.453   2.111  11.186  0.7948 -0.5099 -0.4407
 1277SOL    HW2 5273   0.384   2.045  11.069 -0.2885  0.6819 -0.5017
 1278SOL     OW 5274   0.870   3.113   9.417 -0.1570  0.2641 -0.6699
 1278SOL    HW1 5275   0.898   3.041   9.359  1.1883  0.6943 -0.6024
 1278SOL    HW2 5276   0.930   3.107   9.492 -0.6966  0.8417 -0.1848
 1279SOL     OW 5277   1.031   2.257   8.953  0.1910 -0.3802 -0.8540
 1279SOL    HW1 5278   0.999   2.348   8.947 -1.1675 -0.7465  0.1632
 1279SOL    HW2 5279   0.982   2.210   8.886  1.3540 -0.2554 -1.8021
 1280SOL     OW 5280   0.222   7.172   8.973 -0.3819  0.0743 -0.3079
 1280SOL    HW1 5281   0.166   7.224   9.030 -0.6540  0.7467 -1.1548
 1280SOL    HW2 5282   0.164   7.139   8.905 -0.1640 -1.1694  0.0852
 1281SOL     OW 5283   7.996   3.878  11.085 -0.4028  0.3946  0.5228
 1281SOL    HW1 5284   7.981   3.892  10.991 -1.3379 -2.4348  0.1443
 1281SOL    HW2 5285   7.913   3.903  11.126 -0.5472  0.1534  0.3839
 1282SOL     OW 5286   2.777   1.273  11.337  0.5249 -0.3031 -0.4499
 1282SOL    HW1 5287   2.765   1.327  11.415  0.9073  0.8093 -1.1340
 1282SOL    HW2 5288   2.703   1.212  11.339  0.3220 -0.0422  0.5796
 1283SOL     OW 5289   0.103   1.877  11.201  0.0537 -0.5362 -0.0033
 1283SOL    HW1 5290   0.024   1.923  11.173 -1.3535 -3.2578 -0.8284
 1283SOL    HW2 5291   0.127   1.920  11.283 -1.3846  1.3219 -0.4657
 1284SOL     OW 5292   7.902   2.406  10.810 -0.5075  0.2849  0.0986
 1284SOL    HW1 5293   7.887   2.495  10.777  2.5601  1.0326  0.3349
 1284SOL    HW2 5294   7.849   2.350  10.753  0.7798  1.9244 -3.0040
 1285SOL     OW 5295   7.966   7.984  10.488 -0.2777 -0.1951  0.1524
 1285SOL    HW1 5296   8.002   7.896  10.473 -1.4482 -0.3538 -2.1310
 1285SOL    HW2 5297   8.035   8.043  10.457  0.0322 -0.3293  0.5682
 1286SOL     OW 5298   0.051   0.304   8.037 -0.6003 -0.8961 -0.2467
 1286SOL    HW1 5299   0.098   0.248   7.976 -0.2131  0.5706 -1.3707
 1286SOL    HW2 5300   0.104   0.384   8.042 -2.3524  0.3571 -0.6674
 1287SOL     OW 5301   1.359   2.463   9.523 -0.8086 -0.0880 -0.8371
 1287SOL    HW1 5302   1.347   2.529   9.592 -0.2806  1.7199 -2.3739
 1287SOL    HW2 5303   1.454   2.464   9.507 -0.7276 -1.6235 -0.5477
 1288SOL     OW 5304   0.348   0.253  12.010  0.5711  0.4069  0.2164
 1288SOL    HW1 5305   0.374   0.255  11.918  1.5034 -0.7397  0.4231
 1288SOL    HW2 5306   0.371   0.339  12.044  0.8898  0.5948 -0.4587
 1289SOL     OW 5307   2.123   3.951   7.378 -0.1593 -0.3598  0.1565
 1289SOL    HW1 5308   2.100   4.014   7.310 -0.1237 -1.4736 -0.9320
 1289SOL    HW2 5309   2.217   3.937   7.366  0.0870  0.3042  1.2122
 1290SOL     OW 5310   7.591   0.626   9.182 -0.0929  0.0401 -1.0480
 1290SOL    HW1 5311   7.526   0.578   9.132 -0.1546  1.0969 -2.0303
 1290SOL    HW2 5312   7.651   0.661   9.116  0.8931 -0.0646 -0.2381
 1291SOL     OW 5313   0.418   3.478  11.005  0.2531 -0.0157 -0.2102
 1291SOL    HW1 5314   0.399   3.567  10.974 -2.0656  0.3477  1.9021
 1291SOL    HW2 5315   0.440   3.489  11.097 -1.1419 -1.6771  0.3826
 1292SOL     OW 5316   1.556   0.846  12.016 -0.2722  0.1586 -0.6134
 1292SOL    HW1 5317   1.573   0.758  11.984 -0.6259 -0.7200  1.4795
 1292SOL    HW2 5318   1.465   0.863  11.991 -0.4552 -0.3905 -0.3311
 1293SOL     OW 5319   1.023   1.283  12.415  0.3952  0.0805 -0.1301
 1293SOL    HW1 5320   1.066   1.228  12.480 -1.1332  0.0301  0.8894
 1293SOL    HW2 5321   1.024   1.231  12.335  0.3605 -0.7900  0.4274
 1294SOL     OW 5322   0.122   2.402  11.509  0.1084 -0.0418 -0.0392
 1294SOL    HW1 5323   0.061   2.459  11.461 -0.1901  0.0113  0.3997
 1294SOL    HW2 5324   0.071   2.324  11.529  0.1173  0.0844  0.5000
 1295SOL     OW 5325   2.777   2.133   9.601 -0.0944  0.4181  0.5665
 1295SOL    HW1 5326   2.798   2.112   9.692 -0.8887  0.1019  0.6828
 1295SOL    HW2 5327   2.682   2.140   9.600 -0.0930  0.3529 -0.2590
 1296SOL     OW 5328   0.768   0.642  11.320 -0.0913  0.7278 -0.0036
 1296SOL    HW1 5329   0.810   0.597  11.394  2.1494  1.6989 -0.6160
 1296SOL    HW2 5330   0.744   0.571  11.260  0.3470  0.1141  0.5247
 1297SOL     OW 5331   1.043   0.758  11.936 -0.2885 -0.3018 -0.0534
 1297SOL    HW1 5332   1.064   0.827  11.999 -2.6494 -1.5128  2.2480
 1297SOL    HW2 5333   0.977   0.797  11.878 -0.0214  0.0345 -0.1299
 1298SOL     OW 5334   0.057   0.182   9.864 -1.0736 -0.0282  0.2116
 1298SOL    HW1 5335   0.127   0.215   9.921  0.4403 -1.5405 -0.6804
 1298SOL    HW2 5336   0.007   0.122   9.919  1.0592 -2.3649 -0.2045
 1299SOL     OW 5337   3.568   0.878   8.729  0.4122  0.0639  0.0268
 1299SOL    HW1 5338   3.481   0.914   8.747  0.9452  1.9376 -0.8863
 1299SOL    HW2 5339   3.608   0.941   8.669  2.3463 -0.8435  0.2936
 1300SOL     OW 5340   1.917   2.072   9.432 -0.0101  0.1058  0.4411
 1300SOL    HW1 5341   1.950   2.121   9.357 -0.2415 -1.3746 -0.6630
 1300SOL    HW2 5342   1.969   2.104   9.506  1.2015  0.5950 -0.5920
 1301SOL     OW 5343   6.153   1.975   7.549  0.0136  0.3408  0.7012
 1301SOL    HW1 5344   6.142   1.939   7.637  1.6096  2.4895  1.9112
 1301SOL    HW2 5345   6.246   1.997   7.544 -0.1949  1.0032 -1.2278
 1302SOL     OW 5346   1.669   2.198   9.341  0.4795  0.0579  0.2539
 1302SOL    HW1 5347   1.676   2.171   9.249  1.5969  0.3938  0.2272
 1302SOL    HW2 5348   1.733   2.144   9.387  0.6969  0.6531  0.6605
 1303SOL     OW 5349   0.661   0.531   7.658  0.0047 -0.1063  0.5743
 1303SOL    HW1 5350   0.654   0.566   7.747 -1.8771 -1.1460  0.8936
 1303SOL    HW2 5351   0.598   0.458   7.657 -1.9638  1.4517 -2.3437
 1304SOL     OW 5352   1.702   3.107   8.988 -0.4061  0.0114  0.3010
 1304SOL    HW1 5353   1.793   3.120   8.960 -1.0787  0.9548 -1.6224
 1304SOL    HW2 5354   1.695   3.013   9.003  1.0996  0.0337  1.3586
 1305SOL     OW 5355   0.975   1.308  11.478 -0.2358  0.1469  0.2479
 1305SOL    HW1 5356   1.015   1.287  11.394 -0.7463  0.5599 -0.0993
 1305SOL    HW2 5357   1.050   1.326  11.536  0.1421 -0.8721  0.0896
 1306SOL     OW 5358   0.401   0.716   0.209 -0.1122  0.0379 -0.0872
 1306SOL    HW1 5359   0.360   0.675   0.286 -3.0548 -0.8127 -1.9351
 1306SOL    HW2 5360   0.446   0.644   0.166 -0.9381 -0.1712 -0.6335
 1307SOL     OW 5361   0.317   1.554  10.979 -0.3276 -0.0913 -0.7454
 1307SOL    HW1 5362   0.353   1.623  11.035  0.2266  0.8449 -2.1947
 1307SOL    HW2 5363   0.254   1.599  10.923  0.1288 -0.7320 -1.7955
 1308SOL     OW 5364   4.953   2.198  10.373  0.1031  0.0273  0.9175
 1308SOL    HW1 5365   4.968   2.138  10.446 -0.6793 -1.5290 -0.1551
 1308SOL    HW2 5366   4.858   2.199  10.361  0.1609  0.8680  0.3984
 1309SOL     OW 5367   0.971   7.526  11.094  0.2875  0.0117 -0.0114
 1309SOL    HW1 5368   1.029   7.465  11.140  0.0617 -0.3184 -0.1545
 1309SOL    HW2 5369   1.001   7.525  11.004 -0.6069 -1.0139 -0.3301
 1310SOL     OW 5370   1.974   0.369  12.318  0.0185 -0.6681  0.1677
 1310SOL    HW1 5371   2.060   0.333  12.339 -0.3525 -0.5494  2.0584
 1310SOL    HW2 5372   1.992   0.444  12.262  1.0029 -1.6792 -0.9372
 1311SOL     OW 5373   0.307   3.590  10.258 -0.3052 -0.3774 -0.1041
 1311SOL    HW1 5374   0.397   3.590  10.292  0.3655 -1.0961 -1.7726
 1311SOL    HW2 5375   0.258   3.641  10.322  0.9824 -1.1790  1.6259
 1312SOL     OW 5376   1.006   2.122   8.288  0.2714 -0.2045  0.4860
 1312SOL    HW1 5377   1.063   2.084   8.355  0.2455 -0.1114  0.5616
 1312SOL    HW2 5378   0.999   2.215   8.312 -0.0747 -0.2555  0.5985
 1313SOL     OW 5379   1.403   1.236   9.070  0.4314  0.2013 -0.0471
 1313SOL    HW1 5380   1.382   1.278   8.987 -1.3451  1.8160  1.1454
 1313SOL    HW2 5381   1.332   1.173   9.084  0.5781  0.1214  0.3626
 1314SOL     OW 5382   1.330   6.853  12.217 -0.0629  0.8043 -0.4830
 1314SOL    HW1 5383   1.422   6.845  12.192  0.1265  3.3706 -0.9228
 1314SOL    HW2 5384   1.329   6.920  12.286 -1.6220  1.1008 -0.7389
 1315SOL     OW 5385   1.686   1.722  10.409  0.2909 -0.2416  0.0525
 1315SOL    HW1 5386   1.775   1.751  10.391  0.3424 -0.9693 -0.9658
 1315SOL    HW2 5387   1.631   1.797  10.385  0.5185 -0.4203 -1.0935
 1316SOL     OW 5388   6.803   1.224   9.826 -0.1246  0.6511  0.8738
 1316SOL    HW1 5389   6.759   1.164   9.887 -0.8951 -0.5056 -0.7531
 1316SOL    HW2 5390   6.894   1.224   9.855 -0.5895  0.7553  2.4801
 1317SOL     OW 5391   3.840   0.118  10.562  0.2012 -0.3495  0.0921
 1317SOL    HW1 5392   3.886   0.189  10.518 -0.1754 -0.9792 -1.3990
 1317SOL    HW2 5393   3.753   0.153  10.580 -0.1769 -0.5916 -1.1699
 1318SOL     OW 5394   0.972   0.519   8.794  0.2827  0.2538  0.2458
 1318SOL    HW1 5395   0.942   0.608   8.811  0.5913  0.1635  1.3286
 1318SOL    HW2 5396   0.896   0.464   8.813  0.5489  0.1739  1.1174
 1319SOL     OW 5397   0.924   1.253  10.066 -0.0640  0.5289  0.1407
 1319SOL    HW1 5398   0.863   1.202  10.119  0.2982  0.0937  0.1491
 1319SOL    HW2 5399   1.003   1.260  10.120  0.5172 -0.4185 -0.5573
 1320SOL     OW 5400   5.982   1.142   9.930 -0.2042 -0.2533 -0.2620
 1320SOL    HW1 5401   5.962   1.058   9.888 -1.0705 -0.5484  0.6953
 1320SOL    HW2 5402   5.901   1.165   9.977  0.3960  0.5617  0.3996
 1321SOL     OW 5403   0.796   2.635   7.726  0.2232 -0.2359 -0.4509
 1321SOL    HW1 5404   0.885   2.624   7.694  0.2287  0.3390 -0.6404
 1321SOL    HW2 5405   0.758   2.547   7.723  0.6087 -0.3883 -0.8959
 1322SOL     OW 5406   0.655   0.110   9.349  0.2996 -0.4630  0.0662
 1322SOL    HW1 5407   0.723   0.178   9.344 -0.6477  0.5651  0.6826
 1322SOL    HW2 5408   0.573   0.159   9.351 -0.3632 -1.5597  1.8302
 1323SOL     OW 5409   0.815   0.399  11.172  0.1002  1.3270  0.4740
 1323SOL    HW1 5410   0.758   0.423  11.099  0.9187 -1.6173 -1.2842
 1323SOL    HW2 5411   0.759   0.347  11.230  0.1117  1.4217  0.5705
 1324SOL     OW 5412   0.728   1.282   0.309  0.3391 -0.3881  0.1029
 1324SOL    HW1 5413   0.697   1.346   0.373 -1.1393 -0.2518 -0.7032
 1324SOL    HW2 5414   0.691   1.312   0.226  0.6930 -1.5780 -0.5068
 1325SOL     OW 5415   6.159   2.951  12.015 -0.2088  1.1159 -0.0996
 1325SOL    HW1 5416   6.216   2.878  11.991  0.3586  1.0934  1.2002
 1325SOL    HW2 5417   6.086   2.946  11.954 -0.0329 -0.3737 -0.2255
 1326SOL     OW 5418   0.915   1.764  12.430 -0.4855 -0.5689  0.0453
 1326SOL    HW1 5419   0.973   1.689  12.420 -1.4912 -1.4163  0.4396
 1326SOL    HW2 5420   0.827   1.727  12.433 -1.0699  0.6929 -0.6012
 1327SOL     OW 5421   2.243   0.273  10.054  0.1511  0.4311  0.5161
 1327SOL    HW1 5422   2.319   0.254  10.108  0.7652 -0.4896 -0.6350
 1327SOL    HW2 5423   2.246   0.368  10.040 -0.1177  0.7206  2.1852
 1328SOL     OW 5424   2.322   1.529   9.853 -0.2454  0.3318  0.2754
 1328SOL    HW1 5425   2.409   1.502   9.822  0.0638  0.5236  0.9466
 1328SOL    HW2 5426   2.261   1.472   9.808  0.2936 -0.3784  0.4320
 1329SOL     OW 5427   0.007   0.175  11.061 -0.1854 -0.0268  0.0682
 1329SOL    HW1 5428  -0.039   0.194  10.979 -0.6372 -0.7628  0.1440
 1329SOL    HW2 5429  -0.063   0.162  11.125  0.0778 -1.8212  0.0437
 1330SOL     OW 5430   2.306   0.201   0.449 -0.3006  0.7728  0.0276
 1330SOL    HW1 5431   2.272   0.115   0.423 -0.6493  1.2769 -1.2600
 1330SOL    HW2 5432   2.351   0.185   0.532  1.2388 -1.0222 -1.0744
 1331SOL     OW 5433   7.713   1.677  11.900  0.5142 -0.3040 -0.0194
 1331SOL    HW1 5434   7.785   1.654  11.841  1.6129 -0.9135  1.4896
 1331SOL    HW2 5435   7.636   1.638  11.860  1.0084  0.2697 -1.6196
 1332SOL     OW 5436   2.395   1.261   0.466  0.0379  0.3442  0.2084
 1332SOL    HW1 5437   2.301   1.248   0.481 -0.4568  2.1165 -1.0876
 1332SOL    HW2 5438   2.436   1.230   0.547 -1.7483  0.5147  1.2421
 1333SOL     OW 5439   7.624   3.781  10.974  0.1652 -0.1089 -0.4059
 1333SOL    HW1 5440   7.637   3.733  11.056  0.7923 -0.2611 -0.5919
 1333SOL    HW2 5441   7.581   3.718  10.916 -1.4056  0.3759  0.1884
 1334SOL     OW 5442   7.760   2.932  11.830  0.2570  0.2311  0.1006
 1334SOL    HW1 5443   7.674   2.922  11.790 -0.4474  1.8384  1.1165
 1334SOL    HW2 5444   7.800   3.006  11.784  1.1535 -0.5514 -0.4167
 1335SOL     OW 5445   7.601   2.297   1.661 -0.2537  0.1355  0.5775
 1335SOL    HW1 5446   7.695   2.308   1.651 -0.5152  0.8706 -1.7888
 1335SOL    HW2 5447   7.580   2.222   1.605 -1.2209  0.8596 -0.0634
 1336SOL     OW 5448   1.429   1.382  10.723 -0.7894 -0.3999  0.2549
 1336SOL    HW1 5449   1.465   1.399  10.810 -0.3042 -0.7475  0.1292
 1336SOL    HW2 5450   1.481   1.438  10.665 -0.6659 -0.6599  0.1117
 1337SOL     OW 5451   2.583   2.161  10.957  0.0519  0.2831  0.5053
 1337SOL    HW1 5452   2.614   2.073  10.937 -0.6739  0.5288 -2.0973
 1337SOL    HW2 5453   2.662   2.211  10.977  0.6817 -0.5060  0.0465
 1338SOL     OW 5454   0.321   2.001  11.498 -0.3072  0.0826  0.3282
 1338SOL    HW1 5455   0.373   1.983  11.419  1.0608  2.0934  0.7018
 1338SOL    HW2 5456   0.386   2.029  11.563 -1.2630 -2.3837  2.5285
 1339SOL     OW 5457   2.530   6.556  10.492 -0.5650  0.0564 -0.1971
 1339SOL    HW1 5458   2.509   6.521  10.579  0.1348 -0.8179 -0.3694
 1339SOL    HW2 5459   2.465   6.625  10.478 -0.6553  0.2477  1.0424
 1340SOL     OW 5460   1.626   0.664  11.027 -0.3963  0.3496  0.2840
 1340SOL    HW1 5461   1.648   0.721  10.953  1.1785  0.1988  0.6144
 1340SOL    HW2 5462   1.706   0.616  11.046 -1.5292 -1.6233  0.3661
 1341SOL     OW 5463   1.345   0.676   1.740  0.4170 -0.2390  0.5793
 1341SOL    HW1 5464   1.390   0.729   1.674  1.0773 -1.3293  0.1254
 1341SOL    HW2 5465   1.351   0.586   1.707  1.1260 -0.8709  2.3271
 1342SOL     OW 5466   4.005   0.326   9.638 -0.0083  0.2608 -0.1663
 1342SOL    HW1 5467   3.987   0.233   9.622 -0.5831  0.4501 -0.6660
 1342SOL    HW2 5468   4.078   0.347   9.579 -0.5296  0.3614 -0.7902
 1343SOL     OW 5469   0.785   5.481  11.558 -0.2750 -0.0598 -0.5745
 1343SOL    HW1 5470   0.768   5.501  11.650  1.2263 -1.2708  0.0057
 1343SOL    HW2 5471   0.723   5.411  11.537  0.1440 -0.5569 -0.1544
 1344SOL     OW 5472   7.905   0.958   0.292 -0.5795 -0.2207  0.5066
 1344SOL    HW1 5473   7.946   0.959   0.379 -0.0051 -1.0584  0.2496
 1344SOL    HW2 5474   7.853   0.878   0.291  2.1836 -2.1159 -1.1601
 1345SOL     OW 5475   1.961   7.504  12.127 -1.0320  0.1945  0.1393
 1345SOL    HW1 5476   1.908   7.471  12.199  1.4283 -2.2040  0.9841
 1345SOL    HW2 5477   2.039   7.449  12.126  0.1222  1.6338 -2.9135
 1346SOL     OW 5478   1.670   1.388   1.014  0.5760  0.1106 -0.5919
 1346SOL    HW1 5479   1.615   1.373   1.091  1.4585  0.2979  0.0849
 1346SOL    HW2 5480   1.615   1.440   0.956 -0.1122 -0.0570 -0.1069
 1347SOL     OW 5481   0.667   2.601   0.566 -0.5282  0.2825 -0.0666
 1347SOL    HW1 5482   0.712   2.677   0.530 -1.4687  0.1644 -1.5937
 1347SOL    HW2 5483   0.634   2.554   0.489 -0.6821 -1.2251  0.8759
 1348SOL     OW 5484   1.645   0.752   9.418 -0.5886 -0.3460  0.2280
 1348SOL    HW1 5485   1.605   0.680   9.369 -0.3708 -1.7817  2.0172
 1348SOL    HW2 5486   1.718   0.711   9.465  1.1769  1.5923 -0.6277
 1349SOL     OW 5487   1.206   0.192  12.269  0.3641 -0.2374 -0.6480
 1349SOL    HW1 5488   1.243   0.273  12.234  0.6877  0.0906  0.4074
 1349SOL    HW2 5489   1.121   0.219  12.304  0.9588 -0.0911  0.7409
 1350SOL     OW 5490   1.142   4.312  11.501 -0.1007 -0.8648  0.6253
 1350SOL    HW1 5491   1.068   4.265  11.463  0.2536 -0.3880 -0.7189
 1350SOL    HW2 5492   1.103   4.391  11.539 -0.4460 -1.2960  1.1962
 1351SOL     OW 5493   2.428   0.366   1.422  0.3285  0.1341  1.1282
 1351SOL    HW1 5494   2.408   0.287   1.472 -1.2863 -0.3431 -0.1456
 1351SOL    HW2 5495   2.356   0.426   1.441  0.6570  0.6470  0.8016
 1352SOL     OW 5496   0.059   1.338  11.730 -0.0213 -0.2721  0.1942
 1352SOL    HW1 5497   0.026   1.251  11.751  0.7529  0.0698  3.4629
 1352SOL    HW2 5498   0.073   1.337  11.636 -3.1485 -2.5366 -0.4089
 1353SOL     OW 5499   0.260   1.797   0.786  0.0294 -0.1586 -0.3088
 1353SOL    HW1 5500   0.342   1.781   0.741  0.5099  0.4624  0.3251
 1353SOL    HW2 5501   0.285   1.826   0.874 -0.8628 -0.1511 -0.0382
 1354SOL     OW 5502   6.252   3.242  12.073  0.6699 -0.2483  0.6887
 1354SOL    HW1 5503   6.231   3.258  12.165  1.2847  0.3305  0.7330
 1354SOL    HW2 5504   6.301   3.160  12.074 -0.3123 -0.8494  0.7424
 1355SOL     OW 5505   2.560   7.545  12.087 -0.7252  0.3339 -0.0174
 1355SOL    HW1 5506   2.562   7.457  12.125 -0.1940  1.2075  2.1527
 1355SOL    HW2 5507   2.519   7.599  12.155 -1.5368  1.6943 -1.5179
 1356SOL     OW 5508   3.781   0.339   9.296 -0.2303  0.0217 -0.5514
 1356SOL    HW1 5509   3.734   0.339   9.380 -0.8633  1.1953 -0.8763
 1356SOL    HW2 5510   3.711   0.333   9.231  0.1773  0.3180 -1.0139
 1357SOL     OW 5511   0.173   1.021  12.105 -0.2128  0.3831 -0.6543
 1357SOL    HW1 5512   0.222   0.960  12.159 -1.1526 -0.9110 -1.1956
 1357SOL    HW2 5513   0.194   0.995  12.015 -1.5613  0.0343 -0.8907
 1358SOL     OW 5514   2.168   3.272  12.330 -0.0455  0.3407 -0.8361
 1358SOL    HW1 5515   2.135   3.361  12.321  0.1091  0.6212  0.9736
 1358SOL    HW2 5516   2.155   3.232  12.244 -2.5284  1.3150 -0.9996
 1359SOL     OW 5517   6.774   3.603  12.238  0.3198  0.9565 -0.1886
 1359SOL    HW1 5518   6.773   3.690  12.199 -0.9686 -0.0295 -2.6361
 1359SOL    HW2 5519   6.723   3.612  12.318 -3.6532  1.7526 -2.5173
 1360SOL     OW 5520   1.100   0.367   0.975 -0.1280 -0.1299 -0.2945
 1360SOL    HW1 5521   1.068   0.383   0.886  1.6837 -2.4008 -1.4583
 1360SOL    HW2 5522   1.067   0.280   0.997 -0.4414  0.3464  1.2598
 1361SOL     OW 5523   0.048   2.142  11.513  0.1400  0.7695 -0.9058
 1361SOL    HW1 5524   0.139   2.113  11.509 -0.4598 -1.2271 -1.1110
 1361SOL    HW2 5525   0.011   2.091  11.585 -0.7651  1.7415 -0.6719
 1362SOL     OW 5526   2.113   1.106   9.770 -0.3553  0.2584 -0.3483
 1362SOL    HW1 5527   2.103   1.196   9.739  0.3169  0.8091  0.9641
 1362SOL    HW2 5528   2.061   1.054   9.709  1.4548  1.1692 -2.8297
 1363SOL     OW 5529   0.173   3.486  10.651  0.4092 -0.6145  0.3652
 1363SOL    HW1 5530   0.138   3.477  10.562 -2.6786 -1.4886  1.5760
 1363SOL    HW2 5531   0.224   3.406  10.665 -0.3573 -1.1874 -0.0804
 1364SOL     OW 5532   1.191   1.843  11.736  0.2362 -0.5115 -0.1749
 1364SOL    HW1 5533   1.124   1.858  11.669  0.2732  0.2330 -0.0564
 1364SOL    HW2 5534   1.237   1.927  11.743  0.9273 -0.8944  0.0259
 1365SOL     OW 5535   7.890   1.608  11.684  0.1922 -0.8691 -0.1406
 1365SOL    HW1 5536   7.889   1.616  11.588 -1.2348 -0.6066 -0.1308
 1365SOL    HW2 5537   7.902   1.514  11.700 -0.8064 -1.1000 -0.6208
 1366SOL     OW 5538   1.406   0.840   0.663 -0.2767 -0.6198 -0.8004
 1366SOL    HW1 5539   1.392   0.862   0.755  1.3851 -2.2139 -0.0983
 1366SOL    HW2 5540   1.359   0.758   0.649 -1.2840  0.0705 -1.6659
 1367SOL     OW 5541   0.290   1.312   0.227 -0.3174  0.1696 -0.3547
 1367SOL    HW1 5542   0.268   1.248   0.160  1.7586 -0.7377 -0.2329
 1367SOL    HW2 5543   0.364   1.362   0.190  0.2753  0.2489  0.8727
 1368SOL     OW 5544   1.848   2.027  11.183  0.0808  0.0786 -0.5353
 1368SOL    HW1 5545   1.899   2.016  11.263  0.8455  1.1107 -0.8564
 1368SOL    HW2 5546   1.823   1.938  11.157 -0.6267 -0.2289  1.1160
 1369SOL     OW 5547   7.750   2.512  11.012 -0.3983  0.6102 -0.5238
 1369SOL    HW1 5548   7.785   2.449  10.949  2.4090 -0.7098  2.1429
 1369SOL    HW2 5549   7.757   2.596  10.967  3.7691  0.0741 -1.3040
 1370SOL     OW 5550   0.567   6.682   0.290 -0.3756 -0.9016  0.0556
 1370SOL    HW1 5551   0.510   6.746   0.248  0.0243 -0.4811  0.1390
 1370SOL    HW2 5552   0.655   6.719   0.282 -0.3714 -0.4073  1.9480
 1371SOL     OW 5553   1.561   0.621   0.423  0.6731  0.1818  0.1890
 1371SOL    HW1 5554   1.532   0.701   0.379 -0.2660 -0.5156 -0.5083
 1371SOL    HW2 5555   1.638   0.593   0.374  0.1637 -0.0994 -0.4686
 1372SOL     OW 5556   0.381   2.071  10.133  0.1617  0.4099 -0.0164
 1372SOL    HW1 5557   0.468   2.033  10.138  0.5576  1.3165  0.2273
 1372SOL    HW2 5558   0.376   2.130  10.209 -1.2826 -0.8681  0.9560
 1373SOL     OW 5559   1.198   7.136  11.979  0.3369 -0.1566 -0.3639
 1373SOL    HW1 5560   1.219   7.044  11.967 -0.0297 -0.1558 -1.0661
 1373SOL    HW2 5561   1.168   7.165  11.893 -1.6369  0.0590  0.3482
 1374SOL     OW 5562   1.287   1.448  11.223 -0.5310 -0.2938  0.0991
 1374SOL    HW1 5563   1.317   1.528  11.265 -2.4836  0.7313 -0.2948
 1374SOL    HW2 5564   1.360   1.387  11.229  0.4810  1.0254  1.7268
 1375SOL     OW 5565   1.190   7.501  11.892  0.2502  0.1832  0.0718
 1375SOL    HW1 5566   1.143   7.455  11.823  0.6751  1.1842 -0.9203
 1375SOL    HW2 5567   1.255   7.554  11.845 -0.7724  2.4528  1.0675
 1376SOL     OW 5568   1.721   1.506  11.053  0.4270  0.3024 -0.1807
 1376SOL    HW1 5569   1.721   1.478  10.961 -2.9364  2.2595 -0.9661
 1376SOL    HW2 5570   1.702   1.427  11.103  0.6985 -0.5183 -1.3394
 1377SOL     OW 5571   0.825   0.980  11.924  0.5949 -0.3550  0.1670
 1377SOL    HW1 5572   0.803   0.913  11.989 -1.2613 -0.0177 -0.0606
 1377SOL    HW2 5573   0.768   1.054  11.946  0.0495 -0.1690 -1.7166
 1378SOL     OW 5574   1.213   3.037  11.900  1.0906 -0.4130  0.3651
 1378SOL    HW1 5575   1.245   3.002  11.816  0.7804  0.3086 -0.0606
 1378SOL    HW2 5576   1.224   3.132  11.892 -2.2446  0.0481 -0.3034
 1379SOL     OW 5577   1.108   0.513  11.343  0.1688  0.3236  0.0748
 1379SOL    HW1 5578   1.075   0.429  11.311  0.2434  0.1155  0.5322
 1379SOL    HW2 5579   1.187   0.529  11.292  0.9408 -0.5757  0.9467
 1380SOL     OW 5580   2.583   0.702  12.458  0.3238 -0.1714  0.3260
 1380SOL    HW1 5581   2.667   0.709  12.502  0.5921 -0.9553 -0.0550
 1380SOL    HW2 5582   2.566   0.790  12.425 -0.0461  0.5414  2.2567
 1381SOL     OW 5583   0.712   1.708  11.249  0.5458 -0.7901  1.0487
 1381SOL    HW1 5584   0.782   1.680  11.308 -0.4209 -3.2758  1.1298
 1381SOL    HW2 5585   0.663   1.628  11.231  0.1117  0.0863 -2.2327
 1382SOL     OW 5586   0.063   7.781   0.097 -0.2071  0.4189  0.5727
 1382SOL    HW1 5587   0.024   7.699   0.066  0.4421 -0.0608  0.9895
 1382SOL    HW2 5588   0.157   7.762   0.102 -0.0132  1.2922  0.3718
 1383SOL     OW 5589   1.079   3.344  10.977  1.1099  0.5403  0.3665
 1383SOL    HW1 5590   1.148   3.342  11.043  0.1219  0.6386  1.4285
 1383SOL    HW2 5591   1.036   3.259  10.983 -1.9062  2.0268  3.1349
 1384SOL     OW 5592   7.621   7.139  11.371  0.5997 -0.3641 -0.1176
 1384SOL    HW1 5593   7.657   7.152  11.283 -1.0398 -1.0994 -0.9402
 1384SOL    HW2 5594   7.549   7.201  11.378  0.4184 -0.6361  0.5307
 1385SOL     OW 5595   0.976   1.424   1.169  0.2930  0.0324  0.4068
 1385SOL    HW1 5596   0.964   1.477   1.091 -1.2240 -0.5819  0.1818
 1385SOL    HW2 5597   0.903   1.448   1.227  0.1345 -1.0825  0.7013
 1386SOL     OW 5598   7.836   1.028  10.188  0.8663 -0.2518  0.0223
 1386SOL    HW1 5599   7.831   1.086  10.113 -2.5257  0.2931  0.5168
 1386SOL    HW2 5600   7.809   0.942  10.154  1.4980 -0.5288  0.1989
 1387SOL     OW 5601   2.528   0.244  11.222  0.0750 -0.1741 -0.2375
 1387SOL    HW1 5602   2.462   0.226  11.288 -1.3600 -0.0502 -1.5904
 1387SOL    HW2 5603   2.570   0.159  11.207 -0.5739 -0.5120 -0.1895
 1388SOL     OW 5604   1.518   7.902  10.360  0.1098  0.0598  0.3217
 1388SOL    HW1 5605   1.444   7.947  10.319  0.9542 -0.7845 -2.3378
 1388SOL    HW2 5606   1.564   7.861  10.287  2.4052 -0.6405  2.0599
 1389SOL     OW 5607   0.739   6.874   0.284  0.3364  0.1183 -0.1243
 1389SOL    HW1 5608   0.717   6.955   0.238  0.1333 -0.3970 -0.9758
 1389SOL    HW2 5609   0.834   6.870   0.281  0.4703  1.2190  1.5477
 1390SOL     OW 5610   2.556   0.546  11.350 -0.8904 -0.5129 -0.1401
 1390SOL    HW1 5611   2.618   0.516  11.283 -0.5946  0.8963 -0.5380
 1390SOL    HW2 5612   2.602   0.535  11.433  0.0259  0.7358 -0.4498
 1391SOL     OW 5613   1.442   0.444  12.103 -0.1414  0.3501  0.0316
 1391SOL    HW1 5614   1.424   0.373  12.042  1.6071 -0.1505  0.0400
 1391SOL    HW2 5615   1.481   0.402  12.179 -1.4568  1.0742  1.1551
 1392SOL     OW 5616   2.390   1.762   9.991 -0.5998  0.0331  0.2952
 1392SOL    HW1 5617   2.324   1.696   9.973  0.0383 -0.4355 -0.3981
 1392SOL    HW2 5618   2.473   1.714   9.986 -0.1787  0.7129  0.6495
 1393SOL     OW 5619   1.905   1.550   1.255  0.0452 -0.3670 -0.2227
 1393SOL    HW1 5620   1.949   1.493   1.319 -1.0498 -1.0180 -0.0311
 1393SOL    HW2 5621   1.911   1.637   1.294  1.2905 -0.4158 -0.2724
 1394SOL     OW 5622   1.296   1.405  12.260  0.0843 -0.1861  0.2921
 1394SOL    HW1 5623   1.295   1.310  12.269  1.2970 -0.2685 -0.2263
 1394SOL    HW2 5624   1.318   1.421  12.168  3.3877  0.5244  1.0436
 1395SOL     OW 5625   0.284   0.571  11.890 -0.0971  0.6134 -0.1410
 1395SOL    HW1 5626   0.346   0.515  11.936 -1.6832 -1.2349 -0.0807
 1395SOL    HW2 5627   0.290   0.656  11.933 -0.1881 -0.5281  2.2846
 1396SOL     OW 5628   0.046   1.561  11.231 -0.3148  0.8503 -0.4375
 1396SOL    HW1 5629   0.003   1.539  11.149 -1.0679  0.0845  0.1515
 1396SOL    HW2 5630   0.090   1.645  11.214  0.5134  0.1354 -1.9649
 1397SOL     OW 5631   1.534   7.845  11.709  0.3074  0.1851  0.1806
 1397SOL    HW1 5632   1.489   7.760  11.710  0.0992  0.2874 -0.2580
 1397SOL    HW2 5633   1.495   7.894  11.781  0.4237 -0.0876  0.4335
 1398SOL     OW 5634   3.137   1.640  11.979  0.3035 -0.2978 -0.0626
 1398SOL    HW1 5635   3.185   1.614  11.901  2.3344  1.2904  0.5607
 1398SOL    HW2 5636   3.139   1.736  11.977 -1.1456 -0.2089  1.0387
 1399SOL     OW 5637   2.667   0.437  11.103 -0.2064  0.5091 -0.2810
 1399SOL    HW1 5638   2.734   0.377  11.070 -0.1422  0.1098  0.5436
 1399SOL    HW2 5639   2.605   0.380  11.150 -1.0336  0.8937 -0.8920
 1400SOL     OW 5640   7.589   0.762   1.670 -0.3566  0.3369  0.3691
 1400SOL    HW1 5641   7.548   0.848   1.663  0.1077  0.4644 -1.4055
 1400SOL    HW2 5642   7.539   0.707   1.610  0.5074 -0.1443  0.0674
 1401SOL     OW 5643   1.394   2.896   0.502 -0.1552 -0.1494  0.7195
 1401SOL    HW1 5644   1.485   2.868   0.489 -0.0909 -0.1971  1.2588
 1401SOL    HW2 5645   1.345   2.851   0.434  0.5996  1.9739 -1.3737
 1402SOL     OW 5646   1.434   0.326   1.303 -0.2195  0.1577 -0.2713
 1402SOL    HW1 5647   1.482   0.355   1.380 -1.0306 -0.4350  0.4830
 1402SOL    HW2 5648   1.394   0.406   1.268 -0.0676  0.3891  0.0798
 1403SOL     OW 5649   1.418   1.111  10.761  0.1537 -0.3258 -0.0204
 1403SOL    HW1 5650   1.393   1.105  10.854  0.0144 -2.1058 -0.1383
 1403SOL    HW2 5651   1.433   1.205  10.746  1.4064 -0.1213  2.1117
 1404SOL     OW 5652   1.315   0.562   0.580  0.4778  0.0259  0.6673
 1404SOL    HW1 5653   1.331   0.550   0.486  2.7011  0.4205  0.9523
 1404SOL    HW2 5654   1.319   0.473   0.616 -0.6031 -0.1528  0.3871
 1405SOL     OW 5655   1.532   3.094  12.044  0.4163 -0.3135  0.4292
 1405SOL    HW1 5656   1.455   3.151  12.055 -0.4783 -1.0730 -1.4280
 1405SOL    HW2 5657   1.606   3.149  12.069 -0.3163  2.0185 -2.0125
 1406SOL     OW 5658   1.366   0.675   0.962 -0.1376  0.7834  0.4027
 1406SOL    HW1 5659   1.458   0.667   0.936  0.2713  2.2082  1.3055
 1406SOL    HW2 5660   1.351   0.600   1.019  0.3437  0.3140 -0.0734
 1407SOL     OW 5661   0.538   0.485   0.129 -0.1482 -0.2978  0.1015
 1407SOL    HW1 5662   0.469   0.422   0.109 -0.1942  0.2954 -1.8580
 1407SOL    HW2 5663   0.583   0.449   0.205 -0.4494 -2.4613 -0.6891
 1408SOL     OW 5664   3.500   1.067  11.889  0.4364  0.0339 -0.8029
 1408SOL    HW1 5665   3.524   0.980  11.921 -2.5218 -0.1268  1.3311
 1408SOL    HW2 5666   3.516   1.126  11.963  0.2753  0.9568 -1.4812
 1409SOL     OW 5667   0.660   6.697  11.341  0.2406 -0.4907 -0.4724
 1409SOL    HW1 5668   0.630   6.667  11.426 -0.6526 -0.6941 -0.8484
 1409SOL    HW2 5669   0.592   6.670  11.280 -0.4530  1.9281 -0.8942
 1410SOL     OW 5670   0.409   7.772  11.517 -0.0370 -0.1974 -0.2104
 1410SOL    HW1 5671   0.421   7.841  11.583  0.8831  0.2720 -0.8522
 1410SOL    HW2 5672   0.315   7.752  11.520 -0.0975  0.1879  0.8652
 1411SOL     OW 5673   1.530   0.423  11.014 -0.3422 -0.0269 -0.3650
 1411SOL    HW1 5674   1.552   0.511  11.042 -0.6734 -0.6420  2.0579
 1411SOL    HW2 5675   1.539   0.369  11.093 -1.4355 -1.9269 -1.4468
 1412SOL     OW 5676   0.692   1.609  12.450 -0.1348  0.0381 -0.2011
 1412SOL    HW1 5677   0.720   1.523  12.480 -0.8028  0.1167  0.6798
 1412SOL    HW2 5678   0.605   1.621  12.488  0.1628  1.3115  0.1249
 1413SOL     OW 5679   0.886   0.304   1.466 -0.3094  0.5100 -0.7041
 1413SOL    HW1 5680   0.792   0.290   1.480 -0.4573  0.3912 -1.7386
 1413SOL    HW2 5681   0.927   0.271   1.545 -1.1041 -0.0241 -0.5009
 1414SOL     OW 5682   0.932   1.163  12.193 -0.0247  0.3256  0.3664
 1414SOL    HW1 5683   0.847   1.205  12.205  0.5010  1.6454 -0.2400
 1414SOL    HW2 5684   0.978   1.220  12.131  0.8105 -1.0894 -0.3754
 1415SOL     OW 5685   3.447   7.474  10.591 -0.0020  0.3375 -0.0350
 1415SOL    HW1 5686   3.531   7.429  10.582  0.9088  2.0713 -0.5289
 1415SOL    HW2 5687   3.453   7.550  10.533 -1.8435  0.6139  0.0680
 1416SOL     OW 5688   7.596   2.795  10.544  0.0004  0.9846 -0.9618
 1416SOL    HW1 5689   7.681   2.754  10.529 -0.8866 -1.2130 -0.4306
 1416SOL    HW2 5690   7.561   2.809  10.456  0.6640  1.3495 -1.1728
 1417SOL     OW 5691   1.024   0.696  12.375 -0.7180  0.3265  0.4964
 1417SOL    HW1 5692   0.961   0.749  12.327 -1.0202 -0.7011 -0.2752
 1417SOL    HW2 5693   0.972   0.627  12.416 -0.0771 -0.8815 -0.6234
 1418SOL     OW 5694   1.411   2.625  12.090 -0.2192 -0.5329  0.2126
 1418SOL    HW1 5695   1.374   2.561  12.151  1.2492 -1.4988  0.1433
 1418SOL    HW2 5696   1.378   2.710  12.121  0.9239 -0.9135  2.7595
 1419SOL     OW 5697   7.574   1.051   0.004 -0.7671 -0.1546 -0.0726
 1419SOL    HW1 5698   7.608   1.017   0.086  1.1202  1.5418 -0.0729
 1419SOL    HW2 5699   7.501   1.107   0.031 -0.6686 -0.2326  0.3716
 1420SOL     OW 5700   0.556   7.714   1.426  0.3413 -0.3647 -0.0515
 1420SOL    HW1 5701   0.645   7.712   1.391  0.8449  0.6901  1.0833
 1420SOL    HW2 5702   0.555   7.789   1.486 -1.9022  0.9294 -1.5367
 1421SOL     OW 5703   1.094   7.396  11.643  0.6298  0.0790  0.3715
 1421SOL    HW1 5704   1.111   7.303  11.634  0.7843  0.1873 -0.4992
 1421SOL    HW2 5705   1.045   7.419  11.564  1.5069  0.9522  0.0743
 1422SOL     OW 5706   1.601   6.795  12.210  0.4829 -0.1362 -0.6618
 1422SOL    HW1 5707   1.622   6.858  12.278  0.7084  1.0240 -1.7666
 1422SOL    HW2 5708   1.631   6.711  12.245 -0.0995  0.2888  0.9662
 1423SOL     OW 5709   1.763   7.616  10.268  0.1438 -0.3465 -0.0803
 1423SOL    HW1 5710   1.702   7.600  10.340 -0.8204  0.1167 -0.7835
 1423SOL    HW2 5711   1.726   7.568  10.194 -1.4974  2.8925 -1.5785
 1424SOL     OW 5712   0.470   1.689   1.545 -0.4267  0.1399 -0.2244
 1424SOL    HW1 5713   0.554   1.709   1.586 -0.8276 -0.1103  0.7636
 1424SOL    HW2 5714   0.467   1.593   1.542 -0.2856  0.1574 -1.1136
 1425SOL     OW 5715   1.339   0.310   0.676 -0.0091  0.6581 -0.0555
 1425SOL    HW1 5716   1.270   0.284   0.615 -0.2681 -0.3604  0.6375
 1425SOL    HW2 5717   1.351   0.233   0.732 -1.6691  2.3455  2.9272
 1426SOL     OW 5718   1.036   1.654  11.893  0.0037 -0.0401  0.1031
 1426SOL    HW1 5719   1.062   1.722  11.831  2.9342 -1.6933 -0.6679
 1426SOL    HW2 5720   0.977   1.597  11.844  1.1104 -0.4961 -0.7307
 1427SOL     OW 5721   2.180   0.016  12.414 -0.1979  0.0025 -0.5882
 1427SOL    HW1 5722   2.250  -0.037  12.451  0.8588 -0.0154 -2.4908
 1427SOL    HW2 5723   2.104  -0.001  12.470  1.1053 -0.5840  1.0489
 1428SOL     OW 5724   0.643   1.310  12.166  0.0189  0.6312  0.2275
 1428SOL    HW1 5725   0.640   1.231  12.112 -0.6258  1.5840 -1.1719
 1428SOL    HW2 5726   0.559   1.311  12.212  0.6273 -0.2587  1.4301
 1429SOL     OW 5727   1.734   2.247   0.658 -0.4249  0.4189  0.0902
 1429SOL    HW1 5728   1.760   2.155   0.665  0.9055  0.7524 -0.1215
 1429SOL    HW2 5729   1.649   2.251   0.701 -0.9738 -1.0955 -0.7846
 1430SOL     OW 5730   7.647   2.020  10.579 -0.6555 -0.2108 -0.2788
 1430SOL    HW1 5731   7.632   2.023  10.485  0.7656 -3.4084 -0.7089
 1430SOL    HW2 5732   7.560   2.021  10.617 -1.2631  0.5444 -1.6103
 1431SOL     OW 5733   2.273   1.096  10.361 -0.3789 -0.2812 -0.0928
 1431SOL    HW1 5734   2.244   1.070  10.273  1.3025 -0.4847 -0.6262
 1431SOL    HW2 5735   2.202   1.152  10.394 -1.0621 -0.2246 -1.5578
 1432SOL     OW 5736   7.988   0.779  11.810 -0.3679  0.0847 -0.2629
 1432SOL    HW1 5737   7.902   0.781  11.851  0.5100  0.7987  1.6790
 1432SOL    HW2 5738   8.008   0.686  11.798 -2.6581 -0.1376 -3.7382
 1433SOL     OW 5739   0.879   0.637   0.535 -0.0339  0.3666  0.0460
 1433SOL    HW1 5740   0.866   0.731   0.546  0.6728  0.3428  1.3054
 1433SOL    HW2 5741   0.792   0.602   0.516  0.0881  1.5893 -3.4170
 1434SOL     OW 5742   0.170   3.247  12.083  0.2674 -0.2744 -0.0513
 1434SOL    HW1 5743   0.257   3.248  12.123  0.1465 -0.5541  0.2162
 1434SOL    HW2 5744   0.153   3.155  12.064 -0.4666 -0.3641  0.9787
 1435SOL     OW 5745   2.077   0.035  11.213  0.4907  0.5903 -0.3348
 1435SOL    HW1 5746   2.076  -0.058  11.193  0.0102  0.8671 -1.7573
 1435SOL    HW2 5747   2.152   0.047  11.271  0.5844 -0.6671 -0.1687
 1436SOL     OW 5748   3.381   0.241  11.523  0.3412 -0.2923  0.0096
 1436SOL    HW1 5749   3.331   0.180  11.469  0.5955 -1.5804  1.2073
 1436SOL    HW2 5750   3.360   0.327  11.486 -1.8679 -0.8774 -0.2225
 1437SOL     OW 5751   0.458   1.377  11.933  0.8306 -0.5956 -0.4294
 1437SOL    HW1 5752   0.381   1.429  11.912  0.9326 -0.2340  0.0640
 1437SOL    HW2 5753   0.526   1.441  11.954  0.4007 -0.8552  2.2069
 1438SOL     OW 5754   1.337   0.613  11.233 -0.1403 -0.1084 -0.2184
 1438SOL    HW1 5755   1.344   0.626  11.138  0.1735  0.1768 -0.1625
 1438SOL    HW2 5756   1.384   0.688  11.270 -1.8708  0.8244  0.1976
 1439SOL     OW 5757   1.339   2.697  11.146 -0.0718 -0.2727  0.2313
 1439SOL    HW1 5758   1.261   2.659  11.187 -0.7137  0.6933 -0.0417
 1439SOL    HW2 5759   1.406   2.691  11.213  0.0024 -2.2714  0.0473
 1440SOL     OW 5760   0.176   2.229  12.035  0.7330  0.0207 -0.0492
 1440SOL    HW1 5761   0.090   2.231  11.992  1.2230 -0.4584 -1.0621
 1440SOL    HW2 5762   0.183   2.140  12.069  0.4370  0.3369  0.8718
 1441SOL     OW 5763   3.137   1.293   9.386  0.0908  0.3641  0.1584
 1441SOL    HW1 5764   3.082   1.214   9.387  0.1798  0.2410 -1.7311
 1441SOL    HW2 5765   3.224   1.262   9.360  1.0008  0.6407  2.5802
 1442SOL     OW 5766   1.933   0.225  11.387 -0.5086 -0.6968  0.3982
 1442SOL    HW1 5767   1.844   0.189  11.380 -0.4970 -1.0987  1.9490
 1442SOL    HW2 5768   1.985   0.171  11.328 -1.0885 -1.1926  0.3261
 1443SOL     OW 5769   1.601   1.563  10.589 -0.0316  0.2558 -0.0844
 1443SOL    HW1 5770   1.590   1.633  10.654 -2.6128  1.0425 -1.2454
 1443SOL    HW2 5771   1.624   1.608  10.508  1.5134 -0.5723 -0.1355
 1444SOL     OW 5772   0.040   3.233  12.369 -0.2997 -0.3349 -0.8400
 1444SOL    HW1 5773   0.084   3.265  12.290  0.9794  0.5260  0.1860
 1444SOL    HW2 5774   0.046   3.306  12.431 -0.0728 -1.4525  0.5077
 1445SOL     OW 5775   0.046   0.491   2.627  0.1374 -0.2516 -0.2111
 1445SOL    HW1 5776   0.088   0.407   2.607  0.9173 -0.7423  2.8568
 1445SOL    HW2 5777   0.116   0.556   2.616  0.9258 -0.6720  1.8256
 1446SOL     OW 5778   7.743   1.311  12.238 -0.4127  0.2568  0.2469
 1446SOL    HW1 5779   7.797   1.377  12.282  0.0629  0.4560 -0.6106
 1446SOL    HW2 5780   7.789   1.294  12.156 -1.8576  0.7364 -0.7062
 1447SOL     OW 5781   0.812   7.790  10.639  0.2433 -0.4271 -0.2122
 1447SOL    HW1 5782   0.873   7.793  10.712 -0.8875  0.9325  0.7400
 1447SOL    HW2 5783   0.800   7.881  10.614 -0.4904 -0.7661 -1.1540
 1448SOL     OW 5784   0.052   0.044   0.756  0.0276 -0.2697 -0.0731
 1448SOL    HW1 5785   0.028   0.109   0.689  3.4090 -0.9031 -2.1346
 1448SOL    HW2 5786   0.053  -0.039   0.709  0.1674 -1.1260  1.3990
 1449SOL     OW 5787   1.458   0.904  11.256  0.2844  0.3391 -0.3531
 1449SOL    HW1 5788   1.516   0.961  11.205  1.2478  0.0428  0.3867
 1449SOL    HW2 5789   1.369   0.934  11.233  0.7115  0.7778 -1.5261
 1450SOL     OW 5790   0.649   2.893  11.555  0.1490  0.2544  0.2099
 1450SOL    HW1 5791   0.741   2.892  11.530  0.0188  1.9424 -0.4701
 1450SOL    HW2 5792   0.636   2.980  11.594 -0.9551 -0.2914  1.1295
 1451SOL     OW 5793   0.820   0.637   0.042 -0.2394  0.3503 -0.3570
 1451SOL    HW1 5794   0.726   0.653   0.042 -0.0844  1.5420 -2.1024
 1451SOL    HW2 5795   0.854   0.691   0.114 -0.9778 -1.1187  1.1731
 1452SOL     OW 5796   1.824   5.994  11.708  0.3080 -0.3086  0.8037
 1452SOL    HW1 5797   1.777   5.917  11.738 -0.3110  0.5961  2.3062
 1452SOL    HW2 5798   1.789   6.012  11.621  1.0574 -2.1565  0.0642
 1453SOL     OW 5799   1.899   1.017  10.295 -0.2106  0.9422  0.5966
 1453SOL    HW1 5800   1.866   1.000  10.383  0.0176  0.0763  0.5260
 1453SOL    HW2 5801   1.981   1.063  10.309 -0.4147  1.2412  0.8231
 1454SOL     OW 5802   2.634   7.154   0.678 -0.6331  0.7552 -0.1349
 1454SOL    HW1 5803   2.656   7.130   0.588  0.8923  0.5538  0.2655
 1454SOL    HW2 5804   2.659   7.246   0.685 -1.2386  0.9151 -0.0685
 1455SOL     OW 5805   7.935   2.055  11.029  0.4115  0.1909 -0.0550
 1455SOL    HW1 5806   7.979   2.126  11.076 -0.1778  0.3001  0.3309
 1455SOL    HW2 5807   7.843   2.062  11.054  0.4865 -1.2906  0.7263
 1456SOL     OW 5808   1.773   2.400   0.253  0.0438  0.4948 -0.0435
 1456SOL    HW1 5809   1.695   2.346   0.267 -0.6997  0.4590 -3.4656
 1456SOL    HW2 5810   1.739   2.487   0.233  1.1023  1.4265  1.9029
 1457SOL     OW 5811   2.152   7.083   0.274 -0.4768 -0.0823  0.6405
 1457SOL    HW1 5812   2.059   7.090   0.252 -0.6130 -0.4724  1.0890
 1457SOL    HW2 5813   2.190   7.165   0.241 -0.9747  0.0740  0.4429
 1458SOL     OW 5814   0.055   3.466   0.033 -0.1286 -0.0006 -0.4154
 1458SOL    HW1 5815  -0.015   3.529   0.012 -1.4202 -1.3316 -0.2712
 1458SOL    HW2 5816   0.136   3.513   0.011 -0.9955  1.8922  0.1711
 1459SOL     OW 5817   1.850   0.103  12.371  0.3865  0.1433 -0.2635
 1459SOL    HW1 5818   1.899   0.061  12.442  0.1310  1.1205  0.5247
 1459SOL    HW2 5819   1.880   0.194  12.372 -1.1955  0.6925  0.0372
 1460SOL     OW 5820   1.733   0.866  11.717 -0.2834  0.1588 -0.4192
 1460SOL    HW1 5821   1.725   0.771  11.711 -1.6375  0.2769 -0.9894
 1460SOL    HW2 5822   1.664   0.899  11.659  1.2735  1.4984 -1.5782
 1461SOL     OW 5823   1.884   7.435  11.120 -0.1177  0.2866 -0.0312
 1461SOL    HW1 5824   1.939   7.431  11.042 -0.8399  1.5449 -0.6344
 1461SOL    HW2 5825   1.825   7.508  11.104 -1.9847 -1.0148  0.5860
 1462SOL     OW 5826   7.091   0.068  12.125 -0.4317 -0.4517  0.3502
 1462SOL    HW1 5827   7.156  -0.001  12.142  0.5117 -0.0975 -1.5191
 1462SOL    HW2 5828   7.007   0.024  12.136  0.1385 -1.5383  0.5560
 1463SOL     OW 5829   2.201   7.735  11.231  0.0031  0.3618 -0.4428
 1463SOL    HW1 5830   2.141   7.670  11.268  1.8525 -0.3896  1.4559
 1463SOL    HW2 5831   2.208   7.712  11.139 -1.1172 -0.6974 -0.2972
 1464SOL     OW 5832   7.950   2.851  11.447 -0.5368 -0.2931 -0.3559
 1464SOL    HW1 5833   7.958   2.841  11.542 -0.2200  0.6714 -0.2816
 1464SOL    HW2 5834   7.879   2.914  11.435 -1.0664 -0.9487 -0.7865
 1465SOL     OW 5835   3.575   2.017  11.536 -0.1174  0.2255  0.5880
 1465SOL    HW1 5836   3.484   2.017  11.505 -0.0311  1.6113  0.2698
 1465SOL    HW2 5837   3.591   2.107  11.563  1.2725  0.0723  0.3395
 1466SOL     OW 5838   1.592   6.785  11.703 -0.5048  0.0353 -0.1624
 1466SOL    HW1 5839   1.533   6.739  11.762 -1.6964  0.8752 -0.6590
 1466SOL    HW2 5840   1.548   6.781  11.618  0.3292  0.3693 -0.6205
 1467SOL     OW 5841   2.008   2.213  11.603  0.6360  0.1089 -0.3631
 1467SOL    HW1 5842   1.940   2.257  11.653 -2.0286 -0.2330 -3.3547
 1467SOL    HW2 5843   2.031   2.136  11.656 -1.7879 -0.0928  0.5261
 1468SOL     OW 5844   1.941   6.391  12.027  0.0820  0.2602  0.3689
 1468SOL    HW1 5845   1.971   6.482  12.033  0.3191  0.2784 -0.9274
 1468SOL    HW2 5846   2.011   6.346  11.978 -0.2196 -0.5357  0.6563
 1469SOL     OW 5847   0.370   1.463  12.456  0.0865  0.6191  0.1127
 1469SOL    HW1 5848   0.348   1.545  12.413  0.7198 -0.0842 -1.6665
 1469SOL    HW2 5849   0.361   1.397  12.387  3.0251 -0.3240  0.4854
 1470SOL     OW 5850   2.828   7.095  12.166  0.2100  0.0731  0.8108
 1470SOL    HW1 5851   2.872   7.107  12.082 -0.0497 -2.2518  0.2613
 1470SOL    HW2 5852   2.893   7.054  12.223 -0.6502 -1.8078  0.5242
 1471SOL     OW 5853   7.457   1.698  10.445 -0.1396 -0.0996 -0.0399
 1471SOL    HW1 5854   7.406   1.684  10.525 -0.1898  1.1808  0.1781
 1471SOL    HW2 5855   7.548   1.695  10.474 -0.1630  0.6966  0.1415
 1472SOL     OW 5856   1.213   2.256  11.784 -0.3771  0.2745 -0.2212
 1472SOL    HW1 5857   1.284   2.313  11.755 -0.0855  0.2733  0.4516
 1472SOL    HW2 5858   1.197   2.198  11.710 -0.0708  0.6526 -0.5913
 1473SOL     OW 5859   0.496   2.330   0.491 -0.1221 -0.0805 -0.1981
 1473SOL    HW1 5860   0.508   2.245   0.449  0.8984 -0.3236  0.5437
 1473SOL    HW2 5861   0.475   2.389   0.418  1.4905 -0.5196 -1.0874
 1474SOL     OW 5862   6.181   2.633   0.221 -0.3300 -0.0656 -0.5587
 1474SOL    HW1 5863   6.132   2.715   0.211 -0.1420  0.0959 -0.1722
 1474SOL    HW2 5864   6.134   2.570   0.166 -1.4653 -0.1292  0.4526
 1475SOL     OW 5865   7.997   2.300   0.087 -0.3066  0.2658  0.1047
 1475SOL    HW1 5866   8.059   2.294   0.160 -1.4415 -0.6204  1.0475
 1475SOL    HW2 5867   7.914   2.326   0.129 -0.4223  2.1743 -1.2096
 1476SOL     OW 5868   2.273   2.400   2.292  0.3405  0.6487 -0.1548
 1476SOL    HW1 5869   2.314   2.420   2.208 -1.3145  1.6458 -0.7837
 1476SOL    HW2 5870   2.290   2.307   2.306  1.0326  0.5758 -1.3593
 1477SOL     OW 5871   0.073   3.803   1.762  0.5027  0.1841  0.3367
 1477SOL    HW1 5872   0.039   3.893   1.764  0.4627  0.1753  0.0791
 1477SOL    HW2 5873   0.078   3.777   1.854  0.7164  0.5270  0.4214
 1478SOL     OW 5874   0.151   1.673   0.197  0.0615 -0.3359 -0.0249
 1478SOL    HW1 5875   0.160   1.724   0.116 -1.0263  0.7612  0.5147
 1478SOL    HW2 5876   0.106   1.593   0.169 -0.4576  0.1040 -0.4930
 1479SOL     OW 5877   1.868   2.045   0.829  0.0790 -0.1276  0.1044
 1479SOL    HW1 5878   1.850   1.973   0.768 -2.7177 -1.8392  2.6783
 1479SOL    HW2 5879   1.805   2.033   0.900  0.4630  4.0605  1.4461
 1480SOL     OW 5880   0.049   4.037   0.149 -0.5102 -0.1979  0.1827
 1480SOL    HW1 5881   0.010   3.952   0.128  0.0771 -0.3537 -0.3259
 1480SOL    HW2 5882  -0.001   4.070   0.223 -1.4401 -0.5053 -0.3015
 1481SOL     OW 5883   1.526   2.669   1.047  0.1156 -0.0228 -0.0291
 1481SOL    HW1 5884   1.477   2.737   1.094  0.8424  1.3862 -1.2025
 1481SOL    HW2 5885   1.461   2.604   1.024 -0.8276  0.8248  0.1734
 1482SOL     OW 5886   0.142   1.908   1.069  0.2277  0.0256  0.2307
 1482SOL    HW1 5887   0.134   2.000   1.094 -1.2899  0.6626 -2.2771
 1482SOL    HW2 5888   0.063   1.867   1.104  0.3846 -0.1015  0.4390
 1483SOL     OW 5889   0.220   2.895   1.805 -0.0967 -0.1936 -0.6470
 1483SOL    HW1 5890   0.241   2.959   1.737 -1.3868 -0.7376 -1.5986
 1483SOL    HW2 5891   0.295   2.835   1.804  0.8209  0.9054 -0.1909
 1484SOL     OW 5892   6.913   3.127  12.204  0.2450  0.0846 -0.0416
 1484SOL    HW1 5893   6.948   3.212  12.231  0.4285  0.0932 -0.3094
 1484SOL    HW2 5894   6.916   3.074  12.284 -2.3150  1.1007  0.8642
 1485SOL     OW 5895   0.596   3.430   2.251  0.4167  0.4905  0.1329
 1485SOL    HW1 5896   0.613   3.516   2.289  0.7740  0.3833  0.2211
 1485SOL    HW2 5897   0.591   3.446   2.157  0.6003  0.5878  0.1404
 1486SOL     OW 5898   7.200   2.259  12.463 -0.3063 -0.0585  0.6353
 1486SOL    HW1 5899   7.261   2.187  12.446 -1.2269 -0.9571  0.9775
 1486SOL    HW2 5900   7.251   2.338  12.451  0.9301 -0.7870  0.9460
 1487SOL     OW 5901   3.171   2.740   0.187 -0.3982  0.0780  0.8511
 1487SOL    HW1 5902   3.078   2.728   0.169 -0.4220 -1.8342  2.0472
 1487SOL    HW2 5903   3.174   2.797   0.264 -0.4715  1.9774 -0.4827
 1488SOL     OW 5904   6.345   4.057  12.229  0.5884 -0.3960  0.5593
 1488SOL    HW1 5905   6.360   3.989  12.163 -0.9780 -0.2786  0.0583
 1488SOL    HW2 5906   6.250   4.065  12.235  0.7264  0.7350  1.6714
 1489SOL     OW 5907   1.603   2.480   3.435  0.6562  0.6937 -0.2039
 1489SOL    HW1 5908   1.649   2.482   3.351  0.9601  2.0174 -0.0318
 1489SOL    HW2 5909   1.512   2.500   3.413  0.3561 -0.8546 -0.4226
 1490SOL     OW 5910   0.756   4.563   0.099 -0.0600  0.3563 -0.4710
 1490SOL    HW1 5911   0.700   4.582   0.175  0.4588 -0.5008  0.1408
 1490SOL    HW2 5912   0.780   4.649   0.065 -0.5633  0.7468  0.1407
 1491SOL     OW 5913   0.461   3.024   1.349  0.1113 -0.8030 -0.3915
 1491SOL    HW1 5914   0.545   3.024   1.303  0.6052  0.4055  0.4565
 1491SOL    HW2 5915   0.395   3.016   1.280  0.8699 -0.2834 -1.1886
 1492SOL     OW 5916   0.883   3.218   1.912 -0.4972 -0.1187  0.6229
 1492SOL    HW1 5917   0.917   3.301   1.946  0.2562  0.3025 -1.0721
 1492SOL    HW2 5918   0.920   3.151   1.970  0.9104  0.5594  0.5418
 1493SOL     OW 5919   7.149   2.386   1.255 -0.5328  0.0593 -0.0158
 1493SOL    HW1 5920   7.209   2.408   1.326  2.0030 -1.0696 -1.6934
 1493SOL    HW2 5921   7.154   2.291   1.247  0.5651  0.2471 -2.6838
 1494SOL     OW 5922   0.758   1.914   1.447 -0.4313 -0.7034  0.5636
 1494SOL    HW1 5923   0.763   2.006   1.418 -2.5133 -0.7640 -0.1373
 1494SOL    HW2 5924   0.673   1.883   1.415 -0.9682 -2.0969  3.0497
 1495SOL     OW 5925   1.556   3.301  11.758  0.3430 -0.1121  0.3179
 1495SOL    HW1 5926   1.577   3.377  11.812  0.3046 -0.4533  0.8171
 1495SOL    HW2 5927   1.636   3.249  11.757 -0.5442 -1.6655  2.6377
 1496SOL     OW 5928   2.004   3.718   0.759 -0.2115  0.7001 -0.1167
 1496SOL    HW1 5929   1.977   3.663   0.833  2.1938  2.5490  2.3612
 1496SOL    HW2 5930   2.090   3.683   0.734 -0.1703  1.2621 -0.7672
 1497SOL     OW 5931   7.260   4.003  11.080 -0.0283  0.1554  0.4751
 1497SOL    HW1 5932   7.285   3.928  11.026 -2.2231 -0.0379 -0.3630
 1497SOL    HW2 5933   7.253   3.967  11.168 -0.2342 -0.4447  0.2238
 1498SOL     OW 5934   0.916   4.075   1.795 -0.1403 -0.1183 -0.1814
 1498SOL    HW1 5935   0.920   4.008   1.727 -1.3674 -1.5474  1.0728
 1498SOL    HW2 5936   1.001   4.070   1.839 -0.2906 -1.0134  0.0213
 1499SOL     OW 5937   1.130   2.172   0.073 -0.0157 -0.1723 -0.1664
 1499SOL    HW1 5938   1.120   2.087   0.032 -1.2876 -0.5782  0.9198
 1499SOL    HW2 5939   1.197   2.217   0.020 -0.1901 -1.3770 -1.4560
 1500SOL     OW 5940   6.654   2.897   2.331 -0.2212  0.1232  0.4592
 1500SOL    HW1 5941   6.715   2.922   2.400  0.1659  2.1628 -0.5302
 1500SOL    HW2 5942   6.568   2.920   2.366  0.1315  3.3305 -0.4667
 1501SOL     OW 5943   0.186   2.439   2.758 -0.1589 -0.2565 -0.3020
 1501SOL    HW1 5944   0.196   2.520   2.708  0.0088 -0.1553 -0.1079
 1501SOL    HW2 5945   0.274   2.400   2.759 -0.2426 -0.4441 -0.4052
 1502SOL     OW 5946   2.167   2.797   2.373  0.1043 -0.2981  0.6155
 1502SOL    HW1 5947   2.098   2.845   2.327 -1.1764 -0.7119  2.0418
 1502SOL    HW2 5948   2.206   2.861   2.432 -0.7381 -0.6653  1.5879
 1503SOL     OW 5949   1.109   0.839   1.160  0.0743  0.1432 -0.2715
 1503SOL    HW1 5950   1.180   0.804   1.215  0.8291 -0.5909 -1.6638
 1503SOL    HW2 5951   1.081   0.765   1.106 -1.2735  0.6162 -0.2675
 1504SOL     OW 5952   6.702   5.007   2.875 -0.2736  0.4971  0.2719
 1504SOL    HW1 5953   6.724   4.937   2.814 -1.4994 -1.7958  2.2491
 1504SOL    HW2 5954   6.618   5.041   2.843 -0.8083 -0.5496  0.4814
 1505SOL     OW 5955   1.615   3.518  11.905 -0.0014  0.4776  0.5945
 1505SOL    HW1 5956   1.697   3.566  11.897 -0.4813  1.1915 -0.1796
 1505SOL    HW2 5957   1.576   3.549  11.987  0.3110  0.4350  0.7589
 1506SOL     OW 5958   7.738   2.462   0.919 -0.0154 -0.1541  0.0047
 1506SOL    HW1 5959   7.764   2.497   0.833 -0.9440  0.3266 -0.0931
 1506SOL    HW2 5960   7.643   2.467   0.919 -0.0027  0.4576  1.3130
 1507SOL     OW 5961   6.898   0.996   2.731  0.5840 -0.3703 -0.0411
 1507SOL    HW1 5962   6.853   0.948   2.800 -0.9295  1.7934  0.5965
 1507SOL    HW2 5963   6.971   1.040   2.776  0.7748 -0.5097 -0.2137
 1508SOL     OW 5964   0.206   1.745   1.813  0.9642 -0.0164  0.0404
 1508SOL    HW1 5965   0.154   1.746   1.732 -1.6676 -0.2879  1.6003
 1508SOL    HW2 5966   0.284   1.795   1.792 -0.5876  1.7193 -2.1137
 1509SOL     OW 5967   1.125   4.722  11.491  0.2784  0.6801 -0.6234
 1509SOL    HW1 5968   1.054   4.664  11.465 -0.6370  1.3399  0.3095
 1509SOL    HW2 5969   1.150   4.691  11.579  1.1785  0.4401 -0.9482
 1510SOL     OW 5970   7.591   1.761   0.231  0.0784  0.3835  0.0622
 1510SOL    HW1 5971   7.660   1.703   0.261 -1.8783 -1.9939  0.2409
 1510SOL    HW2 5972   7.637   1.838   0.197  2.6348  0.4243  3.2234
 1511SOL     OW 5973   1.988   2.308   0.663  0.2254 -0.7761  0.1901
 1511SOL    HW1 5974   2.017   2.259   0.586  2.3053 -0.6906  0.8630
 1511SOL    HW2 5975   1.896   2.286   0.672 -0.1760 -0.5099 -2.5164
 1512SOL     OW 5976   1.577   4.659   0.082 -0.0803 -0.5592  0.3334
 1512SOL    HW1 5977   1.533   4.657  -0.003 -1.7235  0.9610  1.0780
 1512SOL    HW2 5978   1.525   4.601   0.138 -1.2137  1.2129  1.2080
 1513SOL     OW 5979   1.436   1.776   2.281  0.0128 -0.1365  0.3601
 1513SOL    HW1 5980   1.466   1.860   2.317  0.5254  1.0335 -2.4905
 1513SOL    HW2 5981   1.500   1.712   2.313  2.6882  1.4555 -1.3672
 1514SOL     OW 5982   0.683   1.150   1.461  0.2192  0.1003  0.0037
 1514SOL    HW1 5983   0.699   1.060   1.490 -0.6561 -0.3342 -0.7973
 1514SOL    HW2 5984   0.623   1.140   1.387 -1.6699  1.4894  1.2816
 1515SOL     OW 5985   0.260   0.470   3.117  0.1467 -0.0748  0.0199
 1515SOL    HW1 5986   0.308   0.428   3.046 -0.0750 -0.0119 -0.1695
 1515SOL    HW2 5987   0.288   0.561   3.115  1.1535 -0.3421  0.8749
 1516SOL     OW 5988   0.325   0.812   1.977  0.3573  0.3334  0.2836
 1516SOL    HW1 5989   0.286   0.744   1.923  0.3923  1.2280 -0.8957
 1516SOL    HW2 5990   0.376   0.866   1.917 -1.0586  2.4471  0.8286
 1517SOL     OW 5991   7.008   2.203  12.267  0.3230  0.0005 -0.1550
 1517SOL    HW1 5992   7.014   2.119  12.220 -1.1547 -0.5420  0.5376
 1517SOL    HW2 5993   7.086   2.206  12.321  0.5279 -0.8106 -0.3813
 1518SOL     OW 5994   0.465   4.294   0.314 -0.2430  0.5739 -0.2009
 1518SOL    HW1 5995   0.384   4.340   0.293  0.2219  0.5713 -2.1811
 1518SOL    HW2 5996   0.529   4.330   0.254  0.9387 -0.3026  0.4946
 1519SOL     OW 5997   1.970   4.758   0.288 -0.1905  0.0347 -0.2099
 1519SOL    HW1 5998   2.019   4.832   0.325 -2.1904  0.3093  2.0805
 1519SOL    HW2 5999   1.913   4.798   0.222 -2.8236  1.0650  2.4732
 1520SOL     OW 6000   2.886   1.296  10.152  0.0682 -0.2607  0.4361
 1520SOL    HW1 6001   2.965   1.287  10.099  0.1103 -0.2811  0.5018
 1520SOL    HW2 6002   2.832   1.221  10.125 -0.4026  0.3659 -0.4113
 1521SOL     OW 6003   1.842   1.719  12.401  0.1822 -0.7676  0.0573
 1521SOL    HW1 6004   1.906   1.785  12.375  1.3880 -1.4885  1.0494
 1521SOL    HW2 6005   1.848   1.716  12.496 -0.8340 -1.3561  0.1168
 1522SOL     OW 6006   0.681   3.507   0.051  0.3075 -0.0104  0.4085
 1522SOL    HW1 6007   0.740   3.440   0.018 -1.1491 -0.4489 -1.4814
 1522SOL    HW2 6008   0.595   3.465   0.053 -0.2416  1.0983  1.4990
 1523SOL     OW 6009   0.336   3.650  10.769 -0.2936 -0.1411 -0.1672
 1523SOL    HW1 6010   0.262   3.611  10.723 -0.2130 -1.1060  0.4859
 1523SOL    HW2 6011   0.410   3.641  10.708 -0.5506  0.1450 -0.5217
 1524SOL     OW 6012   1.025   3.360   1.358  0.2270 -0.2484  0.5264
 1524SOL    HW1 6013   1.080   3.292   1.395 -0.3520 -1.1508 -0.2238
 1524SOL    HW2 6014   1.010   3.332   1.268  2.1841  2.2126 -0.7094
 1525SOL     OW 6015   1.052   3.798   3.295 -0.5944  0.4271  0.0600
 1525SOL    HW1 6016   1.046   3.772   3.387 -0.5887  0.5225  0.0870
 1525SOL    HW2 6017   0.981   3.750   3.252  0.1204 -0.5179 -0.0890
 1526SOL     OW 6018   0.571   2.494   1.011  0.6040  0.2161 -0.0560
 1526SOL    HW1 6019   0.526   2.413   1.034  2.0654 -1.6070 -2.9572
 1526SOL    HW2 6020   0.502   2.554   0.983 -0.3880 -0.5960  0.6166
 1527SOL     OW 6021   1.723   2.845   0.691 -0.1138  0.6659 -0.2108
 1527SOL    HW1 6022   1.746   2.920   0.635 -2.3527  1.0303 -0.7503
 1527SOL    HW2 6023   1.778   2.774   0.659  0.5301  1.5385 -1.1174
 1528SOL     OW 6024   0.754   2.502   0.812  0.0272 -0.4680 -0.1838
 1528SOL    HW1 6025   0.687   2.504   0.880  1.0242 -0.8601  0.8404
 1528SOL    HW2 6026   0.710   2.534   0.734 -1.5574 -1.3869  0.2863
 1529SOL     OW 6027   2.073   3.587  12.408 -0.3048 -0.4600  0.3689
 1529SOL    HW1 6028   2.110   3.633  12.483  0.7264 -0.2527 -0.2580
 1529SOL    HW2 6029   2.119   3.623  12.332 -1.0716 -0.9273 -0.3361
 1530SOL     OW 6030   7.921   5.311   1.741 -0.0279 -0.4075  0.3246
 1530SOL    HW1 6031   7.864   5.375   1.699  0.5266  0.0608  0.2819
 1530SOL    HW2 6032   7.893   5.227   1.705  0.5726 -0.0061 -1.1651
 1531SOL     OW 6033   1.193   3.191   1.496  0.3624  0.5969 -0.9299
 1531SOL    HW1 6034   1.249   3.252   1.448 -2.0180  1.7794 -2.3761
 1531SOL    HW2 6035   1.183   3.231   1.582  1.8074  0.2704 -0.5764
 1532SOL     OW 6036   7.355   1.125   0.611 -0.7928 -0.2765 -0.0157
 1532SOL    HW1 6037   7.409   1.184   0.557 -0.1032 -1.2660 -0.4429
 1532SOL    HW2 6038   7.355   1.165   0.698  1.6039 -0.7906  0.3036
 1533SOL     OW 6039   0.884   3.329  12.455 -0.2024  0.1890  0.5710
 1533SOL    HW1 6040   0.875   3.251  12.510  0.0946  0.3893  0.9042
 1533SOL    HW2 6041   0.895   3.295  12.367  1.8478 -0.2061  0.9438
 1534SOL     OW 6042   6.848   4.700   0.390 -0.4143  0.7969  0.5041
 1534SOL    HW1 6043   6.884   4.700   0.301  0.7944  0.9021  0.9646
 1534SOL    HW2 6044   6.755   4.681   0.379 -0.3567  1.1949 -0.8081
 1535SOL     OW 6045   2.206   2.154   1.939 -0.4269 -0.6105 -0.1279
 1535SOL    HW1 6046   2.127   2.179   1.891 -0.3576 -2.5040 -1.3173
 1535SOL    HW2 6047   2.178   2.151   2.031 -1.2992  0.2873 -0.3461
 1536SOL     OW 6048   7.973   4.699   2.118 -0.0248 -0.5232  0.3402
 1536SOL    HW1 6049   8.024   4.754   2.177  1.0823 -1.7400  0.5636
 1536SOL    HW2 6050   7.971   4.613   2.160 -2.6442 -0.4525  0.5353
 1537SOL     OW 6051   6.996   3.417   1.247  0.4376  0.3254  0.6637
 1537SOL    HW1 6052   7.077   3.468   1.235  0.3512  0.2180 -0.5598
 1537SOL    HW2 6053   6.974   3.388   1.158 -1.5106  1.2060  0.8282
 1538SOL     OW 6054   0.305   3.594   0.034  0.1223 -0.4375 -0.1900
 1538SOL    HW1 6055   0.360   3.599   0.113  1.9595  0.0773 -1.4344
 1538SOL    HW2 6056   0.289   3.685   0.011  0.3466 -0.5680 -0.8892
 1539SOL     OW 6057   0.706   2.058   0.685 -0.2635 -0.1337 -0.0210
 1539SOL    HW1 6058   0.726   2.054   0.779  0.9243 -0.3543 -0.2646
 1539SOL    HW2 6059   0.619   2.098   0.680 -0.8184 -1.1256  1.2249
 1540SOL     OW 6060   7.633   3.448  12.425  0.3241 -0.4001 -0.0626
 1540SOL    HW1 6061   7.707   3.391  12.443  0.8229  0.0120 -0.7372
 1540SOL    HW2 6062   7.592   3.463  12.510  1.3419 -0.1930  0.4000
 1541SOL     OW 6063   7.284   1.907   2.265  0.8465  0.2457  0.2603
 1541SOL    HW1 6064   7.254   1.997   2.252 -2.5923 -0.6526  0.8096
 1541SOL    HW2 6065   7.263   1.863   2.182 -0.8635 -0.7480  1.1658
 1542SOL     OW 6066   6.332   2.432   1.036  0.4439  0.2712 -0.3030
 1542SOL    HW1 6067   6.281   2.481   0.971 -0.5514 -0.8515 -0.4102
 1542SOL    HW2 6068   6.266   2.399   1.097  1.3172  0.9152  1.0359
 1543SOL     OW 6069   7.995   2.867   0.997 -0.1525  0.2678 -0.4972
 1543SOL    HW1 6070   7.909   2.831   1.017 -0.0898  0.2647 -0.2353
 1543SOL    HW2 6071   7.995   2.954   1.037  0.1771  0.0416  0.0022
 1544SOL     OW 6072   7.237   3.404   0.065 -0.0083  0.1213  0.5826
 1544SOL    HW1 6073   7.160   3.455   0.090 -0.4778  0.5780 -1.6486
 1544SOL    HW2 6074   7.219   3.316   0.101 -0.5073  0.7573  1.9799
 1545SOL     OW 6075   7.542   2.811   1.068 -0.3750  0.3595  0.2241
 1545SOL    HW1 6076   7.479   2.775   1.131 -0.1384  1.6486  1.2396
 1545SOL    HW2 6077   7.521   2.767   0.985 -0.6535 -1.4193  1.1932
 1546SOL     OW 6078   0.967   3.054   1.666  0.3503  0.1977  0.4169
 1546SOL    HW1 6079   0.987   3.108   1.743 -3.2282 -0.2898  1.9196
 1546SOL    HW2 6080   0.910   3.110   1.612  0.2103 -0.5713 -0.2437
 1547SOL     OW 6081   1.594   2.086  11.946 -0.3167  0.0684 -0.3490
 1547SOL    HW1 6082   1.563   2.130  12.025  0.7578  0.1030  0.0705
 1547SOL    HW2 6083   1.601   1.994  11.970  1.0401  0.2343 -0.0557
 1548SOL     OW 6084   6.105   2.144  11.854  0.2841 -0.3197 -0.6478
 1548SOL    HW1 6085   6.132   2.126  11.764 -0.6578 -0.2978 -0.9379
 1548SOL    HW2 6086   6.115   2.060  11.899  0.0788 -0.5014 -0.9420
 1549SOL     OW 6087   1.645   2.875   0.250 -0.2125  0.3414  0.6475
 1549SOL    HW1 6088   1.603   2.857   0.166  1.0719 -0.8853  0.2407
 1549SOL    HW2 6089   1.622   2.966   0.269  0.2272  0.9478 -1.4715
 1550SOL     OW 6090   2.833   1.607   1.621 -1.0962 -0.2952  0.1590
 1550SOL    HW1 6091   2.888   1.544   1.667 -2.3678 -0.1935  1.8867
 1550SOL    HW2 6092   2.749   1.605   1.668 -1.7510  1.3745 -0.8612
 1551SOL     OW 6093   0.114   4.714  11.454  0.1754 -0.3203  0.5788
 1551SOL    HW1 6094   0.188   4.753  11.502 -0.0503 -0.5278  1.1086
 1551SOL    HW2 6095   0.050   4.785  11.449 -0.0795 -0.4915  1.2062
 1552SOL     OW 6096   1.277   3.207   2.567  0.0958 -0.1475  0.2509
 1552SOL    HW1 6097   1.364   3.209   2.608 -0.3765  0.3953  1.2736
 1552SOL    HW2 6098   1.288   3.256   2.486  0.8982 -0.6599  0.0418
 1553SOL     OW 6099   0.459   3.572  11.254  0.3430  1.0328 -0.8102
 1553SOL    HW1 6100   0.541   3.560  11.302  0.4437  0.2824 -1.1589
 1553SOL    HW2 6101   0.391   3.555  11.318  0.4783 -0.2938 -0.9869
 1554SOL     OW 6102   6.839   2.496   1.220 -0.3724 -0.7341 -0.0298
 1554SOL    HW1 6103   6.791   2.416   1.239 -0.6292 -1.5396 -3.4414
 1554SOL    HW2 6104   6.931   2.469   1.217 -0.5146 -1.1098 -1.8308
 1555SOL     OW 6105   0.220   2.209   2.182  0.1468 -0.1807 -0.0892
 1555SOL    HW1 6106   0.209   2.263   2.104  1.4228 -1.4666 -1.2357
 1555SOL    HW2 6107   0.314   2.187   2.182 -0.4295 -2.9603 -0.1198
 1556SOL     OW 6108   0.915   1.289   1.577 -0.1945  0.0151 -0.5714
 1556SOL    HW1 6109   0.839   1.244   1.541  1.4410 -2.5280 -1.1102
 1556SOL    HW2 6110   0.990   1.242   1.540  1.6170  0.3324  2.3926
 1557SOL     OW 6111   0.241   4.088  12.351 -0.2171 -0.1703 -0.2120
 1557SOL    HW1 6112   0.245   4.184  12.342  0.5375  0.0338  1.7965
 1557SOL    HW2 6113   0.175   4.061  12.287 -1.4152  1.8477  0.0789
 1558SOL     OW 6114   1.793   1.736   0.172  0.4243  0.0317  0.5801
 1558SOL    HW1 6115   1.802   1.684   0.251  0.6286 -0.2205  0.3933
 1558SOL    HW2 6116   1.808   1.826   0.200  0.9957 -0.1095  0.7380
 1559SOL     OW 6117   3.238   0.479   1.023  1.0834  0.3415 -0.3720
 1559SOL    HW1 6118   3.217   0.413   0.958  2.1390  1.0567 -1.4918
 1559SOL    HW2 6119   3.182   0.459   1.098  0.1654 -0.7690 -1.3324
 1560SOL     OW 6120   7.612   3.783   0.925 -0.9346  0.2605  0.3936
 1560SOL    HW1 6121   7.697   3.771   0.882  0.4257 -0.8048  3.1108
 1560SOL    HW2 6122   7.583   3.869   0.895  2.2080  1.6857  0.9944
 1561SOL     OW 6123   0.511   2.818  11.854 -0.9375 -0.0274  0.6210
 1561SOL    HW1 6124   0.577   2.847  11.918  1.2347 -0.2737 -1.3556
 1561SOL    HW2 6125   0.488   2.729  11.881  0.3447 -0.3216  0.8007
 1562SOL     OW 6126   0.164   4.690  11.185  0.2240 -0.2986  0.5992
 1562SOL    HW1 6127   0.165   4.673  11.279 -0.1925 -1.7033  0.3704
 1562SOL    HW2 6128   0.082   4.652  11.154  1.4835 -2.1094 -0.6986
 1563SOL     OW 6129   1.880   2.656  11.735 -0.0536 -0.3548 -0.2459
 1563SOL    HW1 6130   1.884   2.603  11.814  1.3258  1.0755  0.6962
 1563SOL    HW2 6131   1.924   2.602  11.668  1.4328 -0.3825  0.7138
 1564SOL     OW 6132   1.820   3.692  11.917  0.1863  0.3005 -0.2921
 1564SOL    HW1 6133   1.851   3.631  11.983 -0.7279  0.0970 -0.0348
 1564SOL    HW2 6134   1.896   3.708  11.861  0.5009 -0.8608 -0.2106
 1565SOL     OW 6135   1.267   2.773   0.255  0.0348  0.2320 -0.1838
 1565SOL    HW1 6136   1.257   2.679   0.269 -2.6357  0.1376 -1.9659
 1565SOL    HW2 6137   1.332   2.781   0.185 -0.1960 -0.3213 -0.4586
 1566SOL     OW 6138   1.921   3.523   0.409  0.3122 -0.0466  0.0969
 1566SOL    HW1 6139   1.994   3.488   0.357  0.7676  0.1535  0.5934
 1566SOL    HW2 6140   1.920   3.617   0.388 -1.0729 -0.3459 -1.4348
 1567SOL     OW 6141   1.900   2.645   0.633 -0.1261 -0.0083 -0.1921
 1567SOL    HW1 6142   1.913   2.691   0.550  0.4643 -1.1939 -0.7729
 1567SOL    HW2 6143   1.926   2.555   0.615 -0.8480 -0.4867  1.0422
 1568SOL     OW 6144   3.222   4.206   2.100 -0.3039 -0.6401  0.0757
 1568SOL    HW1 6145   3.175   4.220   2.018 -0.3371 -0.4552  0.1265
 1568SOL    HW2 6146   3.299   4.155   2.075 -1.1037 -1.9481  0.1514
 1569SOL     OW 6147   0.967   3.231   0.825 -0.3778  0.1239 -0.3369
 1569SOL    HW1 6148   1.048   3.267   0.789 -0.8663 -0.7342 -2.4502
 1569SOL    HW2 6149   0.980   3.136   0.824 -1.3945 -0.0257 -0.7505
 1570SOL     OW 6150   0.595   3.085  12.213  0.1357  0.4147 -0.5004
 1570SOL    HW1 6151   0.594   3.179  12.195  0.8645  0.5530  0.1457
 1570SOL    HW2 6152   0.509   3.067  12.251  0.3374  0.9978  0.2408
 1571SOL     OW 6153   1.892   0.083   1.979  0.1880 -0.1295  0.9859
 1571SOL    HW1 6154   1.797   0.082   1.965  0.5295 -0.0845 -2.1077
 1571SOL    HW2 6155   1.915  -0.008   1.997 -0.1772 -0.6558 -1.0368
 1572SOL     OW 6156   0.576   2.975   2.192 -0.4206 -0.7264 -0.4878
 1572SOL    HW1 6157   0.580   3.038   2.120 -0.1059 -0.2454 -0.0616
 1572SOL    HW2 6158   0.581   2.889   2.150 -2.1662 -0.5256 -1.1798
 1573SOL     OW 6159   7.294   2.888   0.908  0.0226 -0.0094 -0.0292
 1573SOL    HW1 6160   7.204   2.868   0.936 -0.2399  0.5257 -0.4758
 1573SOL    HW2 6161   7.323   2.955   0.969  0.9468 -1.7443  1.5442
 1574SOL     OW 6162   0.917   1.421   0.654 -0.5043  0.1528  0.1894
 1574SOL    HW1 6163   0.937   1.370   0.575 -0.9270  0.5232 -0.1588
 1574SOL    HW2 6164   0.879   1.356   0.714  2.3403 -0.7762  1.1937
 1575SOL     OW 6165   1.239   2.512   0.247 -0.1892  0.4978  0.1430
 1575SOL    HW1 6166   1.240   2.429   0.295  0.7411  1.1403  1.2886
 1575SOL    HW2 6167   1.266   2.489   0.158  2.5603 -0.1356  1.0321
 1576SOL     OW 6168   7.750   3.116  12.343  0.0818 -0.2741  0.7553
 1576SOL    HW1 6169   7.739   3.087  12.434 -0.6646  1.8658  1.4025
 1576SOL    HW2 6170   7.821   3.179  12.345 -1.0312  1.0512  0.1876
 1577SOL     OW 6171   0.721   2.042   0.969 -0.1334  0.2850  0.2617
 1577SOL    HW1 6172   0.651   2.056   1.032 -1.1861 -1.3989 -0.4741
 1577SOL    HW2 6173   0.801   2.043   1.021 -0.8199  0.7186  1.3414
 1578SOL     OW 6174   7.191   1.592   1.452  0.3375 -0.4032  0.4512
 1578SOL    HW1 6175   7.148   1.652   1.512 -0.1507  2.4615 -2.4620
 1578SOL    HW2 6176   7.278   1.631   1.437  0.8075 -1.5757 -0.0106
 1579SOL     OW 6177   0.997   1.711   0.959 -0.0211 -0.3594  0.1387
 1579SOL    HW1 6178   0.976   1.785   0.902 -1.1107 -1.9357 -1.6167
 1579SOL    HW2 6179   0.942   1.725   1.037 -2.4625 -0.7401 -1.3973
 1580SOL     OW 6180   4.141   5.058   2.391 -0.0650 -0.0761  0.3207
 1580SOL    HW1 6181   4.122   5.005   2.314 -0.1343 -0.6586  0.7378
 1580SOL    HW2 6182   4.113   5.005   2.465  1.0384  0.0152  0.8199
 1581SOL     OW 6183   4.413   1.539  11.999  0.2238 -0.2294  0.0493
 1581SOL    HW1 6184   4.420   1.532  12.094  1.0113 -0.3250 -0.0122
 1581SOL    HW2 6185   4.328   1.581  11.984 -0.1790 -0.7717  0.7692
 1582SOL     OW 6186   7.648   1.601   3.042 -0.3169  0.0769 -0.1553
 1582SOL    HW1 6187   7.637   1.576   3.134 -0.8741 -0.0547 -0.2548
 1582SOL    HW2 6188   7.633   1.520   2.993  2.3516 -0.4331 -0.2600
 1583SOL     OW 6189   0.551   0.961   1.268 -0.2813  0.2850  0.1199
 1583SOL    HW1 6190   0.536   0.962   1.173  0.1029 -1.7615 -0.0012
 1583SOL    HW2 6191   0.643   0.937   1.277 -0.8685 -1.7882  1.0061
 1584SOL     OW 6192   1.402   2.446   0.755  0.1619  0.2740  0.4210
 1584SOL    HW1 6193   1.346   2.458   0.832  0.8267  0.5491  0.8665
 1584SOL    HW2 6194   1.341   2.427   0.684 -0.3930 -1.4792  1.2993
 1585SOL     OW 6195   7.097   1.445   2.319 -0.7504  0.6120 -0.1250
 1585SOL    HW1 6196   7.017   1.461   2.370  0.0291  2.4399  0.5933
 1585SOL    HW2 6197   7.150   1.523   2.333  0.5553  0.0677 -1.7801
 1586SOL     OW 6198   6.935   1.049   1.768 -0.2158 -0.3079  0.3972
 1586SOL    HW1 6199   7.017   1.090   1.737 -0.9501 -0.1797 -1.5227
 1586SOL    HW2 6200   6.964   0.981   1.829  1.1990  1.0961  1.3841
 1587SOL     OW 6201   7.681   2.765   1.416  0.1462 -0.5886 -0.0335
 1587SOL    HW1 6202   7.775   2.755   1.433 -0.0498 -1.3994  0.6789
 1587SOL    HW2 6203   7.640   2.744   1.500 -0.6111  1.1030  0.0434
 1588SOL     OW 6204   1.074   3.374   0.571 -0.5117  0.4048 -0.4644
 1588SOL    HW1 6205   1.109   3.448   0.521 -0.7115  1.3456  0.7330
 1588SOL    HW2 6206   1.042   3.414   0.653  0.8533 -1.2232  0.9250
 1589SOL     OW 6207   1.088   3.368  12.028  0.4323  0.3778  0.4517
 1589SOL    HW1 6208   0.996   3.365  12.001  0.1124 -2.3212  1.5638
 1589SOL    HW2 6209   1.138   3.368  11.946 -0.5363  0.0880 -0.1494
 1590SOL     OW 6210   6.160   2.995   0.838 -0.0113  0.3670  0.5310
 1590SOL    HW1 6211   6.165   2.957   0.750 -0.1127  0.5677  0.4367
 1590SOL    HW2 6212   6.187   3.086   0.826 -4.0714  1.7319 -0.1563
 1591SOL     OW 6213   7.875   0.667   1.767  0.0333 -0.5851 -0.2675
 1591SOL    HW1 6214   7.920   0.742   1.805  1.9173 -1.5255 -0.5123
 1591SOL    HW2 6215   7.856   0.693   1.677 -0.0884 -0.1065 -0.1059
 1592SOL     OW 6216   1.105   2.225   0.626 -0.2442  0.1014  0.1075
 1592SOL    HW1 6217   1.047   2.156   0.595 -1.3836  0.8329  0.5328
 1592SOL    HW2 6218   1.104   2.216   0.722  0.0184  0.3661  0.1351
 1593SOL     OW 6219   1.539   2.104   1.267 -0.5278 -0.2269 -0.6137
 1593SOL    HW1 6220   1.573   2.123   1.180 -0.4417 -0.0450 -0.5399
 1593SOL    HW2 6221   1.578   2.170   1.324  2.3733 -2.4757  0.2677
 1594SOL     OW 6222   1.355   1.788   1.251 -0.0462 -0.0170  0.3352
 1594SOL    HW1 6223   1.357   1.841   1.171  0.7872  0.4703  0.6660
 1594SOL    HW2 6224   1.281   1.728   1.238  0.8186 -0.8118 -1.3529
 1595SOL     OW 6225   7.614   2.436  12.468  0.2484  0.5642 -0.3759
 1595SOL    HW1 6226   7.616   2.515  12.414  0.7208 -0.1717 -1.4655
 1595SOL    HW2 6227   7.530   2.440  12.514 -0.8050  0.5153 -2.2347
 1596SOL     OW 6228   1.006   2.049  12.126  0.3900  0.4601 -0.2468
 1596SOL    HW1 6229   1.057   2.115  12.079  1.8016 -0.4175  0.0067
 1596SOL    HW2 6230   0.920   2.090  12.139  0.6363  1.5190 -1.7105
 1597SOL     OW 6231   1.504   3.348   1.712 -0.0946  0.2947 -0.2731
 1597SOL    HW1 6232   1.529   3.429   1.669 -0.3590  0.9325  0.7482
 1597SOL    HW2 6233   1.471   3.292   1.641 -0.8665  1.4451 -0.8335
 1598SOL     OW 6234   1.588   2.765   3.642 -0.0466  0.0218 -0.5438
 1598SOL    HW1 6235   1.499   2.796   3.659  0.4291  0.6847  1.0108
 1598SOL    HW2 6236   1.580   2.707   3.566 -2.2238 -1.9039  1.0011
 1599SOL     OW 6237   0.850   2.324   1.040 -0.3107  0.4628 -0.3247
 1599SOL    HW1 6238   0.801   2.391   0.993 -0.5560  1.2760  1.0450
 1599SOL    HW2 6239   0.792   2.248   1.040 -0.7870  0.8190 -0.3679
 1600SOL     OW 6240   1.587   1.791  12.302 -0.0759  0.9387 -0.3181
 1600SOL    HW1 6241   1.501   1.751  12.311  0.3400 -0.5693 -2.2617
 1600SOL    HW2 6242   1.648   1.721  12.323  0.7472  2.1504  1.6406
 1601SOL     OW 6243   1.225   4.573  10.981  0.0815  0.5599 -0.0607
 1601SOL    HW1 6244   1.278   4.531  10.914 -0.0161  0.8505 -0.3267
 1601SOL    HW2 6245   1.283   4.583  11.056  0.1821  0.2035 -0.0938
 1602SOL     OW 6246   7.752   2.419   3.360  0.2472  0.4925  0.0148
 1602SOL    HW1 6247   7.799   2.352   3.309  0.2154  1.8164 -1.8662
 1602SOL    HW2 6248   7.822   2.473   3.397  0.2823 -0.6623  1.7716
 1603SOL     OW 6249   7.443   4.544  12.357  0.1056  0.0010  0.5808
 1603SOL    HW1 6250   7.367   4.531  12.300  0.6677 -0.8553  0.0067
 1603SOL    HW2 6251   7.500   4.470  12.337  0.9874  0.5167  1.1729
 1604SOL     OW 6252   6.375   3.686  11.617  0.2429  0.3576 -0.2664
 1604SOL    HW1 6253   6.361   3.656  11.707  0.0004  0.6802 -0.1934
 1604SOL    HW2 6254   6.412   3.611  11.572 -2.9279 -1.0306 -0.8173
 1605SOL     OW 6255   0.344   2.245   0.981 -0.4084  0.5917  0.4734
 1605SOL    HW1 6256   0.264   2.219   0.938 -1.2724  1.3422  1.5599
 1605SOL    HW2 6257   0.406   2.263   0.910 -2.0723  2.7748 -0.5313
 1606SOL     OW 6258   7.667   0.154   3.310 -1.0177  0.2614  0.2480
 1606SOL    HW1 6259   7.649   0.132   3.401  1.6811 -0.6146  0.6303
 1606SOL    HW2 6260   7.671   0.250   3.310  1.1922  0.2302  1.5809
 1607SOL     OW 6261   0.498   3.251   1.753  0.0155 -0.1260  0.3930
 1607SOL    HW1 6262   0.476   3.343   1.741  0.2120 -0.0945  0.2617
 1607SOL    HW2 6263   0.425   3.204   1.712  0.8101 -0.0134 -1.2290
 1608SOL     OW 6264   0.046   2.550   1.849  0.1980 -0.0968  0.0085
 1608SOL    HW1 6265   0.045   2.611   1.923  1.1374 -0.3671  0.2530
 1608SOL    HW2 6266   0.002   2.598   1.778  2.4166  1.5945 -0.3380
 1609SOL     OW 6267   6.997   2.548  10.901  0.1449 -0.0474  0.0649
 1609SOL    HW1 6268   7.030   2.531  10.990  0.4845 -1.0712 -0.2394
 1609SOL    HW2 6269   6.912   2.504  10.899 -0.0999  0.4184  0.0365
 1610SOL     OW 6270   0.606   2.743   0.060  0.1270  0.1562 -0.0622
 1610SOL    HW1 6271   0.534   2.794   0.097 -0.3838 -0.5011 -0.1246
 1610SOL    HW2 6272   0.659   2.807   0.012 -0.1190  0.7361  0.4266
 1611SOL     OW 6273   0.418   4.250   0.610 -0.4079  0.1489 -0.2676
 1611SOL    HW1 6274   0.439   4.343   0.610  0.0054  0.0651  0.5267
 1611SOL    HW2 6275   0.407   4.227   0.518 -0.5290  0.9852 -0.4630
 1612SOL     OW 6276   1.333   1.350   2.361 -0.4281 -1.0039  0.0224
 1612SOL    HW1 6277   1.324   1.425   2.421 -1.6269  0.1021 -1.4621
 1612SOL    HW2 6278   1.426   1.328   2.364 -0.4827 -1.1941  2.4888
 1613SOL     OW 6279   1.982   0.657   1.545 -0.1012  0.2237  0.0060
 1613SOL    HW1 6280   1.942   0.614   1.621 -0.9929 -2.2438 -1.7339
 1613SOL    HW2 6281   1.926   0.633   1.472  2.2660  0.1438 -1.8849
 1614SOL     OW 6282   1.274   2.339   1.411  0.4866  0.0057  0.4309
 1614SOL    HW1 6283   1.232   2.351   1.326  1.1392 -0.3669  0.0458
 1614SOL    HW2 6284   1.299   2.247   1.412 -0.5804 -0.3040  1.5316
 1615SOL     OW 6285   0.820   2.640   0.237 -0.8174  0.4322  0.0011
 1615SOL    HW1 6286   0.783   2.713   0.188 -0.5130  0.4404 -0.2184
 1615SOL    HW2 6287   0.870   2.681   0.308  1.9130  0.5829 -1.8755
 1616SOL     OW 6288   6.920   2.895   2.890 -0.4545 -0.2999 -0.7516
 1616SOL    HW1 6289   6.870   2.847   2.956 -0.0087 -0.9191 -0.8538
 1616SOL    HW2 6290   6.966   2.964   2.939 -0.0408 -0.8239 -0.3897
 1617SOL     OW 6291   7.412   3.996   2.002 -0.0465 -0.3254  0.0140
 1617SOL    HW1 6292   7.341   3.953   2.050 -0.3287 -1.0583 -1.0474
 1617SOL    HW2 6293   7.453   4.052   2.068 -1.5123  0.0240  0.6865
 1618SOL     OW 6294   0.873   2.193   3.650 -0.2202 -0.1518 -0.1470
 1618SOL    HW1 6295   0.903   2.224   3.565 -1.0554 -0.3821 -0.5325
 1618SOL    HW2 6296   0.931   2.236   3.713  1.5296 -1.2753 -0.8999
 1619SOL     OW 6297   7.510   2.907  12.320  0.1509  0.0601  0.2218
 1619SOL    HW1 6298   7.422   2.941  12.308 -0.1499 -1.1549 -1.2443
 1619SOL    HW2 6299   7.567   2.980  12.297 -0.4854  0.0242 -1.6061
 1620SOL     OW 6300   7.440   3.177   2.384 -0.2886 -0.1823 -0.0875
 1620SOL    HW1 6301   7.530   3.168   2.352 -0.5111 -1.0675 -0.5115
 1620SOL    HW2 6302   7.426   3.099   2.438 -0.9904 -0.3595 -0.5120
 1621SOL     OW 6303   7.545   2.774   2.195  0.1289 -0.5705  0.0079
 1621SOL    HW1 6304   7.622   2.765   2.140  0.8981  1.5252  0.6532
 1621SOL    HW2 6305   7.555   2.705   2.261  2.1872  0.4423  0.8550
 1622SOL     OW 6306   7.777   4.333   1.445 -0.3947 -0.5068  0.4198
 1622SOL    HW1 6307   7.829   4.413   1.441  0.3489 -0.9345  1.1192
 1622SOL    HW2 6308   7.686   4.363   1.445 -0.1647  0.2640 -0.6839
 1623SOL     OW 6309   0.020   3.147   1.024  0.1355 -0.0786 -0.0076
 1623SOL    HW1 6310   0.037   3.206   1.098 -0.2011 -0.8250  0.6867
 1623SOL    HW2 6311   0.095   3.158   0.966 -0.4799  1.9289 -0.5141
 1624SOL     OW 6312   0.682   1.770   0.868  0.4002  1.0156  0.1616
 1624SOL    HW1 6313   0.623   1.732   0.933 -0.1907  1.0503 -0.3438
 1624SOL    HW2 6314   0.716   1.849   0.910  2.4266 -0.5312  1.6224
 1625SOL     OW 6315   7.357   4.588   0.564  0.3163  0.3423 -0.5417
 1625SOL    HW1 6316   7.332   4.637   0.486  1.2579  0.1968 -0.9481
 1625SOL    HW2 6317   7.275   4.573   0.610 -0.0820  1.6630 -0.7744
 1626SOL     OW 6318   1.094   2.259   1.979  0.0103  0.0625  0.1803
 1626SOL    HW1 6319   1.159   2.236   1.912  1.0300 -0.6708  1.3726
 1626SOL    HW2 6320   1.069   2.176   2.018 -0.8473  0.4426  0.4671
 1627SOL     OW 6321   1.730   1.087  11.886  0.4058  0.6053  0.1661
 1627SOL    HW1 6322   1.646   1.056  11.920  0.3938  0.2233 -0.2032
 1627SOL    HW2 6323   1.751   1.026  11.815  0.6843  1.0848 -0.1659
 1628SOL     OW 6324   2.725   1.268   0.124 -0.2941  0.0744 -0.3578
 1628SOL    HW1 6325   2.695   1.355   0.098  0.5597  0.3115 -0.5632
 1628SOL    HW2 6326   2.751   1.226   0.042  1.2558  0.3891 -0.0648
 1629SOL     OW 6327   2.316   1.389  12.416  0.6624  0.2503  0.3897
 1629SOL    HW1 6328   2.282   1.300  12.411  1.8967 -0.3366  1.7005
 1629SOL    HW2 6329   2.370   1.399  12.337 -1.1575  0.6362 -0.8709
 1630SOL     OW 6330   7.860   5.200   1.369  0.7805 -0.0173  0.1816
 1630SOL    HW1 6331   7.780   5.231   1.411  0.3209 -0.0080 -0.6782
 1630SOL    HW2 6332   7.839   5.111   1.340  0.5953  0.4697 -1.2739
 1631SOL     OW 6333   0.001   3.464  12.040 -0.0454  0.1502 -0.0696
 1631SOL    HW1 6334   0.041   3.527  12.100  1.4211  0.8167 -1.6711
 1631SOL    HW2 6335   0.056   3.387  12.046  0.2353  0.2926 -0.6733
 1632SOL     OW 6336   0.777   2.314   2.399  0.1431  1.0337 -0.1311
 1632SOL    HW1 6337   0.744   2.305   2.310  0.6101  2.5329 -0.4778
 1632SOL    HW2 6338   0.767   2.407   2.420  2.1570  1.1568  0.5115
 1633SOL     OW 6339   7.750   2.805  12.081  0.1401 -0.3008 -0.5619
 1633SOL    HW1 6340   7.765   2.815  11.987 -2.2443  4.3448 -0.7005
 1633SOL    HW2 6341   7.834   2.827  12.122  0.6868 -0.5526 -1.5235
 1634SOL     OW 6342   0.432   3.860   0.568  0.3879  0.2748 -0.0976
 1634SOL    HW1 6343   0.420   3.919   0.493 -0.6875 -0.6632 -0.6977
 1634SOL    HW2 6344   0.352   3.809   0.571  0.7877 -0.3153  1.1775
 1635SOL     OW 6345   2.061   1.315   0.545  0.4703 -0.4814 -0.2012
 1635SOL    HW1 6346   2.016   1.313   0.460 -1.0519  0.9492  0.5092
 1635SOL    HW2 6347   2.037   1.232   0.587  1.0086 -1.0751 -1.0396
 1636SOL     OW 6348   0.735   2.171  12.177  0.7554  0.7746  0.7978
 1636SOL    HW1 6349   0.646   2.134  12.173  0.7118  0.9190  0.3759
 1636SOL    HW2 6350   0.728   2.255  12.131  1.6099 -0.2603 -1.3668
 1637SOL     OW 6351   0.864   4.094  10.190  0.3510 -0.0749  0.2881
 1637SOL    HW1 6352   0.926   4.109  10.262 -0.9829  1.4273  1.1818
 1637SOL    HW2 6353   0.785   4.061  10.233 -0.0837 -0.2428 -0.6258
 1638SOL     OW 6354   0.986   3.779   1.333  0.3609 -1.1342 -0.2454
 1638SOL    HW1 6355   0.977   3.743   1.245  0.7375  0.1410 -0.8281
 1638SOL    HW2 6356   0.905   3.756   1.377  0.4484 -2.3725 -0.7052
 1639SOL     OW 6357   1.770   2.580   0.955 -0.1850 -0.0114 -0.4848
 1639SOL    HW1 6358   1.767   2.486   0.969 -2.3085 -0.0534 -0.9767
 1639SOL    HW2 6359   1.685   2.612   0.982  0.9464  2.0020  0.9615
 1640SOL     OW 6360   0.968   4.708  11.020  0.1917  0.2351 -0.3165
 1640SOL    HW1 6361   1.002   4.736  11.105 -0.7866 -1.2890  0.6220
 1640SOL    HW2 6362   1.044   4.670  10.976  0.4976  0.1219  0.2871
 1641SOL     OW 6363   0.286   3.059   0.908  0.1630 -0.2082  0.2432
 1641SOL    HW1 6364   0.297   3.153   0.890  0.6250 -0.5119 -1.2019
 1641SOL    HW2 6365   0.375   3.028   0.924 -0.1514 -0.1080  2.4846
 1642SOL     OW 6366   1.393   2.352   1.672  0.2924 -0.4860  0.2505
 1642SOL    HW1 6367   1.396   2.406   1.593  2.7998 -0.9768 -0.0466
 1642SOL    HW2 6368   1.369   2.265   1.641  0.0339 -0.4101  0.2285
 1643SOL     OW 6369   1.411   1.922   0.865  0.7012 -0.3723 -0.0174
 1643SOL    HW1 6370   1.372   1.975   0.795  1.8449 -0.8641 -1.0761
 1643SOL    HW2 6371   1.463   1.856   0.819  0.5902 -1.4199  1.3002
 1644SOL     OW 6372   0.278   1.790   0.480 -0.2348 -0.2937  0.0305
 1644SOL    HW1 6373   0.345   1.851   0.511 -0.0662  0.5302 -1.8743
 1644SOL    HW2 6374   0.328   1.716   0.443 -0.4353 -1.0680  1.2380
 1645SOL     OW 6375   7.992   4.449   0.132 -0.2098 -0.2567 -0.0430
 1645SOL    HW1 6376   7.955   4.446   0.044  0.4887 -2.5535 -0.3185
 1645SOL    HW2 6377   7.932   4.397   0.185  1.7480 -2.9280 -0.2280
 1646SOL     OW 6378   1.650   1.993   1.011 -0.0862 -0.2062  0.0348
 1646SOL    HW1 6379   1.570   1.956   0.974  0.0952  0.7233 -1.3690
 1646SOL    HW2 6380   1.666   1.943   1.091 -1.3739 -1.2326 -0.3345
 1647SOL     OW 6381   7.978   4.718   0.234 -0.5259 -0.4436  0.0700
 1647SOL    HW1 6382   7.963   4.761   0.149 -0.5816 -2.7162 -1.1449
 1647SOL    HW2 6383   8.002   4.629   0.212  3.2005 -0.2165  2.3521
 1648SOL     OW 6384   7.545   1.098   3.403  0.3645  0.5100 -0.3491
 1648SOL    HW1 6385   7.612   1.045   3.447 -1.1388 -1.1781  0.0300
 1648SOL    HW2 6386   7.532   1.173   3.461 -0.6526 -1.0205  1.5197
 1649SOL     OW 6387   1.835   0.888   1.410 -0.1748 -0.2876 -0.0348
 1649SOL    HW1 6388   1.767   0.822   1.420  0.6643 -1.3420 -1.0399
 1649SOL    HW2 6389   1.893   0.875   1.485 -0.1302 -0.5673 -0.1157
 1650SOL     OW 6390   7.315   3.568  10.661 -0.5413  0.4922  0.2147
 1650SOL    HW1 6391   7.237   3.519  10.688 -1.0527  0.6774 -0.8914
 1650SOL    HW2 6392   7.344   3.612  10.741 -1.4855  0.2978  0.6788
 1651SOL     OW 6393   0.653   3.047   1.153 -0.1103  0.4710 -0.3123
 1651SOL    HW1 6394   0.724   2.994   1.187  0.1149  1.7986  1.4501
 1651SOL    HW2 6395   0.684   3.137   1.161 -2.2886  1.1550  1.4103
 1652SOL     OW 6396   0.624   3.084   0.233 -0.3062 -0.1043 -0.3290
 1652SOL    HW1 6397   0.592   3.173   0.249 -1.3108  0.1215 -2.9459
 1652SOL    HW2 6398   0.716   3.096   0.210 -0.5437  0.3577 -1.1030
 1653SOL     OW 6399   1.567   1.402  12.226  0.0024 -0.5204  0.2376
 1653SOL    HW1 6400   1.615   1.465  12.172  1.1306 -0.7029  1.0133
 1653SOL    HW2 6401   1.492   1.452  12.259  0.7222  0.3398  0.6041
 1654SOL     OW 6402   0.999   2.859   2.320  0.1420  0.3704  0.4783
 1654SOL    HW1 6403   1.084   2.879   2.358  0.3151 -0.3307  0.4894
 1654SOL    HW2 6404   0.936   2.899   2.379  0.4707  1.4193  0.1415
 1655SOL     OW 6405   0.606   5.727   0.296 -0.4201  0.5315  0.7621
 1655SOL    HW1 6406   0.669   5.746   0.227 -1.6425 -2.6865 -1.4540
 1655SOL    HW2 6407   0.648   5.659   0.349 -0.5547  1.1033  1.6325
 1656SOL     OW 6408   7.681   1.479   2.591  0.1189  0.2711  0.0547
 1656SOL    HW1 6409   7.594   1.461   2.628 -1.3434  2.5973 -1.8773
 1656SOL    HW2 6410   7.725   1.394   2.591 -1.8635 -0.8742  1.7739
 1657SOL     OW 6411   0.424   2.979  12.401  0.5605 -0.1043  0.2924
 1657SOL    HW1 6412   0.454   2.893  12.372 -1.8296 -0.7859 -0.3872
 1657SOL    HW2 6413   0.396   2.966  12.491  1.2598  0.2609  0.5684
 1658SOL     OW 6414   1.131   4.006   1.633 -0.5778 -0.1020 -0.1384
 1658SOL    HW1 6415   1.118   4.044   1.546  0.3005  0.1280 -0.1792
 1658SOL    HW2 6416   1.164   4.078   1.686 -1.3217 -0.1871  0.4483
 1659SOL     OW 6417   1.212   2.964   2.407 -0.3908  0.0032 -0.2700
 1659SOL    HW1 6418   1.276   2.927   2.469 -1.7327 -0.7890  0.7148
 1659SOL    HW2 6419   1.214   3.058   2.424 -0.0316 -0.1020  0.3170
 1660SOL     OW 6420   0.374   3.109   0.487 -0.4574 -0.2323  0.1018
 1660SOL    HW1 6421   0.386   3.159   0.568  2.3186  0.4418 -0.6243
 1660SOL    HW2 6422   0.388   3.173   0.417  2.0793 -1.6878 -0.8621
 1661SOL     OW 6423   7.562   2.568   2.395  0.4568  0.4819  0.2664
 1661SOL    HW1 6424   7.475   2.564   2.437  0.5512  1.1064  0.5321
 1661SOL    HW2 6425   7.590   2.477   2.390 -0.2242  0.2716  0.1630
 1662SOL     OW 6426   0.937   2.451   0.474  0.0147 -0.0658  0.4626
 1662SOL    HW1 6427   0.856   2.458   0.424  1.1484 -1.4033 -1.7061
 1662SOL    HW2 6428   1.002   2.420   0.410  1.9204 -0.3551  2.4327
 1663SOL     OW 6429   2.778   3.284   1.472  0.0920 -0.6057  0.0437
 1663SOL    HW1 6430   2.688   3.297   1.501 -0.0153 -0.4007 -0.3777
 1663SOL    HW2 6431   2.804   3.199   1.509 -0.3859 -0.8210 -0.1177
 1664SOL     OW 6432   1.016   0.584   1.104 -0.0183  0.0698  0.4505
 1664SOL    HW1 6433   1.055   0.517   1.049 -0.3773  0.8763 -0.8252
 1664SOL    HW2 6434   1.001   0.541   1.188  0.4203 -1.2243 -0.1185
 1665SOL     OW 6435   0.017   4.079   1.791  0.1312 -0.2383 -0.4574
 1665SOL    HW1 6436  -0.036   4.139   1.738  0.4661 -0.7749 -1.4197
 1665SOL    HW2 6437   0.048   4.133   1.864 -0.4664  0.4772 -0.7181
 1666SOL     OW 6438   0.957   2.446   2.940 -0.4039  0.8006 -0.4619
 1666SOL    HW1 6439   1.003   2.413   2.863 -1.1818  0.1635 -0.6578
 1666SOL    HW2 6440   1.000   2.530   2.959  0.0437  0.7845 -1.3544
 1667SOL     OW 6441   0.397   1.611   0.275 -0.6053 -0.8905 -0.2802
 1667SOL    HW1 6442   0.432   1.670   0.209 -0.1027 -0.7243  0.1277
 1667SOL    HW2 6443   0.303   1.606   0.256 -0.3771 -1.3569 -1.4061
 1668SOL     OW 6444   1.919   3.112  12.368 -0.5784  0.0334 -0.3193
 1668SOL    HW1 6445   1.984   3.175  12.338  0.5164 -0.8397  0.1377
 1668SOL    HW2 6446   1.837   3.161  12.369  0.3992  1.7951  1.0671
 1669SOL     OW 6447   7.696   3.332   4.689 -0.3776 -0.0299  0.4403
 1669SOL    HW1 6448   7.657   3.245   4.691  0.1243 -0.2635  0.3157
 1669SOL    HW2 6449   7.640   3.386   4.746  0.0751 -0.7604  1.6182
 1670SOL     OW 6450   6.545   3.664  11.343 -0.8118  0.2074  0.2650
 1670SOL    HW1 6451   6.465   3.611  11.337 -1.4928  1.2581 -0.3701
 1670SOL    HW2 6452   6.514   3.751  11.367  0.0491  0.8394 -0.8102
 1671SOL     OW 6453   7.374   2.186   0.754  0.2456 -0.2017 -0.3097
 1671SOL    HW1 6454   7.337   2.229   0.831 -0.5436  0.6348 -1.1227
 1671SOL    HW2 6455   7.299   2.175   0.695  0.8755 -0.6440 -1.0428
 1672SOL     OW 6456   2.205   1.715   1.249  0.1238  0.4470  0.0301
 1672SOL    HW1 6457   2.280   1.772   1.229 -1.0628  1.3662 -2.1456
 1672SOL    HW2 6458   2.156   1.763   1.315  0.1230  1.0675 -0.4127
 1673SOL     OW 6459   7.872   4.322  11.735 -0.0076 -0.0043 -0.1124
 1673SOL    HW1 6460   7.831   4.402  11.767  0.5570 -0.5701  2.1891
 1673SOL    HW2 6461   7.954   4.351  11.695 -1.6025  0.9274 -3.0871
 1674SOL     OW 6462   1.303   3.246  12.115  1.0571  0.7312 -0.3922
 1674SOL    HW1 6463   1.228   3.296  12.083  0.5707 -0.0558 -0.5184
 1674SOL    HW2 6464   1.280   3.221  12.205  1.3263  0.7929 -0.3030
 1675SOL     OW 6465   6.411   2.711   0.854  0.0399  0.1110  0.0168
 1675SOL    HW1 6466   6.395   2.805   0.846 -0.1939  0.2090  1.4405
 1675SOL    HW2 6467   6.477   2.704   0.923 -1.0737 -0.8471  1.0151
 1676SOL     OW 6468   0.706   3.885   0.784  0.4515  0.0780  0.7179
 1676SOL    HW1 6469   0.611   3.874   0.785  0.3287  1.1073  1.5364
 1676SOL    HW2 6470   0.722   3.955   0.722  0.7546 -0.6232 -0.0129
 1677SOL     OW 6471   7.793   1.805  11.173  0.3783  0.1287 -0.0060
 1677SOL    HW1 6472   7.774   1.853  11.253 -1.2135 -2.5653  1.3800
 1677SOL    HW2 6473   7.792   1.713  11.199  3.3557 -0.7891 -2.4461
 1678SOL     OW 6474   7.477   1.919   2.474  0.6071  1.1244 -0.3719
 1678SOL    HW1 6475   7.397   1.926   2.422  0.1485  0.5592  0.2459
 1678SOL    HW2 6476   7.489   1.826   2.489  1.1128  1.2365 -0.0384
 1679SOL     OW 6477   1.022   2.494   1.409  0.5261  0.1974  0.2707
 1679SOL    HW1 6478   0.949   2.434   1.419 -1.4920  2.7716  2.2747
 1679SOL    HW2 6479   1.072   2.485   1.490  1.8332 -0.6321 -0.5661
 1680SOL     OW 6480   1.491   5.180  12.345  0.6530  0.2189  0.1352
 1680SOL    HW1 6481   1.441   5.175  12.427  0.9506 -3.6397  0.2333
 1680SOL    HW2 6482   1.456   5.258  12.301 -1.1569  1.0968  2.8384
 1681SOL     OW 6483   2.306   4.597   1.420 -0.1124 -0.1007  0.3110
 1681SOL    HW1 6484   2.321   4.683   1.381  1.8603 -1.1123 -1.3925
 1681SOL    HW2 6485   2.212   4.595   1.439 -0.0581  2.7650  1.3941
 1682SOL     OW 6486   2.877   2.962   0.668  0.0678  0.4028  0.0317
 1682SOL    HW1 6487   2.844   2.984   0.581 -1.0029  1.0314  0.5874
 1682SOL    HW2 6488   2.842   2.874   0.685  0.9749 -0.0780 -0.5021
 1683SOL     OW 6489   2.883   2.081  12.021  0.8787  0.3847  0.3936
 1683SOL    HW1 6490   2.831   2.077  12.101 -0.0569 -0.0730 -0.2097
 1683SOL    HW2 6491   2.849   2.009  11.967 -0.0557  2.0101 -1.2986
 1684SOL     OW 6492   6.968   2.979   0.253 -0.3588  0.4439 -0.6093
 1684SOL    HW1 6493   6.897   2.951   0.311 -1.6586  1.4667 -1.6501
 1684SOL    HW2 6494   7.035   2.911   0.263 -1.3535 -0.4122  0.6019
 1685SOL     OW 6495   0.455   3.330   1.349 -0.4832 -0.2656  0.0442
 1685SOL    HW1 6496   0.506   3.367   1.277 -1.1774  0.5857 -0.0303
 1685SOL    HW2 6497   0.488   3.241   1.359  0.8732  0.1988 -0.1243
 1686SOL     OW 6498   0.759   4.246   3.924  0.1669 -0.1126  0.3169
 1686SOL    HW1 6499   0.786   4.200   4.004  0.3855  1.1788  1.0139
 1686SOL    HW2 6500   0.726   4.330   3.955 -0.6752  0.0219 -0.8891
 1687SOL     OW 6501   0.377   0.201   2.988 -0.7834  0.3885  0.0871
 1687SOL    HW1 6502   0.457   0.252   2.971 -0.2364  0.0317  1.4130
 1687SOL    HW2 6503   0.353   0.165   2.903  1.8993 -1.5260  0.0182
 1688SOL     OW 6504   0.694   2.129   3.104  0.7241 -0.3343  0.1739
 1688SOL    HW1 6505   0.787   2.105   3.104  0.2730 -2.2623 -0.3862
 1688SOL    HW2 6506   0.657   2.081   3.178 -0.2852 -1.7355 -1.1826
 1689SOL     OW 6507   7.964   2.248   3.724 -0.3514 -0.4583 -0.2657
 1689SOL    HW1 6508   7.934   2.205   3.644 -1.1759  1.1708 -0.8660
 1689SOL    HW2 6509   8.002   2.177   3.776 -2.0039 -1.9869 -1.0319
 1690SOL     OW 6510   1.143   3.633   3.862 -0.3069 -0.2184  0.1341
 1690SOL    HW1 6511   1.216   3.632   3.799 -1.4789 -0.8330 -1.2789
 1690SOL    HW2 6512   1.165   3.564   3.925 -0.4872 -1.6305 -1.2982
 1691SOL     OW 6513   0.728   0.719   4.843 -0.7737  0.2810  0.2718
 1691SOL    HW1 6514   0.805   0.761   4.882 -1.0565  0.9938  0.0775
 1691SOL    HW2 6515   0.709   0.645   4.901  0.1110  0.0364  0.2718
 1692SOL     OW 6516   0.123   2.973   2.061  0.3369  0.3853  0.5592
 1692SOL    HW1 6517   0.145   3.067   2.059 -0.6986  0.6661 -2.4085
 1692SOL    HW2 6518   0.187   2.933   2.002 -2.0704  0.0357 -1.9917
 1693SOL     OW 6519   0.445   1.441   4.555 -0.1636  0.5510 -0.4898
 1693SOL    HW1 6520   0.403   1.367   4.512 -0.7028  1.8210 -2.2645
 1693SOL    HW2 6521   0.467   1.501   4.484 -2.4730  3.4917  1.0079
 1694SOL     OW 6522   0.031   3.675   3.345 -0.4728 -0.0269 -0.4984
 1694SOL    HW1 6523  -0.064   3.680   3.339 -0.5424 -0.5686  0.1952
 1694SOL    HW2 6524   0.049   3.611   3.414  0.3769  1.7425  1.0115
 1695SOL     OW 6525   1.909   1.287   1.608 -0.3878  0.3366  0.2200
 1695SOL    HW1 6526   1.893   1.378   1.631 -0.9625  0.9380 -2.2396
 1695SOL    HW2 6527   1.837   1.239   1.650 -1.2288  1.2910 -0.0994
 1696SOL     OW 6528   0.774   1.321   3.519  0.4909  0.2497  0.0213
 1696SOL    HW1 6529   0.728   1.393   3.474 -0.7483 -0.8901 -0.6101
 1696SOL    HW2 6530   0.746   1.329   3.610 -2.2908 -1.2819 -0.5714
 1697SOL     OW 6531   1.836   3.994   4.098 -0.1023 -0.1369  0.0662
 1697SOL    HW1 6532   1.836   3.902   4.074  1.5889 -0.0300 -0.5270
 1697SOL    HW2 6533   1.926   4.010   4.129  0.2352  1.7198 -1.6338
 1698SOL     OW 6534   3.001   3.820   1.843  0.1701 -0.4659 -0.0921
 1698SOL    HW1 6535   3.030   3.887   1.905 -0.4337 -0.6917  0.4412
 1698SOL    HW2 6536   3.074   3.758   1.839  1.0774  0.6163 -1.1997
 1699SOL     OW 6537   1.121   4.106   3.553  0.3718 -0.4089 -0.0177
 1699SOL    HW1 6538   1.030   4.115   3.523  0.7074  3.0962 -0.4157
 1699SOL    HW2 6539   1.122   4.145   3.640  1.5884  0.4270 -0.3695
 1700SOL     OW 6540   0.831   2.324   1.579  0.1716  0.5871  0.5612
 1700SOL    HW1 6541   0.850   2.380   1.654  3.0381  1.2260 -0.5264
 1700SOL    HW2 6542   0.914   2.279   1.562 -1.4434 -2.4705  0.0946
 1701SOL     OW 6543   6.918   1.966   2.460  0.4719  0.4212  0.3402
 1701SOL    HW1 6544   6.897   2.051   2.419 -0.0164  0.7889  1.3231
 1701SOL    HW2 6545   7.012   1.955   2.444  0.0933 -0.0703 -1.9758
 1702SOL     OW 6546   1.440   2.646   3.082  0.6408 -0.4617 -0.1200
 1702SOL    HW1 6547   1.441   2.551   3.093 -0.9190 -0.4649  0.1670
 1702SOL    HW2 6548   1.448   2.660   2.988  0.3078 -0.9012 -0.2133
 1703SOL     OW 6549   7.651   2.646   3.179  0.4423  0.7924  0.5914
 1703SOL    HW1 6550   7.589   2.680   3.244 -1.0620  0.4771 -0.6312
 1703SOL    HW2 6551   7.682   2.563   3.217 -2.4908 -0.8050 -0.1806
 1704SOL     OW 6552   1.330   3.605   1.838 -0.2649  0.4906 -0.1748
 1704SOL    HW1 6553   1.368   3.519   1.817 -1.7859 -0.7514  1.7640
 1704SOL    HW2 6554   1.294   3.637   1.755  0.1750 -0.8329 -0.9041
 1705SOL     OW 6555   1.112   4.081   3.828  0.0794 -0.2846 -0.3194
 1705SOL    HW1 6556   1.106   4.169   3.864 -0.3154 -0.3644 -0.1844
 1705SOL    HW2 6557   1.118   4.024   3.905  0.1751 -0.3879 -0.4026
 1706SOL     OW 6558   1.194   2.771   0.731 -0.1284  0.0601  0.4880
 1706SOL    HW1 6559   1.160   2.687   0.761 -1.2899  0.2164 -0.3093
 1706SOL    HW2 6560   1.287   2.755   0.714  0.1844 -0.4700  2.4371
 1707SOL     OW 6561   1.788   7.545   1.407  0.0801 -0.8553  0.0334
 1707SOL    HW1 6562   1.875   7.539   1.368  0.1287 -1.1447  0.1860
 1707SOL    HW2 6563   1.772   7.458   1.443 -0.0616 -0.6572  0.4525
 1708SOL     OW 6564   0.392   1.674   2.758  0.0962  0.2164  0.5252
 1708SOL    HW1 6565   0.470   1.678   2.814  0.4569  0.7002  0.0014
 1708SOL    HW2 6566   0.409   1.599   2.700  0.8849  1.2249 -0.5970
 1709SOL     OW 6567   1.713   2.419   2.933  0.5202 -0.1471 -0.0495
 1709SOL    HW1 6568   1.752   2.338   2.967 -0.1391 -1.1174 -1.5051
 1709SOL    HW2 6569   1.643   2.389   2.875 -0.7825  1.5116  0.5877
 1710SOL     OW 6570   6.934   5.859   0.710 -0.0143  1.0065 -0.1675
 1710SOL    HW1 6571   6.996   5.905   0.766 -0.3595  1.2643  0.0076
 1710SOL    HW2 6572   6.883   5.804   0.769  0.7121  0.0247 -0.4335
 1711SOL     OW 6573   1.192   1.890   1.038  0.4432 -0.2630  0.4309
 1711SOL    HW1 6574   1.138   1.814   1.015  0.1777  0.0395  0.0351
 1711SOL    HW2 6575   1.265   1.887   0.976  0.1635  0.0865  0.0761
 1712SOL     OW 6576   0.668   2.951   2.975 -0.3739  0.6053 -0.7493
 1712SOL    HW1 6577   0.671   2.901   2.894 -1.8460  0.4126 -0.7029
 1712SOL    HW2 6578   0.584   2.998   2.972 -0.5442  0.4493  0.7338
 1713SOL     OW 6579   0.739   2.327   4.619 -0.0306 -0.2008  0.4480
 1713SOL    HW1 6580   0.751   2.358   4.709 -0.2630  1.2524 -0.0040
 1713SOL    HW2 6581   0.742   2.406   4.566 -2.0130 -0.7985 -0.6316
 1714SOL     OW 6582   7.789   1.629   4.072 -0.4339 -0.5999 -0.5925
 1714SOL    HW1 6583   7.730   1.689   4.026  0.1633  1.0459  0.7293
 1714SOL    HW2 6584   7.852   1.685   4.116  0.7661 -2.2489 -0.1146
 1715SOL     OW 6585   0.313   2.263   3.471 -0.1323  0.0503 -0.1530
 1715SOL    HW1 6586   0.273   2.220   3.547 -0.5879 -0.7075 -0.7995
 1715SOL    HW2 6587   0.400   2.289   3.501 -0.1723 -0.5666  0.5249
 1716SOL     OW 6588   6.486   0.674   2.894 -0.0275 -0.3358  0.4941
 1716SOL    HW1 6589   6.452   0.747   2.843 -1.6683 -0.6174  1.1435
 1716SOL    HW2 6590   6.475   0.598   2.837  1.3373 -0.1834 -0.0332
 1717SOL     OW 6591   2.003   7.924   2.385  0.2573 -1.0425 -0.3130
 1717SOL    HW1 6592   2.079   7.869   2.367 -1.1864 -2.5913 -2.1126
 1717SOL    HW2 6593   2.002   7.988   2.314  0.5290 -0.2523  0.3811
 1718SOL     OW 6594   3.233   1.664   3.096  0.1050 -0.1883 -0.8013
 1718SOL    HW1 6595   3.303   1.703   3.147  1.6186 -0.1750 -2.7829
 1718SOL    HW2 6596   3.186   1.738   3.057 -0.4337 -0.2293 -0.2538
 1719SOL     OW 6597   1.227   1.983   2.948  0.5588  0.1443 -0.0655
 1719SOL    HW1 6598   1.287   1.935   3.005  0.9764 -0.3420 -0.9090
 1719SOL    HW2 6599   1.186   1.917   2.893 -0.4471  0.5209  0.2031
 1720SOL     OW 6600   1.068   2.884   4.507 -0.4396 -0.9446 -0.1436
 1720SOL    HW1 6601   1.029   2.852   4.588  0.0964 -1.3317 -0.0334
 1720SOL    HW2 6602   1.114   2.809   4.471  0.6070 -0.3745 -0.0260
 1721SOL     OW 6603   0.546   1.413   3.016 -0.0818 -0.5455  0.5424
 1721SOL    HW1 6604   0.452   1.405   3.001 -0.3289  0.6805  1.2467
 1721SOL    HW2 6605   0.581   1.444   2.933 -0.5784  0.6504  0.7542
 1722SOL     OW 6606   2.131   0.771   0.620 -0.0911  0.8149  0.0085
 1722SOL    HW1 6607   2.094   0.763   0.532  0.3783  1.2832 -0.2428
 1722SOL    HW2 6608   2.226   0.769   0.605 -0.0130  0.4234  0.5541
 1723SOL     OW 6609   6.687   1.756   1.736  0.3539  0.3470 -0.1247
 1723SOL    HW1 6610   6.757   1.820   1.720 -0.5160  1.4174  0.1714
 1723SOL    HW2 6611   6.667   1.720   1.650  1.8100 -0.5718 -0.0966
 1724SOL     OW 6612   0.992   1.676   2.335  0.2076 -0.3487  0.0804
 1724SOL    HW1 6613   0.916   1.641   2.289  0.9937 -1.3826 -0.4543
 1724SOL    HW2 6614   1.018   1.606   2.395  0.9300 -0.1250  0.0297
 1725SOL     OW 6615   2.782   1.758   2.311  0.1703  0.9545 -0.3228
 1725SOL    HW1 6616   2.728   1.706   2.369 -0.5913  1.0833 -0.9066
 1725SOL    HW2 6617   2.720   1.808   2.258  0.8620  1.3733 -0.7555
 1726SOL     OW 6618   2.567   1.993   3.606 -0.3939 -0.0968 -0.2074
 1726SOL    HW1 6619   2.496   2.056   3.593  0.0436  1.0537  2.3299
 1726SOL    HW2 6620   2.633   2.042   3.655  2.3648 -1.0309 -2.6997
 1727SOL     OW 6621   0.847   2.268   2.103 -0.4282  0.0746 -0.0960
 1727SOL    HW1 6622   0.801   2.233   2.027  0.2164  0.2866 -0.5867
 1727SOL    HW2 6623   0.919   2.320   2.067  0.3660 -0.4723  0.6647
 1728SOL     OW 6624   0.907   0.951   4.191 -0.2461 -0.5225  0.2960
 1728SOL    HW1 6625   0.925   0.981   4.281 -0.9862  0.9080 -0.0020
 1728SOL    HW2 6626   0.852   1.020   4.154  1.6713 -0.0930 -1.9208
 1729SOL     OW 6627   1.203   0.354   1.906  0.1314 -0.0768 -0.1006
 1729SOL    HW1 6628   1.176   0.436   1.947 -0.2708 -0.1018 -0.3157
 1729SOL    HW2 6629   1.236   0.301   1.978  3.4018  1.4262 -0.2893
 1730SOL     OW 6630   0.395   2.155   3.008  0.0247  0.6036  0.7279
 1730SOL    HW1 6631   0.477   2.177   3.052 -0.8462  2.7952  1.4574
 1730SOL    HW2 6632   0.333   2.140   3.080 -0.3209 -0.5961  0.1993
 1731SOL     OW 6633   0.635   4.739   3.998 -0.4679  0.1953  0.0069
 1731SOL    HW1 6634   0.634   4.740   3.903  0.0799  1.5924 -0.0115
 1731SOL    HW2 6635   0.615   4.649   4.022  1.4509 -0.6622 -1.4441
 1732SOL     OW 6636   6.837   1.525   1.770 -0.2135  0.8159 -0.1419
 1732SOL    HW1 6637   6.774   1.590   1.736 -0.0821 -0.1935 -2.5266
 1732SOL    HW2 6638   6.784   1.446   1.782  0.3025  0.3677 -0.7771
 1733SOL     OW 6639   2.005   1.547   5.216  0.3951 -0.8674 -0.3461
 1733SOL    HW1 6640   2.009   1.606   5.291 -0.8263 -0.6530 -0.4289
 1733SOL    HW2 6641   1.916   1.557   5.183 -0.3605 -3.8568  0.5260
 1734SOL     OW 6642   1.970   2.937   1.642 -0.4876 -0.2889  0.5497
 1734SOL    HW1 6643   1.981   2.876   1.715 -0.8800 -0.3451  0.5635
 1734SOL    HW2 6644   2.010   2.892   1.567  2.2260  0.7999  1.2150
 1735SOL     OW 6645   0.056   2.874   2.779  0.6555  0.1212 -0.2783
 1735SOL    HW1 6646   0.095   2.861   2.692  1.8679  1.5442  0.0053
 1735SOL    HW2 6647   0.129   2.865   2.840  0.8910  3.7264  0.2045
 1736SOL     OW 6648   1.380   1.567   4.629  0.1293 -0.2556 -0.8953
 1736SOL    HW1 6649   1.294   1.604   4.613 -0.1459 -1.4487 -2.4151
 1736SOL    HW2 6650   1.404   1.524   4.547  0.7995 -2.6254  0.4412
 1737SOL     OW 6651   1.705   3.514   2.877 -0.4974 -0.1923 -0.3798
 1737SOL    HW1 6652   1.681   3.464   2.798  1.0497  1.3094 -1.8894
 1737SOL    HW2 6653   1.800   3.526   2.870 -0.3974  0.4146  1.4873
 1738SOL     OW 6654   2.845   0.979   0.929 -0.2307  0.2669  0.7988
 1738SOL    HW1 6655   2.802   0.988   1.014 -1.6895  1.0343  0.0125
 1738SOL    HW2 6656   2.832   1.063   0.886 -0.8349 -0.6001 -0.7802
 1739SOL     OW 6657   2.157   1.915   2.446  0.1177 -0.1378  0.3973
 1739SOL    HW1 6658   2.173   1.839   2.391 -1.1365 -0.2095  0.0934
 1739SOL    HW2 6659   2.070   1.945   2.420  0.4455  1.1826  0.7696
 1740SOL     OW 6660   0.623   1.511   2.774 -0.3503  0.7064 -0.2093
 1740SOL    HW1 6661   0.706   1.474   2.802 -0.6799 -1.0773 -1.4339
 1740SOL    HW2 6662   0.647   1.588   2.721  0.6789 -0.8477 -2.1327
 1741SOL     OW 6663   3.416   2.788   2.471 -0.5865  0.1783  0.1084
 1741SOL    HW1 6664   3.504   2.802   2.506 -0.0450  0.5938 -1.3714
 1741SOL    HW2 6665   3.409   2.693   2.464  0.0002  0.1653 -0.3832
 1742SOL     OW 6666   7.035   3.243   2.923 -0.3236 -0.4016  0.2710
 1742SOL    HW1 6667   6.946   3.242   2.886 -0.4282 -1.9133  0.4906
 1742SOL    HW2 6668   7.021   3.255   3.017 -0.5554 -3.5166  0.7401
 1743SOL     OW 6669   0.868   3.924   3.675  0.0759  0.0556 -0.8849
 1743SOL    HW1 6670   0.795   3.982   3.654 -0.1967 -1.0085 -3.1234
 1743SOL    HW2 6671   0.931   3.981   3.719 -1.9282  1.0495  0.9062
 1744SOL     OW 6672   7.707   2.066   4.553 -0.3320  0.4333  0.0203
 1744SOL    HW1 6673   7.642   1.996   4.553  1.3499 -1.2034 -0.8064
 1744SOL    HW2 6674   7.777   2.033   4.610  0.4088  1.5472 -0.2240
 1745SOL     OW 6675   0.615   4.396   1.742  0.6059  0.1304 -0.0480
 1745SOL    HW1 6676   0.700   4.397   1.786  0.9620  1.1948 -0.7164
 1745SOL    HW2 6677   0.554   4.428   1.807  0.8942  0.3427  0.1214
 1746SOL     OW 6678   0.645   2.062   4.552 -0.5633  0.2465  0.5186
 1746SOL    HW1 6679   0.680   2.055   4.464  0.3011 -0.2140  0.8821
 1746SOL    HW2 6680   0.679   2.145   4.585  0.5058 -0.3564  0.9896
 1747SOL     OW 6681   2.666   1.933   1.029 -0.7283 -0.2837  0.0152
 1747SOL    HW1 6682   2.654   2.025   1.006  2.0100 -0.0212 -0.7345
 1747SOL    HW2 6683   2.743   1.932   1.087 -0.6605 -2.1015 -0.0316
 1748SOL     OW 6684   0.911   4.007   3.004 -0.1374 -0.3529 -0.3045
 1748SOL    HW1 6685   0.905   4.071   3.075  3.0647 -0.1833 -0.0031
 1748SOL    HW2 6686   0.929   3.924   3.048  0.8904 -0.4331 -0.8363
 1749SOL     OW 6687   7.252   4.088   4.598 -0.0739 -0.0782 -0.2937
 1749SOL    HW1 6688   7.180   4.072   4.537 -1.6381  1.3097  1.1129
 1749SOL    HW2 6689   7.258   4.008   4.650 -1.2653  0.1492  0.2123
 1750SOL     OW 6690   1.983   2.727   1.809 -0.5324  0.4498 -0.4859
 1750SOL    HW1 6691   2.043   2.655   1.828 -2.0265 -0.8499 -0.5899
 1750SOL    HW2 6692   1.941   2.747   1.893  0.7009  2.0432 -0.1836
 1751SOL     OW 6693   1.661   1.985   2.170 -0.4194  0.2249 -0.3315
 1751SOL    HW1 6694   1.625   1.922   2.108 -0.8804  1.0280 -0.8977
 1751SOL    HW2 6695   1.666   2.067   2.121  0.2060  0.6260  0.3789
 1752SOL     OW 6696   0.526   1.822   1.309 -0.1528  0.0825  0.4804
 1752SOL    HW1 6697   0.470   1.757   1.268  0.1757  0.0462  0.0848
 1752SOL    HW2 6698   0.514   1.809   1.403 -0.9974  0.2434  0.3989
 1753SOL     OW 6699   0.392   0.948   3.811  0.1544  0.1170  0.6552
 1753SOL    HW1 6700   0.379   0.944   3.905 -0.2079 -1.4404  0.5745
 1753SOL    HW2 6701   0.472   0.897   3.796 -0.4144 -0.6369  0.0430
 1754SOL     OW 6702   7.712   3.035   2.991  0.4111  0.0144  0.4873
 1754SOL    HW1 6703   7.740   3.029   2.900  0.0036 -0.8817  0.4057
 1754SOL    HW2 6704   7.662   2.954   3.006 -1.2893  1.1027  0.9119
 1755SOL     OW 6705   0.804   2.667   1.760  0.2870 -0.1160  0.2723
 1755SOL    HW1 6706   0.824   2.683   1.668 -0.0425 -0.3497  0.1615
 1755SOL    HW2 6707   0.794   2.755   1.798 -2.7414  0.0243 -0.5979
 1756SOL     OW 6708   1.416   2.576   1.485 -0.6946  0.4073 -0.3708
 1756SOL    HW1 6709   1.495   2.585   1.432 -1.1577  0.0600 -1.1468
 1756SOL    HW2 6710   1.352   2.534   1.426 -1.3607  0.4101  0.3281
 1757SOL     OW 6711   1.308   2.042   3.909  0.1083  0.3767 -0.2587
 1757SOL    HW1 6712   1.269   1.956   3.921  2.2190 -0.8530 -1.5034
 1757SOL    HW2 6713   1.237   2.097   3.876 -1.0677 -1.1375 -0.3394
 1758SOL     OW 6714   1.206   2.553   0.941 -0.3195  0.2312 -0.2297
 1758SOL    HW1 6715   1.173   2.611   1.009  0.1393  0.3394 -0.0995
 1758SOL    HW2 6716   1.134   2.546   0.878 -0.9504 -0.2962  0.5339
 1759SOL     OW 6717   0.346   1.899   2.066  0.1208  0.2085 -0.6320
 1759SOL    HW1 6718   0.371   1.911   1.974  0.2265 -2.2809 -0.9835
 1759SOL    HW2 6719   0.357   1.806   2.082 -1.3437  0.3420  1.5068
 1760SOL     OW 6720   1.559   1.990   2.411  0.5014 -0.4783 -0.3495
 1760SOL    HW1 6721   1.583   1.982   2.319 -0.1164 -1.2794 -0.4454
 1760SOL    HW2 6722   1.606   2.068   2.441  1.9868 -1.1223 -0.9166
 1761SOL     OW 6723   7.537   2.150   3.261 -0.0638 -0.0758 -0.2418
 1761SOL    HW1 6724   7.624   2.117   3.239 -0.3711 -0.5708 -0.7472
 1761SOL    HW2 6725   7.547   2.245   3.264 -0.2046  0.1612 -3.5948
 1762SOL     OW 6726   1.270   0.407   5.892  0.2208  0.0101  0.6621
 1762SOL    HW1 6727   1.253   0.498   5.867 -0.9427 -0.3935 -0.0772
 1762SOL    HW2 6728   1.348   0.383   5.842  0.0341  0.3314  0.2145
 1763SOL     OW 6729   2.680   2.788   1.869  0.4962  0.5657  0.5737
 1763SOL    HW1 6730   2.746   2.726   1.838  0.5410  0.7562  0.2915
 1763SOL    HW2 6731   2.677   2.856   1.802 -2.1177 -0.9095 -1.0062
 1764SOL     OW 6732   0.295   1.590   2.403  0.0018 -0.0625  0.0510
 1764SOL    HW1 6733   0.369   1.651   2.403 -0.9924  1.1712  0.8609
 1764SOL    HW2 6734   0.226   1.635   2.354 -0.2744 -1.1546 -0.5999
 1765SOL     OW 6735   0.467   3.293   4.720 -0.3195  0.5780 -0.2187
 1765SOL    HW1 6736   0.518   3.372   4.738  0.7267  0.3162 -1.8695
 1765SOL    HW2 6737   0.522   3.221   4.751 -0.3365  0.3779 -0.6510
 1766SOL     OW 6738   0.554   1.322   0.093  0.0900 -0.0399 -0.6493
 1766SOL    HW1 6739   0.638   1.356   0.060  1.1123 -0.2676  1.5489
 1766SOL    HW2 6740   0.488   1.364   0.037  1.5576  1.6735 -1.2216
 1767SOL     OW 6741   1.382   2.281   2.359  0.1021  0.1571 -0.2906
 1767SOL    HW1 6742   1.384   2.344   2.431  0.5997  0.0804 -0.2339
 1767SOL    HW2 6743   1.468   2.238   2.362  1.1703  1.8725 -2.4508
 1768SOL     OW 6744   7.410   1.478   2.704  0.4923 -0.0840  0.2836
 1768SOL    HW1 6745   7.353   1.442   2.636  1.7574  1.3768 -1.6711
 1768SOL    HW2 6746   7.360   1.549   2.744 -0.6261 -1.5604  1.6310
 1769SOL     OW 6747   0.935   1.374   2.025 -0.0103 -0.3028 -0.0317
 1769SOL    HW1 6748   0.883   1.391   2.103  1.6087  0.5928  0.9080
 1769SOL    HW2 6749   1.024   1.403   2.048  0.5102  0.0533 -2.2118
 1770SOL     OW 6750   0.628   1.056   2.902  0.0791  0.4036  0.0813
 1770SOL    HW1 6751   0.564   1.090   2.964 -0.7436 -1.7318  0.4919
 1770SOL    HW2 6752   0.659   0.974   2.941  2.5033  0.9648 -0.5032
 1771SOL     OW 6753   1.044   2.038   2.107  0.4091  0.0203  0.2629
 1771SOL    HW1 6754   1.132   2.004   2.118  0.4267  0.4455  1.6660
 1771SOL    HW2 6755   0.994   1.965   2.069  1.8317  0.4872 -2.7096
 1772SOL     OW 6756   0.773   3.452   2.519  0.1964 -0.6866 -0.1433
 1772SOL    HW1 6757   0.745   3.525   2.463  0.9635 -1.0572 -1.0473
 1772SOL    HW2 6758   0.694   3.398   2.529 -0.2814  0.0631  0.2232
 1773SOL     OW 6759   0.963   3.273   2.377  0.4032  0.7171  0.0072
 1773SOL    HW1 6760   0.921   3.340   2.431  0.5403  0.9288 -0.1488
 1773SOL    HW2 6761   0.924   3.191   2.406  0.8728  0.7663  0.8232
 1774SOL     OW 6762   7.060   3.359   3.214 -0.1490 -0.0309  0.3667
 1774SOL    HW1 6763   7.069   3.404   3.298 -0.8024 -2.2025  1.6801
 1774SOL    HW2 6764   7.149   3.351   3.181  0.0286  1.7648  0.2807
 1775SOL     OW 6765   1.317   7.621   1.721 -0.1347 -0.7319  0.9154
 1775SOL    HW1 6766   1.241   7.572   1.690 -1.1791 -0.0088  2.2246
 1775SOL    HW2 6767   1.280   7.695   1.769  1.3858 -0.6743  2.0843
 1776SOL     OW 6768   0.896   1.825   1.940 -0.2562 -0.2371  0.0225
 1776SOL    HW1 6769   0.897   1.869   1.855  0.0529 -1.2414 -0.5166
 1776SOL    HW2 6770   0.959   1.754   1.931 -0.5428 -0.6287  0.9469
 1777SOL     OW 6771   1.167   2.919   1.395  0.7139  0.3427  0.4699
 1777SOL    HW1 6772   1.159   3.011   1.420  0.5372  0.1813  1.0179
 1777SOL    HW2 6773   1.178   2.872   1.478  0.0343 -0.2173  0.2541
 1778SOL     OW 6774   2.204   3.186   2.235  0.5904  1.0429 -0.3239
 1778SOL    HW1 6775   2.156   3.144   2.164 -1.3042  1.2004  0.7971
 1778SOL    HW2 6776   2.275   3.234   2.191 -0.3447  0.9124 -2.0710
 1779SOL     OW 6777   0.311   1.764   4.371 -0.9393  0.8504  0.0488
 1779SOL    HW1 6778   0.400   1.735   4.349 -0.2213  2.3054  0.8653
 1779SOL    HW2 6779   0.311   1.857   4.350 -2.2035  0.9211  0.3225
 1780SOL     OW 6780   1.833   2.022   3.801 -0.4134  0.9347  0.6763
 1780SOL    HW1 6781   1.783   1.973   3.867 -0.7249  1.4424  0.8198
 1780SOL    HW2 6782   1.846   1.958   3.730  1.3235 -0.1220  1.8759
 1781SOL     OW 6783   1.419   0.608   2.117  0.3034  0.2108 -0.0271
 1781SOL    HW1 6784   1.457   0.560   2.191  1.9444  1.0178 -0.2908
 1781SOL    HW2 6785   1.325   0.594   2.125  0.6863 -3.0047 -0.1061
 1782SOL     OW 6786   1.336   3.681   3.459  0.2151 -0.5072  0.0735
 1782SOL    HW1 6787   1.317   3.751   3.521  1.8570 -0.3335  0.4111
 1782SOL    HW2 6788   1.368   3.726   3.381  0.7300 -0.8539  0.0810
 1783SOL     OW 6789   0.313   2.063   1.525 -0.3312  1.0462 -0.0867
 1783SOL    HW1 6790   0.295   2.144   1.478  2.7934  1.6925 -0.3566
 1783SOL    HW2 6791   0.387   2.084   1.582  1.4181 -1.8921 -1.0521
 1784SOL     OW 6792   0.935   2.625   2.168  0.3410 -0.0888  0.4278
 1784SOL    HW1 6793   0.854   2.591   2.206 -0.9098  1.2114 -0.9637
 1784SOL    HW2 6794   0.957   2.701   2.222  0.5520 -0.3418  0.7020
 1785SOL     OW 6795   7.312   0.782   1.312  0.0659 -0.6617  0.4329
 1785SOL    HW1 6796   7.229   0.760   1.270 -0.7776  0.0201  1.6916
 1785SOL    HW2 6797   7.379   0.761   1.246 -1.1571 -0.2836 -0.9640
 1786SOL     OW 6798   1.982   1.088   1.126 -0.2271 -0.2538 -0.2956
 1786SOL    HW1 6799   2.059   1.096   1.183 -0.0395  0.1309 -0.5929
 1786SOL    HW2 6800   1.914   1.052   1.182  0.6375 -2.2471 -0.4547
 1787SOL     OW 6801   3.135   1.178   2.426  0.4355 -0.3472  0.0253
 1787SOL    HW1 6802   3.114   1.110   2.490  0.8153 -1.2616 -0.8170
 1787SOL    HW2 6803   3.076   1.162   2.353  0.2996  0.4429 -0.0543
 1788SOL     OW 6804   1.230   4.027   3.316  0.2867  0.2447  0.3132
 1788SOL    HW1 6805   1.166   3.956   3.307 -0.6780  1.0193  0.8120
 1788SOL    HW2 6806   1.207   4.069   3.399 -0.1669  2.1128 -0.7060
 1789SOL     OW 6807   7.741   2.876   2.514 -0.2974 -0.1645 -0.1947
 1789SOL    HW1 6808   7.752   2.826   2.433 -0.7546 -0.6070  0.0055
 1789SOL    HW2 6809   7.806   2.839   2.574 -0.4311 -0.3190 -0.1430
 1790SOL     OW 6810   0.459   2.383   2.174  0.5460  0.3793  0.0323
 1790SOL    HW1 6811   0.423   2.391   2.263  1.1353 -0.0498  0.3189
 1790SOL    HW2 6812   0.540   2.435   2.177  1.4524 -0.9871  0.2617
 1791SOL     OW 6813   7.972   3.869   3.124  0.3937 -0.3933  0.1546
 1791SOL    HW1 6814   7.977   3.784   3.168 -0.6005 -1.0632 -0.9872
 1791SOL    HW2 6815   8.011   3.854   3.038 -4.0757 -1.0699 -2.0006
 1792SOL     OW 6816   0.774   4.180   0.901 -0.1009  0.5053 -0.0522
 1792SOL    HW1 6817   0.703   4.207   0.960 -0.7691  1.7992 -1.3990
 1792SOL    HW2 6818   0.730   4.157   0.820  0.7683 -1.6699  0.0171
 1793SOL     OW 6819   0.763   2.757   1.147  0.1907  0.0471  0.2944
 1793SOL    HW1 6820   0.764   2.760   1.051  0.2971  0.0976  0.2976
 1793SOL    HW2 6821   0.698   2.689   1.168  0.0286  0.1687  0.1894
 1794SOL     OW 6822   1.004   3.187   3.039 -0.2413 -0.1407  0.2566
 1794SOL    HW1 6823   1.049   3.185   3.124  0.0448 -0.0055  0.1116
 1794SOL    HW2 6824   1.073   3.167   2.976 -0.9066 -2.5610  0.2296
 1795SOL     OW 6825   0.377   1.716   3.721 -0.0843 -0.1774  0.4393
 1795SOL    HW1 6826   0.430   1.779   3.769  0.3649  0.2455 -0.5787
 1795SOL    HW2 6827   0.421   1.706   3.636 -1.4667 -0.0155 -0.3407
 1796SOL     OW 6828   1.227   1.495   4.273 -0.4293  0.2558  0.4005
 1796SOL    HW1 6829   1.248   1.403   4.257 -2.4399  0.1068 -1.8895
 1796SOL    HW2 6830   1.293   1.544   4.223 -1.0203 -0.0474 -0.7156
 1797SOL     OW 6831   1.133   1.439   2.180  0.1727 -0.4151 -0.1102
 1797SOL    HW1 6832   1.180   1.505   2.129  0.1771 -0.7572 -0.5509
 1797SOL    HW2 6833   1.183   1.434   2.262 -0.6263  1.1299  0.5187
 1798SOL     OW 6834   7.472   1.802   2.906 -0.2758 -0.2098  0.0486
 1798SOL    HW1 6835   7.539   1.734   2.919  1.0785  0.9506 -0.5750
 1798SOL    HW2 6836   7.522   1.879   2.878 -1.9265  0.6122 -0.7309
 1799SOL     OW 6837   2.203   1.909   1.432 -0.3321  0.6074  0.5833
 1799SOL    HW1 6838   2.156   1.867   1.504 -0.2972  0.9102  0.7874
 1799SOL    HW2 6839   2.295   1.909   1.460 -0.2204  0.0921  0.2230
 1800SOL     OW 6840   1.007   3.532   1.549 -0.4369  0.2261  0.0273
 1800SOL    HW1 6841   1.004   3.488   1.464  0.8598  2.5244 -1.3427
 1800SOL    HW2 6842   0.937   3.597   1.545  0.7810  1.5913 -0.1117
 1801SOL     OW 6843   0.209   2.312   1.434 -0.0668  0.3357  0.6118
 1801SOL    HW1 6844   0.223   2.383   1.371  0.7428 -0.1378  0.2553
 1801SOL    HW2 6845   0.123   2.276   1.409 -0.1793  0.7529  0.3745
 1802SOL     OW 6846   1.133   2.302   2.791 -0.6801 -0.3968 -0.1012
 1802SOL    HW1 6847   1.184   2.358   2.733 -0.2333 -0.6469  0.0447
 1802SOL    HW2 6848   1.118   2.222   2.740 -1.9013  0.0966 -0.5690
 1803SOL     OW 6849   6.947   4.270   4.182  0.2609  0.4459 -0.3321
 1803SOL    HW1 6850   7.013   4.222   4.133  0.5878  1.7441 -1.2243
 1803SOL    HW2 6851   6.864   4.231   4.156  0.6853 -2.9904  2.7705
 1804SOL     OW 6852   7.299   0.920   1.926 -0.2685 -0.4603  0.6302
 1804SOL    HW1 6853   7.324   0.831   1.952  0.3716 -0.2622  0.7194
 1804SOL    HW2 6854   7.204   0.920   1.928 -0.2942 -1.3505 -0.0510
 1805SOL     OW 6855   1.491   0.529   5.094  0.1181  0.1114 -0.0133
 1805SOL    HW1 6856   1.460   0.497   5.178  2.2958  0.7324  1.0992
 1805SOL    HW2 6857   1.457   0.466   5.030 -0.3527 -1.2166  1.4884
 1806SOL     OW 6858   6.043   2.567   3.876 -0.6604 -0.2748 -0.6723
 1806SOL    HW1 6859   6.042   2.602   3.787  1.3007  1.3462 -0.1241
 1806SOL    HW2 6860   6.051   2.644   3.932  1.4320 -1.4011  0.7222
 1807SOL     OW 6861   1.785   0.969  12.341  0.1109 -0.4938  0.4993
 1807SOL    HW1 6862   1.838   1.002  12.268  1.3981 -0.0272  1.6091
 1807SOL    HW2 6863   1.702   1.017  12.333 -0.9266 -2.5269 -2.3130
 1808SOL     OW 6864   1.174   3.404   2.045 -0.3809 -0.1767 -0.4050
 1808SOL    HW1 6865   1.092   3.428   2.088 -0.8089  1.2546 -1.9190
 1808SOL    HW2 6866   1.242   3.451   2.095 -0.4604 -1.2386  0.7513
 1809SOL     OW 6867   0.820   3.184   2.760  0.3914 -0.5301 -0.1965
 1809SOL    HW1 6868   0.836   3.278   2.760 -0.5910 -0.3597 -0.7609
 1809SOL    HW2 6869   0.888   3.149   2.818  1.6344  0.3718 -1.0573
 1810SOL     OW 6870   0.940   2.918   4.028  0.5574  0.0266 -0.2245
 1810SOL    HW1 6871   1.020   2.898   4.076 -0.7876 -1.6343  1.5114
 1810SOL    HW2 6872   0.874   2.860   4.066 -0.8555 -0.7716 -3.5324
 1811SOL     OW 6873   1.794   3.244   2.940 -0.2026 -0.4230 -0.9694
 1811SOL    HW1 6874   1.886   3.270   2.933 -0.4340  1.0765  0.7629
 1811SOL    HW2 6875   1.746   3.327   2.943 -1.4513 -1.1528 -0.1542
 1812SOL     OW 6876   0.385   2.944   2.388 -0.1858 -0.1149 -0.0177
 1812SOL    HW1 6877   0.433   2.965   2.308 -0.5129 -0.4374 -0.3022
 1812SOL    HW2 6878   0.316   3.010   2.393 -1.1717 -1.0447 -0.8755
 1813SOL     OW 6879   2.057   1.729   1.591  0.2710 -0.1876 -0.3536
 1813SOL    HW1 6880   1.977   1.711   1.640  0.5794  0.6694  0.5275
 1813SOL    HW2 6881   2.123   1.672   1.631  0.5616  0.6342  0.3781
 1814SOL     OW 6882   2.174   4.227   2.747 -0.0693  0.2589  0.0764
 1814SOL    HW1 6883   2.087   4.267   2.744 -0.2351  0.0026  1.0129
 1814SOL    HW2 6884   2.227   4.291   2.795  0.1048  0.1556  0.0209
 1815SOL     OW 6885   1.313   2.248   4.867 -0.1082  0.1814  0.0025
 1815SOL    HW1 6886   1.239   2.276   4.920 -0.3943  2.2752 -1.4056
 1815SOL    HW2 6887   1.279   2.244   4.778  0.7028 -1.9660 -0.2766
 1816SOL     OW 6888   7.881   1.389   3.969 -0.5117  0.1553 -1.0552
 1816SOL    HW1 6889   7.824   1.455   4.006  1.0727  0.7146  0.5536
 1816SOL    HW2 6890   7.888   1.411   3.876 -0.5038  1.8761 -0.6620
 1817SOL     OW 6891   0.596   2.183   1.667  0.2530  0.2665  0.7198
 1817SOL    HW1 6892   0.521   2.237   1.641 -0.8634 -1.2450  0.6366
 1817SOL    HW2 6893   0.672   2.238   1.649 -0.7948  1.6517  0.2768
 1818SOL     OW 6894   2.290   3.042   1.627 -0.3865 -0.1131  0.0655
 1818SOL    HW1 6895   2.236   3.030   1.705 -0.7106  0.8747  0.0008
 1818SOL    HW2 6896   2.357   2.974   1.633  0.1908  0.5702  1.7112
 1819SOL     OW 6897   7.212   3.242  12.342  0.1618  0.1121 -0.3526
 1819SOL    HW1 6898   7.302   3.238  12.310  0.3291 -0.1404  0.1386
 1819SOL    HW2 6899   7.212   3.314  12.405  0.0223  0.1010 -0.3401
 1820SOL     OW 6900   0.037   4.076   1.475 -0.1797 -0.5020  0.2579
 1820SOL    HW1 6901   0.051   4.105   1.565 -1.5103  0.8877  0.0659
 1820SOL    HW2 6902  -0.058   4.063   1.469 -0.0068 -1.4131 -0.7141
 1821SOL     OW 6903   2.392   1.832   2.731 -0.3329 -0.2898 -0.2954
 1821SOL    HW1 6904   2.341   1.907   2.762 -0.3572 -0.5662  0.3526
 1821SOL    HW2 6905   2.477   1.870   2.706 -0.3728 -0.0313 -0.0473
 1822SOL     OW 6906   0.101   0.812   1.709  0.3472 -0.0717 -0.6510
 1822SOL    HW1 6907   0.183   0.766   1.729  0.7012 -0.1061 -2.1007
 1822SOL    HW2 6908   0.112   0.898   1.749 -0.0020 -0.9251  1.4172
 1823SOL     OW 6909   0.443   0.770   2.227 -0.4373  0.1479  0.2606
 1823SOL    HW1 6910   0.399   0.764   2.143  0.7577 -0.8312 -0.3146
 1823SOL    HW2 6911   0.521   0.822   2.210 -0.3829  0.2802  0.8675
 1824SOL     OW 6912   0.141   1.842   3.572 -0.3388 -0.0343  0.1236
 1824SOL    HW1 6913   0.072   1.788   3.612 -0.4717 -1.3917 -1.8355
 1824SOL    HW2 6914   0.104   1.869   3.488 -0.2420  3.1493  0.9849
 1825SOL     OW 6915   2.578   2.614   3.690 -0.0679  0.3756  0.2348
 1825SOL    HW1 6916   2.586   2.595   3.596  1.0071  1.0530  0.1643
 1825SOL    HW2 6917   2.505   2.559   3.719 -0.4784  0.2145 -1.0086
 1826SOL     OW 6918   0.175   2.682   1.079  0.0792  0.4005  0.0133
 1826SOL    HW1 6919   0.125   2.729   1.013  0.4848  0.3219 -0.3595
 1826SOL    HW2 6920   0.111   2.659   1.146 -0.2785  0.7518 -0.2036
 1827SOL     OW 6921   1.624   1.181   3.471  0.7048  0.5905  0.5894
 1827SOL    HW1 6922   1.548   1.236   3.491 -1.4181 -1.3191 -1.4554
 1827SOL    HW2 6923   1.659   1.217   3.389  0.5221  0.1095  0.2920
 1828SOL     OW 6924   7.666   2.782   4.184  0.4827  0.3111 -0.3251
 1828SOL    HW1 6925   7.574   2.785   4.158  0.4313  1.4186 -0.0704
 1828SOL    HW2 6926   7.712   2.755   4.105  0.0139  0.5484 -0.6886
 1829SOL     OW 6927   0.726   1.518   3.745  0.6444  0.7060 -0.0289
 1829SOL    HW1 6928   0.693   1.569   3.671 -0.6012  0.9210  0.6485
 1829SOL    HW2 6929   0.765   1.583   3.803  0.4318  0.6960  0.1241
 1830SOL     OW 6930   0.509   5.399   2.043 -0.4230  0.1467  0.2198
 1830SOL    HW1 6931   0.549   5.339   1.980 -0.2338  1.2432 -0.7400
 1830SOL    HW2 6932   0.448   5.344   2.093 -0.0732 -0.8864 -0.4591
 1831SOL     OW 6933   7.237   1.659   2.403  0.3559 -0.1790 -0.3375
 1831SOL    HW1 6934   7.329   1.659   2.431  0.2343  0.1589  0.0874
 1831SOL    HW2 6935   7.226   1.743   2.358  0.4555 -0.5637 -1.0798
 1832SOL     OW 6936   7.171   2.095   2.503  0.1986  0.0655  0.0088
 1832SOL    HW1 6937   7.175   2.184   2.468  2.2683 -0.9085 -2.5147
 1832SOL    HW2 6938   7.221   2.100   2.585 -1.1356  1.5035  0.8062
 1833SOL     OW 6939   0.003   2.569   3.132  0.3623 -0.0225  0.2858
 1833SOL    HW1 6940  -0.049   2.643   3.163  0.2060 -0.0338  0.0561
 1833SOL    HW2 6941   0.045   2.534   3.210  1.7604  1.3197  0.1743
 1834SOL     OW 6942   1.632   0.239   2.229  0.3607 -0.1927 -0.2436
 1834SOL    HW1 6943   1.621   0.149   2.261  1.0223 -0.2980 -0.3112
 1834SOL    HW2 6944   1.625   0.231   2.134 -0.7993  0.0088 -0.1980
 1835SOL     OW 6945   1.378   4.914   3.862 -0.1341  0.0275  0.6722
 1835SOL    HW1 6946   1.457   4.954   3.824 -0.2653 -0.6452 -0.3741
 1835SOL    HW2 6947   1.387   4.928   3.956  0.4814  1.2937  0.4519
 1836SOL     OW 6948   0.977   4.518   3.151  0.1388 -0.3933  0.3663
 1836SOL    HW1 6949   1.019   4.450   3.204  0.5418 -0.5570 -0.1601
 1836SOL    HW2 6950   1.008   4.502   3.062  1.6385  1.5109  0.4804
 1837SOL     OW 6951   7.541   4.227   2.155 -0.2484  0.5741  0.1704
 1837SOL    HW1 6952   7.618   4.215   2.100  0.9645  0.5423  1.8008
 1837SOL    HW2 6953   7.492   4.298   2.113  1.4686  1.6635 -0.0823
 1838SOL     OW 6954   0.579   2.255   3.599 -0.4094 -0.2434 -0.0836
 1838SOL    HW1 6955   0.626   2.276   3.518 -1.2493  1.9510 -0.0773
 1838SOL    HW2 6956   0.648   2.246   3.665  0.1511  1.3454 -0.3937
 1839SOL     OW 6957   0.429   0.035   3.730 -0.1312 -0.3019 -0.6127
 1839SOL    HW1 6958   0.371  -0.036   3.702 -0.7114  0.4925 -1.5121
 1839SOL    HW2 6959   0.504   0.030   3.671  0.4569 -0.9663  0.1733
 1840SOL     OW 6960   7.879   3.091   2.766 -0.7194  0.4933 -0.1004
 1840SOL    HW1 6961   7.955   3.032   2.769 -1.1913 -0.1675 -0.8976
 1840SOL    HW2 6962   7.872   3.118   2.675 -2.4995 -0.8786 -0.4186
 1841SOL     OW 6963   1.163   1.519   5.616 -0.5418  0.6334 -0.6340
 1841SOL    HW1 6964   1.150   1.543   5.708  1.2739  0.8166 -0.3955
 1841SOL    HW2 6965   1.248   1.555   5.593  0.3788 -1.8811 -1.5180
 1842SOL     OW 6966   7.121   0.757   3.123  0.5007 -0.4403  0.1788
 1842SOL    HW1 6967   7.156   0.846   3.112  1.9880 -0.9483  0.6502
 1842SOL    HW2 6968   7.090   0.755   3.213  0.5909 -0.4461  0.2096
 1843SOL     OW 6969   1.762   1.867   3.313 -0.5259 -0.1032 -0.4332
 1843SOL    HW1 6970   1.835   1.806   3.324  0.8943  1.5709 -0.1178
 1843SOL    HW2 6971   1.750   1.873   3.218 -2.1098 -2.4373 -0.4344
 1844SOL     OW 6972   0.931   1.932   2.637 -0.0295 -0.4919 -0.2322
 1844SOL    HW1 6973   0.977   1.954   2.556  0.4991  0.3301  0.2745
 1844SOL    HW2 6974   0.869   2.004   2.649  1.8264  0.9164  1.5357
 1845SOL     OW 6975   1.050   3.819   0.804 -0.1073  0.3685 -0.6687
 1845SOL    HW1 6976   0.965   3.854   0.832  0.6863 -0.1146  2.8360
 1845SOL    HW2 6977   1.111   3.891   0.817  0.6581 -0.5530  1.2502
 1846SOL     OW 6978   2.959   3.017   3.122 -0.0972 -0.1938  0.7914
 1846SOL    HW1 6979   2.876   2.971   3.112 -1.0735  1.5056  0.7664
 1846SOL    HW2 6980   2.971   3.062   3.038  0.9073 -0.4621  0.7717
 1847SOL     OW 6981   7.517   1.995   3.744  0.2309 -0.9478  0.5964
 1847SOL    HW1 6982   7.442   2.016   3.689  0.4399 -1.3283  0.1513
 1847SOL    HW2 6983   7.573   1.941   3.687  2.6163  2.2351 -0.3961
 1848SOL     OW 6984   0.812   3.031   2.532  0.5377  0.1590 -0.1729
 1848SOL    HW1 6985   0.818   3.063   2.622 -3.0150  0.1584  0.2039
 1848SOL    HW2 6986   0.762   3.099   2.486  0.3601 -0.8812 -1.5747
 1849SOL     OW 6987   0.425   2.677   3.418  0.2329 -0.3181 -0.3082
 1849SOL    HW1 6988   0.503   2.706   3.466  1.3019 -1.4458 -1.3076
 1849SOL    HW2 6989   0.356   2.673   3.485  1.0224  0.6612  0.6006
 1850SOL     OW 6990   2.124   3.143   0.653  0.2637  0.5107  0.1553
 1850SOL    HW1 6991   2.211   3.126   0.617  0.4140  0.1695  0.6692
 1850SOL    HW2 6992   2.136   3.215   0.714  0.1088  0.7214 -0.0577
 1851SOL     OW 6993   0.649   3.667   2.398  0.3335 -0.2806 -0.0750
 1851SOL    HW1 6994   0.578   3.707   2.448 -1.5087 -1.1881 -1.8127
 1851SOL    HW2 6995   0.685   3.740   2.346 -0.0166 -0.0031  0.0646
 1852SOL     OW 6996   0.421   3.084   3.974 -0.2162  0.4744  0.2290
 1852SOL    HW1 6997   0.351   3.079   4.039 -0.3797 -0.5834 -0.0188
 1852SOL    HW2 6998   0.380   3.057   3.892  0.3424  0.4264 -0.0373
 1853SOL     OW 6999   2.106   1.597   3.038 -0.3373 -0.7756 -0.5073
 1853SOL    HW1 7000   2.149   1.516   3.065  0.9124 -0.0671 -0.3334
 1853SOL    HW2 7001   2.167   1.666   3.062 -2.2431  0.4241  1.2683
 1854SOL     OW 7002   0.399   2.363   1.865 -0.5381  0.0213 -0.2746
 1854SOL    HW1 7003   0.480   2.315   1.850 -0.8936 -0.2468 -1.4992
 1854SOL    HW2 7004   0.426   2.446   1.905  0.1271 -0.9679  1.4540
 1855SOL     OW 7005   0.604   0.299   2.934 -0.7827 -0.3450 -0.3119
 1855SOL    HW1 7006   0.692   0.274   2.963 -0.9221 -0.5132 -0.0252
 1855SOL    HW2 7007   0.607   0.289   2.839 -0.2413  0.4632 -0.3904
 1856SOL     OW 7008   1.650   2.230   2.527 -0.9970 -0.8858  0.1897
 1856SOL    HW1 7009   1.690   2.219   2.613  0.3868 -0.8205 -0.4298
 1856SOL    HW2 7010   1.579   2.293   2.541  0.0626  0.1501  1.0386
 1857SOL     OW 7011   1.089   2.755   1.608  0.5888  0.3976 -0.0659
 1857SOL    HW1 7012   1.001   2.792   1.599 -1.6153 -2.5947  4.6624
 1857SOL    HW2 7013   1.088   2.676   1.554 -0.2599 -0.3406  0.9795
 1858SOL     OW 7014   1.792   1.670   0.984 -0.0251  0.5437  0.1120
 1858SOL    HW1 7015   1.769   1.709   1.068  2.7956  0.1009  1.2076
 1858SOL    HW2 7016   1.827   1.584   1.006 -0.6035 -0.1928 -1.6866
 1859SOL     OW 7017   0.306   2.928   3.244  0.5757 -0.1604 -0.2502
 1859SOL    HW1 7018   0.279   2.845   3.282  2.9316 -0.3239  1.2703
 1859SOL    HW2 7019   0.318   2.909   3.151 -1.3296 -0.8278 -0.3981
 1860SOL     OW 7020   0.366   1.594   3.235  0.0996  0.2559  0.1390
 1860SOL    HW1 7021   0.296   1.529   3.234  0.7387 -0.4587  0.7745
 1860SOL    HW2 7022   0.384   1.612   3.143  0.7381 -1.3829 -0.0780
 1861SOL     OW 7023   0.925   3.889   2.054 -0.0563 -0.3348 -0.3827
 1861SOL    HW1 7024   0.959   3.978   2.060 -1.3900  0.2440 -1.0631
 1861SOL    HW2 7025   1.002   3.835   2.036  0.8572  0.5772  0.6223
 1862SOL     OW 7026   1.056   2.769   2.711 -0.0595  0.6618  0.1065
 1862SOL    HW1 7027   1.035   2.786   2.803  0.1547  0.5159  0.1829
 1862SOL    HW2 7028   0.971   2.768   2.667 -0.1656  0.6978  0.3090
 1863SOL     OW 7029   7.236   0.527   2.352  0.2570  0.1705 -0.2299
 1863SOL    HW1 7030   7.329   0.523   2.333  0.0978  0.8822 -1.2850
 1863SOL    HW2 7031   7.216   0.621   2.354 -0.2675  0.0478  0.8948
 1864SOL     OW 7032   0.884   4.314   3.695 -0.0500 -0.0210  0.4259
 1864SOL    HW1 7033   0.889   4.410   3.697  1.1291 -0.0704  1.3272
 1864SOL    HW2 7034   0.857   4.289   3.783 -5.1184 -0.4279 -0.9262
 1865SOL     OW 7035   1.806   1.398   3.914  0.1357 -0.2196 -0.4340
 1865SOL    HW1 7036   1.823   1.304   3.911  1.5201 -0.0039 -0.3077
 1865SOL    HW2 7037   1.711   1.406   3.912  0.0044 -1.6093 -0.6783
 1866SOL     OW 7038   0.086   1.717   4.798 -0.5856  0.1569  0.6266
 1866SOL    HW1 7039   0.105   1.660   4.723  1.6341  3.0339 -1.2031
 1866SOL    HW2 7040   0.094   1.660   4.874  0.9991 -2.0923 -1.0776
 1867SOL     OW 7041   0.498   1.776   2.343  0.2259 -0.0660  0.6448
 1867SOL    HW1 7042   0.536   1.845   2.398 -1.2133  0.4252  1.0587
 1867SOL    HW2 7043   0.518   1.803   2.254  0.5464  0.3628  0.8420
 1868SOL     OW 7044   0.953   2.510   3.553 -0.3368 -0.0388 -0.4211
 1868SOL    HW1 7045   0.974   2.453   3.479  0.3675  0.1886 -0.3980
 1868SOL    HW2 7046   0.884   2.568   3.521  0.5595  0.6239 -1.1651
 1869SOL     OW 7047   0.420   1.967   2.753  0.1817  0.3660  0.5556
 1869SOL    HW1 7048   0.392   1.990   2.842  0.3331 -0.6882  0.8908
 1869SOL    HW2 7049   0.420   1.871   2.752  2.4898  0.3188  0.1606
 1870SOL     OW 7050   1.475   2.634   4.153 -0.0120 -0.2854 -1.0584
 1870SOL    HW1 7051   1.560   2.648   4.196 -0.7988 -0.8885  0.8283
 1870SOL    HW2 7052   1.479   2.544   4.121 -0.0699 -0.4545 -0.6026
 1871SOL     OW 7053   6.072   2.334   4.076  0.2461  0.3823 -0.0340
 1871SOL    HW1 7054   6.022   2.317   3.996  1.1777 -0.1445 -0.5260
 1871SOL    HW2 7055   6.131   2.406   4.052  0.1051  0.6275  0.3633
 1872SOL     OW 7056   1.090   2.049   2.450  0.4274  0.7969  0.2592
 1872SOL    HW1 7057   1.154   2.080   2.514 -0.6057 -1.2095  2.3851
 1872SOL    HW2 7058   1.132   1.972   2.411 -0.1117  0.2863  0.6731
 1873SOL     OW 7059   2.211   2.504   4.680 -0.1374  0.0996  0.6689
 1873SOL    HW1 7060   2.232   2.456   4.600  1.9886 -1.3960  2.0106
 1873SOL    HW2 7061   2.296   2.525   4.719 -1.0403 -0.6560  3.3100
 1874SOL     OW 7062   1.308   1.200   2.601  0.1565 -0.2633 -0.0425
 1874SOL    HW1 7063   1.322   1.225   2.509 -1.1124  0.2076 -0.1294
 1874SOL    HW2 7064   1.327   1.279   2.651 -0.3970 -0.1327 -0.0232
 1875SOL     OW 7065   0.102   1.960   2.830  0.0140 -0.2130 -0.3402
 1875SOL    HW1 7066   0.010   1.940   2.848  0.2225 -1.1144 -0.2075
 1875SOL    HW2 7067   0.100   2.016   2.752 -0.8118  2.3003  1.3698
 1876SOL     OW 7068   1.277   2.524   4.756  0.0932  0.2330 -0.3748
 1876SOL    HW1 7069   1.280   2.515   4.661  3.4908  0.3464 -0.4037
 1876SOL    HW2 7070   1.311   2.441   4.790  2.1855  1.3766  0.5341
 1877SOL     OW 7071   7.965   0.798   3.377 -0.1820 -0.2816 -0.7751
 1877SOL    HW1 7072   8.007   0.845   3.450  2.4208 -0.5384 -2.0065
 1877SOL    HW2 7073   7.889   0.756   3.417 -0.0992  1.3660  1.3029
 1878SOL     OW 7074   0.212   1.338   2.514  0.0443 -0.0450  0.1577
 1878SOL    HW1 7075   0.249   1.414   2.469 -0.0783 -0.1983 -0.2031
 1878SOL    HW2 7076   0.289   1.286   2.540  0.0884 -0.6058 -1.0153
 1879SOL     OW 7077   1.607   5.193   4.589  0.1848  0.1848 -0.1850
 1879SOL    HW1 7078   1.578   5.119   4.535  0.1301  1.2720 -1.7288
 1879SOL    HW2 7079   1.533   5.254   4.588 -0.9100 -0.8342  3.4117
 1880SOL     OW 7080   0.411   4.056   2.511 -0.2529 -0.3977 -0.5335
 1880SOL    HW1 7081   0.458   4.133   2.543  0.2025 -1.2208  0.8762
 1880SOL    HW2 7082   0.319   4.073   2.533 -0.2400 -0.0180 -0.7551
 1881SOL     OW 7083   1.383   3.889   3.896 -0.1019  0.1017 -0.1764
 1881SOL    HW1 7084   1.421   3.976   3.890  1.1367 -0.4452 -0.6646
 1881SOL    HW2 7085   1.308   3.899   3.954  0.3224  1.3898  0.1755
 1882SOL     OW 7086   0.899   2.460   3.212 -0.0741  0.9957  0.0878
 1882SOL    HW1 7087   0.899   2.552   3.188 -2.7946  0.5756 -2.1155
 1882SOL    HW2 7088   0.917   2.414   3.129 -2.8567 -0.4457  0.1596
 1883SOL     OW 7089   2.486   2.422   4.780 -0.0635  0.2728  0.5729
 1883SOL    HW1 7090   2.492   2.327   4.783 -0.3003  0.2749  1.3528
 1883SOL    HW2 7091   2.479   2.448   4.871  1.8586  1.1640  0.5191
 1884SOL     OW 7092   7.835   0.874   3.118  0.0797  0.2954  0.1511
 1884SOL    HW1 7093   7.885   0.820   3.179 -0.7537  1.8244  2.2835
 1884SOL    HW2 7094   7.771   0.813   3.080 -0.4834 -0.4180  2.0933
 1885SOL     OW 7095   1.614   3.105   2.600 -0.1139 -0.2436  0.0475
 1885SOL    HW1 7096   1.702   3.074   2.623 -0.6054 -1.3958  0.4694
 1885SOL    HW2 7097   1.569   3.112   2.684 -0.4987  0.1073 -0.1859
 1886SOL     OW 7098   6.186   2.407   2.554 -0.5896 -0.5734  0.3005
 1886SOL    HW1 7099   6.118   2.369   2.609 -1.2678  1.2286  0.7584
 1886SOL    HW2 7100   6.218   2.483   2.602  2.0544 -1.5376  0.2679
 1887SOL     OW 7101   2.183   2.423   3.354 -0.2414 -0.2139 -0.1902
 1887SOL    HW1 7102   2.241   2.392   3.284 -0.5143 -0.4940 -0.2962
 1887SOL    HW2 7103   2.119   2.479   3.309  0.9321  1.4908  0.1534
 1888SOL     OW 7104   3.660   0.064   5.723  0.2838 -0.0722  0.6713
 1888SOL    HW1 7105   3.625   0.039   5.809 -1.5490  2.4498  0.7559
 1888SOL    HW2 7106   3.694   0.153   5.736 -2.2273  1.3662 -1.6602
 1889SOL     OW 7107   7.997   1.512   2.402  0.4631  0.4578  0.2990
 1889SOL    HW1 7108   7.965   1.583   2.347  0.8573 -0.1373 -0.7265
 1889SOL    HW2 7109   8.015   1.553   2.487  1.7025  1.8072 -0.5823
 1890SOL     OW 7110   1.441   2.854   0.046  0.3719 -0.1405  0.2873
 1890SOL    HW1 7111   1.434   2.914  -0.028 -0.6163 -0.3290  0.2177
 1890SOL    HW2 7112   1.492   2.780   0.012  0.6277  0.1488  0.0390
 1891SOL     OW 7113   0.654   1.131   2.329 -0.1067  0.1812 -0.4820
 1891SOL    HW1 7114   0.640   1.078   2.408 -0.2250 -0.0298 -0.6440
 1891SOL    HW2 7115   0.660   1.067   2.258 -1.9789  0.4354 -0.9411
 1892SOL     OW 7116   0.746   0.851   1.463 -0.0227 -0.1463  0.2294
 1892SOL    HW1 7117   0.840   0.863   1.450  0.5466 -1.5141  2.5146
 1892SOL    HW2 7118   0.739   0.766   1.505 -2.2161  0.3298  0.9311
 1893SOL     OW 7119   1.291   1.620   2.068 -0.4857 -0.3784  0.7759
 1893SOL    HW1 7120   1.329   1.701   2.101 -0.4735  0.9686 -2.2680
 1893SOL    HW2 7121   1.364   1.576   2.024 -1.6820  1.1990 -3.2345
 1894SOL     OW 7122   1.948   2.461   2.374 -0.2132 -0.0590 -0.5795
 1894SOL    HW1 7123   1.932   2.370   2.398  1.6979 -0.3864 -0.4020
 1894SOL    HW2 7124   1.939   2.510   2.456  0.2371 -0.3056 -0.3807
 1895SOL     OW 7125   1.058   2.205   1.531 -0.1040 -0.5570 -0.3235
 1895SOL    HW1 7126   1.127   2.270   1.547  0.8343 -1.5344 -0.2114
 1895SOL    HW2 7127   1.106   2.126   1.507 -1.2993 -0.4531 -3.4312
 1896SOL     OW 7128   2.976   2.462   1.016 -0.0266  0.5692 -0.0405
 1896SOL    HW1 7129   2.985   2.466   1.111 -2.1148 -0.9463  0.2846
 1896SOL    HW2 7130   3.064   2.442   0.983  0.2908 -1.2842  1.7691
 1897SOL     OW 7131   7.264   4.395   3.345 -0.2636 -0.2197 -0.7224
 1897SOL    HW1 7132   7.224   4.463   3.291 -0.5458  0.8474  0.7660
 1897SOL    HW2 7133   7.348   4.432   3.373 -0.2137 -0.6580 -0.2662
 1898SOL     OW 7134   6.467   1.602   3.809  0.0243  0.1779  0.0926
 1898SOL    HW1 7135   6.389   1.551   3.829 -0.5580  1.6811  2.0405
 1898SOL    HW2 7136   6.538   1.557   3.854 -0.3780  0.6930  1.2839
 1899SOL     OW 7137   0.868   3.102   4.787 -0.4050  0.3441  0.0677
 1899SOL    HW1 7138   0.777   3.090   4.815 -0.9937  2.0882 -0.9423
 1899SOL    HW2 7139   0.873   3.056   4.704  0.6939 -2.8024  1.7131
 1900SOL     OW 7140   0.965   1.842   5.570  0.7916  0.1262  0.4592
 1900SOL    HW1 7141   0.947   1.935   5.556  0.1991  0.1635  1.3815
 1900SOL    HW2 7142   1.052   1.828   5.532  0.8071  1.0156  0.1508
 1901SOL     OW 7143   0.253   2.858   2.959 -0.3848 -0.6859 -0.0439
 1901SOL    HW1 7144   0.315   2.927   2.932 -1.5850  0.2998 -0.3763
 1901SOL    HW2 7145   0.302   2.777   2.949  0.0940 -0.1624 -2.7103
 1902SOL     OW 7146   7.845   3.435   4.919 -0.2176 -0.5623 -0.5605
 1902SOL    HW1 7147   7.850   3.408   4.827 -0.7334 -0.5590 -0.5922
 1902SOL    HW2 7148   7.772   3.496   4.922  0.0056 -0.3113 -0.2060
 1903SOL     OW 7149   2.539   0.384   5.488 -0.0404  0.2172 -0.4720
 1903SOL    HW1 7150   2.613   0.324   5.480 -0.3668 -0.2381 -0.1230
 1903SOL    HW2 7151   2.520   0.411   5.398  1.9458  2.0753 -0.4058
 1904SOL     OW 7152   0.501   0.074   5.045  0.7036  0.1010 -0.2092
 1904SOL    HW1 7153   0.498   0.041   5.135  1.2279 -1.0756 -0.5995
 1904SOL    HW2 7154   0.594   0.071   5.021  0.5492  0.2198 -0.8482
 1905SOL     OW 7155   0.363   2.122   6.456  0.2191 -0.0152 -0.3147
 1905SOL    HW1 7156   0.298   2.052   6.450 -2.9484  2.6425  0.4898
 1905SOL    HW2 7157   0.347   2.177   6.380  1.0672  1.1041  0.2791
 1906SOL     OW 7158   1.798   0.511   4.852  0.4149 -0.5082  0.4714
 1906SOL    HW1 7159   1.814   0.463   4.934  2.5555 -0.6865  0.0026
 1906SOL    HW2 7160   1.862   0.583   4.853 -0.0156 -0.0814 -0.7138
 1907SOL     OW 7161   2.260   3.104   4.037  0.2180 -0.0160  0.2223
 1907SOL    HW1 7162   2.184   3.063   3.996  1.5267 -4.2912  1.6129
 1907SOL    HW2 7163   2.323   3.113   3.966 -0.0014 -0.6674 -0.0610
 1908SOL     OW 7164   0.905   1.324   5.532  0.1391  0.6337 -0.4797
 1908SOL    HW1 7165   0.895   1.411   5.493  0.4686  0.6695 -0.4883
 1908SOL    HW2 7166   0.865   1.332   5.618 -1.1639  0.3770 -1.0419
 1909SOL     OW 7167   1.357   2.438   5.371 -0.5028 -0.3259 -0.0576
 1909SOL    HW1 7168   1.331   2.527   5.345 -2.0524 -0.6644  0.2219
 1909SOL    HW2 7169   1.452   2.437   5.360 -0.5705  1.0216 -1.1280
 1910SOL     OW 7170   0.602   1.097   4.505 -0.0887  0.3025  0.3134
 1910SOL    HW1 7171   0.644   1.172   4.464 -1.5241  1.2663  0.5352
 1910SOL    HW2 7172   0.591   1.122   4.597  1.8590 -1.2916  1.0573
 1911SOL     OW 7173   1.461   1.304   5.350 -0.0099 -0.2616  0.0057
 1911SOL    HW1 7174   1.375   1.338   5.375 -0.6300 -0.2163 -1.9577
 1911SOL    HW2 7175   1.456   1.296   5.254  2.1481 -0.3415 -0.1472
 1912SOL     OW 7176   2.964   3.584   2.678 -0.2077  0.8436 -0.5424
 1912SOL    HW1 7177   2.891   3.523   2.669  0.9246 -0.8749  1.1283
 1912SOL    HW2 7178   2.997   3.597   2.589 -3.2617  2.7351 -1.5513
 1913SOL     OW 7179   7.556   3.942   6.512  0.1891  0.2890 -0.1969
 1913SOL    HW1 7180   7.555   4.037   6.495  1.0467  0.2961 -0.2531
 1913SOL    HW2 7181   7.510   3.904   6.438 -1.4016  0.7510  0.5095
 1914SOL     OW 7182   0.454   2.150   3.994  0.2822 -0.1497 -0.2412
 1914SOL    HW1 7183   0.518   2.220   3.983  0.0585  0.2859  1.1061
 1914SOL    HW2 7184   0.379   2.192   4.035  0.4066 -1.2875  1.2305
 1915SOL     OW 7185   0.112   1.537   4.997  0.3749  0.5482  0.2266
 1915SOL    HW1 7186   0.056   1.544   5.075  1.4792  0.6795  1.0377
 1915SOL    HW2 7187   0.166   1.460   5.014  0.2069  0.2202 -0.7021
 1916SOL     OW 7188   0.448   5.650   4.400  0.2315  0.5769 -0.0638
 1916SOL    HW1 7189   0.455   5.563   4.439 -0.9551  0.4504 -0.0781
 1916SOL    HW2 7190   0.416   5.706   4.471  0.0857  0.7939 -0.2971
 1917SOL     OW 7191   1.446   2.299   4.367  0.0340 -0.5150  0.1875
 1917SOL    HW1 7192   1.521   2.302   4.307 -0.2527 -1.3919 -0.2256
 1917SOL    HW2 7193   1.369   2.303   4.310 -0.2636  0.7277  0.6291
 1918SOL     OW 7194   0.003   1.946   6.028 -0.1745 -0.2754 -0.3345
 1918SOL    HW1 7195  -0.032   2.013   6.087  0.9560  0.0414 -0.0011
 1918SOL    HW2 7196  -0.017   1.863   6.070  1.6924 -0.0278  1.1562
 1919SOL     OW 7197   0.225   3.088   4.178 -0.2240 -0.3083  0.7541
 1919SOL    HW1 7198   0.172   3.008   4.179  0.6448 -0.9057  0.0631
 1919SOL    HW2 7199   0.212   3.126   4.265 -0.7484 -1.1397  1.0489
 1920SOL     OW 7200   3.443   2.769   3.054  0.6980 -0.0425 -0.0115
 1920SOL    HW1 7201   3.397   2.690   3.025  0.1491  0.7322 -1.3478
 1920SOL    HW2 7202   3.410   2.784   3.143  0.0412 -0.7557 -0.1224
 1921SOL     OW 7203   6.304   2.743   3.367 -0.5385 -0.0068  0.4802
 1921SOL    HW1 7204   6.324   2.653   3.395 -0.7205  0.3515  1.8363
 1921SOL    HW2 7205   6.302   2.793   3.449 -0.2650  1.2698 -0.2789
 1922SOL     OW 7206   0.741   3.429   5.574 -0.1959 -0.0436  0.0334
 1922SOL    HW1 7207   0.823   3.478   5.582 -0.6056  0.9647 -1.4530
 1922SOL    HW2 7208   0.673   3.491   5.599 -0.6561 -0.1525 -0.8949
 1923SOL     OW 7209   3.951   2.668   2.122  0.5086 -0.0144  0.4799
 1923SOL    HW1 7210   4.011   2.696   2.191 -0.0775  0.3597  0.8435
 1923SOL    HW2 7211   3.929   2.748   2.075  0.9961 -0.2812 -0.2315
 1924SOL     OW 7212   6.517   1.921   6.826  0.2711  0.3988  0.1653
 1924SOL    HW1 7213   6.598   1.970   6.816 -0.9902  2.4923 -0.2697
 1924SOL    HW2 7214   6.491   1.932   6.917 -0.0281  0.5618  0.0630
 1925SOL     OW 7215   7.226   3.140   2.752 -0.3911 -0.2403 -0.6432
 1925SOL    HW1 7216   7.203   3.050   2.731 -0.5031 -0.1297 -0.9925
 1925SOL    HW2 7217   7.167   3.163   2.825  1.0761 -1.1446  0.9092
 1926SOL     OW 7218   1.934   3.212   4.796 -0.2507  0.7560 -0.5489
 1926SOL    HW1 7219   2.021   3.172   4.802  0.8074  2.8058 -1.1525
 1926SOL    HW2 7220   1.944   3.281   4.730 -1.3871  3.2360  1.6693
 1927SOL     OW 7221   1.969   1.662   4.545  0.2760 -0.3949 -0.0519
 1927SOL    HW1 7222   1.897   1.629   4.492 -1.0870  0.1453  1.3880
 1927SOL    HW2 7223   2.038   1.682   4.482 -0.9868 -0.5120 -1.5351
 1928SOL     OW 7224   7.760   1.882   3.924  0.6504 -0.0132 -0.3933
 1928SOL    HW1 7225   7.711   1.939   3.983  0.9799  1.6789 -1.6622
 1928SOL    HW2 7226   7.848   1.880   3.962  0.5069 -0.1109 -0.0580
 1929SOL     OW 7227   0.534   4.464   5.031  0.1698 -0.2794 -0.4431
 1929SOL    HW1 7228   0.485   4.510   5.099  1.8077 -0.8464  1.1909
 1929SOL    HW2 7229   0.505   4.373   5.037  1.9084 -0.7802  1.0755
 1930SOL     OW 7230   6.972   2.643   4.312 -0.3921  0.2882 -0.3527
 1930SOL    HW1 7231   6.943   2.554   4.329 -1.6476  0.2529 -2.2990
 1930SOL    HW2 7232   6.991   2.680   4.398 -1.5703 -1.2792  0.6295
 1931SOL     OW 7233   1.544   0.395   5.810  0.0822  0.7560  1.7113
 1931SOL    HW1 7234   1.632   0.365   5.788 -0.9200 -1.4351  0.3803
 1931SOL    HW2 7235   1.539   0.387   5.906  0.6112 -1.3729  1.6138
 1932SOL     OW 7236   1.324   4.073   4.221  0.1023  0.2965 -0.2132
 1932SOL    HW1 7237   1.414   4.098   4.202 -0.0316 -0.0517 -1.4226
 1932SOL    HW2 7238   1.332   3.994   4.275  0.5622 -1.0239 -2.1213
 1933SOL     OW 7239   0.817   3.110   3.802 -0.0366 -0.5260 -0.3107
 1933SOL    HW1 7240   0.742   3.074   3.756 -0.3858 -1.1473  0.7042
 1933SOL    HW2 7241   0.824   3.200   3.771 -2.2643  0.1133  0.8129
 1934SOL     OW 7242   6.830   2.395   3.971  0.2238  0.0522 -0.2963
 1934SOL    HW1 7243   6.920   2.365   3.986  0.3849  0.2614 -0.8578
 1934SOL    HW2 7244   6.787   2.380   4.055  0.9088  0.4100  0.1290
 1935SOL     OW 7245   1.070   1.781   5.290 -0.1390  0.9014 -0.2452
 1935SOL    HW1 7246   1.156   1.795   5.330 -0.7124  1.8065  0.6946
 1935SOL    HW2 7247   1.064   1.848   5.222 -1.0044  2.3428  1.1996
 1936SOL     OW 7248   1.771   4.469   3.593 -0.6278  0.1294  0.4606
 1936SOL    HW1 7249   1.740   4.511   3.673  1.7744  3.3462 -0.0799
 1936SOL    HW2 7250   1.838   4.408   3.622  0.3847  1.4325  0.9720
 1937SOL     OW 7251   7.943   3.044   4.939 -0.0208 -0.0657 -0.0414
 1937SOL    HW1 7252   7.902   3.082   4.862  0.4569  1.8906  0.6193
 1937SOL    HW2 7253   8.037   3.043   4.918 -0.0180 -0.9323 -0.0407
 1938SOL     OW 7254   1.083   1.139   5.665  0.4848 -0.1697 -0.1801
 1938SOL    HW1 7255   1.032   1.214   5.634 -0.2637 -0.5003  0.2460
 1938SOL    HW2 7256   1.069   1.072   5.599 -1.5876 -1.0786  1.0893
 1939SOL     OW 7257   0.739   1.811   4.679 -0.0116 -0.0958  0.4146
 1939SOL    HW1 7258   0.667   1.855   4.633 -0.0321 -0.2592  0.2886
 1939SOL    HW2 7259   0.806   1.879   4.690 -0.3410  0.1601  0.8779
 1940SOL     OW 7260   1.555   1.145   4.982  0.1278 -0.5263  0.3467
 1940SOL    HW1 7261   1.502   1.224   4.993  2.0078  0.6103  1.8685
 1940SOL    HW2 7262   1.513   1.080   5.038 -0.2564  0.0276  0.7112
 1941SOL     OW 7263   1.028   3.015   3.370  1.0516 -0.4549  0.0311
 1941SOL    HW1 7264   1.048   3.103   3.338  0.6382 -0.1777  0.5102
 1941SOL    HW2 7265   1.112   2.969   3.369  1.5466  0.3949  1.1531
 1942SOL     OW 7266   7.906   3.254   5.570  0.3340  0.1813  0.0274
 1942SOL    HW1 7267   7.819   3.254   5.530  0.4454  0.1164 -0.2131
 1942SOL    HW2 7268   7.937   3.165   5.561  0.9839  0.5011 -1.1108
 1943SOL     OW 7269   7.793   3.888   5.223 -0.3148 -0.1576 -0.1864
 1943SOL    HW1 7270   7.790   3.891   5.319 -1.5925 -0.9588 -0.1773
 1943SOL    HW2 7271   7.881   3.857   5.203 -0.7727 -2.3073  0.8426
 1944SOL     OW 7272   7.849   1.421   5.043  0.4037 -0.2489  0.3380
 1944SOL    HW1 7273   7.885   1.425   4.954  0.0994 -0.7324  0.1935
 1944SOL    HW2 7274   7.802   1.504   5.054  0.6544 -0.0797  0.1420
 1945SOL     OW 7275   2.216   2.812   4.083 -0.0177 -0.0741  0.0742
 1945SOL    HW1 7276   2.297   2.764   4.069 -0.8477 -1.1063 -1.3932
 1945SOL    HW2 7277   2.245   2.900   4.107  1.5275 -0.5751  0.1849
 1946SOL     OW 7278   2.068   2.135   3.022 -0.0021  0.0778 -0.4699
 1946SOL    HW1 7279   2.077   2.104   3.113  1.1300 -0.8531 -0.8758
 1946SOL    HW2 7280   2.076   2.230   3.029  0.2256  0.0091  0.3942
 1947SOL     OW 7281   0.496   0.470   4.044 -0.6681  0.0212 -0.3144
 1947SOL    HW1 7282   0.402   0.469   4.029 -0.5169  0.7245 -1.5540
 1947SOL    HW2 7283   0.513   0.398   4.104 -1.9882 -0.1355 -0.1124
 1948SOL     OW 7284   2.169   4.440   4.157 -0.1576  0.1612  0.2462
 1948SOL    HW1 7285   2.201   4.527   4.136 -1.3950  0.9764  1.5483
 1948SOL    HW2 7286   2.244   4.394   4.193  0.8474  0.1975 -1.6567
 1949SOL     OW 7287   0.428   3.935   5.415  0.1591 -0.2934 -0.2712
 1949SOL    HW1 7288   0.393   3.948   5.327 -1.9772 -0.5132  0.4714
 1949SOL    HW2 7289   0.414   4.019   5.459 -1.4447 -1.0042  0.6555
 1950SOL     OW 7290   1.925   3.071   4.483 -0.9079 -0.1676 -0.1573
 1950SOL    HW1 7291   1.877   3.058   4.564  0.7913 -0.4793  0.8429
 1950SOL    HW2 7292   1.994   3.133   4.506 -0.1269 -0.6023 -1.2502
 1951SOL     OW 7293   0.332   3.338   4.488  0.1808  0.4013  0.0469
 1951SOL    HW1 7294   0.304   3.429   4.490  0.7711  0.7396 -2.8436
 1951SOL    HW2 7295   0.388   3.328   4.565  1.8229  3.1104 -0.6573
 1952SOL     OW 7296   0.634   2.672   5.097 -0.2195  0.5103 -0.3803
 1952SOL    HW1 7297   0.562   2.708   5.045 -0.4816  0.2368 -0.2108
 1952SOL    HW2 7298   0.682   2.748   5.128 -1.1301  0.7449  0.4929
 1953SOL     OW 7299   0.661   0.711   5.264 -0.2361  0.5883  0.0687
 1953SOL    HW1 7300   0.722   0.644   5.232 -0.3310  1.2344 -1.5933
 1953SOL    HW2 7301   0.598   0.663   5.317  1.0128 -0.2803  0.8088
 1954SOL     OW 7302   0.797   2.998   5.386  0.3341  0.2972  0.4772
 1954SOL    HW1 7303   0.811   2.932   5.319 -0.0067  0.8667 -0.1658
 1954SOL    HW2 7304   0.837   2.961   5.465  1.0282 -0.2333 -0.1126
 1955SOL     OW 7305   1.210   2.303   4.209  0.0871 -0.3252  0.1980
 1955SOL    HW1 7306   1.186   2.363   4.138 -0.2522 -0.2183  0.4018
 1955SOL    HW2 7307   1.128   2.286   4.255  0.6725  1.6262  2.1417
 1956SOL     OW 7308   1.324   2.791   4.768 -0.8487 -0.7157  0.1362
 1956SOL    HW1 7309   1.384   2.812   4.696 -1.3147  0.5262  0.0941
 1956SOL    HW2 7310   1.325   2.695   4.772  0.2825 -0.7560 -0.5819
 1957SOL     OW 7311   1.858   2.209   2.713  0.8104 -0.3198 -0.3305
 1957SOL    HW1 7312   1.909   2.129   2.703  2.8509  0.8099  0.3861
 1957SOL    HW2 7313   1.901   2.256   2.784 -1.2795  0.7407  0.3205
 1958SOL     OW 7314   0.736   4.558   2.773  0.0489  0.0676  0.4084
 1958SOL    HW1 7315   0.780   4.490   2.825 -0.4999  0.9193  2.0509
 1958SOL    HW2 7316   0.739   4.636   2.829 -3.2641  0.2524  0.4957
 1959SOL     OW 7317   1.300   3.263   4.402  0.2958 -0.1602 -0.9110
 1959SOL    HW1 7318   1.300   3.181   4.452  0.5710 -0.8555 -2.0217
 1959SOL    HW2 7319   1.339   3.239   4.318  0.3743  1.1182 -1.2462
 1960SOL     OW 7320   0.655   2.539   4.032  0.0136  0.7907 -0.1653
 1960SOL    HW1 7321   0.564   2.542   4.002  0.2750 -0.5576 -1.1518
 1960SOL    HW2 7322   0.663   2.616   4.089 -1.5003  1.4042 -0.7147
 1961SOL     OW 7323   1.213   3.183   4.889  0.5833  0.0638 -0.5004
 1961SOL    HW1 7324   1.304   3.210   4.897 -0.2034  2.7164  0.9439
 1961SOL    HW2 7325   1.178   3.238   4.818 -0.4220  0.9358  0.6238
 1962SOL     OW 7326   7.838   2.535   4.918 -0.1164  0.0937 -0.1243
 1962SOL    HW1 7327   7.745   2.532   4.898 -0.3076 -0.8634  0.8340
 1962SOL    HW2 7328   7.869   2.615   4.875 -1.1856 -0.0411 -1.2009
 1963SOL     OW 7329   2.534   2.081   6.344  0.7988 -0.1694 -0.3325
 1963SOL    HW1 7330   2.488   2.132   6.411 -0.7848 -2.6004  0.5756
 1963SOL    HW2 7331   2.623   2.117   6.343  0.6184  0.5980  2.4184
 1964SOL     OW 7332   0.700   2.129   4.294 -0.2246  0.1986  0.2582
 1964SOL    HW1 7333   0.704   2.115   4.199 -2.4065  0.2177  0.1153
 1964SOL    HW2 7334   0.663   2.217   4.304  2.8265  1.5135  1.1833
 1965SOL     OW 7335   2.169   1.904   6.371  0.0813  0.3415  0.2217
 1965SOL    HW1 7336   2.239   1.943   6.318 -1.8900  1.1138 -1.9756
 1965SOL    HW2 7337   2.167   1.957   6.451 -0.7109  3.0935 -1.5157
 1966SOL     OW 7338   1.010   3.880   4.884 -0.1919  0.1419 -0.0062
 1966SOL    HW1 7339   0.988   3.834   4.803 -1.4131 -1.1607  1.0149
 1966SOL    HW2 7340   0.932   3.932   4.904  0.5922  1.4914 -0.3153
 1967SOL     OW 7341   0.257   2.891   5.790  0.0923  0.5530  0.5316
 1967SOL    HW1 7342   0.274   2.821   5.853  1.5368  1.1184  0.8140
 1967SOL    HW2 7343   0.341   2.903   5.745 -0.9365  0.0693 -1.6353
 1968SOL     OW 7344   1.624   2.410   5.394 -0.2459  0.2300  0.3986
 1968SOL    HW1 7345   1.692   2.398   5.328 -1.7806  0.5799 -1.3360
 1968SOL    HW2 7346   1.613   2.505   5.401 -0.8185  0.1724  0.3657
 1969SOL     OW 7347   0.568   1.589   4.334  0.1822 -0.6477  0.4145
 1969SOL    HW1 7348   0.631   1.604   4.405  0.6852 -0.2843 -0.0978
 1969SOL    HW2 7349   0.621   1.563   4.259 -0.2792 -0.3666 -0.0186
 1970SOL     OW 7350   0.513   7.799   2.100 -0.1007 -0.1151  0.6070
 1970SOL    HW1 7351   0.458   7.727   2.132  1.6877 -1.4012  0.9632
 1970SOL    HW2 7352   0.453   7.856   2.052 -1.9529 -0.7679  2.0326
 1971SOL     OW 7353   2.225   3.212   2.699  0.1770 -0.2351 -0.3758
 1971SOL    HW1 7354   2.313   3.232   2.667 -0.5092  0.1333 -2.0912
 1971SOL    HW2 7355   2.168   3.272   2.652 -1.1444 -1.3987 -0.3065
 1972SOL     OW 7356   0.384   1.771   3.429 -0.0282 -0.3435  0.0128
 1972SOL    HW1 7357   0.377   1.717   3.350 -1.4481  2.4218 -1.9422
 1972SOL    HW2 7358   0.295   1.780   3.461  0.2228  0.4564  0.5325
 1973SOL     OW 7359   1.668   1.479   5.205 -0.2045 -0.5210  0.1675
 1973SOL    HW1 7360   1.685   1.556   5.151 -0.6300 -0.8662 -0.4685
 1973SOL    HW2 7361   1.600   1.430   5.157 -1.7731 -0.0296  1.7803
 1974SOL     OW 7362   1.129   1.706   4.660  0.8196  0.7428  0.0059
 1974SOL    HW1 7363   1.065   1.768   4.626  1.4571  1.2935 -0.2017
 1974SOL    HW2 7364   1.091   1.620   4.642 -1.8651  0.9550  3.5670
 1975SOL     OW 7365   1.682   0.844   3.602 -0.0105 -0.1012  0.2208
 1975SOL    HW1 7366   1.682   0.857   3.697 -1.9161  1.0810  0.1188
 1975SOL    HW2 7367   1.693   0.932   3.566  1.4944 -0.6249 -0.6982
 1976SOL     OW 7368   1.564   2.797   4.904 -0.5196  0.1160 -0.5895
 1976SOL    HW1 7369   1.475   2.808   4.872 -0.4049  0.1623 -0.8924
 1976SOL    HW2 7370   1.597   2.887   4.913 -0.5417  0.1038 -0.3625
 1977SOL     OW 7371   2.448   2.004   5.250 -0.0246 -0.2214 -0.2460
 1977SOL    HW1 7372   2.494   2.072   5.203  0.0361 -0.4135 -0.4660
 1977SOL    HW2 7373   2.404   1.953   5.182  0.4415 -0.7817 -0.1381
 1978SOL     OW 7374   2.201   2.219   3.869 -1.4165  0.8030  0.3012
 1978SOL    HW1 7375   2.213   2.265   3.953 -0.0247 -0.1852  0.6729
 1978SOL    HW2 7376   2.126   2.263   3.829 -2.7314  0.7192  2.4627
 1979SOL     OW 7377   7.187   1.574   5.628  0.1586 -0.0557 -0.6799
 1979SOL    HW1 7378   7.257   1.639   5.622  0.2880 -0.1003  0.2149
 1979SOL    HW2 7379   7.215   1.514   5.696 -0.2496 -0.7087 -1.0758
 1980SOL     OW 7380   0.743   2.574   4.501 -0.2013 -0.4560  0.5113
 1980SOL    HW1 7381   0.702   2.652   4.540 -0.1165  0.0501 -0.3646
 1980SOL    HW2 7382   0.764   2.601   4.412  0.8442 -1.1423  0.5366
 1981SOL     OW 7383   7.071   1.355   5.508  0.2349  0.0800  0.8528
 1981SOL    HW1 7384   7.097   1.437   5.551 -0.1962 -0.1796  1.6218
 1981SOL    HW2 7385   6.980   1.342   5.532  0.4169 -0.8482  1.0985
 1982SOL     OW 7386   0.001   1.010   3.861  0.0936  0.5120 -0.4308
 1982SOL    HW1 7387   0.012   1.094   3.905 -0.2169 -0.0829  0.8284
 1982SOL    HW2 7388  -0.070   0.966   3.910  0.9502 -0.8957 -0.3954
 1983SOL     OW 7389   0.497   4.255   3.247  0.6752  0.1559  0.1500
 1983SOL    HW1 7390   0.418   4.307   3.259  0.6196  0.0757  0.1356
 1983SOL    HW2 7391   0.567   4.319   3.241  0.9797  0.1866  2.7435
 1984SOL     OW 7392   2.468   1.039   5.095 -0.1196 -0.5947  0.4846
 1984SOL    HW1 7393   2.465   0.964   5.155  0.7264  0.2926  1.6761
 1984SOL    HW2 7394   2.402   1.100   5.129 -1.1804 -0.9871 -0.7903
 1985SOL     OW 7395   0.555   2.388   4.265  0.2580 -0.4634  0.1361
 1985SOL    HW1 7396   0.537   2.438   4.344 -2.1484 -0.7986 -0.1231
 1985SOL    HW2 7397   0.616   2.443   4.215 -0.8376  1.3428  0.6960
 1986SOL     OW 7398   6.743   3.494   2.744  0.2891  0.0646  0.1353
 1986SOL    HW1 7399   6.785   3.564   2.694 -0.3590  1.6002  1.6521
 1986SOL    HW2 7400   6.763   3.514   2.835  0.0642 -1.7473  0.6338
 1987SOL     OW 7401   1.479   2.729   1.984 -0.2607  0.1236 -0.4221
 1987SOL    HW1 7402   1.425   2.733   1.905  0.6735  1.0134 -1.0315
 1987SOL    HW2 7403   1.447   2.801   2.038  0.6293  1.0035 -1.0195
 1988SOL     OW 7404   2.007   2.084   4.098  0.0342 -0.2732  0.3724
 1988SOL    HW1 7405   2.089   2.042   4.073  0.4632  0.8310 -0.1344
 1988SOL    HW2 7406   2.033   2.166   4.139 -0.8177  0.3545 -0.2899
 1989SOL     OW 7407   2.581   0.847   5.938  0.9186  0.5615  0.4503
 1989SOL    HW1 7408   2.558   0.939   5.923 -0.4795  0.2148  0.3176
 1989SOL    HW2 7409   2.499   0.799   5.924  1.7808 -0.7974 -0.2171
 1990SOL     OW 7410   1.640   0.299   4.727 -0.6963 -0.2304 -0.2021
 1990SOL    HW1 7411   1.700   0.227   4.708  0.6519  0.3726  1.5139
 1990SOL    HW2 7412   1.691   0.359   4.782 -2.1555  1.4573 -0.5907
 1991SOL     OW 7413   0.280   1.911   6.259 -0.1198 -0.4408  0.5020
 1991SOL    HW1 7414   0.280   2.003   6.234  0.6128 -1.1473 -2.4240
 1991SOL    HW2 7415   0.371   1.883   6.248 -0.5020 -1.7221  0.4831
 1992SOL     OW 7416   0.967   2.406   5.793  0.6273 -0.0954 -0.2433
 1992SOL    HW1 7417   0.976   2.494   5.830 -0.1016  0.0283 -0.3450
 1992SOL    HW2 7418   0.902   2.416   5.724 -0.1618 -0.9060  0.3709
 1993SOL     OW 7419   1.553   1.767   2.796  0.1502 -0.5129 -0.0534
 1993SOL    HW1 7420   1.460   1.760   2.776 -0.4487  0.0687  2.2202
 1993SOL    HW2 7421   1.572   1.690   2.850  0.6364  0.0726  0.6319
 1994SOL     OW 7422   0.760   4.270   4.832 -0.1888  0.5662  0.4324
 1994SOL    HW1 7423   0.827   4.261   4.900  1.3387  1.1626 -0.9159
 1994SOL    HW2 7424   0.692   4.323   4.873  0.9105  1.3225  1.3601
 1995SOL     OW 7425   0.644   0.969   5.359  0.0160 -0.0571  0.5005
 1995SOL    HW1 7426   0.726   1.015   5.376 -0.7562  2.1390 -1.2916
 1995SOL    HW2 7427   0.671   0.887   5.317  1.3624 -0.8199  2.6615
 1996SOL     OW 7428   1.390   3.026   6.025  1.1328 -0.2827 -0.1646
 1996SOL    HW1 7429   1.389   3.018   6.120  1.3640  1.0955 -0.0169
 1996SOL    HW2 7430   1.482   3.015   6.001  0.8919 -2.0162 -0.3970
 1997SOL     OW 7431   0.008   2.507   5.597  0.2462  0.4832  0.2380
 1997SOL    HW1 7432   0.038   2.597   5.611  1.7544  0.3122 -1.5651
 1997SOL    HW2 7433   0.024   2.490   5.504  0.0214 -1.6745  0.5412
 1998SOL     OW 7434   0.659   2.812   4.700 -0.2120  0.6750 -0.4700
 1998SOL    HW1 7435   0.749   2.779   4.711 -0.4822 -0.0231 -0.2823
 1998SOL    HW2 7436   0.652   2.883   4.764 -0.7113 -1.2021  1.7266
 1999SOL     OW 7437   1.513   0.344   3.948 -0.1523  0.2447 -0.0988
 1999SOL    HW1 7438   1.419   0.334   3.966  0.0302  0.1505  0.8395
 1999SOL    HW2 7439   1.518   0.421   3.892 -0.6945  1.0191  0.8690
 2000SOL     OW 7440   6.013   4.640   5.530 -0.3514  0.4340 -0.2666
 2000SOL    HW1 7441   5.972   4.592   5.459 -0.5922 -0.3022  0.3561
 2000SOL    HW2 7442   6.105   4.615   5.526 -0.5661 -0.5088  0.3762
 2001SOL     OW 7443   7.919   2.557   3.589  0.0253 -0.1357  0.2339
 2001SOL    HW1 7444   7.871   2.640   3.585  0.2365  0.0855  1.6901
 2001SOL    HW2 7445   7.889   2.516   3.670 -0.9011 -2.0290 -0.9855
 2002SOL     OW 7446   0.073   0.620   4.378 -0.4354 -0.1503  0.3798
 2002SOL    HW1 7447   0.101   0.699   4.333  1.2078 -0.4929  0.7131
 2002SOL    HW2 7448   0.002   0.648   4.435  0.1710  1.1072  0.5466
 2003SOL     OW 7449   0.865   2.828   3.743  0.2810  0.2995 -0.0053
 2003SOL    HW1 7450   0.885   2.755   3.802  0.5989 -0.5039 -1.0675
 2003SOL    HW2 7451   0.887   2.906   3.793  1.8116 -0.4026  0.4846
 2004SOL     OW 7452   0.597   2.537   3.669 -0.4237 -0.0978  0.1557
 2004SOL    HW1 7453   0.624   2.620   3.629 -2.7859  1.3445  1.3190
 2004SOL    HW2 7454   0.569   2.483   3.595 -0.5564  0.8403 -0.4986
 2005SOL     OW 7455   7.545   2.411   5.117 -0.0268 -0.1495  0.2603
 2005SOL    HW1 7456   7.600   2.483   5.147  0.1492  0.6937 -1.9014
 2005SOL    HW2 7457   7.546   2.419   5.022 -2.6788 -1.0376  0.0944
 2006SOL     OW 7458   7.137   2.907   5.100 -0.3621 -0.4938  0.0764
 2006SOL    HW1 7459   7.111   2.981   5.044 -0.7888 -0.1208  0.7509
 2006SOL    HW2 7460   7.144   2.945   5.188  0.3652 -1.0595  0.2688
 2007SOL     OW 7461   1.023   1.585   4.107 -0.0273  0.6852  0.8069
 2007SOL    HW1 7462   1.092   1.553   4.164 -0.8208 -0.2325  1.2856
 2007SOL    HW2 7463   0.942   1.562   4.152 -0.6608  1.4250  0.0960
 2008SOL     OW 7464   1.411   2.021   5.842 -0.2302  0.2419  0.4728
 2008SOL    HW1 7465   1.463   2.096   5.869  0.2679  0.2139 -0.3842
 2008SOL    HW2 7466   1.400   1.970   5.922  0.8780  0.3601  0.7162
 2009SOL     OW 7467   1.763   1.631   4.042  0.2891 -0.1833 -0.0926
 2009SOL    HW1 7468   1.770   1.543   4.007  2.5284 -0.3325  0.5735
 2009SOL    HW2 7469   1.824   1.633   4.116 -0.8048  1.4874  0.8306
 2010SOL     OW 7470   0.825   1.835   4.324 -0.6488  0.6706 -0.2735
 2010SOL    HW1 7471   0.783   1.798   4.247  1.0952 -0.7606 -0.5941
 2010SOL    HW2 7472   0.820   1.930   4.311 -1.8007  0.4873 -1.3345
 2011SOL     OW 7473   2.037   2.303   4.290  0.0111 -0.2638  0.1824
 2011SOL    HW1 7474   2.063   2.316   4.381 -0.3933 -1.6511  0.5156
 2011SOL    HW2 7475   1.942   2.295   4.293 -0.0918  0.5329 -0.4892
 2012SOL     OW 7476   0.164   1.801   3.914 -0.7940 -0.9004 -0.8339
 2012SOL    HW1 7477   0.242   1.746   3.908 -0.5167 -0.6565  0.3383
 2012SOL    HW2 7478   0.110   1.774   3.839  0.8661 -0.3289 -2.3143
 2013SOL     OW 7479   7.079   2.742   5.813 -0.0772  0.0493  0.1112
 2013SOL    HW1 7480   7.044   2.829   5.796  1.1284  0.2231 -1.7569
 2013SOL    HW2 7481   7.097   2.741   5.907 -0.1483  1.8022  0.1712
 2014SOL     OW 7482   0.241   3.679   6.427  0.1653  0.2212 -0.3948
 2014SOL    HW1 7483   0.315   3.732   6.395 -0.6438  0.8543 -1.2520
 2014SOL    HW2 7484   0.270   3.649   6.514  1.6631 -0.0201 -0.9369
 2015SOL     OW 7485   7.354   1.899   4.203  0.1612 -0.1151  0.3018
 2015SOL    HW1 7486   7.359   1.934   4.114 -0.5449  1.6440  0.9111
 2015SOL    HW2 7487   7.292   1.826   4.196  0.4139 -0.2558 -0.7104
 2016SOL     OW 7488   1.077   2.754   5.527  0.2556  0.2554  0.0461
 2016SOL    HW1 7489   1.003   2.712   5.482 -0.4007  1.9436 -0.5482
 2016SOL    HW2 7490   1.038   2.795   5.604  0.9944 -0.7377  0.9684
 2017SOL     OW 7491   7.328   1.953   3.948  0.4478 -0.7135  0.0651
 2017SOL    HW1 7492   7.269   1.889   3.908  0.6613 -0.8535 -0.0264
 2017SOL    HW2 7493   7.393   1.972   3.880 -0.1926  0.3644 -0.2742
 2018SOL     OW 7494   3.849   1.623   3.109  1.1509  0.6463 -0.3784
 2018SOL    HW1 7495   3.913   1.692   3.128  0.4956  0.8443  1.3120
 2018SOL    HW2 7496   3.819   1.594   3.195  1.3637 -1.7521 -1.0476
 2019SOL     OW 7497   1.135   2.380   6.471 -0.2150 -0.1381 -0.0062
 2019SOL    HW1 7498   1.209   2.356   6.526 -1.2082 -0.1874  1.3420
 2019SOL    HW2 7499   1.147   2.329   6.391  2.0689  1.0622 -0.5320
 2020SOL     OW 7500   1.525   2.147   5.394 -0.2569 -0.5806  0.7488
 2020SOL    HW1 7501   1.556   2.236   5.413 -0.7373 -0.0894 -0.6511
 2020SOL    HW2 7502   1.442   2.140   5.441  0.3680 -0.7490  1.8665
 2021SOL     OW 7503   2.114   2.480   5.023 -0.0096 -0.1365 -0.4169
 2021SOL    HW1 7504   2.137   2.486   5.115  0.2692  0.0982 -0.4998
 2021SOL    HW2 7505   2.112   2.571   4.993 -1.2247 -0.1373 -0.3683
 2022SOL     OW 7506   2.827   1.580   5.478  0.0375 -0.4172  0.2143
 2022SOL    HW1 7507   2.846   1.672   5.499 -0.0621 -0.1868 -0.6946
 2022SOL    HW2 7508   2.742   1.581   5.435  0.1784 -0.9028 -0.0844
 2023SOL     OW 7509   1.723   2.571   4.827  0.1396 -0.1811 -0.0634
 2023SOL    HW1 7510   1.774   2.652   4.821 -1.2054  0.6592 -0.4188
 2023SOL    HW2 7511   1.648   2.593   4.882  0.1566 -1.4125  0.4879
 2024SOL     OW 7512   1.820   3.100   4.221  0.3494 -0.0925 -0.1978
 2024SOL    HW1 7513   1.872   3.088   4.300  1.1350  0.1787 -0.6603
 2024SOL    HW2 7514   1.834   3.020   4.170  2.4282  0.9748 -1.4851
 2025SOL     OW 7515   7.994   2.899   3.843  0.9678 -0.2782 -0.4500
 2025SOL    HW1 7516   7.966   2.987   3.867  2.2723 -0.0862  0.4495
 2025SOL    HW2 7517   7.916   2.845   3.855  0.4157  0.5841 -0.0707
 2026SOL     OW 7518   7.313   4.855   4.791  0.2174  0.7474  0.0392
 2026SOL    HW1 7519   7.314   4.944   4.825  0.0233  0.8007 -0.0904
 2026SOL    HW2 7520   7.385   4.811   4.836  0.3374  0.9796  0.0743
 2027SOL     OW 7521   0.078   1.959   2.112  0.2743 -0.4162 -0.2538
 2027SOL    HW1 7522   0.158   1.908   2.097  0.4194  0.0263 -1.0340
 2027SOL    HW2 7523   0.110   2.044   2.145  0.3044  0.5317 -2.5149
 2028SOL     OW 7524   0.590   2.906   3.912 -0.3848  0.5079  0.2776
 2028SOL    HW1 7525   0.574   2.909   3.818  1.2226  0.6254 -0.0177
 2028SOL    HW2 7526   0.552   2.987   3.946  0.1045  1.0526 -0.4579
 2029SOL     OW 7527   1.005   1.986   8.057  0.9435  0.0792  0.4100
 2029SOL    HW1 7528   1.023   1.904   8.104 -0.3844 -0.5410 -0.1086
 2029SOL    HW2 7529   0.978   2.047   8.125  0.7308 -0.2915  0.6621
 2030SOL     OW 7530   6.319   4.715   3.761 -0.0328 -0.0347 -0.2784
 2030SOL    HW1 7531   6.324   4.761   3.845 -0.0124  0.1677 -0.3895
 2030SOL    HW2 7532   6.400   4.740   3.716 -1.2303  2.0108 -1.4676
 2031SOL     OW 7533   7.108   5.394   4.418  0.5872  0.0886  0.1367
 2031SOL    HW1 7534   7.080   5.477   4.458  1.0283  0.5660 -0.5297
 2031SOL    HW2 7535   7.190   5.373   4.463  0.1917 -0.2927  0.7037
 2032SOL     OW 7536   1.958   4.123   3.547  1.0031  0.0502 -0.2404
 2032SOL    HW1 7537   1.935   4.172   3.627  0.2182 -0.7987  0.0731
 2032SOL    HW2 7538   2.010   4.049   3.579  3.2473  1.2847 -0.8298
 2033SOL     OW 7539   1.605   1.999   4.458  0.0645  0.3905  0.3426
 2033SOL    HW1 7540   1.541   2.021   4.390 -0.8964  0.9315  1.4008
 2033SOL    HW2 7541   1.663   1.935   4.415 -1.3244 -0.3262 -0.5731
 2034SOL     OW 7542   6.610   4.559   5.586 -0.5123  0.3052 -0.0101
 2034SOL    HW1 7543   6.545   4.498   5.623 -1.0587  0.7231 -0.2789
 2034SOL    HW2 7544   6.692   4.511   5.592 -1.1836 -1.2436 -1.9387
 2035SOL     OW 7545   0.491   2.495   6.701  0.1165  0.7005  0.2802
 2035SOL    HW1 7546   0.566   2.491   6.759  0.8429 -0.9141 -0.7057
 2035SOL    HW2 7547   0.512   2.566   6.640  1.1372 -0.1012 -0.3359
 2036SOL     OW 7548   1.917   3.790   7.131  0.0956  0.2242  0.1584
 2036SOL    HW1 7549   1.852   3.724   7.107 -2.4385  2.1379  1.3185
 2036SOL    HW2 7550   1.939   3.770   7.222  0.3312  0.2121  0.0998
 2037SOL     OW 7551   0.790   2.118   4.038  0.4048 -0.3707  0.1736
 2037SOL    HW1 7552   0.760   2.156   3.955  0.1349  1.8983  1.2117
 2037SOL    HW2 7553   0.779   2.024   4.027 -0.1409 -0.1016 -2.1550
 2038SOL     OW 7554   1.197   1.024   4.257 -0.8734 -0.3274 -0.4393
 2038SOL    HW1 7555   1.188   1.034   4.163 -2.0939  0.4059 -0.2655
 2038SOL    HW2 7556   1.117   0.979   4.285 -0.6882 -0.2325  0.2814
 2039SOL     OW 7557   1.391   2.726   6.027 -0.5571 -0.2809  0.8114
 2039SOL    HW1 7558   1.431   2.726   6.114 -1.7671 -1.6287  1.4211
 2039SOL    HW2 7559   1.341   2.807   6.023  0.4772  0.3740  0.8829
 2040SOL     OW 7560   0.589   2.486   6.143  0.0150 -0.3121  0.1509
 2040SOL    HW1 7561   0.547   2.515   6.224  0.8301 -0.0935  0.5049
 2040SOL    HW2 7562   0.657   2.551   6.126 -0.1114 -0.3866 -0.6818
 2041SOL     OW 7563   1.652   0.564   3.241  0.1808  0.0756 -0.0783
 2041SOL    HW1 7564   1.565   0.536   3.213 -0.5913  0.8775  1.3998
 2041SOL    HW2 7565   1.636   0.631   3.306  1.8398 -1.4157  2.0258
 2042SOL     OW 7566   1.090   0.369   2.993 -0.0106 -0.3619 -1.3532
 2042SOL    HW1 7567   1.074   0.435   3.060  0.3204 -0.5861 -1.0455
 2042SOL    HW2 7568   1.048   0.290   3.028 -1.5506 -0.0118 -2.3181
 2043SOL     OW 7569   7.010   3.263   4.612 -0.3017 -0.3221 -0.0317
 2043SOL    HW1 7570   6.966   3.311   4.543 -2.6304  0.4377  1.8442
 2043SOL    HW2 7571   7.098   3.302   4.617 -0.9846  1.4061 -0.8031
 2044SOL     OW 7572   1.270   2.186   4.587 -0.0422 -0.7924 -0.0840
 2044SOL    HW1 7573   1.252   2.093   4.573  0.2202 -0.7579 -0.6801
 2044SOL    HW2 7574   1.349   2.203   4.537  0.4170 -0.4445  0.7406
 2045SOL     OW 7575   1.276   3.121   3.798 -0.5201  0.0846 -0.4171
 2045SOL    HW1 7576   1.322   3.145   3.717  1.8151 -1.6886  0.2647
 2045SOL    HW2 7577   1.282   3.200   3.853 -1.1893  0.9489 -1.5376
 2046SOL     OW 7578   7.922   4.857   5.251  0.5662 -0.1728 -0.1846
 2046SOL    HW1 7579   7.886   4.823   5.333  0.0380  1.0860  0.1306
 2046SOL    HW2 7580   7.931   4.951   5.266  1.7857 -0.1199 -1.0947
 2047SOL     OW 7581   1.144   3.186   5.169 -0.0173 -0.3638  0.3477
 2047SOL    HW1 7582   1.191   3.195   5.086 -0.6864 -1.9387 -0.2478
 2047SOL    HW2 7583   1.054   3.163   5.144 -0.8415  1.3994  1.4830
 2048SOL     OW 7584   6.650   2.616   2.270 -0.2453  0.3178  0.4586
 2048SOL    HW1 7585   6.597   2.571   2.335 -1.0672  0.3845 -0.1455
 2048SOL    HW2 7586   6.637   2.709   2.289 -0.6545  0.3415  0.0790
 2049SOL     OW 7587   7.837   3.715   3.969  0.3855  0.2532  0.2162
 2049SOL    HW1 7588   7.829   3.667   3.887 -1.6181  0.3171  0.3280
 2049SOL    HW2 7589   7.918   3.765   3.960  0.9520 -0.8416 -1.1162
 2050SOL     OW 7590   1.002   2.151   4.374 -0.0914 -0.0993 -0.2789
 2050SOL    HW1 7591   0.921   2.171   4.326 -1.5043 -0.1464  1.9382
 2050SOL    HW2 7592   1.016   2.227   4.430  2.4428  0.6924 -1.7861
 2051SOL     OW 7593   2.687   4.445   2.988 -0.0483  0.1518 -0.6050
 2051SOL    HW1 7594   2.771   4.476   3.021 -0.2034  0.6434 -0.6660
 2051SOL    HW2 7595   2.626   4.460   3.059  0.2740 -2.0745  0.2193
 2052SOL     OW 7596   7.417   2.814   5.363 -0.5420 -0.2357  0.2239
 2052SOL    HW1 7597   7.369   2.732   5.354  0.8041 -1.0304 -0.0492
 2052SOL    HW2 7598   7.492   2.792   5.418 -1.0088  1.2128  1.4983
 2053SOL     OW 7599   0.868   3.246   3.474  0.4584  0.0139 -0.4380
 2053SOL    HW1 7600   0.805   3.178   3.450  1.0172 -0.1362 -1.5740
 2053SOL    HW2 7601   0.951   3.200   3.485  0.6088  0.3601 -0.0690
 2054SOL     OW 7602   0.314   4.479   5.742  0.1377 -0.4813  0.0668
 2054SOL    HW1 7603   0.386   4.446   5.795  0.0245 -0.1921  0.4045
 2054SOL    HW2 7604   0.236   4.439   5.781  0.1757 -1.4152 -0.7784
 2055SOL     OW 7605   1.186   2.096   1.773 -0.3141 -0.2171 -0.4385
 2055SOL    HW1 7606   1.222   2.047   1.848 -1.8713  0.6527  0.9354
 2055SOL    HW2 7607   1.254   2.089   1.706  1.1740 -0.9931  1.0561
 2056SOL     OW 7608   0.580   3.541   4.789  0.7956  0.1274  0.1201
 2056SOL    HW1 7609   0.645   3.560   4.856  1.1933  1.8948 -0.7133
 2056SOL    HW2 7610   0.498   3.573   4.825  0.3556 -1.9231  1.0880
 2057SOL     OW 7611   2.809   0.473   4.781  0.3160 -0.2517  0.6477
 2057SOL    HW1 7612   2.872   0.513   4.841  0.9929 -0.4097  0.0564
 2057SOL    HW2 7613   2.858   0.461   4.699 -0.9271  1.1233 -0.3627
 2058SOL     OW 7614   7.582   1.934   4.314  0.3821 -0.3973 -0.3506
 2058SOL    HW1 7615   7.622   1.982   4.241  0.1800 -1.8998 -1.4808
 2058SOL    HW2 7616   7.490   1.924   4.289  0.6378 -2.2801 -0.6634
 2059SOL     OW 7617   0.761   1.846   4.059 -0.2520  0.2659  0.9729
 2059SOL    HW1 7618   0.841   1.799   4.033  0.3372  0.1142  2.9442
 2059SOL    HW2 7619   0.698   1.825   3.989  1.1791 -0.2394 -0.2239
 2060SOL     OW 7620   1.320   1.908   4.595  0.3046 -0.2353  0.6308
 2060SOL    HW1 7621   1.248   1.850   4.621 -0.4346  0.5217  0.3407
 2060SOL    HW2 7622   1.349   1.874   4.511 -0.7377  0.3275  0.0169
 2061SOL     OW 7623   0.241   3.360   3.104  0.6170  0.5698 -0.2110
 2061SOL    HW1 7624   0.147   3.380   3.106  0.7595  1.3404 -0.9253
 2061SOL    HW2 7625   0.251   3.288   3.166 -0.4513  0.4685 -0.1378
 2062SOL     OW 7626   2.944   4.683   3.747 -0.2389 -0.0524 -0.1352
 2062SOL    HW1 7627   2.945   4.598   3.790  0.1856 -0.3086 -0.6324
 2062SOL    HW2 7628   3.035   4.699   3.723 -0.5394 -0.2204 -1.4847
 2063SOL     OW 7629   6.844   3.389   5.542 -0.2632 -0.3368 -0.1743
 2063SOL    HW1 7630   6.850   3.385   5.446 -0.3820  2.4574 -0.3646
 2063SOL    HW2 7631   6.895   3.314   5.572 -0.2955 -1.3313 -2.4070
 2064SOL     OW 7632   2.225   2.746   4.973 -0.1606  0.2454  0.4978
 2064SOL    HW1 7633   2.260   2.779   4.891 -1.5883  0.1918 -0.1641
 2064SOL    HW2 7634   2.251   2.811   5.038 -0.4800  1.1905 -0.2936
 2065SOL     OW 7635   7.852   2.235   5.888  0.1128  0.1295 -0.3198
 2065SOL    HW1 7636   7.828   2.325   5.867 -1.3758 -0.0768  0.4322
 2065SOL    HW2 7637   7.937   2.243   5.933 -0.0879  1.1650 -0.1019
 2066SOL     OW 7638   2.489   1.772   6.073 -0.2730  0.1396  0.6186
 2066SOL    HW1 7639   2.433   1.695   6.059 -1.2004  0.7659  0.7721
 2066SOL    HW2 7640   2.566   1.737   6.117 -0.5519 -0.7509  0.4392
 2067SOL     OW 7641   0.485   3.579   4.159  0.2217  1.0383  0.1334
 2067SOL    HW1 7642   0.523   3.496   4.188 -0.6743  0.6243  0.1318
 2067SOL    HW2 7643   0.533   3.600   4.079  0.2349  0.3524 -0.0480
 2068SOL     OW 7644   3.408   0.551   4.576  0.3455 -0.1913 -0.4622
 2068SOL    HW1 7645   3.335   0.567   4.636 -0.0229  0.1649 -1.0028
 2068SOL    HW2 7646   3.483   0.536   4.634 -0.3951 -1.8400  0.1145
 2069SOL     OW 7647   1.411   0.975   5.378 -0.3018  0.0015  0.5126
 2069SOL    HW1 7648   1.431   1.000   5.468  2.3655 -1.2744  0.3483
 2069SOL    HW2 7649   1.488   1.000   5.328 -2.4945  2.6268 -1.9376
 2070SOL     OW 7650   0.552   2.630   7.444  0.4334  0.2012  0.4147
 2070SOL    HW1 7651   0.583   2.539   7.442  1.2475  0.4156  1.6137
 2070SOL    HW2 7652   0.479   2.629   7.506  2.3874  0.8390  2.9075
 2071SOL     OW 7653   0.327   0.591   7.386 -0.9192 -0.4467  0.0736
 2071SOL    HW1 7654   0.349   0.628   7.300 -2.2701  2.1170  0.7479
 2071SOL    HW2 7655   0.337   0.496   7.374  2.1403 -0.0181 -1.9534
 2072SOL     OW 7656   5.769   2.363   3.955  0.0162  0.1878 -0.4342
 2072SOL    HW1 7657   5.770   2.269   3.935 -1.0092  0.4759 -2.0618
 2072SOL    HW2 7658   5.780   2.368   4.050 -0.5951 -1.6177 -0.2295
 2073SOL     OW 7659   0.280   0.218   5.354  0.2456 -0.0503 -0.3411
 2073SOL    HW1 7660   0.353   0.220   5.416 -0.3725 -1.2963  0.4634
 2073SOL    HW2 7661   0.211   0.170   5.399 -0.9547  0.7711 -1.2388
 2074SOL     OW 7662   0.871   2.141   5.138  0.2508 -0.1234 -0.1580
 2074SOL    HW1 7663   0.935   2.070   5.141  0.6203  0.1756 -0.7437
 2074SOL    HW2 7664   0.787   2.099   5.156  0.8198 -0.2012  3.0009
 2075SOL     OW 7665   1.085   2.666   3.020 -0.1816 -0.4798  0.7047
 2075SOL    HW1 7666   1.161   2.671   3.078 -0.0973  1.0616  0.4948
 2075SOL    HW2 7667   1.042   2.751   3.028 -0.0562 -0.1300 -1.6278
 2076SOL     OW 7668   1.276   3.029   4.542 -0.6646  0.4654  0.4517
 2076SOL    HW1 7669   1.183   3.015   4.523 -0.7701 -0.4302  1.5732
 2076SOL    HW2 7670   1.313   2.941   4.549  0.6512  0.7811 -1.6567
 2077SOL     OW 7671   1.547   2.592   5.092  0.4518 -0.0488 -0.1136
 2077SOL    HW1 7672   1.587   2.616   5.175  0.9728  1.3985 -0.7427
 2077SOL    HW2 7673   1.537   2.675   5.045 -0.4724 -0.7434 -1.2144
 2078SOL     OW 7674   0.750   3.539   5.018  0.2752  0.6743 -0.1986
 2078SOL    HW1 7675   0.796   3.478   4.960  1.1322  2.7333 -1.8334
 2078SOL    HW2 7676   0.813   3.561   5.085  0.7599  1.4414 -0.8931
 2079SOL     OW 7677   0.250   3.035   4.584 -0.0781  0.2059 -0.0916
 2079SOL    HW1 7678   0.297   3.106   4.540  1.0520 -0.7596 -0.5216
 2079SOL    HW2 7679   0.177   3.014   4.526 -0.2800  0.8483 -0.0771
 2080SOL     OW 7680   7.344   1.611   4.680  0.0303 -0.8822  0.1088
 2080SOL    HW1 7681   7.305   1.678   4.625 -0.5462 -0.3878  1.0952
 2080SOL    HW2 7682   7.269   1.565   4.719  0.4148 -0.7248  1.0648
 2081SOL     OW 7683   2.381   1.359   4.916  0.1546 -0.2603 -0.3926
 2081SOL    HW1 7684   2.337   1.435   4.954  0.4810 -1.2895  2.1806
 2081SOL    HW2 7685   2.311   1.306   4.879 -0.2774  0.3119 -0.4076
 2082SOL     OW 7686   1.839   1.257   3.243 -0.0876 -1.0157 -0.8312
 2082SOL    HW1 7687   1.895   1.300   3.307 -1.4212 -1.2887  0.5889
 2082SOL    HW2 7688   1.883   1.174   3.225  0.3943 -0.8683 -0.3630
 2083SOL     OW 7689   1.680   3.386   6.131 -0.0564 -0.1426 -0.1353
 2083SOL    HW1 7690   1.725   3.351   6.208 -0.7796  0.6898  0.6852
 2083SOL    HW2 7691   1.749   3.396   6.065  0.4161 -1.6738  0.1051
 2084SOL     OW 7692   7.890   3.465   3.672  0.3518  0.2997  0.3147
 2084SOL    HW1 7693   7.956   3.450   3.739  1.0044 -0.7090 -0.5113
 2084SOL    HW2 7694   7.928   3.427   3.592 -0.4603  1.3058 -0.5943
 2085SOL     OW 7695   0.666   3.668   2.802 -0.4876 -0.1029  0.1503
 2085SOL    HW1 7696   0.636   3.724   2.730 -0.1600 -0.0377  0.0650
 2085SOL    HW2 7697   0.639   3.713   2.881 -1.1553 -0.3388  0.0703
 2086SOL     OW 7698   1.164   3.926   4.044  0.0928 -0.6740 -0.2482
 2086SOL    HW1 7699   1.210   3.939   4.126  0.0910 -0.8276 -0.2217
 2086SOL    HW2 7700   1.101   3.856   4.063 -1.0469  0.3952  0.0753
 2087SOL     OW 7701   0.685   2.404   3.369  0.7204  0.1133  0.1309
 2087SOL    HW1 7702   0.627   2.423   3.295 -1.0950  0.7117  1.6376
 2087SOL    HW2 7703   0.773   2.419   3.335  0.0504 -0.9600 -2.2877
 2088SOL     OW 7704   0.086   3.730   2.009 -0.4220 -0.2651 -0.0852
 2088SOL    HW1 7705   0.164   3.679   2.028  0.2047  1.3934  2.3774
 2088SOL    HW2 7706   0.014   3.667   2.013  0.6087 -1.4894 -0.4682
 2089SOL     OW 7707   0.983   2.687   4.271 -0.3085 -0.2344 -0.1821
 2089SOL    HW1 7708   0.994   2.781   4.284 -1.5584 -0.1164  0.1390
 2089SOL    HW2 7709   1.054   2.662   4.212  0.4978  0.7642  0.3402
 2090SOL     OW 7710   1.148   0.464   5.034 -0.6858  0.2183  0.0035
 2090SOL    HW1 7711   1.228   0.436   4.990 -0.8154 -1.1687  0.5640
 2090SOL    HW2 7712   1.116   0.538   4.983  0.6413  0.4306 -0.5640
 2091SOL     OW 7713   1.384   1.623   4.066  0.1724 -0.6299  0.3467
 2091SOL    HW1 7714   1.424   1.570   3.998  0.4867  1.4664 -1.1995
 2091SOL    HW2 7715   1.457   1.671   4.106 -0.3275  0.3776  0.0947
 2092SOL     OW 7716   6.752   3.392   4.773 -0.2218 -0.0537  0.0274
 2092SOL    HW1 7717   6.840   3.388   4.735  0.1486  0.1150  0.8371
 2092SOL    HW2 7718   6.714   3.306   4.754  0.0367 -0.0581 -0.5014
 2093SOL     OW 7719   1.584   2.196   4.150 -0.7089  0.1927 -0.1765
 2093SOL    HW1 7720   1.605   2.217   4.059  0.1398 -1.9094 -0.5400
 2093SOL    HW2 7721   1.664   2.217   4.198 -1.3420  1.8249  0.2174
 2094SOL     OW 7722   7.680   0.914   5.152 -0.1504  0.7436  0.3281
 2094SOL    HW1 7723   7.750   0.874   5.100 -2.8828  0.8123 -3.8770
 2094SOL    HW2 7724   7.693   1.009   5.142 -0.3785  0.7706  0.2810
 2095SOL     OW 7725   0.696   1.988   5.558 -0.4600 -0.4958 -0.3661
 2095SOL    HW1 7726   0.758   2.055   5.528 -0.8421  0.2363  0.4624
 2095SOL    HW2 7727   0.645   2.030   5.626 -0.1175 -1.9029  0.8213
 2096SOL     OW 7728   7.560   2.731   5.599 -0.4166  0.7001 -0.3605
 2096SOL    HW1 7729   7.466   2.726   5.616 -0.8520  3.9357 -1.1724
 2096SOL    HW2 7730   7.594   2.787   5.670  0.6932  0.4477 -0.6801
 2097SOL     OW 7731   0.344   4.123   3.982  0.1471  0.0890  0.4458
 2097SOL    HW1 7732   0.336   4.027   3.980 -0.2201  0.1265  0.1551
 2097SOL    HW2 7733   0.337   4.145   4.075  1.7490 -0.2931  0.7013
 2098SOL     OW 7734   7.305   2.179   4.717  0.1068 -0.3063 -0.3433
 2098SOL    HW1 7735   7.373   2.170   4.783 -0.2750 -0.2892  0.0566
 2098SOL    HW2 7736   7.223   2.176   4.766 -0.2009 -0.9270 -0.8777
 2099SOL     OW 7737   1.711   0.860   4.890  0.2676 -0.0696  0.0569
 2099SOL    HW1 7738   1.643   0.798   4.863  1.4035 -2.0191  1.4316
 2099SOL    HW2 7739   1.670   0.911   4.959 -0.2985 -0.1069 -0.2436
 2100SOL     OW 7740   7.630   0.162   3.569 -0.1475  0.3517 -0.3958
 2100SOL    HW1 7741   7.700   0.209   3.616 -0.2132  1.3402 -1.2613
 2100SOL    HW2 7742   7.553   0.173   3.624  0.4986 -1.4427  0.9969
 2101SOL     OW 7743   1.359   2.062   5.176  0.8099  0.6472 -0.2751
 2101SOL    HW1 7744   1.391   1.986   5.127  1.4559  0.0700  0.9981
 2101SOL    HW2 7745   1.437   2.099   5.217  0.5766  2.2837 -1.2185
 2102SOL     OW 7746   0.670   2.797   3.570  0.4370  0.8125  0.1847
 2102SOL    HW1 7747   0.707   2.813   3.657  1.0159 -1.4356  0.4305
 2102SOL    HW2 7748   0.746   2.795   3.512  0.3073  0.1713  0.0188
 2103SOL     OW 7749   1.959   1.656   2.056  0.5767 -0.1008  0.1610
 2103SOL    HW1 7750   2.006   1.590   2.004  0.4585 -0.3814  0.4088
 2103SOL    HW2 7751   2.027   1.696   2.111  0.4598 -0.8028  0.8282
 2104SOL     OW 7752   2.463   3.139   3.824 -0.3968 -0.2605 -0.1804
 2104SOL    HW1 7753   2.521   3.066   3.846 -0.7684 -0.2679  0.8402
 2104SOL    HW2 7754   2.469   3.147   3.729  0.5252 -0.8822 -0.1845
 2105SOL     OW 7755   1.737   0.909   4.575 -0.0008 -0.1084 -1.1257
 2105SOL    HW1 7756   1.724   0.819   4.547 -0.7975 -0.5209  0.4557
 2105SOL    HW2 7757   1.798   0.903   4.649  0.3648  0.7182 -1.3452
 2106SOL     OW 7758   1.437   3.307   2.335 -0.2014  0.4040 -0.5676
 2106SOL    HW1 7759   1.477   3.346   2.257  1.3329  0.2334  0.0907
 2106SOL    HW2 7760   1.479   3.221   2.343  0.3597  0.7890  0.9466
 2107SOL     OW 7761   1.768   2.095   5.166 -0.0728 -0.0272 -0.5392
 2107SOL    HW1 7762   1.804   2.036   5.232 -0.4327 -0.0098 -0.3295
 2107SOL    HW2 7763   1.681   2.118   5.198  0.0489  0.5814 -0.6472
 2108SOL     OW 7764   1.238   0.847   8.004  0.4412  0.3483 -0.5605
 2108SOL    HW1 7765   1.211   0.817   7.917 -0.3608  0.4615 -0.3554
 2108SOL    HW2 7766   1.308   0.786   8.029 -1.0250 -1.2883 -0.2312
 2109SOL     OW 7767   1.269   0.933   5.765  0.0229 -0.6571 -0.4972
 2109SOL    HW1 7768   1.345   0.974   5.725 -0.6391  1.5922  0.3858
 2109SOL    HW2 7769   1.194   0.966   5.714 -0.5621 -0.5524  0.4097
 2110SOL     OW 7770   1.196   3.451   5.231  0.1941  0.3534 -0.4811
 2110SOL    HW1 7771   1.111   3.491   5.217 -0.2219  0.1356  1.2654
 2110SOL    HW2 7772   1.182   3.358   5.213  0.6342  0.5993 -2.3539
 2111SOL     OW 7773   0.805   1.375   5.795  0.2203  0.1499  0.3505
 2111SOL    HW1 7774   0.764   1.461   5.795 -0.7705 -0.3031  1.3791
 2111SOL    HW2 7775   0.799   1.345   5.885 -0.7935 -1.5934 -0.2363
 2112SOL     OW 7776   1.604   2.306   5.756 -0.2321 -0.3076  0.0572
 2112SOL    HW1 7777   1.587   2.330   5.847 -0.1531 -0.8006  0.2073
 2112SOL    HW2 7778   1.537   2.352   5.706 -2.5550 -2.7487  0.6841
 2113SOL     OW 7779   1.752   2.709   6.492 -0.0430 -0.8736  0.2824
 2113SOL    HW1 7780   1.798   2.691   6.410  0.3993  0.0716  0.3056
 2113SOL    HW2 7781   1.737   2.623   6.530 -0.3202 -1.3308 -0.8216
 2114SOL     OW 7782   7.595   2.765   7.714 -0.9506  0.0945  0.1947
 2114SOL    HW1 7783   7.601   2.827   7.641 -0.2064  0.2058  0.3421
 2114SOL    HW2 7784   7.510   2.784   7.755 -0.8848  0.7841  0.0261
 2115SOL     OW 7785   0.491   2.653   8.550 -0.5172 -0.0311 -0.3743
 2115SOL    HW1 7786   0.490   2.626   8.458 -0.4950 -1.5108  0.0250
 2115SOL    HW2 7787   0.552   2.592   8.592  0.5577  1.5035  0.3881
 2116SOL     OW 7788   6.830   4.161   3.444 -0.3775  0.0654 -0.3901
 2116SOL    HW1 7789   6.911   4.202   3.476  0.5997  0.0285 -2.5974
 2116SOL    HW2 7790   6.819   4.084   3.500  0.8027  0.4050  0.3536
 2117SOL     OW 7791   0.230   1.620   7.651 -0.0153  0.2337 -0.3616
 2117SOL    HW1 7792   0.302   1.618   7.715 -0.2215 -0.1875 -0.1347
 2117SOL    HW2 7793   0.272   1.639   7.568  0.4475 -0.6268 -0.3366
 2118SOL     OW 7794   7.550   3.292   5.723  0.3601 -0.3637 -0.2092
 2118SOL    HW1 7795   7.587   3.264   5.639 -2.3142  0.3290 -1.7493
 2118SOL    HW2 7796   7.520   3.212   5.765 -0.4580 -0.5344 -1.0860
 2119SOL     OW 7797   0.998   3.848   6.285 -0.0634  0.1138 -0.2544
 2119SOL    HW1 7798   1.055   3.804   6.349  0.6377 -0.6030 -1.3483
 2119SOL    HW2 7799   1.026   3.940   6.287  0.6275 -0.0913 -0.2462
 2120SOL     OW 7800   7.322   1.725   6.661 -0.2846 -0.7171  0.0067
 2120SOL    HW1 7801   7.412   1.740   6.634  0.2390 -1.7791  1.0859
 2120SOL    HW2 7802   7.300   1.639   6.625 -0.3444 -1.1274  0.9984
 2121SOL     OW 7803   1.018   1.712   6.600  0.2889  0.5522  0.2157
 2121SOL    HW1 7804   1.088   1.654   6.571  1.4943  1.1564  1.7393
 2121SOL    HW2 7805   0.948   1.700   6.536  1.2199 -1.1548 -0.5546
 2122SOL     OW 7806   6.623   3.474   5.134 -0.2521 -0.0835  0.1667
 2122SOL    HW1 7807   6.576   3.441   5.211  0.2762  1.0147  0.9863
 2122SOL    HW2 7808   6.595   3.565   5.126 -0.4078 -0.2259 -1.0478
 2123SOL     OW 7809   1.152   5.403   8.548  0.2328 -0.2511  0.0778
 2123SOL    HW1 7810   1.177   5.316   8.517  3.2547  0.1493  1.1197
 2123SOL    HW2 7811   1.219   5.427   8.611 -1.3894  2.2223  1.0281
 2124SOL     OW 7812   7.435   2.689   5.013 -0.2662  0.3609 -0.2890
 2124SOL    HW1 7813   7.419   2.637   5.091  1.0810 -0.6917 -0.6792
 2124SOL    HW2 7814   7.349   2.698   4.972 -0.7260 -0.4408  0.4738
 2125SOL     OW 7815   1.089   4.158   7.297 -0.3443  0.8327  0.0651
 2125SOL    HW1 7816   1.150   4.106   7.349 -0.2139  1.6733  0.7851
 2125SOL    HW2 7817   1.008   4.107   7.295 -0.5343  1.0169  1.5906
 2126SOL     OW 7818   7.209   5.364   7.908 -0.3368 -0.2387 -0.1860
 2126SOL    HW1 7819   7.183   5.442   7.957  0.5912 -0.1326  0.1707
 2126SOL    HW2 7820   7.279   5.325   7.962 -0.1024 -0.7539 -0.8582
 2127SOL     OW 7821   1.968   1.434   6.400 -0.3600  0.6295 -0.1399
 2127SOL    HW1 7822   1.928   1.450   6.314  1.8385  0.1333 -1.3449
 2127SOL    HW2 7823   2.048   1.487   6.399 -0.4739  0.8909  1.7818
 2128SOL     OW 7824   1.622   0.785   6.591  0.4351  0.2098  0.0316
 2128SOL    HW1 7825   1.532   0.801   6.561  0.2450 -1.1551 -0.2041
 2128SOL    HW2 7826   1.674   0.853   6.549 -0.4864  1.0407  0.1989
 2129SOL     OW 7827   7.615   1.647   6.339 -0.1560 -0.2686  0.6808
 2129SOL    HW1 7828   7.680   1.595   6.386  1.3361 -0.1633 -1.1373
 2129SOL    HW2 7829   7.569   1.696   6.408  0.3605 -1.7858  2.1775
 2130SOL     OW 7830   0.892   2.433   6.325 -0.1343  0.1191  0.1918
 2130SOL    HW1 7831   0.973   2.399   6.361 -1.0862 -0.8992  1.4757
 2130SOL    HW2 7832   0.868   2.369   6.257 -0.2736 -0.0275  0.3777
 2131SOL     OW 7833   6.006   3.051   5.559 -0.3227 -0.4018 -0.4204
 2131SOL    HW1 7834   5.916   3.079   5.546 -0.3071  0.3659  0.9535
 2131SOL    HW2 7835   5.999   2.963   5.595 -0.6193  0.3370  1.4201
 2132SOL     OW 7836   2.579   4.150   5.238  0.3397 -0.7129 -0.2752
 2132SOL    HW1 7837   2.511   4.087   5.215 -0.6924 -0.0775  0.9128
 2132SOL    HW2 7838   2.532   4.222   5.280  1.8029 -0.6482  1.3664
 2133SOL     OW 7839   1.664   1.291   5.556 -0.5298 -0.0063  1.1981
 2133SOL    HW1 7840   1.589   1.290   5.496  0.3613  0.3510  0.0417
 2133SOL    HW2 7841   1.719   1.219   5.527  0.2928  0.6582  1.0791
 2134SOL     OW 7842   0.023   1.816   7.294 -0.1395 -0.1013 -0.1367
 2134SOL    HW1 7843  -0.024   1.815   7.378  0.8601 -0.1656  0.4331
 2134SOL    HW2 7844   0.081   1.740   7.298  1.2661  0.9260 -0.0941
 2135SOL     OW 7845   1.192   3.987   5.617 -0.2678 -0.7206  0.0292
 2135SOL    HW1 7846   1.141   3.924   5.566 -0.5802 -0.5265  0.0993
 2135SOL    HW2 7847   1.279   3.947   5.625 -0.1525 -0.6497 -0.8434
 2136SOL     OW 7848   0.536   3.135   7.235  1.1072  0.4582 -0.0160
 2136SOL    HW1 7849   0.546   3.042   7.253  0.0775  0.3498  0.0086
 2136SOL    HW2 7850   0.577   3.147   7.149  0.4729 -0.1840 -0.4167
 2137SOL     OW 7851   0.542   1.879   6.132 -0.3931  0.0147  0.2170
 2137SOL    HW1 7852   0.606   1.933   6.084 -0.1878 -0.2784  0.1567
 2137SOL    HW2 7853   0.543   1.795   6.085 -2.3603  0.6550 -1.0936
 2138SOL     OW 7854   1.155   2.883   6.954  0.1555  0.0600 -0.1049
 2138SOL    HW1 7855   1.140   2.926   6.870 -0.2617 -2.8864 -1.6421
 2138SOL    HW2 7856   1.100   2.805   6.952  0.4166 -0.3281  2.7787
 2139SOL     OW 7857   2.236   2.896   5.454  0.6925 -0.1356  0.1166
 2139SOL    HW1 7858   2.302   2.932   5.513 -0.1573  3.7241 -1.0209
 2139SOL    HW2 7859   2.257   2.933   5.368 -2.0423  0.0212 -0.5854
 2140SOL     OW 7860   2.032   4.153   7.225 -0.7019  0.1115 -0.3776
 2140SOL    HW1 7861   1.975   4.205   7.282  1.7688 -0.6680  3.0872
 2140SOL    HW2 7862   2.097   4.216   7.193 -0.7219  0.1046 -0.4322
 2141SOL     OW 7863   7.515   3.323   6.300 -0.5588  0.1538 -0.4927
 2141SOL    HW1 7864   7.455   3.334   6.374 -0.7938 -0.7088 -0.5459
 2141SOL    HW2 7865   7.602   3.325   6.339 -0.6996 -1.4807  0.0023
 2142SOL     OW 7866   1.301   2.048   5.591  0.6226  0.0760 -0.5885
 2142SOL    HW1 7867   1.240   2.117   5.618  2.4732  1.8740 -0.7693
 2142SOL    HW2 7868   1.346   2.022   5.671  1.5265  0.7436 -0.8624
 2143SOL     OW 7869   2.245   3.501   4.328  0.3774 -0.5987 -0.4179
 2143SOL    HW1 7870   2.222   3.569   4.265 -1.4896  0.0112  0.8530
 2143SOL    HW2 7871   2.330   3.468   4.298  0.5239  1.1106 -2.0252
 2144SOL     OW 7872   7.863   3.016   6.683 -0.4526 -0.4142 -0.2107
 2144SOL    HW1 7873   7.781   2.969   6.669 -1.5679  1.5291 -0.5743
 2144SOL    HW2 7874   7.847   3.069   6.761  0.7260 -0.5340  0.1279
 2145SOL     OW 7875   2.070   4.838   7.893 -0.2265 -0.0548  0.1358
 2145SOL    HW1 7876   1.981   4.859   7.864 -0.3407 -0.5291  0.1228
 2145SOL    HW2 7877   2.058   4.785   7.972  0.0871  1.3286  1.1549
 2146SOL     OW 7878   3.332   3.575   4.906  0.0387 -0.3080  0.0540
 2146SOL    HW1 7879   3.313   3.548   4.996  0.0783 -0.9955 -0.1380
 2146SOL    HW2 7880   3.268   3.645   4.888  0.0316 -0.1657  0.6117
 2147SOL     OW 7881   0.698   3.631   8.527 -0.0480 -0.0495 -0.5768
 2147SOL    HW1 7882   0.607   3.635   8.557 -0.1848 -0.9228 -0.8454
 2147SOL    HW2 7883   0.700   3.555   8.468  0.8763 -0.0849 -0.5038
 2148SOL     OW 7884   0.643   3.454   8.185  0.4289 -0.0872  0.3809
 2148SOL    HW1 7885   0.603   3.373   8.152 -0.0088  0.0483  0.5717
 2148SOL    HW2 7886   0.685   3.428   8.267  0.4562 -0.1663  0.3415
 2149SOL     OW 7887   1.753   1.700   8.422  0.3889  0.6608 -0.2148
 2149SOL    HW1 7888   1.841   1.728   8.449  0.8432 -0.7386 -0.1964
 2149SOL    HW2 7889   1.750   1.720   8.329  0.7253  0.7028 -0.2198
 2150SOL     OW 7890   0.649   2.856   6.768 -0.3343 -0.0769  0.0042
 2150SOL    HW1 7891   0.719   2.835   6.830 -2.0516 -3.5870  0.9883
 2150SOL    HW2 7892   0.579   2.892   6.822 -0.9395 -0.8840 -0.2228
 2151SOL     OW 7893   1.757   2.283   6.921 -0.1476 -0.0691 -0.3134
 2151SOL    HW1 7894   1.801   2.362   6.951 -0.8865 -0.5603  2.2703
 2151SOL    HW2 7895   1.677   2.315   6.878 -0.7407  0.6015  1.2348
 2152SOL     OW 7896   1.462   1.348   4.422 -0.0242 -0.5231 -0.7420
 2152SOL    HW1 7897   1.529   1.296   4.465  0.1819  0.1191 -0.2795
 2152SOL    HW2 7898   1.392   1.286   4.402  1.2163 -1.4812 -2.4014
 2153SOL     OW 7899   6.852   6.567   6.408  0.0391  0.0186  0.4201
 2153SOL    HW1 7900   6.925   6.589   6.466  0.2123 -0.4168  0.3741
 2153SOL    HW2 7901   6.843   6.472   6.417  0.6261 -0.1816 -0.9201
 2154SOL     OW 7902   0.516   1.122   5.186  0.4493 -0.1226  0.5661
 2154SOL    HW1 7903   0.569   1.062   5.238  0.8320 -1.4845 -1.2923
 2154SOL    HW2 7904   0.470   1.065   5.123  0.7283  1.4929 -1.1851
 2155SOL     OW 7905   2.252   3.774   5.104  0.7723  0.7904  0.2314
 2155SOL    HW1 7906   2.226   3.735   5.020  0.1171  0.5778  0.5291
 2155SOL    HW2 7907   2.322   3.716   5.136  1.5802  1.3137 -0.5237
 2156SOL     OW 7908   2.908   2.826   4.936 -0.7946  0.4548  0.0097
 2156SOL    HW1 7909   3.001   2.805   4.930 -0.7009  0.2888  1.5353
 2156SOL    HW2 7910   2.885   2.861   4.850  0.5060 -0.1476 -0.6089
 2157SOL     OW 7911   0.448   2.312   5.970 -0.1190 -0.2844 -0.1174
 2157SOL    HW1 7912   0.432   2.374   5.899 -1.7910 -0.6639 -0.1124
 2157SOL    HW2 7913   0.502   2.361   6.032  2.3670 -0.3078 -2.0851
 2158SOL     OW 7914   1.909   3.777   6.276 -0.0539 -0.0874  0.8561
 2158SOL    HW1 7915   1.938   3.777   6.184 -3.2761  0.7624 -0.2906
 2158SOL    HW2 7916   1.913   3.869   6.302  0.7967 -0.3202  1.6085
 2159SOL     OW 7917   7.254   2.947   6.100  0.2434  0.3656 -0.2869
 2159SOL    HW1 7918   7.171   2.948   6.149 -1.6792  0.3498 -3.2593
 2159SOL    HW2 7919   7.270   2.854   6.084 -0.5252  0.4516 -1.7191
 2160SOL     OW 7920   2.501   4.175   5.763  0.1077 -0.0159 -0.2814
 2160SOL    HW1 7921   2.577   4.232   5.772  0.8996 -0.8928 -1.2628
 2160SOL    HW2 7922   2.505   4.116   5.838  1.0535 -0.8079 -0.9438
 2161SOL     OW 7923   2.058   4.875   7.470 -0.5467 -0.7526 -0.2677
 2161SOL    HW1 7924   2.146   4.844   7.491 -0.1632 -0.6781 -1.6910
 2161SOL    HW2 7925   2.005   4.850   7.547  0.4662 -1.8087  0.1143
 2162SOL     OW 7926   7.503   1.444   6.044  0.5379  0.2659 -0.0237
 2162SOL    HW1 7927   7.551   1.414   6.122 -1.1299  0.8799  1.3007
 2162SOL    HW2 7928   7.420   1.477   6.078 -0.1032  0.8984 -2.0524
 2163SOL     OW 7929   0.848   4.398   6.979 -0.2952  0.6477  0.0142
 2163SOL    HW1 7930   0.907   4.440   6.917  1.0033  0.2923  0.9568
 2163SOL    HW2 7931   0.902   4.380   7.056 -0.6387 -2.9767 -0.3737
 2164SOL     OW 7932   7.791   2.520  10.039 -0.1326  0.2566  0.6547
 2164SOL    HW1 7933   7.739   2.516   9.958  0.4942  1.9141  0.1238
 2164SOL    HW2 7934   7.863   2.458  10.024 -0.5572 -0.1635  0.3361
 2165SOL     OW 7935   2.389   2.202   8.155 -0.1175  0.2351  0.5047
 2165SOL    HW1 7936   2.335   2.278   8.175  0.3896  0.5387  0.7140
 2165SOL    HW2 7937   2.479   2.233   8.160  0.0799 -0.2534  0.0813
 2166SOL     OW 7938   0.920   2.590   6.809  0.3014  0.0673 -0.2991
 2166SOL    HW1 7939   0.911   2.509   6.859 -1.3767  0.4380  0.0733
 2166SOL    HW2 7940   0.961   2.652   6.870  0.0775 -0.0425 -0.0353
 2167SOL     OW 7941   7.664   3.255   3.747  0.7219  0.1238  0.7298
 2167SOL    HW1 7942   7.650   3.268   3.841  0.1374  1.1359  0.5169
 2167SOL    HW2 7943   7.722   3.326   3.721 -0.8196  1.1433 -0.0604
 2168SOL     OW 7944   0.117   4.350   4.352 -0.0762  0.3311 -0.3124
 2168SOL    HW1 7945   0.181   4.420   4.347 -0.4040  0.7783  1.2261
 2168SOL    HW2 7946   0.158   4.276   4.308  0.6173  1.2270 -1.2117
 2169SOL     OW 7947   7.850   1.559   7.833  0.1697  0.0566 -0.0281
 2169SOL    HW1 7948   7.870   1.466   7.844  1.0573  0.0254 -1.6168
 2169SOL    HW2 7949   7.777   1.560   7.771 -1.7641  0.3563  2.1414
 2170SOL     OW 7950   1.245   5.338   7.820 -0.2382 -0.4228 -0.0273
 2170SOL    HW1 7951   1.165   5.381   7.849  0.1695  0.6048 -0.4012
 2170SOL    HW2 7952   1.273   5.389   7.744  0.8632 -0.6751  0.1991
 2171SOL     OW 7953   7.659   2.991   8.385  0.1863 -0.4437  0.0693
 2171SOL    HW1 7954   7.586   2.994   8.324 -1.1035 -0.8549  1.5449
 2171SOL    HW2 7955   7.734   3.023   8.334 -0.2514 -3.0354 -2.4761
 2172SOL     OW 7956   0.322   2.719   6.019  0.2976 -0.2858 -0.7396
 2172SOL    HW1 7957   0.393   2.757   6.072 -0.0151 -0.3911 -0.2320
 2172SOL    HW2 7958   0.260   2.685   6.084  0.1399 -0.8626 -1.1849
 2173SOL     OW 7959   1.660   2.683   6.913 -0.4074 -0.1980  0.4210
 2173SOL    HW1 7960   1.585   2.741   6.923 -2.4446 -2.5588 -0.0404
 2173SOL    HW2 7961   1.661   2.631   6.993 -1.0446 -2.0202 -0.6835
 2174SOL     OW 7962   1.664   0.161   5.452  0.0799 -0.3210  0.1765
 2174SOL    HW1 7963   1.671   0.215   5.531  0.4188 -0.8389  0.5061
 2174SOL    HW2 7964   1.755   0.140   5.430 -0.0779 -1.4994  0.5779
 2175SOL     OW 7965   0.184   1.127   7.396 -0.9333 -0.2232 -0.2717
 2175SOL    HW1 7966   0.102   1.175   7.391 -1.3398 -0.7537  0.9319
 2175SOL    HW2 7967   0.247   1.182   7.350 -1.7368  0.6763 -0.3250
 2176SOL     OW 7968   0.146   3.428   6.269 -0.4859  0.0092  0.1446
 2176SOL    HW1 7969   0.185   3.510   6.297 -0.7013  0.0290  0.3903
 2176SOL    HW2 7970   0.186   3.362   6.325 -1.5178  0.1468  1.0734
 2177SOL     OW 7971   0.935   1.730   5.805 -0.4953  0.6175 -0.1643
 2177SOL    HW1 7972   0.939   1.768   5.717  0.6026 -1.1666 -0.9310
 2177SOL    HW2 7973   0.964   1.801   5.863 -0.2518  1.5061 -1.3474
 2178SOL     OW 7974   7.804   2.948   9.099 -0.5375 -0.1901 -0.7773
 2178SOL    HW1 7975   7.759   2.940   9.183  0.7278  0.2480 -0.0297
 2178SOL    HW2 7976   7.752   3.010   9.049  0.1855  1.7374  0.7549
 2179SOL     OW 7977   2.168   1.813   7.511  0.3562  0.0315  0.6536
 2179SOL    HW1 7978   2.078   1.794   7.540  0.0609  0.6822  0.1830
 2179SOL    HW2 7979   2.210   1.851   7.588 -0.1080  0.7533  0.5614
 2180SOL     OW 7980   1.351   1.269   5.657 -0.0612 -0.6485  0.3096
 2180SOL    HW1 7981   1.306   1.264   5.741  0.4189 -0.3003  0.5933
 2180SOL    HW2 7982   1.367   1.362   5.644 -2.1061 -0.4450 -1.2386
 2181SOL     OW 7983   0.052   1.781   7.795  0.0135 -0.1554  0.1327
 2181SOL    HW1 7984   0.122   1.740   7.743 -1.6467  1.0377 -3.3897
 2181SOL    HW2 7985   0.003   1.707   7.832 -0.7448 -1.4096 -3.0170
 2182SOL     OW 7986   1.188   3.282   6.265  0.8024  0.4171  0.2064
 2182SOL    HW1 7987   1.138   3.229   6.328 -1.0923  0.7695 -0.9192
 2182SOL    HW2 7988   1.279   3.272   6.293  0.0345  1.0258  3.3472
 2183SOL     OW 7989   0.110   1.422   6.939 -0.4838  0.0105 -0.4915
 2183SOL    HW1 7990   0.192   1.472   6.936 -0.9004  0.7883 -4.0762
 2183SOL    HW2 7991   0.042   1.489   6.932 -1.1580 -0.8232 -2.5229
 2184SOL     OW 7992   0.375   3.006   7.635 -0.1207  0.3359  0.1558
 2184SOL    HW1 7993   0.293   3.015   7.684 -0.1657 -0.7314  0.2915
 2184SOL    HW2 7994   0.369   2.920   7.593  0.6852  0.4926 -0.3069
 2185SOL     OW 7995   0.905   4.477   6.534 -0.0296  0.4704  0.4602
 2185SOL    HW1 7996   0.912   4.456   6.441 -1.5163 -2.0061  0.8014
 2185SOL    HW2 7997   0.990   4.451   6.570  0.4526  1.1723 -0.1389
 2186SOL     OW 7998   7.660   1.516   6.630 -0.0840 -0.2689 -0.2372
 2186SOL    HW1 7999   7.678   1.574   6.705 -0.6189  0.5025 -0.6921
 2186SOL    HW2 8000   7.577   1.475   6.650  0.8621 -1.8363  0.6477
 2187SOL     OW 8001   1.126   3.987   6.694  0.2919 -0.0402 -0.3155
 2187SOL    HW1 8002   1.217   3.962   6.682  1.0331  0.9680  2.4982
 2187SOL    HW2 8003   1.099   3.941   6.774 -1.2500  0.7155 -0.3612
 2188SOL     OW 8004   7.748   2.030   7.139 -0.1135  0.3178  0.4062
 2188SOL    HW1 8005   7.705   2.091   7.080 -0.5875 -0.8911 -0.5291
 2188SOL    HW2 8006   7.839   2.059   7.141 -0.1420  0.5338 -0.7276
 2189SOL     OW 8007   1.906   0.497   6.603 -0.2214 -0.5944 -0.1949
 2189SOL    HW1 8008   1.901   0.592   6.605  0.8767 -0.5320  0.8521
 2189SOL    HW2 8009   1.877   0.469   6.690 -0.5572 -1.2305 -0.4967
 2190SOL     OW 8010   0.730   1.977   5.959  0.0225 -0.3658 -0.4865
 2190SOL    HW1 8011   0.701   2.032   5.886 -0.8308  0.6172  0.5399
 2190SOL    HW2 8012   0.825   1.973   5.950  0.0338  0.6836 -1.0161
 2191SOL     OW 8013   0.246   1.307   6.697 -0.5194 -0.1567 -0.0036
 2191SOL    HW1 8014   0.331   1.301   6.740 -0.6603  1.5925  0.5891
 2191SOL    HW2 8015   0.183   1.301   6.769 -0.9561 -1.8511 -0.4751
 2192SOL     OW 8016   2.426   0.187   4.331  0.2667 -0.1560  0.1997
 2192SOL    HW1 8017   2.371   0.112   4.310  1.0691 -0.9958  1.0245
 2192SOL    HW2 8018   2.369   0.244   4.384 -2.2392  2.6422 -4.7838
 2193SOL     OW 8019   0.183   1.582   7.290  0.4493  0.5202 -0.6121
 2193SOL    HW1 8020   0.124   1.517   7.328  1.1228  0.4659  0.3846
 2193SOL    HW2 8021   0.188   1.559   7.197 -1.1624  0.5848 -0.7561
 2194SOL     OW 8022   0.534   1.137   5.880 -0.6075  0.1509  0.6534
 2194SOL    HW1 8023   0.547   1.111   5.789  1.4627  0.7974  0.7006
 2194SOL    HW2 8024   0.450   1.183   5.880 -0.4935  0.4406 -0.9993
 2195SOL     OW 8025   2.365   3.479   5.819  0.1814  0.6432  0.1400
 2195SOL    HW1 8026   2.426   3.407   5.808 -2.6876 -2.0381  0.4608
 2195SOL    HW2 8027   2.418   3.558   5.807  3.3304 -1.4777 -1.0336
 2196SOL     OW 8028   7.988   4.013   4.185 -0.1058 -0.8949  0.6062
 2196SOL    HW1 8029   7.936   3.996   4.263 -0.7603 -1.4146  0.0683
 2196SOL    HW2 8030   8.070   3.966   4.199 -0.6781 -1.9627  0.4878
 2197SOL     OW 8031   1.586   4.537   7.308  0.3954 -0.9398 -0.5483
 2197SOL    HW1 8032   1.645   4.477   7.355 -0.9491 -0.5637  1.8094
 2197SOL    HW2 8033   1.540   4.583   7.378 -1.9624 -0.4947 -2.2922
 2198SOL     OW 8034   7.614   2.541   6.661 -0.1397  0.3708 -0.2951
 2198SOL    HW1 8035   7.540   2.498   6.703  1.4443 -2.2098  0.0970
 2198SOL    HW2 8036   7.669   2.572   6.733  0.4816 -0.2197 -0.5000
 2199SOL     OW 8037   1.060   2.640   5.889 -0.0732  0.1639 -0.2173
 2199SOL    HW1 8038   1.055   2.664   5.982 -0.3153 -0.4426 -0.0727
 2199SOL    HW2 8039   1.109   2.712   5.849 -0.3083  0.6314  0.3090
 2200SOL     OW 8040   1.986   5.236   7.809  0.0588 -0.1203  0.0057
 2200SOL    HW1 8041   1.996   5.208   7.718  1.0236 -0.7385  0.2878
 2200SOL    HW2 8042   2.061   5.294   7.824  0.1245 -0.3398  0.5284
 2201SOL     OW 8043   1.215   4.334   6.891 -0.2014  0.0670 -0.1750
 2201SOL    HW1 8044   1.297   4.332   6.940 -0.9426  0.1801  1.1174
 2201SOL    HW2 8045   1.167   4.257   6.921 -0.9877  0.5504 -0.1657
 2202SOL     OW 8046   1.848   4.672   6.658 -0.5723  0.7219 -0.2290
 2202SOL    HW1 8047   1.913   4.627   6.712 -0.4332 -0.8743 -1.6621
 2202SOL    HW2 8048   1.887   4.758   6.640  1.5390 -0.4650 -1.6976
 2203SOL     OW 8049   1.620   2.666   5.373  0.4423  0.0510  0.3969
 2203SOL    HW1 8050   1.693   2.706   5.326 -0.6873 -0.1702 -1.6174
 2203SOL    HW2 8051   1.588   2.735   5.431  0.5283  1.0596 -0.7126
 2204SOL     OW 8052   0.829   3.277   5.323 -0.8943  0.0749 -0.3210
 2204SOL    HW1 8053   0.826   3.183   5.342 -0.6118  0.1462  0.0901
 2204SOL    HW2 8054   0.818   3.319   5.408 -2.4142  0.4356 -0.6829
 2205SOL     OW 8055   0.830   7.984   8.432 -0.2118 -0.9389 -0.0306
 2205SOL    HW1 8056   0.801   7.994   8.341 -1.0826 -1.0790  0.2291
 2205SOL    HW2 8057   0.781   8.050   8.480  0.5928 -0.5478  0.2776
 2206SOL     OW 8058   2.931   5.602   5.908  0.0536  0.5640  0.1103
 2206SOL    HW1 8059   2.981   5.573   5.985  0.4795  0.9973  0.0005
 2206SOL    HW2 8060   2.977   5.563   5.834  0.6117  1.4900 -0.0371
 2207SOL     OW 8061   0.635   1.586   5.501  0.3099 -0.2892 -0.6497
 2207SOL    HW1 8062   0.729   1.598   5.514 -0.0116  0.7169  0.9792
 2207SOL    HW2 8063   0.628   1.502   5.455  1.8605 -1.9311  1.8726
 2208SOL     OW 8064   7.346   3.815   6.752 -0.2392  0.4824 -0.0410
 2208SOL    HW1 8065   7.382   3.864   6.677  1.6113  0.5752  0.8673
 2208SOL    HW2 8066   7.335   3.881   6.820 -1.6687  0.3423 -0.1029
 2209SOL     OW 8067   2.392   3.334   7.234  0.0415 -0.0262  0.7148
 2209SOL    HW1 8068   2.393   3.265   7.168 -0.2073  1.3791 -0.8464
 2209SOL    HW2 8069   2.484   3.346   7.258  0.2911  0.2799 -0.3329
 2210SOL     OW 8070   0.929   3.105   5.054 -0.0331 -0.2531  0.2745
 2210SOL    HW1 8071   0.918   3.118   4.960 -0.8254 -0.1915  0.3697
 2210SOL    HW2 8072   0.917   3.011   5.066  1.3498 -0.4665  0.1573
 2211SOL     OW 8073   0.202   2.496   6.438 -0.4749  0.0106  0.0382
 2211SOL    HW1 8074   0.198   2.439   6.515  0.9008 -0.5399 -0.2615
 2211SOL    HW2 8075   0.295   2.496   6.413 -0.8889  0.1625 -1.6217
 2212SOL     OW 8076   1.274   0.046   6.649 -1.0208 -0.0974  0.3295
 2212SOL    HW1 8077   1.330   0.030   6.573 -0.0988  1.1375  0.7181
 2212SOL    HW2 8078   1.309  -0.013   6.717 -0.9366 -0.1770  0.2179
 2213SOL     OW 8079   0.753   2.541   6.557  0.1262  0.0976 -0.5229
 2213SOL    HW1 8080   0.806   2.573   6.630  0.3989 -1.9309  0.2316
 2213SOL    HW2 8081   0.816   2.527   6.486  0.2266 -0.1511 -0.3833
 2214SOL     OW 8082   1.055   2.582   7.634 -0.3413  0.4690 -0.1087
 2214SOL    HW1 8083   1.113   2.572   7.710  0.2140  1.6686 -0.3577
 2214SOL    HW2 8084   1.074   2.506   7.580  0.5038  0.4890  0.1473
 2215SOL     OW 8085   2.197   4.500   6.957 -0.3241  0.0412 -0.1141
 2215SOL    HW1 8086   2.196   4.455   7.042  2.2969  1.2872  0.6996
 2215SOL    HW2 8087   2.267   4.456   6.908 -1.7295 -0.5924 -1.6542
 2216SOL     OW 8088   1.671   4.786   6.877 -0.2800 -0.1489 -0.2793
 2216SOL    HW1 8089   1.712   4.757   6.959 -0.2543  0.4347 -0.0862
 2216SOL    HW2 8090   1.730   4.753   6.809 -1.1258 -2.0366 -0.1708
 2217SOL     OW 8091   7.631   4.216   4.519  0.5408  0.1688  0.2770
 2217SOL    HW1 8092   7.719   4.250   4.508  0.0743  1.1475 -0.6065
 2217SOL    HW2 8093   7.573   4.286   4.487 -0.5762 -0.2787  1.2325
 2218SOL     OW 8094   3.070   4.200   5.646 -0.1825  0.2313 -0.3069
 2218SOL    HW1 8095   3.157   4.163   5.656 -0.9233 -1.5943 -0.2449
 2218SOL    HW2 8096   3.011   4.132   5.679 -1.5735  2.0677  1.2337
 2219SOL     OW 8097   1.730   0.996   9.251 -0.2760  0.6793 -0.0061
 2219SOL    HW1 8098   1.717   0.918   9.305 -0.6235  1.0446  0.4536
 2219SOL    HW2 8099   1.804   1.041   9.292  1.8943 -0.8690 -2.0067
 2220SOL     OW 8100   0.008   2.799   7.232 -0.0846 -0.0099 -0.2228
 2220SOL    HW1 8101   0.086   2.851   7.247  1.6504 -1.5195 -3.0821
 2220SOL    HW2 8102  -0.035   2.794   7.317  1.6042  2.8711  0.9317
 2221SOL     OW 8103   0.430   1.188   7.088 -1.0245  0.7226  0.0123
 2221SOL    HW1 8104   0.436   1.093   7.095  3.5427  0.9047  2.1884
 2221SOL    HW2 8105   0.473   1.209   7.006 -2.3573  0.9597 -0.6477
 2222SOL     OW 8106   1.772   2.562   6.211 -0.1837 -0.4978 -0.5706
 2222SOL    HW1 8107   1.768   2.471   6.241 -1.2753 -0.3274 -0.1685
 2222SOL    HW2 8108   1.734   2.560   6.123 -2.8430 -0.0424  0.4638
 2223SOL     OW 8109   1.645   2.147   4.698  0.0858  0.4284 -0.2862
 2223SOL    HW1 8110   1.686   2.217   4.647 -0.8680  1.0674 -0.1980
 2223SOL    HW2 8111   1.605   2.091   4.631  0.2120  0.3710 -0.3152
 2224SOL     OW 8112   6.328   3.177   7.172 -0.1719 -0.6576 -0.9638
 2224SOL    HW1 8113   6.312   3.093   7.131 -3.6404 -0.9909  0.7049
 2224SOL    HW2 8114   6.254   3.189   7.232  1.0917  2.7913  0.1592
 2225SOL     OW 8115   0.778   3.949   5.346  0.1768 -0.2523  0.4920
 2225SOL    HW1 8116   0.705   4.009   5.333  0.2695  0.1164  1.4998
 2225SOL    HW2 8117   0.856   4.001   5.324  0.2133 -0.1915  0.7503
 2226SOL     OW 8118   0.967   0.783   7.812  0.4802  0.2705 -0.0612
 2226SOL    HW1 8119   0.948   0.779   7.906  0.1948 -0.4087 -0.1491
 2226SOL    HW2 8120   1.047   0.731   7.802  0.8181  0.7871 -0.1221
 2227SOL     OW 8121   1.669   3.702   8.518 -0.1906 -0.8595 -0.3053
 2227SOL    HW1 8122   1.741   3.646   8.491  1.9489  1.2565  0.6363
 2227SOL    HW2 8123   1.664   3.770   8.450 -0.4196 -0.2624  0.2933
 2228SOL     OW 8124   1.208   2.548   2.650  0.3078  0.3172 -0.3231
 2228SOL    HW1 8125   1.209   2.554   2.555 -0.9253  1.0676 -0.3020
 2228SOL    HW2 8126   1.157   2.623   2.679  0.4980 -0.0123  0.9291
 2229SOL     OW 8127   2.364   1.827   5.455  0.1485 -0.2833 -0.1665
 2229SOL    HW1 8128   2.433   1.881   5.417 -0.3959 -0.4094 -1.3863
 2229SOL    HW2 8129   2.291   1.889   5.469  0.3758 -0.2195  0.7812
 2230SOL     OW 8130   1.887   1.488   6.158 -0.7277 -0.4419  0.2503
 2230SOL    HW1 8131   1.945   1.488   6.082 -1.6405  0.5929 -0.4641
 2230SOL    HW2 8132   1.898   1.574   6.198 -0.4847 -0.8667  1.1198
 2231SOL     OW 8133   7.503   4.599   6.124 -0.0795 -0.6949 -0.1014
 2231SOL    HW1 8134   7.489   4.510   6.090  0.6824 -0.9077  0.1182
 2231SOL    HW2 8135   7.424   4.647   6.099  0.5104 -0.7749 -2.3556
 2232SOL     OW 8136   1.888   2.806   6.829  0.0711  0.0584  0.0646
 2232SOL    HW1 8137   1.810   2.754   6.853 -0.6561  0.1719 -1.8747
 2232SOL    HW2 8138   1.958   2.768   6.881 -1.4284  0.6118  2.6854
 2233SOL     OW 8139   0.474   3.000   6.948 -0.0339 -0.4306 -0.2811
 2233SOL    HW1 8140   0.395   3.041   6.912  0.0678  0.8943  0.9070
 2233SOL    HW2 8141   0.441   2.940   7.015 -0.0397  0.4601  0.5343
 2234SOL     OW 8142   1.998   1.319   5.667  0.1489 -0.6014 -0.0433
 2234SOL    HW1 8143   1.917   1.369   5.681 -0.3437 -0.6884 -2.2188
 2234SOL    HW2 8144   2.018   1.282   5.752 -1.7708 -0.0657  0.6954
 2235SOL     OW 8145   2.039   3.608   4.923 -0.0726 -0.3568 -0.3173
 2235SOL    HW1 8146   2.061   3.634   4.834  0.6822 -0.3453 -0.1345
 2235SOL    HW2 8147   1.966   3.666   4.948 -1.9755 -1.9906 -1.7645
 2236SOL     OW 8148   0.660   4.078   6.652  0.3108  0.0741 -0.3156
 2236SOL    HW1 8149   0.571   4.043   6.645  0.0765  0.6375 -0.1751
 2236SOL    HW2 8150   0.708   4.012   6.703 -0.2167  0.1192  0.2472
 2237SOL     OW 8151   1.949   2.469   7.042 -0.2475 -0.4573 -0.1010
 2237SOL    HW1 8152   1.986   2.428   7.120 -1.7122  1.2009  1.5623
 2237SOL    HW2 8153   2.024   2.509   6.998  0.2698  1.2953  2.2174
 2238SOL     OW 8154   7.611   1.763   5.702 -0.0982 -0.1225  0.5128
 2238SOL    HW1 8155   7.548   1.739   5.770 -0.2380 -0.4322  0.2728
 2238SOL    HW2 8156   7.696   1.755   5.744 -0.1245 -1.2420  0.3818
 2239SOL     OW 8157   1.428   2.801   6.952  0.0174  0.2345 -0.5093
 2239SOL    HW1 8158   1.400   2.710   6.954 -0.7965  0.4599 -1.0722
 2239SOL    HW2 8159   1.348   2.851   6.939  0.3921  1.0744  0.2595
 2240SOL     OW 8160   3.394   1.666   8.573  0.3738  0.1866  0.9598
 2240SOL    HW1 8161   3.477   1.712   8.585 -1.7772  4.5721  0.7871
 2240SOL    HW2 8162   3.327   1.733   8.585 -3.1096 -2.4094 -1.8656
 2241SOL     OW 8163   7.817   2.712   6.830 -0.3690 -0.0061  0.2933
 2241SOL    HW1 8164   7.882   2.716   6.759 -0.0933  0.9971  0.5787
 2241SOL    HW2 8165   7.749   2.773   6.803 -0.3001  0.3216  0.8479
 2242SOL     OW 8166   7.796   5.283   6.772  0.0284 -0.0667  0.0053
 2242SOL    HW1 8167   7.863   5.222   6.742  0.2405  0.1713 -0.0050
 2242SOL    HW2 8168   7.757   5.239   6.848 -0.2854 -0.5190 -0.4063
 2243SOL     OW 8169   7.275   5.890   4.399  0.2286  0.4863  0.1790
 2243SOL    HW1 8170   7.300   5.959   4.460 -0.5173 -0.2398  1.3529
 2243SOL    HW2 8171   7.315   5.915   4.317  2.7286  0.6318  1.3572
 2244SOL     OW 8172   1.123   1.854   6.178 -0.2974  0.0346 -0.1408
 2244SOL    HW1 8173   1.187   1.900   6.231  0.0218 -0.0759 -0.4242
 2244SOL    HW2 8174   1.167   1.774   6.151 -0.2714  0.3225 -0.9860
 2245SOL     OW 8175   2.476   2.363   6.163  0.1818 -0.1415  0.1176
 2245SOL    HW1 8176   2.515   2.362   6.250 -0.3158 -0.2379  0.3460
 2245SOL    HW2 8177   2.438   2.451   6.155 -0.6090 -0.4527  0.3838
 2246SOL     OW 8178   0.212   2.110   6.915 -0.0045  0.7632  0.0851
 2246SOL    HW1 8179   0.210   2.205   6.928  1.1216  0.6263  1.5782
 2246SOL    HW2 8180   0.304   2.086   6.919 -0.2791 -0.4144 -0.0867
 2247SOL     OW 8181   1.225   4.184   5.464  0.2355 -0.4656  0.0217
 2247SOL    HW1 8182   1.211   4.254   5.528 -1.0395  0.0284 -0.7327
 2247SOL    HW2 8183   1.217   4.103   5.514 -0.0482 -0.0851  0.6095
 2248SOL     OW 8184   0.644   1.750   6.549  0.1535  0.2027  0.6061
 2248SOL    HW1 8185   0.701   1.704   6.487  0.6963  1.7161 -0.0730
 2248SOL    HW2 8186   0.704   1.806   6.599 -0.5921  0.9609  0.6672
 2249SOL     OW 8187   2.000   1.815   7.923  0.3486  0.3164  0.8308
 2249SOL    HW1 8188   2.088   1.822   7.886  0.9266 -1.2331  1.8254
 2249SOL    HW2 8189   1.948   1.776   7.853  0.4210  1.3012  0.2121
 2250SOL     OW 8190   6.801   4.002   6.285  0.4143 -0.2376  0.0213
 2250SOL    HW1 8191   6.764   3.916   6.306  3.1456 -1.0773  1.9658
 2250SOL    HW2 8192   6.820   3.998   6.191  0.4125 -1.7122  0.0642
 2251SOL     OW 8193   0.941   2.411   8.015 -0.2265  0.1759  0.4297
 2251SOL    HW1 8194   1.000   2.377   7.948 -0.8899  3.0744 -1.8483
 2251SOL    HW2 8195   0.889   2.336   8.041  2.8108 -1.9642  0.8395
 2252SOL     OW 8196   1.194   3.406   7.259  0.1645 -0.6631  0.1213
 2252SOL    HW1 8197   1.189   3.345   7.332 -0.6172 -1.1381 -0.3072
 2252SOL    HW2 8198   1.252   3.363   7.196 -0.5477 -1.0882 -0.2682
 2253SOL     OW 8199   7.982   1.924   5.239  0.3229  0.5804  0.2730
 2253SOL    HW1 8200   7.893   1.929   5.273  0.2993 -2.4881  0.9422
 2253SOL    HW2 8201   8.028   1.996   5.282 -0.8070 -0.3835  3.3831
 2254SOL     OW 8202   7.903   1.300   7.833  0.0263 -0.3204 -0.2426
 2254SOL    HW1 8203   7.950   1.259   7.760  1.4407  0.6007  0.1046
 2254SOL    HW2 8204   7.907   1.235   7.904 -0.1369 -0.6576 -0.5384
 2255SOL     OW 8205   0.200   3.491   7.317  0.2799  0.1993 -0.2356
 2255SOL    HW1 8206   0.200   3.402   7.354  1.0253 -0.5288 -1.8463
 2255SOL    HW2 8207   0.287   3.525   7.337  0.9102 -0.4321 -1.7454
 2256SOL     OW 8208   1.470   1.624   9.010  0.3361 -0.1177  0.4159
 2256SOL    HW1 8209   1.454   1.718   9.007  0.6262 -0.0380  1.1544
 2256SOL    HW2 8210   1.400   1.589   9.066 -1.6489 -0.7867 -2.2747
 2257SOL     OW 8211   1.388   3.933   6.659  0.0446  0.0485  0.2355
 2257SOL    HW1 8212   1.413   3.862   6.601  0.9848 -0.7155  1.5274
 2257SOL    HW2 8213   1.460   3.940   6.722 -1.3555  0.1559  1.9161
 2258SOL     OW 8214   3.058   3.046   6.710 -0.3384 -0.4187  0.2455
 2258SOL    HW1 8215   3.076   3.126   6.760 -2.0339 -0.1152  0.4468
 2258SOL    HW2 8216   3.143   3.002   6.704  0.6301  1.3380  0.2037
 2259SOL     OW 8217   7.969   1.353   7.380  0.1763  0.9398  0.2124
 2259SOL    HW1 8218   7.915   1.407   7.323 -1.3588  2.4501  2.9482
 2259SOL    HW2 8219   7.911   1.283   7.410  1.1119 -0.1422 -0.3941
 2260SOL     OW 8220   1.961   4.730   7.258 -0.4703  0.4608 -0.5871
 2260SOL    HW1 8221   2.048   4.734   7.218  0.4273 -0.0264  1.2275
 2260SOL    HW2 8222   1.963   4.798   7.325 -1.6772  0.7718 -0.8487
 2261SOL     OW 8223   2.578   1.745   3.517  0.0077 -0.6719 -0.1755
 2261SOL    HW1 8224   2.584   1.838   3.539  0.4813 -1.0865  1.6088
 2261SOL    HW2 8225   2.485   1.732   3.494 -0.0202  0.2622 -0.6316
 2262SOL     OW 8226   2.593   2.968   5.984  0.2539 -0.4416 -0.1076
 2262SOL    HW1 8227   2.562   2.977   5.894 -0.7522  1.2270  0.3630
 2262SOL    HW2 8228   2.677   3.014   5.985 -0.5035  0.9911  0.1466
 2263SOL     OW 8229   0.147   4.029   5.695  0.4615  0.5499  0.4342
 2263SOL    HW1 8230   0.078   4.018   5.760  1.1475 -1.8442  0.8636
 2263SOL    HW2 8231   0.205   4.096   5.732  0.8421 -0.7516  2.3470
 2264SOL     OW 8232   2.138   1.714   3.982 -0.0121 -0.2988  0.1656
 2264SOL    HW1 8233   2.080   1.679   4.050 -0.0093  0.4014  0.5298
 2264SOL    HW2 8234   2.168   1.798   4.016 -0.2436  0.2049 -0.8250
 2265SOL     OW 8235   0.072   3.736   5.269 -0.4476  0.3347 -0.2919
 2265SOL    HW1 8236   0.092   3.739   5.362 -0.3246  0.8297 -0.3349
 2265SOL    HW2 8237   0.038   3.648   5.255  0.0520  0.0744  0.1131
 2266SOL     OW 8238   6.803   3.611   6.056  0.7093 -0.4957 -0.1769
 2266SOL    HW1 8239   6.842   3.572   5.978  0.6694  4.0666 -2.8308
 2266SOL    HW2 8240   6.709   3.592   6.048  0.7377 -0.2667 -1.1113
 2267SOL     OW 8241   3.304   2.630   6.141  0.0069 -0.0202  0.1609
 2267SOL    HW1 8242   3.308   2.651   6.234 -0.6928 -0.1051  0.2133
 2267SOL    HW2 8243   3.260   2.545   6.138 -1.4931  0.7592 -0.3531
 2268SOL     OW 8244   1.819   0.816   5.612 -0.3376  0.2493 -0.5934
 2268SOL    HW1 8245   1.773   0.774   5.685  0.8598  0.3986  0.2662
 2268SOL    HW2 8246   1.793   0.764   5.535 -1.8815  0.2993 -0.1473
 2269SOL     OW 8247   1.112   3.934   4.460  0.2321  0.0833  0.0082
 2269SOL    HW1 8248   1.176   3.881   4.509 -0.7307  0.4462  1.7267
 2269SOL    HW2 8249   1.036   3.877   4.452  0.1912  0.2249 -0.6234
 2270SOL     OW 8250   0.578   2.433   5.450 -0.1328 -0.0489  0.1498
 2270SOL    HW1 8251   0.513   2.365   5.465  0.7042 -1.0711 -0.6170
 2270SOL    HW2 8252   0.608   2.418   5.360  0.6803  0.8060  0.2554
 2271SOL     OW 8253   2.823   2.317   7.686  0.2468 -0.1551  0.2620
 2271SOL    HW1 8254   2.860   2.275   7.763  3.5264  3.0529  0.6948
 2271SOL    HW2 8255   2.775   2.392   7.720  1.4407  1.1094 -0.7293
 2272SOL     OW 8256   0.381   3.672   5.890 -0.1803  0.4195  0.1871
 2272SOL    HW1 8257   0.309   3.679   5.951  0.5213  1.7545  0.9093
 2272SOL    HW2 8258   0.362   3.736   5.821 -1.3645 -1.6126 -1.4960
 2273SOL     OW 8259   0.847   3.869   4.161 -0.1248 -0.1383  0.0252
 2273SOL    HW1 8260   0.818   3.791   4.208 -2.3429  0.5294 -0.0957
 2273SOL    HW2 8261   0.856   3.841   4.070 -0.4346 -0.3835  0.0696
 2274SOL     OW 8262   0.252   1.795   6.740 -0.0462  0.7803 -0.6096
 2274SOL    HW1 8263   0.249   1.810   6.835 -0.0870 -0.1881 -0.4538
 2274SOL    HW2 8264   0.215   1.875   6.703  1.1583  1.7366  0.1310
 2275SOL     OW 8265   1.539   3.330   8.767 -0.2211 -0.1718 -0.0662
 2275SOL    HW1 8266   1.524   3.300   8.857 -2.0252 -0.6582 -0.4826
 2275SOL    HW2 8267   1.630   3.307   8.749 -0.1499 -1.0488  1.2741
 2276SOL     OW 8268   0.414   1.616   6.566 -0.1900  0.0700 -0.1950
 2276SOL    HW1 8269   0.493   1.669   6.553 -0.1488  0.1643  0.4030
 2276SOL    HW2 8270   0.362   1.665   6.629 -0.0536 -0.6898  0.5335
 2277SOL     OW 8271   2.741   7.290   6.898  0.2234  0.6518  0.6598
 2277SOL    HW1 8272   2.742   7.198   6.923  1.6031  0.7911  1.2130
 2277SOL    HW2 8273   2.668   7.328   6.948 -0.4132 -0.1443  0.3512
 2278SOL     OW 8274   0.737   4.478   6.162  0.1934  0.4925  0.3056
 2278SOL    HW1 8275   0.722   4.405   6.223  0.6607  1.1524  1.2227
 2278SOL    HW2 8276   0.649   4.499   6.129  0.1354 -0.9603 -0.5535
 2279SOL     OW 8277   0.158   3.708   5.543  0.2357  0.5104  0.3402
 2279SOL    HW1 8278   0.126   3.639   5.602 -0.0538  0.4331  0.0930
 2279SOL    HW2 8279   0.226   3.753   5.594  0.9819 -0.4540  0.2199
 2280SOL     OW 8280   7.709   3.758   4.726  0.5900  0.7715  0.0653
 2280SOL    HW1 8281   7.804   3.770   4.731  0.4538  1.9251  0.3251
 2280SOL    HW2 8282   7.692   3.741   4.634  1.0989 -0.0486  0.1113
 2281SOL     OW 8283   0.710   4.379   6.735 -0.0876 -0.3587  0.4861
 2281SOL    HW1 8284   0.781   4.392   6.672 -0.7960  0.8288 -0.0928
 2281SOL    HW2 8285   0.755   4.366   6.819  0.8215  1.0343  0.2506
 2282SOL     OW 8286   2.008   2.669   7.494 -0.1706 -0.3499 -0.0839
 2282SOL    HW1 8287   1.966   2.624   7.567 -1.0253  1.1225  0.3690
 2282SOL    HW2 8288   2.085   2.615   7.473 -1.2828 -2.1393  0.2372
 2283SOL     OW 8289   7.184   1.757   5.932 -0.2132 -0.1685  0.1439
 2283SOL    HW1 8290   7.216   1.844   5.908  0.3866 -0.9739 -2.2495
 2283SOL    HW2 8291   7.090   1.759   5.912 -0.1073 -0.1857 -0.3897
 2284SOL     OW 8292   1.242   2.122   7.643  0.4473 -0.3684  0.0761
 2284SOL    HW1 8293   1.217   2.039   7.682 -0.5240 -0.5792 -0.9565
 2284SOL    HW2 8294   1.321   2.148   7.690 -0.8768 -0.3861  2.4767
 2285SOL     OW 8295   6.064   2.095   6.739 -0.1919 -0.0994 -0.0268
 2285SOL    HW1 8296   6.065   1.999   6.743 -0.9468 -0.1193 -0.2118
 2285SOL    HW2 8297   6.052   2.122   6.830  0.4599 -0.1675  0.0835
 2286SOL     OW 8298   1.055   4.144   4.301  0.7523  0.0417 -0.1831
 2286SOL    HW1 8299   1.059   4.068   4.359  0.9984  2.1563  2.8309
 2286SOL    HW2 8300   1.138   4.142   4.253  1.8955 -0.2934  1.6960
 2287SOL     OW 8301   0.671   3.225   6.936 -0.0096 -0.1851  0.1715
 2287SOL    HW1 8302   0.615   3.301   6.955  0.7799  0.3051  0.6311
 2287SOL    HW2 8303   0.611   3.159   6.901 -0.7138  0.6587 -0.2700
 2288SOL     OW 8304   0.764   1.341   6.936  0.6181 -0.3655  0.0200
 2288SOL    HW1 8305   0.756   1.323   7.029  0.0932  1.3786  0.3510
 2288SOL    HW2 8306   0.766   1.436   6.930  1.2407 -0.4482 -1.7135
 2289SOL     OW 8307   7.249   1.916   7.031 -0.6197  0.1287  0.8467
 2289SOL    HW1 8308   7.241   1.970   7.110 -1.6524  1.0758  0.1228
 2289SOL    HW2 8309   7.171   1.937   6.980  0.2422 -0.1463 -0.6205
 2290SOL     OW 8310   1.042   3.845   5.438  0.2073 -0.4063  0.3235
 2290SOL    HW1 8311   0.957   3.858   5.397 -0.0020 -1.2267  0.4725
 2290SOL    HW2 8312   1.097   3.807   5.369  0.1017 -0.9827  0.5473
 2291SOL     OW 8313   0.295   4.495   7.707 -0.3597  0.3475 -0.5980
 2291SOL    HW1 8314   0.225   4.556   7.684 -1.7996 -0.6425  0.9327
 2291SOL    HW2 8315   0.369   4.551   7.729 -0.1562  1.3963 -3.4925
 2292SOL     OW 8316   0.678   0.949   6.671 -0.1184  0.0680  0.2807
 2292SOL    HW1 8317   0.700   0.882   6.606 -0.7035  1.5716 -1.5614
 2292SOL    HW2 8318   0.759   0.963   6.721  0.2122 -1.4393  0.2096
 2293SOL     OW 8319   7.029   1.510   6.842  0.0067  0.1676  0.1894
 2293SOL    HW1 8320   7.037   1.453   6.765  0.6335  1.5721 -0.8352
 2293SOL    HW2 8321   6.999   1.594   6.806 -0.7441  0.5459  1.6348
 2294SOL     OW 8322   0.831   2.440   5.567  0.2096  0.5070 -0.4009
 2294SOL    HW1 8323   0.744   2.446   5.526 -1.3946 -1.6624  2.2781
 2294SOL    HW2 8324   0.883   2.390   5.504 -1.7136 -1.5181 -0.5221
 2295SOL     OW 8325   2.532   2.807   5.159 -0.3743 -0.3597  0.4875
 2295SOL    HW1 8326   2.622   2.834   5.178 -0.9301  2.0322  0.0794
 2295SOL    HW2 8327   2.514   2.844   5.072 -1.2765 -2.0930 -0.0994
 2296SOL     OW 8328   0.608   4.190   5.497 -0.2737  0.2010  0.4081
 2296SOL    HW1 8329   0.701   4.203   5.482 -0.4419  1.1802  0.1914
 2296SOL    HW2 8330   0.600   4.181   5.592 -0.1514  1.8740  0.6057
 2297SOL     OW 8331   0.697   3.913   5.622  0.3430  0.4955  0.6125
 2297SOL    HW1 8332   0.774   3.876   5.663  1.1750  1.7484  0.2427
 2297SOL    HW2 8333   0.717   3.914   5.529 -0.3429  0.3458  0.4546
 2298SOL     OW 8334   0.553   4.183   4.246  0.0078  0.0252  0.1985
 2298SOL    HW1 8335   0.624   4.147   4.192  1.2719  0.2442  1.6557
 2298SOL    HW2 8336   0.597   4.230   4.316 -1.6032  0.5902  0.8884
 2299SOL     OW 8337   1.924   3.572   5.473  0.4924 -0.2927 -0.3113
 2299SOL    HW1 8338   1.961   3.621   5.547  2.0256  0.1592 -1.3200
 2299SOL    HW2 8339   1.970   3.607   5.396 -1.0087 -0.7896 -1.4824
 2300SOL     OW 8340   1.827   2.877   1.993 -0.5398  0.2987 -0.0787
 2300SOL    HW1 8341   1.910   2.923   2.008 -0.6486 -0.1666  2.4236
 2300SOL    HW2 8342   1.771   2.941   1.949  0.7433  0.9928 -0.7777
 2301SOL     OW 8343   2.895   4.493   5.299 -0.5679 -0.0139  0.3353
 2301SOL    HW1 8344   2.801   4.483   5.287 -0.8624  0.4265  2.0528
 2301SOL    HW2 8345   2.927   4.521   5.213 -1.8052 -1.2956 -0.5888
 2302SOL     OW 8346   0.902   2.921   9.209  0.2134  0.2037 -0.5742
 2302SOL    HW1 8347   0.965   2.961   9.149  1.4137 -0.5932  0.1102
 2302SOL    HW2 8348   0.901   2.828   9.186 -0.1742  0.0883 -0.1163
 2303SOL     OW 8349   0.481   2.859   5.667 -0.0344 -0.2084  0.3124
 2303SOL    HW1 8350   0.559   2.840   5.719  1.0510 -0.9235 -1.4972
 2303SOL    HW2 8351   0.505   2.935   5.614 -1.3547  0.9330  1.2856
 2304SOL     OW 8352   0.993   3.281   9.107 -0.6375 -0.0189  0.0441
 2304SOL    HW1 8353   0.965   3.288   9.016 -0.5342 -0.7833 -0.0526
 2304SOL    HW2 8354   0.911   3.272   9.156 -0.6771  0.0362 -0.0114
 2305SOL     OW 8355   2.140   0.274   7.023 -0.4771  0.4721 -0.2264
 2305SOL    HW1 8356   2.219   0.226   7.049  0.1658  0.8334 -1.4226
 2305SOL    HW2 8357   2.089   0.210   6.973 -0.9935  0.2109  0.6288
 2306SOL     OW 8358   1.004   4.017   7.752  0.0577  0.2880  0.6033
 2306SOL    HW1 8359   0.967   3.948   7.697 -1.8488  0.1586  1.9400
 2306SOL    HW2 8360   0.969   4.098   7.715  0.5881  0.3838  0.3023
 2307SOL     OW 8361   1.736   3.040   6.341 -0.0123  0.1869 -0.0206
 2307SOL    HW1 8362   1.763   3.056   6.251  1.1924 -0.1156  0.2783
 2307SOL    HW2 8363   1.757   3.121   6.387 -0.2032  0.1735  0.0944
 2308SOL     OW 8364   7.943   1.528   5.483 -0.2402  0.1136 -0.5572
 2308SOL    HW1 8365   7.957   1.567   5.396 -2.3685 -1.4224 -1.6664
 2308SOL    HW2 8366   7.948   1.433   5.467  0.7796 -0.1803  1.3029
 2309SOL     OW 8367   0.463   4.243   6.150 -0.1866  0.5939  0.1063
 2309SOL    HW1 8368   0.424   4.210   6.231 -0.4445  2.3218  0.7249
 2309SOL    HW2 8369   0.556   4.247   6.169  0.5928 -4.1451 -1.5864
 2310SOL     OW 8370   0.237   2.356   7.025  0.3045  0.5181  0.5540
 2310SOL    HW1 8371   0.207   2.389   7.110 -0.7282  1.0286  0.0202
 2310SOL    HW2 8372   0.284   2.430   6.986 -0.7276  0.8852 -0.0280
 2311SOL     OW 8373   1.435   1.280   7.709 -0.0547  0.0680  0.2898
 2311SOL    HW1 8374   1.394   1.357   7.670 -0.5853  1.2968  3.0574
 2311SOL    HW2 8375   1.526   1.284   7.682 -0.3194  1.0567 -0.4887
 2312SOL     OW 8376   0.694   4.989   4.643 -0.5834 -0.1189 -0.4310
 2312SOL    HW1 8377   0.697   5.016   4.735  1.3556  0.5547 -0.6360
 2312SOL    HW2 8378   0.745   4.908   4.640 -0.9657 -0.3471 -0.8488
 2313SOL     OW 8379   1.810   3.936   7.394 -0.0043 -0.4701  0.3099
 2313SOL    HW1 8380   1.844   4.025   7.385 -1.1592 -0.0402  0.0400
 2313SOL    HW2 8381   1.887   3.884   7.418  0.6108  0.6684  0.9252
 2314SOL     OW 8382   0.272   0.657   6.478  0.0644 -0.1234  0.3247
 2314SOL    HW1 8383   0.208   0.715   6.437  0.2137 -1.0156 -1.2397
 2314SOL    HW2 8384   0.350   0.711   6.488  0.1719  0.0002 -1.0331
 2315SOL     OW 8385   1.032   0.876   5.557  0.0556  0.3718 -0.4670
 2315SOL    HW1 8386   0.969   0.935   5.517 -2.0058  1.3490  3.7122
 2315SOL    HW2 8387   0.985   0.793   5.567  0.7380 -0.0442 -0.6370
 2316SOL     OW 8388   1.133   1.119   4.681  0.3600 -0.3505 -0.2320
 2316SOL    HW1 8389   1.194   1.057   4.722  1.1581  0.7167  0.2313
 2316SOL    HW2 8390   1.144   1.200   4.730 -0.5746  0.2105 -0.9118
 2317SOL     OW 8391   0.117   0.991   5.795 -0.6118 -0.0245  0.4039
 2317SOL    HW1 8392   0.108   1.081   5.827  0.2102  0.8947 -1.7115
 2317SOL    HW2 8393   0.207   0.966   5.816  0.2149  0.8982 -1.7060
 2318SOL     OW 8394   0.867   2.937   5.643  0.2265  0.3946  0.4279
 2318SOL    HW1 8395   0.935   3.003   5.656  1.4436 -0.6293 -0.5155
 2318SOL    HW2 8396   0.813   2.943   5.722  0.6059  2.1259  0.6090
 2319SOL     OW 8397   0.571   2.862   7.278  0.0108 -0.3117 -0.0215
 2319SOL    HW1 8398   0.522   2.818   7.209  1.2721 -2.0232  0.1076
 2319SOL    HW2 8399   0.546   2.817   7.359 -0.8731  1.1627  0.5605
 2320SOL     OW 8400   1.147   1.673   7.794 -0.2390 -0.0371 -0.3303
 2320SOL    HW1 8401   1.187   1.623   7.865 -1.7390 -0.1732  0.4540
 2320SOL    HW2 8402   1.131   1.608   7.725 -3.3559 -1.0498  1.1649
 2321SOL     OW 8403   0.509   2.577   6.394  0.1919  0.1496  0.1467
 2321SOL    HW1 8404   0.492   2.641   6.463 -0.1979  1.2176 -0.9045
 2321SOL    HW2 8405   0.588   2.532   6.423 -0.1260  0.3537  1.4255
 2322SOL     OW 8406   2.940   4.569   6.649  0.5633  0.4353 -0.1097
 2322SOL    HW1 8407   2.957   4.535   6.561  0.5529 -0.8915  0.3813
 2322SOL    HW2 8408   3.027   4.584   6.686  0.7250 -2.4852  0.9306
 2323SOL     OW 8409   1.727   3.484   6.641  0.4833 -0.1302 -0.0546
 2323SOL    HW1 8410   1.775   3.538   6.578 -0.5100 -0.0866 -0.8090
 2323SOL    HW2 8411   1.705   3.543   6.712 -1.2260  0.7128 -1.2022
 2324SOL     OW 8412   2.706   3.041   7.897 -0.2556 -0.1534  0.2242
 2324SOL    HW1 8413   2.696   3.136   7.884  0.9936 -0.0442 -0.0434
 2324SOL    HW2 8414   2.724   3.007   7.809  1.1241 -0.3743  0.5706
 2325SOL     OW 8415   1.138   1.975   7.418 -0.5032  0.2823  0.0098
 2325SOL    HW1 8416   1.130   1.997   7.511  1.2433  1.6755 -0.1183
 2325SOL    HW2 8417   1.056   1.930   7.397 -0.8442 -0.2595  2.2640
 2326SOL     OW 8418   0.924   3.605   6.504 -0.4436 -0.0226 -0.2844
 2326SOL    HW1 8419   0.991   3.544   6.535 -0.2360  0.4363  0.1759
 2326SOL    HW2 8420   0.926   3.595   6.409 -0.9262 -1.2694 -0.1847
 2327SOL     OW 8421   6.286   3.103   9.402 -0.1197 -0.2402  0.4417
 2327SOL    HW1 8422   6.247   3.141   9.481 -0.4693  1.2208 -0.4020
 2327SOL    HW2 8423   6.214   3.097   9.340  0.5651  0.6675 -0.4795
 2328SOL     OW 8424   7.141   1.781   8.131  0.1167 -0.1526 -0.1362
 2328SOL    HW1 8425   7.085   1.799   8.207 -0.1307  0.3894 -0.4416
 2328SOL    HW2 8426   7.171   1.691   8.144 -0.3584 -0.2481  0.3242
 2329SOL     OW 8427   1.373   3.210   7.647  0.2533  0.0749 -0.4892
 2329SOL    HW1 8428   1.353   3.199   7.740  0.8602  3.2845  0.1337
 2329SOL    HW2 8429   1.459   3.170   7.636  0.1348 -0.4245  0.3107
 2330SOL     OW 8430   6.425   3.358   8.511  0.3265 -0.2032  0.6925
 2330SOL    HW1 8431   6.439   3.376   8.418 -2.3409 -2.2236 -0.2247
 2330SOL    HW2 8432   6.513   3.355   8.548  1.4923  0.3021 -1.8151
 2331SOL     OW 8433   0.811   2.951   7.919 -0.0236  0.6463 -0.5456
 2331SOL    HW1 8434   0.900   2.922   7.896 -0.4388 -0.6686 -0.5667
 2331SOL    HW2 8435   0.754   2.887   7.877 -0.9990  1.5553 -0.6320
 2332SOL     OW 8436   7.498   1.685   9.135 -0.9826 -0.5306 -0.3035
 2332SOL    HW1 8437   7.453   1.770   9.132 -1.2002 -0.5782  0.8915
 2332SOL    HW2 8438   7.458   1.634   9.066 -1.3363  0.1157 -0.5890
 2333SOL     OW 8439   7.030   1.525   7.123 -0.1081 -0.4315 -0.0342
 2333SOL    HW1 8440   6.994   1.608   7.155 -0.2655 -0.4483 -0.1694
 2333SOL    HW2 8441   7.018   1.528   7.028  1.1903  0.0208 -0.2159
 2334SOL     OW 8442   1.446   4.434   7.686 -0.5256 -0.4462  0.0967
 2334SOL    HW1 8443   1.398   4.393   7.758  0.3858 -0.2219  0.8570
 2334SOL    HW2 8444   1.536   4.403   7.697 -0.4102 -0.5361 -1.0563
 2335SOL     OW 8445   7.580   2.917   7.120 -0.2115  0.1587 -0.9324
 2335SOL    HW1 8446   7.587   2.830   7.161 -0.7049 -0.0684 -1.3279
 2335SOL    HW2 8447   7.552   2.974   7.192 -0.2118 -0.0712 -0.7465
 2336SOL     OW 8448   6.838   4.323   7.564 -0.0143  0.0044  0.0520
 2336SOL    HW1 8449   6.836   4.344   7.657  1.7901 -0.0881  0.1497
 2336SOL    HW2 8450   6.932   4.321   7.542 -0.2265 -3.3305 -0.9925
 2337SOL     OW 8451   2.142   2.419   9.690  0.0382 -0.2069  0.6645
 2337SOL    HW1 8452   2.048   2.431   9.696 -0.6653 -3.7766 -0.8114
 2337SOL    HW2 8453   2.168   2.384   9.776 -0.1163 -0.0381  0.7801
 2338SOL     OW 8454   7.780   6.296   6.827 -0.5865 -0.0437 -0.2133
 2338SOL    HW1 8455   7.701   6.348   6.819 -0.9693 -0.5828  0.0192
 2338SOL    HW2 8456   7.849   6.359   6.849 -1.2711  0.2002  1.3432
 2339SOL     OW 8457   0.922   3.820   7.582 -0.0215 -0.7148  0.0369
 2339SOL    HW1 8458   0.847   3.765   7.558 -0.8094  0.5531 -0.5021
 2339SOL    HW2 8459   0.941   3.870   7.503  0.6314 -0.1694  0.5334
 2340SOL     OW 8460   1.698   3.221   9.329  0.4283  0.5145  0.4286
 2340SOL    HW1 8461   1.776   3.197   9.280  0.2044  0.7078 -0.0404
 2340SOL    HW2 8462   1.700   3.317   9.332  0.2998  0.5144  0.5588
 2341SOL     OW 8463   1.768   1.814   6.890 -0.1074  0.4499 -0.5147
 2341SOL    HW1 8464   1.776   1.731   6.939 -0.7315 -0.0063 -1.1627
 2341SOL    HW2 8465   1.838   1.869   6.926 -0.7116  0.2356  1.0828
 2342SOL     OW 8466   2.269   3.418   7.849  0.8537 -0.0181 -0.2327
 2342SOL    HW1 8467   2.258   3.513   7.843  0.1377  0.0900  1.9722
 2342SOL    HW2 8468   2.324   3.396   7.774 -0.0941  1.9250 -1.6133
 2343SOL     OW 8469   0.025   4.393   8.438 -0.3844  0.0486  0.5137
 2343SOL    HW1 8470   0.035   4.301   8.415  0.1662 -0.3872  2.3307
 2343SOL    HW2 8471   0.112   4.431   8.424 -0.1803 -0.1051  1.2744
 2344SOL     OW 8472   0.314   6.415   6.028 -0.2066 -0.3416 -0.6864
 2344SOL    HW1 8473   0.251   6.363   6.078  0.4433 -0.0691  0.4411
 2344SOL    HW2 8474   0.389   6.356   6.016 -0.3164 -0.3696 -1.2590
 2345SOL     OW 8475   1.889   1.824   5.854 -0.1412 -0.4163 -0.3067
 2345SOL    HW1 8476   1.824   1.756   5.838 -0.3711 -0.3125  0.1785
 2345SOL    HW2 8477   1.849   1.881   5.920 -0.4152  0.8248 -1.4887
 2346SOL     OW 8478   7.593   3.866  11.538 -0.4596 -0.2008 -0.3942
 2346SOL    HW1 8479   7.595   3.946  11.592 -1.8666 -0.6607  0.3986
 2346SOL    HW2 8480   7.504   3.832  11.550  0.2152 -2.0683 -0.4515
 2347SOL     OW 8481   0.958   3.171   7.782 -0.0422 -0.2568  0.0605
 2347SOL    HW1 8482   0.995   3.167   7.870  0.5847 -1.9511 -0.2249
 2347SOL    HW2 8483   0.870   3.133   7.791  0.5353 -1.7616 -0.2289
 2348SOL     OW 8484   1.375   3.516   7.684  0.3780 -1.0005  0.0213
 2348SOL    HW1 8485   1.400   3.525   7.592 -0.7232  1.1456 -0.1176
 2348SOL    HW2 8486   1.349   3.424   7.693  0.3979 -1.2135 -1.8292
 2349SOL     OW 8487   2.255   3.602   8.822 -0.9643  0.6937  0.3063
 2349SOL    HW1 8488   2.201   3.678   8.801 -0.0366  0.7622 -2.1215
 2349SOL    HW2 8489   2.299   3.580   8.740  0.2662 -1.3041  1.4169
 2350SOL     OW 8490   2.138   2.860   6.998  0.1519  0.5918  0.1042
 2350SOL    HW1 8491   2.198   2.919   6.953  1.2904 -2.0839 -2.1872
 2350SOL    HW2 8492   2.171   2.772   6.978 -3.4126 -0.9709  0.3974
 2351SOL     OW 8493   1.392   3.110   6.356  0.4521 -0.3074  0.2289
 2351SOL    HW1 8494   1.397   3.141   6.446  1.0070  1.7976 -0.4854
 2351SOL    HW2 8495   1.479   3.074   6.338  0.2323 -1.0609  0.6175
 2352SOL     OW 8496   0.957   5.112   8.717  0.0443  0.2586 -0.7493
 2352SOL    HW1 8497   0.912   5.177   8.772 -1.7994  0.0060 -1.8716
 2352SOL    HW2 8498   1.043   5.102   8.757 -1.2696 -0.1039  2.2566
 2353SOL     OW 8499   0.099   2.604  10.515 -0.3053  0.1921 -0.5611
 2353SOL    HW1 8500   0.148   2.624  10.595 -0.6777  0.6713 -0.4448
 2353SOL    HW2 8501   0.159   2.626  10.444  0.7114 -1.9758 -0.4335
 2354SOL     OW 8502   2.489   3.529   8.044 -0.2977 -0.4134  0.1414
 2354SOL    HW1 8503   2.512   3.444   8.006 -0.2684  0.3908 -1.7443
 2354SOL    HW2 8504   2.508   3.592   7.975  1.0194  1.3137  1.9725
 2355SOL     OW 8505   0.530   4.727   7.319 -0.0942 -0.2026  0.3266
 2355SOL    HW1 8506   0.556   4.755   7.231 -0.2628 -2.1734 -0.3935
 2355SOL    HW2 8507   0.548   4.803   7.374  2.6983  0.1783 -0.9245
 2356SOL     OW 8508   0.822   2.908   7.183 -0.1435  0.1741 -0.2395
 2356SOL    HW1 8509   0.871   2.963   7.244 -1.6880  2.6855 -1.1286
 2356SOL    HW2 8510   0.736   2.898   7.223  0.1828 -1.9873  0.0602
 2357SOL     OW 8511   0.125   2.201   9.289 -0.1835  0.3675  0.1804
 2357SOL    HW1 8512   0.102   2.237   9.203 -1.0572  0.6552  0.5274
 2357SOL    HW2 8513   0.182   2.127   9.269  1.2720  1.6233 -0.5678
 2358SOL     OW 8514   1.322   3.201   8.653  0.0036  0.2590 -0.1267
 2358SOL    HW1 8515   1.402   3.238   8.691  0.3590 -1.4129  0.8551
 2358SOL    HW2 8516   1.352   3.160   8.571 -0.5447  2.7583 -1.7001
 2359SOL     OW 8517   7.433   3.235   7.918 -0.1093 -0.2299  0.0067
 2359SOL    HW1 8518   7.339   3.219   7.922 -0.1882  0.2610  0.2494
 2359SOL    HW2 8519   7.472   3.148   7.915 -0.5024 -0.4886  1.4889
 2360SOL     OW 8520   1.339   2.505   8.943 -0.0695 -0.1914 -0.7402
 2360SOL    HW1 8521   1.404   2.510   8.873  0.9124 -0.5863  0.1232
 2360SOL    HW2 8522   1.345   2.416   8.976 -0.6662 -0.0676 -0.2666
 2361SOL     OW 8523   7.382   1.887   7.559  0.7600  0.2412 -0.3026
 2361SOL    HW1 8524   7.434   1.932   7.626  0.7692 -0.0204 -0.1349
 2361SOL    HW2 8525   7.410   1.927   7.477  0.4703  0.8347 -0.1202
 2362SOL     OW 8526   0.793   2.700   6.088  0.4977  0.1688  0.4035
 2362SOL    HW1 8527   0.879   2.688   6.129  1.1261 -0.2396 -0.9445
 2362SOL    HW2 8528   0.813   2.715   5.995 -0.9523 -1.6923 -0.2739
 2363SOL     OW 8529   1.686   2.020   6.696  0.0820 -0.1970  0.0751
 2363SOL    HW1 8530   1.613   2.024   6.757  0.2798  0.6048  0.2705
 2363SOL    HW2 8531   1.743   1.951   6.731 -0.1630 -0.2380  0.3924
 2364SOL     OW 8532   0.327   2.022   9.240  0.0474 -0.0890 -0.4260
 2364SOL    HW1 8533   0.415   2.047   9.211 -0.8166  1.7778 -1.6410
 2364SOL    HW2 8534   0.312   1.937   9.200  1.4567 -0.6608  0.1958
 2365SOL     OW 8535   1.565   3.319  10.006  0.3727  0.1087 -0.0071
 2365SOL    HW1 8536   1.525   3.278   9.929  2.1830  0.6665 -1.2960
 2365SOL    HW2 8537   1.644   3.267  10.022  0.6755  0.7720  0.6835
 2366SOL     OW 8538   1.728   7.734   8.272  0.1378 -0.6093  0.0190
 2366SOL    HW1 8539   1.632   7.738   8.273  0.0644 -1.5718 -0.9181
 2366SOL    HW2 8540   1.756   7.825   8.281 -0.8744 -0.2521 -0.2870
 2367SOL     OW 8541   1.956   1.999   8.109  0.1812  0.1780  0.6847
 2367SOL    HW1 8542   1.914   2.055   8.044 -0.8911 -0.3057  0.9404
 2367SOL    HW2 8543   2.011   1.939   8.059  1.1143  1.2589  0.3900
 2368SOL     OW 8544   2.163   5.466   7.663  0.2283  0.0135 -0.0797
 2368SOL    HW1 8545   2.236   5.408   7.642  0.3182 -0.4884  1.4659
 2368SOL    HW2 8546   2.174   5.541   7.606 -0.3495 -1.8111 -2.7620
 2369SOL     OW 8547   0.076   0.766   7.342 -0.1526 -0.0283 -0.0021
 2369SOL    HW1 8548   0.159   0.809   7.362 -1.0325  0.8399  2.0275
 2369SOL    HW2 8549   0.081   0.681   7.385  0.6786 -1.1167 -2.1095
 2370SOL     OW 8550   1.472   3.258   9.015 -0.2138 -0.0907 -0.2739
 2370SOL    HW1 8551   1.542   3.195   9.033 -0.0589  0.5115  1.3247
 2370SOL    HW2 8552   1.436   3.280   9.101 -1.0047  1.1628 -0.8992
 2371SOL     OW 8553   0.013   5.226   7.750 -0.5241 -0.3100  0.4620
 2371SOL    HW1 8554   0.016   5.277   7.669  0.3189 -1.1732 -0.0699
 2371SOL    HW2 8555   0.097   5.243   7.792 -2.0440  2.5302  2.7274
 2372SOL     OW 8556   2.710   2.599   6.886  0.3842 -0.1965 -0.4531
 2372SOL    HW1 8557   2.803   2.595   6.864  0.2867 -1.4055 -0.6862
 2372SOL    HW2 8558   2.685   2.508   6.902 -0.3298  0.2811  1.4252
 2373SOL     OW 8559   2.375   4.402   7.741 -0.4302  0.7571  0.5349
 2373SOL    HW1 8560   2.360   4.432   7.831 -0.3117 -0.4198  0.9654
 2373SOL    HW2 8561   2.470   4.400   7.732 -0.2495 -2.6001  1.6822
 2374SOL     OW 8562   7.613   2.270   6.959 -0.0254 -0.4560  0.7250
 2374SOL    HW1 8563   7.628   2.192   6.906 -0.6125  0.1986 -0.4263
 2374SOL    HW2 8564   7.528   2.255   7.001 -2.9826  1.7038 -3.6893
 2375SOL     OW 8565   2.062   2.392   7.274 -0.3154  0.3705  0.1206
 2375SOL    HW1 8566   2.147   2.426   7.302 -1.0468  1.9397  0.5723
 2375SOL    HW2 8567   2.050   2.312   7.325  0.7549  0.2799  0.2564
 2376SOL     OW 8568   1.550   2.953   8.163  0.0968  0.5661 -0.7531
 2376SOL    HW1 8569   1.458   2.977   8.160  0.1199  0.6916 -0.4632
 2376SOL    HW2 8570   1.594   3.030   8.200  0.2656  0.3488 -0.5019
 2377SOL     OW 8571   1.589   4.502   6.843 -0.4948 -0.2062 -0.1945
 2377SOL    HW1 8572   1.570   4.586   6.885  1.7059 -0.2387  1.0047
 2377SOL    HW2 8573   1.547   4.508   6.757  0.2539  2.4270 -0.4405
 2378SOL     OW 8574   0.477   1.971   8.569 -0.4672 -0.3985 -0.1221
 2378SOL    HW1 8575   0.441   1.893   8.526 -0.3291  0.3627 -1.7006
 2378SOL    HW2 8576   0.407   2.036   8.563 -0.3089 -0.1607  0.5219
 2379SOL     OW 8577   2.900   2.978   8.578 -0.4734  0.0017  0.3005
 2379SOL    HW1 8578   2.886   2.908   8.642 -0.0549 -0.8935 -0.5647
 2379SOL    HW2 8579   2.994   2.992   8.578 -0.4287 -0.2636 -0.3759
 2380SOL     OW 8580   1.947   3.243   6.963 -0.1421 -0.3289  0.0528
 2380SOL    HW1 8581   1.887   3.301   7.009  2.3688  4.8668 -2.4674
 2380SOL    HW2 8582   2.024   3.237   7.019  0.5574  0.9774 -0.7198
 2381SOL     OW 8583   1.486   3.823   9.133 -0.7734  0.4857  0.6083
 2381SOL    HW1 8584   1.552   3.753   9.136  0.6572  1.6981 -0.7262
 2381SOL    HW2 8585   1.421   3.792   9.071  0.1001  0.5235 -0.3427
 2382SOL     OW 8586   1.400   4.077   8.986  0.4254  0.0073  0.3840
 2382SOL    HW1 8587   1.419   4.090   8.893 -1.0807 -0.6849 -0.0386
 2382SOL    HW2 8588   1.456   4.003   9.011  1.3969  0.6708  0.2425
 2383SOL     OW 8589   7.155   2.631   7.301 -0.5058  0.4451 -0.0882
 2383SOL    HW1 8590   7.246   2.646   7.323 -0.0456 -1.2067 -0.7020
 2383SOL    HW2 8591   7.120   2.718   7.279  1.3420  0.9113 -1.4030
 2384SOL     OW 8592   0.830   3.744   9.625  0.3274  0.8007  0.2687
 2384SOL    HW1 8593   0.872   3.726   9.541  0.8418  2.0846  0.2268
 2384SOL    HW2 8594   0.738   3.722   9.612  1.1349 -3.7759  0.8729
 2385SOL     OW 8595   0.338   3.245   9.877  0.5684 -0.0058  0.0572
 2385SOL    HW1 8596   0.355   3.240   9.971 -1.0274 -2.5296  0.3170
 2385SOL    HW2 8597   0.348   3.155   9.847 -0.9350  0.3851 -1.7870
 2386SOL     OW 8598   1.185   3.863   8.284  0.1299  0.2470 -0.1263
 2386SOL    HW1 8599   1.252   3.800   8.256 -0.3489 -0.0683 -0.5891
 2386SOL    HW2 8600   1.203   3.878   8.376  0.6368 -0.0958 -0.1655
 2387SOL     OW 8601   0.675   3.051   8.679  0.5835  0.2662 -0.3677
 2387SOL    HW1 8602   0.650   3.047   8.772  0.6369  1.7325 -0.2685
 2387SOL    HW2 8603   0.622   2.982   8.638  0.3339 -0.2110  0.6883
 2388SOL     OW 8604   1.673   4.056   8.258 -0.0316  0.0080 -0.0063
 2388SOL    HW1 8605   1.760   4.050   8.298  0.4536 -0.8727 -1.1292
 2388SOL    HW2 8606   1.691   4.068   8.164 -1.1104 -0.7292 -0.3275
 2389SOL     OW 8607   0.911   4.562   8.792 -0.1073  0.4025 -0.3811
 2389SOL    HW1 8608   0.933   4.622   8.863 -1.0539  0.8550 -0.4542
 2389SOL    HW2 8609   0.885   4.481   8.836  0.9987  0.0840 -0.2787
 2390SOL     OW 8610   1.383   2.197   8.676 -0.1657  0.0402 -0.2734
 2390SOL    HW1 8611   1.418   2.196   8.587 -1.6451 -1.6728 -0.8983
 2390SOL    HW2 8612   1.391   2.106   8.707 -1.8432  0.0722  0.4030
 2391SOL     OW 8613   0.584   2.459   8.728 -0.5489  0.3332 -0.4152
 2391SOL    HW1 8614   0.505   2.405   8.733 -2.3097  2.6800 -1.0335
 2391SOL    HW2 8615   0.643   2.420   8.792 -2.5640 -0.9641  0.8034
 2392SOL     OW 8616   1.160   3.893   7.960  0.4499 -0.5168  0.2116
 2392SOL    HW1 8617   1.077   3.853   7.937  0.9929 -0.3453 -2.3557
 2392SOL    HW2 8618   1.191   3.844   8.036 -1.6547 -1.0064  0.7924
 2393SOL     OW 8619   0.761   2.817   7.537 -0.2216  0.1512  0.0641
 2393SOL    HW1 8620   0.700   2.770   7.480  2.8560 -2.4187 -1.3962
 2393SOL    HW2 8621   0.783   2.755   7.606  0.9716  0.8954  0.3844
 2394SOL     OW 8622   1.027   1.179   7.763  0.1485  0.4150  0.0091
 2394SOL    HW1 8623   1.058   1.117   7.696  0.8129 -1.1552  1.6967
 2394SOL    HW2 8624   0.934   1.191   7.743 -0.5898 -2.9456  0.9035
 2395SOL     OW 8625   0.170   2.221   8.029 -0.6122 -0.3154  0.3381
 2395SOL    HW1 8626   0.196   2.244   8.118 -1.2779  1.9992  0.0053
 2395SOL    HW2 8627   0.222   2.279   7.974 -2.1539  0.2018 -0.6216
 2396SOL     OW 8628   1.552   2.007   8.518 -0.5570 -0.1352  0.0664
 2396SOL    HW1 8629   1.609   1.954   8.574  0.0929  0.3994 -0.0737
 2396SOL    HW2 8630   1.612   2.064   8.470 -1.2463  0.9481  0.4400
 2397SOL     OW 8631   0.122   4.740   8.265  0.4770  0.1625  0.4982
 2397SOL    HW1 8632   0.126   4.803   8.194  1.4105  0.2397  0.5993
 2397SOL    HW2 8633   0.040   4.692   8.251  0.3559  0.5838 -0.2710
 2398SOL     OW 8634   7.448   1.347   6.467  0.0945  0.6994  0.6806
 2398SOL    HW1 8635   7.509   1.347   6.393 -0.5662  3.3428  0.0278
 2398SOL    HW2 8636   7.487   1.286   6.530  1.6084 -0.2680 -1.0923
 2399SOL     OW 8637   0.386   2.721   8.800 -0.0873 -0.1287 -0.3858
 2399SOL    HW1 8638   0.426   2.714   8.713 -0.8709 -2.1206 -0.6528
 2399SOL    HW2 8639   0.309   2.776   8.786  0.1376  0.0809 -0.8239
 2400SOL     OW 8640   0.795   1.290   9.467 -0.1697 -0.1682  0.4834
 2400SOL    HW1 8641   0.763   1.200   9.473 -0.7557 -0.0978 -1.0905
 2400SOL    HW2 8642   0.766   1.331   9.549 -1.1122 -1.0375  0.6119
 2401SOL     OW 8643   1.240   2.668   9.312 -0.5532  0.0786 -0.1334
 2401SOL    HW1 8644   1.266   2.595   9.368 -2.4627 -1.1374 -0.7738
 2401SOL    HW2 8645   1.182   2.630   9.247 -1.8296  2.2143 -0.3374
 2402SOL     OW 8646   0.967   2.223   6.626  0.1337  0.8098 -0.1262
 2402SOL    HW1 8647   1.031   2.272   6.574  0.5995  0.1138 -0.2212
 2402SOL    HW2 8648   0.914   2.176   6.561 -0.9386  1.9204 -0.0850
 2403SOL     OW 8649   1.632   2.635   7.182 -0.3219 -0.2165  0.2094
 2403SOL    HW1 8650   1.689   2.573   7.228  0.2726 -0.9065 -1.3554
 2403SOL    HW2 8651   1.645   2.718   7.227  2.2491 -0.2626 -0.2765
 2404SOL     OW 8652   1.142   1.940   6.662 -0.0548 -0.2474  0.7828
 2404SOL    HW1 8653   1.092   1.858   6.666 -1.9357  0.7868  0.0533
 2404SOL    HW2 8654   1.149   1.969   6.753 -0.8147 -0.4150  0.9002
 2405SOL     OW 8655   1.877   3.678   7.709 -0.6254 -0.2443 -0.3434
 2405SOL    HW1 8656   1.882   3.745   7.776 -1.0938  0.2579 -0.8017
 2405SOL    HW2 8657   1.884   3.595   7.757  0.6294  0.1325  0.1568
 2406SOL     OW 8658   0.415   3.691   6.206 -0.4053 -0.6435 -0.1868
 2406SOL    HW1 8659   0.483   3.729   6.151 -1.0404  1.2789  0.2889
 2406SOL    HW2 8660   0.458   3.617   6.249  1.1471  0.0290 -0.5024
 2407SOL     OW 8661   0.713   4.246   6.327  0.1351  0.1709 -0.3535
 2407SOL    HW1 8662   0.698   4.152   6.320  2.5157 -0.4215  1.4677
 2407SOL    HW2 8663   0.797   4.255   6.373  0.2472  3.1857 -0.8855
 2408SOL     OW 8664   1.667   2.841   7.749 -0.0746  0.6016  0.2723
 2408SOL    HW1 8665   1.574   2.834   7.769  0.1523 -3.0373  0.8037
 2408SOL    HW2 8666   1.671   2.853   7.654 -1.1013 -0.2234  0.1162
 2409SOL     OW 8667   7.726   3.282   6.459 -0.2621  0.0233 -0.4240
 2409SOL    HW1 8668   7.724   3.189   6.480  2.8319  0.0845  0.7184
 2409SOL    HW2 8669   7.743   3.325   6.543 -2.4177  1.7392 -0.7922
 2410SOL     OW 8670   1.683   4.949   8.106  0.2264 -0.4336  0.2893
 2410SOL    HW1 8671   1.755   5.004   8.076 -1.1394  1.2845 -0.0023
 2410SOL    HW2 8672   1.660   4.983   8.192 -0.8093 -0.3382 -0.0025
 2411SOL     OW 8673   1.267   4.781   9.154  0.0826 -0.0109  0.3189
 2411SOL    HW1 8674   1.262   4.698   9.106  0.0986  0.0521  0.2064
 2411SOL    HW2 8675   1.188   4.782   9.208 -0.4792  0.3925 -0.4892
 2412SOL     OW 8676   2.628   4.450  10.076  0.0106  0.4099  0.2799
 2412SOL    HW1 8677   2.686   4.474  10.148 -0.4925  0.1319  0.7942
 2412SOL    HW2 8678   2.680   4.390  10.022  0.3753  0.5773  0.4458
 2413SOL     OW 8679   2.121   2.950   8.314 -0.7999  0.0245  0.0945
 2413SOL    HW1 8680   2.214   2.934   8.297 -0.5162 -0.6610  2.0404
 2413SOL    HW2 8681   2.076   2.909   8.240  0.3549 -1.6498  0.2687
 2414SOL     OW 8682   1.460   4.669   7.512 -0.2039 -0.3517 -0.1360
 2414SOL    HW1 8683   1.383   4.719   7.488 -0.1431  0.4093  1.1571
 2414SOL    HW2 8684   1.426   4.597   7.566  0.0449  0.4739  1.1527
 2415SOL     OW 8685   0.733   2.624   9.385  0.5111 -0.6267  0.3789
 2415SOL    HW1 8686   0.806   2.635   9.324 -1.3041  1.3977 -1.6150
 2415SOL    HW2 8687   0.746   2.693   9.450 -0.5372  1.0342 -1.0737
 2416SOL     OW 8688   0.020   2.553   8.991 -0.0389 -0.0157 -0.1531
 2416SOL    HW1 8689   0.044   2.483   9.052  0.0341 -1.3213 -1.6220
 2416SOL    HW2 8690  -0.043   2.512   8.931 -0.5335  1.3876 -0.6215
 2417SOL     OW 8691   2.208   1.109   7.436 -0.3404 -0.7478 -0.2294
 2417SOL    HW1 8692   2.153   1.153   7.372 -0.4552 -0.4435  0.0762
 2417SOL    HW2 8693   2.201   1.016   7.413 -0.4042 -0.6435 -0.6363
 2418SOL     OW 8694   7.849   1.269   6.702  0.1352  0.4395  0.2983
 2418SOL    HW1 8695   7.830   1.265   6.796 -0.4348  0.5277  0.1906
 2418SOL    HW2 8696   7.803   1.347   6.672 -0.7169 -0.2687 -0.2847
 2419SOL     OW 8697   2.495   4.722   8.278  0.3735 -0.3037 -0.2553
 2419SOL    HW1 8698   2.418   4.774   8.255  1.1361  0.8480 -0.2900
 2419SOL    HW2 8699   2.556   4.736   8.205  0.3751 -1.7525 -0.5640
 2420SOL     OW 8700   6.108   3.154   9.209  0.9811 -0.0505  0.5982
 2420SOL    HW1 8701   6.081   3.112   9.128  3.4750  0.1946 -0.4645
 2420SOL    HW2 8702   6.053   3.232   9.216 -0.0498 -0.6765 -0.2263
 2421SOL     OW 8703   7.989   1.878   6.956 -0.4782 -0.3884 -0.5363
 2421SOL    HW1 8704   7.971   1.867   7.049 -0.7025 -0.2247 -0.5587
 2421SOL    HW2 8705   8.062   1.940   6.952 -2.2058  1.7403 -0.5356
 2422SOL     OW 8706   1.941   3.244   7.793 -0.0678 -0.0968 -0.3027
 2422SOL    HW1 8707   1.995   3.216   7.867 -1.3777 -1.8549  0.0710
 2422SOL    HW2 8708   1.990   3.216   7.715  0.9218  1.0129 -0.1108
 2423SOL     OW 8709   1.368   3.574   5.735 -0.3745 -0.4798  0.3728
 2423SOL    HW1 8710   1.402   3.485   5.724 -0.5049 -0.5746  0.7231
 2423SOL    HW2 8711   1.305   3.567   5.806  0.6132  0.1490  1.3381
 2424SOL     OW 8712   1.172   4.227   8.488 -0.4223  0.3480  0.2308
 2424SOL    HW1 8713   1.122   4.251   8.566  1.0158  1.8301  0.7508
 2424SOL    HW2 8714   1.226   4.153   8.515  0.3025  1.0584  0.7541
 2425SOL     OW 8715   0.011   5.051   7.326  0.3384 -0.2084  0.1082
 2425SOL    HW1 8716   0.045   4.988   7.262  0.1534 -0.8004  0.5775
 2425SOL    HW2 8717   0.069   5.126   7.319 -0.3252  0.1874 -1.5155
 2426SOL     OW 8718   2.285   2.701   8.594 -0.2924 -0.0078  0.2659
 2426SOL    HW1 8719   2.348   2.639   8.556 -0.5484 -1.2314  1.7115
 2426SOL    HW2 8720   2.212   2.702   8.533 -0.5679 -1.6732  0.5151
 2427SOL     OW 8721   0.871   0.770   8.876  0.0648  0.1739 -0.3471
 2427SOL    HW1 8722   0.871   0.854   8.831 -0.2767  0.1943 -0.3052
 2427SOL    HW2 8723   0.949   0.773   8.932  1.0566 -0.2393 -1.6435
 2428SOL     OW 8724   2.298   3.999   9.040 -0.5541 -0.2490 -0.6838
 2428SOL    HW1 8725   2.216   3.957   9.068 -0.5340 -0.7672 -1.3634
 2428SOL    HW2 8726   2.363   3.968   9.103 -0.5167 -1.3719 -1.2488
 2429SOL     OW 8727   2.441   2.898   8.709  0.3858 -0.1493  0.1689
 2429SOL    HW1 8728   2.393   2.821   8.681 -2.2322  1.1933  0.6589
 2429SOL    HW2 8729   2.482   2.932   8.629 -0.0752 -0.9380 -0.4138
 2430SOL     OW 8730   7.188   0.650   9.676  0.4215  0.1713  0.6317
 2430SOL    HW1 8731   7.159   0.741   9.673  1.5603  0.5544  0.7574
 2430SOL    HW2 8732   7.236   0.643   9.759  3.5848  0.4972 -1.0374
 2431SOL     OW 8733   0.486   4.560   6.687 -0.1661 -0.1682  0.1352
 2431SOL    HW1 8734   0.561   4.532   6.739 -1.6552 -1.6226  1.6285
 2431SOL    HW2 8735   0.483   4.499   6.614  0.2122  0.0479 -0.0674
 2432SOL     OW 8736   1.607   2.760   8.353 -0.1984  0.1820  0.4216
 2432SOL    HW1 8737   1.680   2.802   8.399  0.1304 -0.5877  0.6233
 2432SOL    HW2 8738   1.581   2.823   8.286  1.0044  0.2463 -0.0050
 2433SOL     OW 8739   1.925   2.028   8.661 -0.0453  0.8068  0.1508
 2433SOL    HW1 8740   1.992   2.090   8.630  2.4239  0.0044  3.3048
 2433SOL    HW2 8741   1.865   2.082   8.712 -0.6657  1.2357 -1.0011
 2434SOL     OW 8742   1.469   1.569   8.013  0.1532 -0.2809 -0.0012
 2434SOL    HW1 8743   1.509   1.612   7.937 -0.9721 -0.9318 -0.9999
 2434SOL    HW2 8744   1.410   1.635   8.049 -0.0920 -0.3098 -0.3399
 2435SOL     OW 8745   6.740   4.556   6.212 -0.0080 -0.5943 -0.1788
 2435SOL    HW1 8746   6.753   4.506   6.132 -2.4594 -2.3346  0.3853
 2435SOL    HW2 8747   6.794   4.634   6.201  0.0883 -0.9788 -3.3068
 2436SOL     OW 8748   7.550   1.496   7.104  0.7947  0.3198  0.2190
 2436SOL    HW1 8749   7.539   1.405   7.133  1.7764  0.5321  1.3481
 2436SOL    HW2 8750   7.465   1.536   7.120  0.3238 -0.4203 -0.3740
 2437SOL     OW 8751   1.029   3.633   8.851 -0.4432 -0.0531  0.1151
 2437SOL    HW1 8752   1.096   3.565   8.860 -0.3377 -0.0007 -0.2807
 2437SOL    HW2 8753   1.075   3.708   8.814 -0.6055  0.1644  0.3514
 2438SOL     OW 8754   1.726   0.274   8.529  0.0705  0.0225 -0.7274
 2438SOL    HW1 8755   1.730   0.326   8.609 -1.7095 -0.5743 -0.1897
 2438SOL    HW2 8756   1.807   0.223   8.529  0.1051  0.0386  0.7045
 2439SOL     OW 8757   2.151   2.147   7.392 -0.4693 -0.1614  0.2147
 2439SOL    HW1 8758   2.206   2.134   7.469  0.1654 -0.4056 -0.2641
 2439SOL    HW2 8759   2.188   2.087   7.326 -1.9917 -1.1577  0.2126
 2440SOL     OW 8760   6.536   4.230   9.294 -0.0349 -0.5329  0.2237
 2440SOL    HW1 8761   6.466   4.277   9.247  0.5243 -0.4859 -0.5817
 2440SOL    HW2 8762   6.538   4.143   9.254  1.8295  0.1584 -1.3416
 2441SOL     OW 8763   2.504   3.858   9.524 -0.7768  0.2309 -0.4296
 2441SOL    HW1 8764   2.448   3.787   9.555 -0.8035 -0.0599 -1.1247
 2441SOL    HW2 8765   2.585   3.816   9.498 -0.3661  0.6058  0.2153
 2442SOL     OW 8766   2.443   2.330   7.497  0.9959 -0.4002 -0.0332
 2442SOL    HW1 8767   2.474   2.353   7.410  1.1144 -1.5990 -0.3311
 2442SOL    HW2 8768   2.456   2.235   7.503 -1.7245 -0.8661  0.1525
 2443SOL     OW 8769   7.243   1.482   6.558 -0.2389 -0.3825  0.4065
 2443SOL    HW1 8770   7.312   1.425   6.525  0.8706  0.2050  1.6071
 2443SOL    HW2 8771   7.170   1.424   6.579  1.3316 -1.6534  2.8971
 2444SOL     OW 8772   1.052   1.246   9.474  0.8345  0.4676  0.3996
 2444SOL    HW1 8773   1.055   1.202   9.390  2.5712  0.0842  0.6194
 2444SOL    HW2 8774   0.961   1.272   9.485  0.6814  1.0644 -1.8695
 2445SOL     OW 8775   0.585   3.499   6.341 -0.2768 -0.1512  0.3525
 2445SOL    HW1 8776   0.558   3.425   6.395  0.0925 -0.3202  0.3090
 2445SOL    HW2 8777   0.665   3.469   6.297  0.8151  0.8454  1.6013
 2446SOL     OW 8778   1.935   4.431   7.243  0.1851 -0.7059 -0.5802
 2446SOL    HW1 8779   2.024   4.433   7.278 -0.1214  0.7364  0.1869
 2446SOL    HW2 8780   1.897   4.515   7.269 -0.9765 -0.7450 -2.0237
 2447SOL     OW 8781   0.168   3.688   6.062 -0.4546  0.2425 -0.2961
 2447SOL    HW1 8782   0.102   3.732   6.116 -0.1949  2.4500 -1.6352
 2447SOL    HW2 8783   0.249   3.698   6.112 -0.5044  0.8332 -0.3191
 2448SOL     OW 8784   1.472   3.628   7.407  0.2212  0.0282  0.0322
 2448SOL    HW1 8785   1.562   3.598   7.408 -0.0612 -0.8825 -0.7777
 2448SOL    HW2 8786   1.467   3.691   7.479  1.9626  1.4750 -1.0417
 2449SOL     OW 8787   2.273   2.475   8.169 -0.3800 -0.1685 -0.5963
 2449SOL    HW1 8788   2.201   2.486   8.231  1.1397  2.2096  0.9299
 2449SOL    HW2 8789   2.240   2.512   8.087 -1.4655 -0.7410 -0.4338
 2450SOL     OW 8790   1.656   4.892   9.379  0.4908  0.4955 -0.3387
 2450SOL    HW1 8791   1.601   4.887   9.457  0.4396  2.1325 -0.2341
 2450SOL    HW2 8792   1.626   4.821   9.323 -0.4126  0.1677  0.5429
 2451SOL     OW 8793   7.720   3.580   5.782  0.0411 -0.0590 -0.3697
 2451SOL    HW1 8794   7.803   3.625   5.794 -0.2746  0.4357 -0.0067
 2451SOL    HW2 8795   7.733   3.494   5.823  0.2374  0.1675  0.0377
 2452SOL     OW 8796   0.183   3.284  10.415 -0.5709 -0.4185  0.2057
 2452SOL    HW1 8797   0.209   3.192  10.423 -0.3438 -0.3417  0.3649
 2452SOL    HW2 8798   0.088   3.284  10.427 -0.6358 -0.6882 -0.2670
 2453SOL     OW 8799   7.989   4.231   5.995 -0.0854  0.0276  0.1142
 2453SOL    HW1 8800   8.061   4.169   5.988  0.0351  0.2283 -0.5748
 2453SOL    HW2 8801   7.910   4.177   5.984  0.0460  0.0833 -1.2963
 2454SOL     OW 8802   1.834   4.235   7.410 -0.0307 -0.0663 -0.1075
 2454SOL    HW1 8803   1.838   4.309   7.350  1.2873 -0.9433 -1.1574
 2454SOL    HW2 8804   1.881   4.265   7.488 -0.0626  0.4149 -0.2706
 2455SOL     OW 8805   6.652   3.046   7.981  0.3594  0.2572 -0.7496
 2455SOL    HW1 8806   6.587   3.116   7.987 -1.1437 -0.9546 -2.1137
 2455SOL    HW2 8807   6.731   3.088   7.947 -0.4211  1.3386 -1.2508
 2456SOL     OW 8808   7.011   2.772   9.142  0.3921  0.1001 -0.2997
 2456SOL    HW1 8809   6.961   2.743   9.066 -0.1836 -0.3708  0.2373
 2456SOL    HW2 8810   6.944   2.804   9.203  0.7195 -0.6569  0.4831
 2457SOL     OW 8811   0.719   2.808   9.608  0.5237 -0.2041 -0.1049
 2457SOL    HW1 8812   0.791   2.827   9.669  0.3914 -1.3446  0.4306
 2457SOL    HW2 8813   0.678   2.892   9.592  0.7634  0.1706  1.1430
 2458SOL     OW 8814   1.322   1.267   7.986 -0.4020  0.1531  0.3752
 2458SOL    HW1 8815   1.317   1.222   7.902 -0.4798  1.2044 -0.1961
 2458SOL    HW2 8816   1.361   1.352   7.965 -0.9675  0.6543  1.3141
 2459SOL     OW 8817   2.525   3.312  11.045 -0.5001  0.0850 -0.2738
 2459SOL    HW1 8818   2.567   3.347  10.966 -0.5242 -1.6221 -1.0961
 2459SOL    HW2 8819   2.525   3.385  11.107  0.9736  1.0033 -1.2889
 2460SOL     OW 8820   0.170   4.288   7.592  0.7150 -0.0611 -0.3049
 2460SOL    HW1 8821   0.225   4.361   7.621 -0.0693 -0.1644  1.5376
 2460SOL    HW2 8822   0.117   4.265   7.668 -1.3675 -0.4722 -1.7863
 2461SOL     OW 8823   0.757   1.932   9.411 -0.2365 -0.1361  0.2310
 2461SOL    HW1 8824   0.670   1.951   9.378  0.3868  0.5238 -1.1092
 2461SOL    HW2 8825   0.816   1.978   9.352  1.1103 -1.8329  0.1604
 2462SOL     OW 8826   7.581   5.080   7.384 -0.2542  0.4342 -0.0286
 2462SOL    HW1 8827   7.520   5.019   7.342  0.7269  0.1838 -1.1406
 2462SOL    HW2 8828   7.560   5.074   7.477 -2.8212  1.3716 -0.4647
 2463SOL     OW 8829   1.768   1.813   8.178 -0.0114 -0.4458  0.4473
 2463SOL    HW1 8830   1.854   1.852   8.161 -0.4277  0.2394 -0.1648
 2463SOL    HW2 8831   1.707   1.867   8.127 -1.1398  0.6820  2.8369
 2464SOL     OW 8832   7.527   3.486   7.358 -0.0290 -0.5132 -0.2113
 2464SOL    HW1 8833   7.541   3.534   7.276  1.0670 -1.6473 -0.7283
 2464SOL    HW2 8834   7.432   3.474   7.363 -0.3244  1.4222 -0.1934
 2465SOL     OW 8835   0.500   1.956   8.024  0.4058 -0.1147  0.0220
 2465SOL    HW1 8836   0.517   1.880   8.080  0.1547 -0.4766 -0.3838
 2465SOL    HW2 8837   0.434   2.006   8.072 -1.6694 -1.6873 -1.0174
 2466SOL     OW 8838   3.254   2.891   7.349  0.1750 -0.3390 -0.2135
 2466SOL    HW1 8839   3.266   2.975   7.394  0.3793 -0.9539  0.9357
 2466SOL    HW2 8840   3.253   2.913   7.256  0.9119  0.8561  0.0384
 2467SOL     OW 8841   1.498   3.926   7.803 -0.2436  0.0126  0.3011
 2467SOL    HW1 8842   1.542   3.850   7.843  0.2533  0.4220  0.5390
 2467SOL    HW2 8843   1.510   3.913   7.709 -0.8904 -0.6376  0.3000
 2468SOL     OW 8844   0.502   4.445   8.231 -0.2287  0.6026 -0.0288
 2468SOL    HW1 8845   0.597   4.442   8.242 -0.3513 -0.2175  0.8912
 2468SOL    HW2 8846   0.476   4.355   8.214 -0.8717  0.7776 -0.0171
 2469SOL     OW 8847   7.875   2.169   8.456  0.1891  0.5581  0.7588
 2469SOL    HW1 8848   7.914   2.085   8.435  0.0294  1.0496 -1.8034
 2469SOL    HW2 8849   7.784   2.162   8.426 -0.1352  1.2831  1.5333
 2470SOL     OW 8850   0.560   3.929   7.403 -0.2535  0.2616 -0.8419
 2470SOL    HW1 8851   0.497   3.860   7.382 -0.3850  0.2510 -0.4231
 2470SOL    HW2 8852   0.537   3.956   7.491  0.2307  0.3710 -0.7478
 2471SOL     OW 8853   4.289   1.461   8.172  0.4856 -0.6995 -0.3987
 2471SOL    HW1 8854   4.368   1.488   8.219  0.8501 -0.6737 -1.0023
 2471SOL    HW2 8855   4.288   1.366   8.179 -0.1299 -0.6236  0.6895
 2472SOL     OW 8856   1.867   5.362   8.364 -0.0834 -0.3236  0.6369
 2472SOL    HW1 8857   1.790   5.342   8.310 -0.9575  0.6776  1.4631
 2472SOL    HW2 8858   1.916   5.280   8.367  0.0459 -0.3819 -1.7321
 2473SOL     OW 8859   7.565   4.203   6.420  0.4755  0.1356  0.2876
 2473SOL    HW1 8860   7.472   4.225   6.410  0.3281 -0.8520 -0.6153
 2473SOL    HW2 8861   7.602   4.214   6.332  1.0782 -0.1249  0.5042
 2474SOL     OW 8862   2.591   0.843   9.310  0.2687 -0.4753 -0.3971
 2474SOL    HW1 8863   2.579   0.800   9.225 -4.2106  2.0789 -1.3552
 2474SOL    HW2 8864   2.678   0.883   9.304  0.5749 -1.3108 -3.3035
 2475SOL     OW 8865   7.465   2.002   9.131 -0.3265 -0.4545 -0.9477
 2475SOL    HW1 8866   7.391   1.963   9.085 -1.2176  0.1555 -0.0505
 2475SOL    HW2 8867   7.431   2.083   9.167  0.0940 -1.2847  1.4690
 2476SOL     OW 8868   7.805   4.246   7.902  0.3799  0.3676 -0.2727
 2476SOL    HW1 8869   7.717   4.281   7.912  0.9196  1.5185  0.7732
 2476SOL    HW2 8870   7.792   4.154   7.877 -1.0894  1.1669 -2.8332
 2477SOL     OW 8871   1.250   4.812   7.768 -0.3001 -0.2561 -0.6245
 2477SOL    HW1 8872   1.217   4.737   7.817 -1.7478  0.3056 -0.6794
 2477SOL    HW2 8873   1.208   4.805   7.682 -1.7150  1.4305 -0.1230
 2478SOL     OW 8874   0.454   0.500   9.739 -0.3045  0.3849  1.3992
 2478SOL    HW1 8875   0.383   0.444   9.771 -1.0474 -0.5509 -1.5121
 2478SOL    HW2 8876   0.411   0.561   9.678  1.0923  1.2785  1.2550
 2479SOL     OW 8877   7.798   1.038   8.600  0.2104  0.2699  0.5817
 2479SOL    HW1 8878   7.819   1.019   8.508 -0.3100 -0.9868  0.7093
 2479SOL    HW2 8879   7.735   0.970   8.625  0.6286  0.3718  1.9820
 2480SOL     OW 8880   2.335   5.270   7.543  0.2089  0.1455  0.6149
 2480SOL    HW1 8881   2.256   5.216   7.551  0.2475 -0.6425 -2.8072
 2480SOL    HW2 8882   2.407   5.208   7.546  0.4084  0.2893 -0.6733
 2481SOL     OW 8883   7.884   1.554   6.460 -0.2863  0.4508  0.4435
 2481SOL    HW1 8884   7.801   1.569   6.505 -0.1752 -0.5514  1.0103
 2481SOL    HW2 8885   7.951   1.567   6.527  0.1346  2.4795 -0.2897
 2482SOL     OW 8886   1.221   4.430   5.317  0.4133  0.5212  0.6006
 2482SOL    HW1 8887   1.187   4.341   5.310 -0.7059  0.8886  1.1844
 2482SOL    HW2 8888   1.316   4.419   5.315  0.3133 -0.7484  1.4362
 2483SOL     OW 8889   0.538   3.682   9.611  0.0845 -0.0588 -0.4822
 2483SOL    HW1 8890   0.491   3.600   9.594  0.1529  0.0843 -1.3963
 2483SOL    HW2 8891   0.490   3.722   9.684  1.4173 -1.9982  1.6132
 2484SOL     OW 8892   1.355   3.712   8.125 -0.0527  0.2591 -0.2337
 2484SOL    HW1 8893   1.374   3.620   8.107  0.0504  0.6405 -2.3116
 2484SOL    HW2 8894   1.441   3.753   8.130 -0.0654  0.1377  1.5393
 2485SOL     OW 8895   0.877   3.048   6.942 -0.3100 -0.2628 -0.1196
 2485SOL    HW1 8896   0.863   3.006   7.027 -1.4089 -1.9762 -1.1104
 2485SOL    HW2 8897   0.814   3.120   6.941 -0.2714 -0.2112  0.5213
 2486SOL     OW 8898   1.247   3.446   6.873 -0.2706  0.5776  0.0961
 2486SOL    HW1 8899   1.313   3.515   6.881  0.4907 -0.0672 -0.4452
 2486SOL    HW2 8900   1.214   3.434   6.962 -0.2055  1.4356  0.2410
 2487SOL     OW 8901   1.888   0.998   8.832  0.0325  0.4459  0.9535
 2487SOL    HW1 8902   1.804   0.971   8.795  0.9290 -0.4490 -0.5589
 2487SOL    HW2 8903   1.930   1.048   8.761  1.8503 -1.4128  0.6391
 2488SOL     OW 8904   0.756   3.357   7.288  0.5951 -0.9308 -0.5117
 2488SOL    HW1 8905   0.802   3.380   7.369  1.3073 -1.2428 -0.8098
 2488SOL    HW2 8906   0.667   3.388   7.300  0.9460 -0.1014  0.0057
 2489SOL     OW 8907   2.250   1.885   7.794  0.1977  0.4788  0.2772
 2489SOL    HW1 8908   2.338   1.880   7.832  0.8930  1.5709 -1.0965
 2489SOL    HW2 8909   2.238   1.978   7.774 -1.0391  0.2528 -0.1073
 2490SOL     OW 8910   0.094   4.035   7.325  0.1577  0.1478  0.1735
 2490SOL    HW1 8911   0.106   3.958   7.381 -0.5463 -0.0409  0.0774
 2490SOL    HW2 8912   0.041   4.003   7.251 -1.2207  0.9819  0.7546
 2491SOL     OW 8913   1.026   3.133  10.402  0.8728 -0.2425  0.0824
 2491SOL    HW1 8914   1.089   3.169  10.464 -0.0171  0.4358  0.6045
 2491SOL    HW2 8915   1.075   3.126  10.320  1.3964  1.0925  0.2634
 2492SOL     OW 8916   1.870   3.634   8.357 -0.0143 -0.0058 -0.5769
 2492SOL    HW1 8917   1.880   3.692   8.281  0.0228 -0.2173 -0.7349
 2492SOL    HW2 8918   1.960   3.617   8.385 -0.0481  0.6028 -0.0780
 2493SOL     OW 8919   7.812   1.021   6.590 -0.0122  0.0980  0.1022
 2493SOL    HW1 8920   7.831   1.110   6.621  1.0305  0.3421 -1.1296
 2493SOL    HW2 8921   7.883   0.967   6.623  0.0169 -0.0348 -0.1731
 2494SOL     OW 8922   2.714   3.454   7.212 -0.2925  0.7371  0.2384
 2494SOL    HW1 8923   2.760   3.372   7.230  0.2130  0.7219 -0.9763
 2494SOL    HW2 8924   2.769   3.498   7.146  1.0309  3.4460  2.9064
 2495SOL     OW 8925   7.415   0.285   5.871  0.0803  0.1894 -0.4333
 2495SOL    HW1 8926   7.423   0.357   5.933  0.9314 -0.7544  0.5951
 2495SOL    HW2 8927   7.324   0.257   5.878  0.5914 -1.1360  1.8726
 2496SOL     OW 8928   0.886   3.987   7.074 -0.0675  0.3885  0.1740
 2496SOL    HW1 8929   0.840   3.949   6.999 -0.7240  2.6130 -0.6151
 2496SOL    HW2 8930   0.929   4.065   7.039  0.5197  0.8778  1.8858
 2497SOL     OW 8931   7.550   2.253   9.454  0.5356  0.0889 -0.2506
 2497SOL    HW1 8932   7.504   2.320   9.505  0.3520 -0.3981  0.2282
 2497SOL    HW2 8933   7.492   2.234   9.381  0.1991 -0.1598  0.0766
 2498SOL     OW 8934   0.312   3.761   7.373 -0.4553  0.0791  0.2535
 2498SOL    HW1 8935   0.260   3.731   7.299 -0.4961  1.2685 -0.2145
 2498SOL    HW2 8936   0.258   3.740   7.450 -1.3936  0.7955 -0.1856
 2499SOL     OW 8937   2.442   4.003   6.455 -0.2423 -0.0929  0.0437
 2499SOL    HW1 8938   2.415   4.095   6.455 -0.9475 -0.2786  1.3918
 2499SOL    HW2 8939   2.535   4.006   6.478 -0.1252  0.3090 -0.4657
 2500SOL     OW 8940   2.348   3.574   7.147 -0.2715 -0.2930  0.2411
 2500SOL    HW1 8941   2.409   3.590   7.075  0.6746  0.1689  1.1295
 2500SOL    HW2 8942   2.377   3.492   7.186  1.2149  1.0223  2.0546
 2501SOL     OW 8943   6.921   6.205   9.424  0.5383  0.1714  0.0091
 2501SOL    HW1 8944   6.995   6.183   9.480  0.6201  0.1271 -0.1166
 2501SOL    HW2 8945   6.890   6.289   9.456  1.4540  0.8239 -0.7650
 2502SOL     OW 8946   1.714   2.786   8.018  0.2194  0.2572 -0.4470
 2502SOL    HW1 8947   1.706   2.801   7.923  1.5673  2.1022 -0.3152
 2502SOL    HW2 8948   1.642   2.837   8.056 -0.8420 -1.1464 -0.4650
 2503SOL     OW 8949   3.734   1.828   6.870 -0.2637  0.1838 -0.3559
 2503SOL    HW1 8950   3.746   1.802   6.778  0.4894  2.2798 -0.9054
 2503SOL    HW2 8951   3.823   1.825   6.907 -0.0523  2.2867 -0.5796
 2504SOL     OW 8952   1.498   2.381   6.802 -0.1548 -0.1893  0.3619
 2504SOL    HW1 8953   1.426   2.364   6.741  0.2279  0.0493 -0.1565
 2504SOL    HW2 8954   1.455   2.421   6.878 -0.4888  0.7233 -0.2773
 2505SOL     OW 8955   2.137   3.669   8.373 -0.2728  0.4415 -0.0224
 2505SOL    HW1 8956   2.194   3.684   8.298  0.7274 -1.4013  0.3060
 2505SOL    HW2 8957   2.197   3.654   8.446 -1.1519 -1.1540  0.4168
 2506SOL     OW 8958   0.889   1.938   8.915 -0.0875  0.4845 -0.0703
 2506SOL    HW1 8959   0.855   2.027   8.917  1.9321  1.3177  0.0843
 2506SOL    HW2 8960   0.918   1.926   8.825 -1.1949 -0.3919 -0.3308
 2507SOL     OW 8961   0.997   2.268   6.044 -0.4458 -0.0639  0.6843
 2507SOL    HW1 8962   1.003   2.317   5.963  1.1800 -2.6199 -0.8922
 2507SOL    HW2 8963   0.904   2.245   6.052 -0.7065  0.6682 -0.1734
 2508SOL     OW 8964   0.898   1.516   7.484 -0.0848  0.2645 -0.0781
 2508SOL    HW1 8965   0.889   1.436   7.432 -2.9885 -0.0999  0.8429
 2508SOL    HW2 8966   0.813   1.528   7.525  1.2251  2.1017  2.3700
 2509SOL     OW 8967   1.690   3.222   8.207 -0.1226 -0.4372  0.1526
 2509SOL    HW1 8968   1.752   3.210   8.279  1.4428 -0.7124 -1.1913
 2509SOL    HW2 8969   1.616   3.267   8.247  0.9269 -0.1054  1.8215
 2510SOL     OW 8970   1.018   5.160   7.102 -0.4681 -0.5144  0.2509
 2510SOL    HW1 8971   1.086   5.186   7.040 -1.7197 -0.6053 -1.2358
 2510SOL    HW2 8972   0.973   5.087   7.059 -2.2677  0.3131  0.6137
 2511SOL     OW 8973   2.599   1.223   7.225 -0.1838  0.0641 -0.0480
 2511SOL    HW1 8974   2.544   1.235   7.302 -1.0877 -1.5061 -0.4120
 2511SOL    HW2 8975   2.661   1.296   7.229 -2.3900  2.0660  0.2624
 2512SOL     OW 8976   7.051   3.555   5.901 -0.9339 -0.6366  0.5607
 2512SOL    HW1 8977   7.077   3.528   5.989 -1.3882  0.0494  0.9157
 2512SOL    HW2 8978   7.087   3.488   5.843  1.1958  0.0005  1.0675
 2513SOL     OW 8979   5.489   1.726   9.878 -1.0775 -0.0038 -0.2105
 2513SOL    HW1 8980   5.552   1.751   9.810  0.5652  0.3171  1.3386
 2513SOL    HW2 8981   5.462   1.637   9.854 -1.3333  0.4650 -1.8007
 2514SOL     OW 8982   0.521   3.295   6.491  0.1603 -0.5226 -0.1553
 2514SOL    HW1 8983   0.592   3.231   6.494  1.3332  0.7247 -0.1866
 2514SOL    HW2 8984   0.457   3.257   6.432  0.9910 -1.5015 -0.4544
 2515SOL     OW 8985   1.054   2.849   7.509  0.2758  0.0437 -0.4987
 2515SOL    HW1 8986   0.959   2.857   7.497  0.3198  2.3738  0.2611
 2515SOL    HW2 8987   1.068   2.756   7.526 -2.4806  0.1330  3.7586
 2516SOL     OW 8988   0.472   2.451   9.038 -0.2498  0.3195  0.2444
 2516SOL    HW1 8989   0.423   2.492   8.966  0.4389  2.2225  0.8025
 2516SOL    HW2 8990   0.417   2.463   9.115 -0.0895  0.0849  0.3985
 2517SOL     OW 8991   2.529   2.704   8.053  0.5009  0.1480  0.4542
 2517SOL    HW1 8992   2.518   2.787   8.006  0.3114 -0.2331 -0.1968
 2517SOL    HW2 8993   2.542   2.729   8.144 -0.4950  0.8605  0.4222
 2518SOL     OW 8994   0.773   3.399   8.395  0.3127  0.1160 -0.1019
 2518SOL    HW1 8995   0.863   3.431   8.392 -0.2462  1.8626  0.5604
 2518SOL    HW2 8996   0.773   3.331   8.462  1.0782  0.3367  0.1243
 2519SOL     OW 8997   7.874   3.353   6.684  0.0548  0.0649 -0.1720
 2519SOL    HW1 8998   7.877   3.279   6.745 -2.0869 -0.8867 -1.1125
 2519SOL    HW2 8999   7.950   3.340   6.627 -0.3367 -1.5273 -0.3957
 2520SOL     OW 9000   0.501   2.731   9.248 -0.3037 -0.2991  0.4035
 2520SOL    HW1 9001   0.422   2.682   9.272  0.3461 -1.3249  0.5040
 2520SOL    HW2 9002   0.573   2.678   9.281  0.4717  0.1251 -0.5559
 2521SOL     OW 9003   0.559   4.912   8.507 -0.4851  0.2488 -0.7098
 2521SOL    HW1 9004   0.640   4.877   8.545 -0.2918  1.3801 -0.0354
 2521SOL    HW2 9005   0.492   4.890   8.572 -0.5402  0.2670 -0.7606
 2522SOL     OW 9006   0.395   0.950   4.986 -0.4892  0.1746  0.2030
 2522SOL    HW1 9007   0.428   0.861   4.972  1.5213  0.5888  1.8718
 2522SOL    HW2 9008   0.311   0.937   5.029  0.8831 -1.0113  2.7414
 2523SOL     OW 9009   7.711   4.250   8.272  0.4597  0.4066  0.0410
 2523SOL    HW1 9010   7.684   4.210   8.189  0.1119 -1.6667  1.0969
 2523SOL    HW2 9011   7.639   4.308   8.295 -0.6852 -1.0025  0.1631
 2524SOL     OW 9012   2.654   2.538   7.702 -0.0760  0.0653 -0.1703
 2524SOL    HW1 9013   2.562   2.515   7.688 -0.1086  0.8892 -1.4647
 2524SOL    HW2 9014   2.651   2.615   7.758 -0.1209 -0.5852  0.7348
 2525SOL     OW 9015   1.217   2.574   7.858 -0.5226 -0.2331 -0.0513
 2525SOL    HW1 9016   1.297   2.621   7.879  0.8889 -2.5629  0.2038
 2525SOL    HW2 9017   1.188   2.538   7.942 -3.7333  3.1225  0.4880
 2526SOL     OW 9018   1.726   2.661   9.362 -0.8378  0.5825 -0.2450
 2526SOL    HW1 9019   1.687   2.748   9.374 -0.3094  0.6278  1.5675
 2526SOL    HW2 9020   1.821   2.676   9.369 -0.2512  0.5604 -5.1079
 2527SOL     OW 9021   1.259   2.545   5.615 -0.6017  0.8759 -0.3001
 2527SOL    HW1 9022   1.283   2.539   5.523 -1.7714 -1.1975 -0.5363
 2527SOL    HW2 9023   1.170   2.580   5.614 -1.5068 -1.2684 -0.1700
 2528SOL     OW 9024   0.954   4.117   7.990  0.6932  0.1383 -0.3090
 2528SOL    HW1 9025   0.986   4.071   7.913  1.1193 -1.6216  0.8542
 2528SOL    HW2 9026   1.019   4.098   8.058  0.1547  1.3554  0.5916
 2529SOL     OW 9027   7.545   2.037  10.042  0.0952 -0.3248  0.2124
 2529SOL    HW1 9028   7.457   2.076  10.041 -0.3681 -1.2788  1.4851
 2529SOL    HW2 9029   7.601   2.107  10.076 -0.5482 -0.3765  1.4514
 2530SOL     OW 9030   6.044   3.244  10.230  0.4511  0.2601  0.1151
 2530SOL    HW1 9031   6.136   3.244  10.257  0.7442  1.5759 -0.7672
 2530SOL    HW2 9032   6.033   3.329  10.187 -0.2989 -1.2111 -2.7930
 2531SOL     OW 9033   5.448   1.638  10.543 -0.0880  1.0217 -0.1520
 2531SOL    HW1 9034   5.432   1.694  10.467 -0.1255  0.0094 -0.9134
 2531SOL    HW2 9035   5.370   1.647  10.597  0.0895  2.0246 -0.0510
 2532SOL     OW 9036   0.475   3.411   9.646 -0.1547 -0.2695 -0.4006
 2532SOL    HW1 9037   0.561   3.381   9.616 -0.5263 -3.3237  1.1712
 2532SOL    HW2 9038   0.414   3.378   9.579 -0.2094  1.7517 -1.4299
 2533SOL     OW 9039   1.116   5.273  10.097 -0.5393  0.2248  0.1027
 2533SOL    HW1 9040   1.125   5.212  10.170  0.0560 -2.0293 -1.7039
 2533SOL    HW2 9041   1.026   5.260  10.066 -0.5367  0.5561 -0.0455
 2534SOL     OW 9042   2.696   3.128   9.506 -0.0705  0.0620  0.3071
 2534SOL    HW1 9043   2.754   3.112   9.581 -0.8039  0.9337  1.0771
 2534SOL    HW2 9044   2.665   3.217   9.518 -1.1747 -0.2126 -0.3800
 2535SOL     OW 9045   1.286   1.621   9.436 -0.5405 -0.3890 -0.0176
 2535SOL    HW1 9046   1.264   1.640   9.345  2.0722  2.0260 -0.2980
 2535SOL    HW2 9047   1.332   1.537   9.432  2.2098  1.0319 -1.5536
 2536SOL     OW 9048   1.373   4.463  10.764  0.3044 -0.0042 -0.1022
 2536SOL    HW1 9049   1.396   4.552  10.738 -1.4947  0.9563  1.3176
 2536SOL    HW2 9050   1.324   4.428  10.689 -1.1981  1.1902  0.2675
 2537SOL     OW 9051   7.081   2.738  10.294 -0.1194  0.0577  0.5100
 2537SOL    HW1 9052   6.986   2.737  10.280 -0.1325 -1.5656  0.6236
 2537SOL    HW2 9053   7.118   2.719  10.207  0.1345  0.9777  0.4003
 2538SOL     OW 9054   7.820   1.757   9.892 -0.5548 -0.2526 -0.7569
 2538SOL    HW1 9055   7.890   1.753   9.826  2.3244  1.4720  1.9160
 2538SOL    HW2 9056   7.830   1.677   9.943  0.0660  0.3494  0.1024
 2539SOL     OW 9057   0.296   4.992  10.928  0.1051 -0.0864  0.5164
 2539SOL    HW1 9058   0.361   5.032  10.870 -1.7206  0.6518 -1.1262
 2539SOL    HW2 9059   0.347   4.933  10.983  2.2032  0.6839 -0.4746
 2540SOL     OW 9060   0.712   4.249  10.496  0.1911  0.0330  0.4629
 2540SOL    HW1 9061   0.725   4.161  10.531 -4.3450 -0.4800  1.4964
 2540SOL    HW2 9062   0.702   4.304  10.574  0.7135  1.0277 -0.1617
 2541SOL     OW 9063   0.744   2.381  11.562  0.0987 -0.3767  0.0225
 2541SOL    HW1 9064   0.736   2.319  11.635  1.3480 -0.7563 -0.1325
 2541SOL    HW2 9065   0.695   2.458  11.590  0.1546 -0.7046  1.0634
 2542SOL     OW 9066   0.205   3.246  11.106  0.0208  0.8670  0.0074
 2542SOL    HW1 9067   0.300   3.241  11.096 -0.0241  0.4517 -0.2308
 2542SOL    HW2 9068   0.170   3.216  11.022 -0.3473 -1.7361  1.0079
 2543SOL     OW 9069   0.616   2.295  11.330 -0.0120  0.5187  0.2650
 2543SOL    HW1 9070   0.521   2.308  11.334 -0.0158  1.0308 -0.9712
 2543SOL    HW2 9071   0.651   2.346  11.403 -0.7796 -0.9389  1.7081
 2544SOL     OW 9072   6.952   2.793  11.325 -0.2465 -0.0762  0.0928
 2544SOL    HW1 9073   6.880   2.757  11.272 -1.0305 -0.1022  1.1433
 2544SOL    HW2 9074   7.017   2.821  11.261 -0.6649 -1.1639 -0.8461
 2545SOL     OW 9075   1.077   3.127  11.594 -0.0560  0.3792 -0.0070
 2545SOL    HW1 9076   1.028   3.204  11.622 -1.1443 -0.5498  0.7280
 2545SOL    HW2 9077   1.030   3.053  11.633  1.5723 -0.5994  0.1994
 2546SOL     OW 9078   1.234   4.334  10.125  0.3767 -0.0071 -0.3474
 2546SOL    HW1 9079   1.259   4.396  10.056 -1.9567 -0.2462 -1.4896
 2546SOL    HW2 9080   1.304   4.342  10.190  1.7324  1.5502 -1.8841
 2547SOL     OW 9081   0.547   2.864  10.435  0.3056  0.5285 -0.0078
 2547SOL    HW1 9082   0.632   2.832  10.463 -0.4057 -0.9714  0.5375
 2547SOL    HW2 9083   0.532   2.943  10.488  0.5380 -0.2715  1.2845
 2548SOL     OW 9084   7.237   3.659  10.025  0.6739 -0.1465  0.2058
 2548SOL    HW1 9085   7.145   3.664   9.999  0.3736 -1.0692  1.0314
 2548SOL    HW2 9086   7.257   3.566  10.023  1.4132 -0.0005  0.6554
 2549SOL     OW 9087   1.287   1.525  10.206 -0.1085 -0.2370  0.2263
 2549SOL    HW1 9088   1.256   1.595  10.149 -0.1324 -0.9891 -0.7035
 2549SOL    HW2 9089   1.381   1.541  10.215 -0.1007 -0.1321 -0.0465
 2550SOL     OW 9090   2.036   1.567  11.016 -0.0355  0.0480 -0.2917
 2550SOL    HW1 9091   2.066   1.482  11.049 -2.1382 -0.6388  0.0185
 2550SOL    HW2 9092   1.977   1.545  10.944  0.0270  1.3126 -0.7566
 2551SOL     OW 9093   0.722   2.132   8.535 -0.1150  0.2015 -0.3849
 2551SOL    HW1 9094   0.699   2.145   8.443 -0.6824 -0.3755 -0.3362
 2551SOL    HW2 9095   0.647   2.086   8.572  0.4787 -0.3564  0.1586
 2552SOL     OW 9096   1.892   4.645   9.533 -0.0814  0.0923 -0.7375
 2552SOL    HW1 9097   1.975   4.643   9.580 -0.6860  0.9164  0.4052
 2552SOL    HW2 9098   1.912   4.607   9.447  1.4346  0.1729 -0.4394
 2553SOL     OW 9099   7.672   4.313   8.572  0.0219 -0.6049  0.6083
 2553SOL    HW1 9100   7.717   4.358   8.644  1.1337 -0.3407 -0.2193
 2553SOL    HW2 9101   7.647   4.383   8.512 -0.7299 -0.8427  0.6354
 2554SOL     OW 9102   1.452   3.780  10.294  0.3372 -0.1821 -0.0058
 2554SOL    HW1 9103   1.375   3.801  10.347 -0.6405 -0.1395 -1.3865
 2554SOL    HW2 9104   1.459   3.685  10.300  1.6273 -0.0261  2.0070
 2555SOL     OW 9105   2.399   5.194  10.429 -0.0814  0.3672 -0.1415
 2555SOL    HW1 9106   2.428   5.148  10.350 -0.7632  0.9066 -0.7208
 2555SOL    HW2 9107   2.341   5.131  10.473  1.4389 -0.4895  0.7138
 2556SOL     OW 9108   1.201   3.096  10.206  0.1910  0.4255 -0.1169
 2556SOL    HW1 9109   1.244   3.181  10.220  0.9275  0.1070 -0.3685
 2556SOL    HW2 9110   1.232   3.068  10.120 -0.4239  0.1175 -0.2420
 2557SOL     OW 9111   0.254   1.616   8.199  0.7676  0.1114  0.6624
 2557SOL    HW1 9112   0.274   1.534   8.153 -0.7151 -0.3477  0.7658
 2557SOL    HW2 9113   0.194   1.663   8.140  1.1205  0.8381  0.8723
 2558SOL     OW 9114   1.378   3.846  10.821  0.5458 -0.2251 -0.1822
 2558SOL    HW1 9115   1.308   3.898  10.859 -0.8403 -1.4860 -0.8821
 2558SOL    HW2 9116   1.455   3.903  10.822 -0.7085  1.5323 -0.2319
 2559SOL     OW 9117   7.908   1.953  10.055  0.2880 -0.3375 -0.2491
 2559SOL    HW1 9118   7.868   1.895   9.990 -0.4932  0.3609 -0.3979
 2559SOL    HW2 9119   7.969   2.006  10.004  1.9305 -1.8236  0.0694
 2560SOL     OW 9120   0.876   3.648  10.164 -0.2515  0.3683 -0.9520
 2560SOL    HW1 9121   0.799   3.701  10.139 -0.4829 -0.3275 -1.7803
 2560SOL    HW2 9122   0.882   3.582  10.094 -0.8607 -1.6261  0.7755
 2561SOL     OW 9123   2.508   3.038   8.956  0.2957 -0.4258 -0.3234
 2561SOL    HW1 9124   2.522   3.128   8.926 -1.1332  0.1143  0.5453
 2561SOL    HW2 9125   2.467   2.994   8.881  0.0764 -0.0743 -0.4111
 2562SOL     OW 9126   0.443   4.007  11.686  0.3971  0.5902  0.0640
 2562SOL    HW1 9127   0.404   3.976  11.768  0.8605  0.4946  0.2526
 2562SOL    HW2 9128   0.423   3.938  11.623  0.0583  0.6529  0.1003
 2563SOL     OW 9129   1.203   2.528  11.338  0.1214  0.3658 -1.5739
 2563SOL    HW1 9130   1.126   2.534  11.395  1.1519 -0.1854 -0.0550
 2563SOL    HW2 9131   1.175   2.472  11.265 -0.9242  0.2006 -1.0672
 2564SOL     OW 9132   1.511   1.906  11.290 -0.1735 -0.3711 -0.1396
 2564SOL    HW1 9133   1.597   1.916  11.249 -0.4193 -1.1242 -0.8822
 2564SOL    HW2 9134   1.449   1.915  11.217 -0.6016 -2.2509 -0.0598
 2565SOL     OW 9135   2.633   2.076  10.440  0.0450  0.4155  0.4493
 2565SOL    HW1 9136   2.726   2.100  10.450 -0.0532  1.3249 -0.6052
 2565SOL    HW2 9137   2.635   1.982  10.421  0.7595  0.4313  0.3924
 2566SOL     OW 9138   0.713   3.936  10.352 -0.1073 -0.0106  0.3441
 2566SOL    HW1 9139   0.635   3.976  10.390 -0.3538 -0.5403  0.4047
 2566SOL    HW2 9140   0.767   3.914  10.428  0.4697  1.0732  0.2714
 2567SOL     OW 9141   1.259   4.046  10.581 -0.1387 -0.0877 -0.2761
 2567SOL    HW1 9142   1.289   4.123  10.630 -1.1460  0.5312 -0.5870
 2567SOL    HW2 9143   1.313   3.974  10.614 -0.3976  0.4089  1.3538
 2568SOL     OW 9144   2.689   5.116   7.632  0.1941  0.0772  0.0654
 2568SOL    HW1 9145   2.768   5.088   7.586  0.3289  0.6454 -0.0492
 2568SOL    HW2 9146   2.635   5.037   7.636  1.0492 -0.5081  0.7437
 2569SOL     OW 9147   1.179   3.354  10.511 -0.2502  0.0663  0.2901
 2569SOL    HW1 9148   1.119   3.405  10.456  0.2511  0.5355  0.1697
 2569SOL    HW2 9149   1.212   3.416  10.575  1.2051  0.1969 -0.5323
 2570SOL     OW 9150   0.583   1.913  11.448  0.2578  0.0113 -0.7606
 2570SOL    HW1 9151   0.607   1.844  11.386  1.2209 -0.7005  0.3602
 2570SOL    HW2 9152   0.665   1.961  11.463  0.0658  0.0963  0.0516
 2571SOL     OW 9153   0.502   0.898  10.766 -0.4602  0.8593 -0.0360
 2571SOL    HW1 9154   0.495   0.993  10.764  1.5384  1.0624  0.6453
 2571SOL    HW2 9155   0.411   0.867  10.760 -1.0664  2.7359 -1.8416
 2572SOL     OW 9156   0.626   3.618  11.617  0.1280  0.1463  0.5337
 2572SOL    HW1 9157   0.614   3.544  11.676  2.1981  0.4930  1.4790
 2572SOL    HW2 9158   0.680   3.584  11.545 -0.4662  0.2853  0.0163
 2573SOL     OW 9159   7.854   4.192  10.911  0.1959  0.4039 -0.6412
 2573SOL    HW1 9160   7.929   4.246  10.888  2.1565 -1.6685  0.4160
 2573SOL    HW2 9161   7.872   4.108  10.869 -0.8462 -0.5329  0.6821
 2574SOL     OW 9162   7.075   4.112   9.331  0.1732  0.2161  0.1425
 2574SOL    HW1 9163   7.127   4.133   9.253  0.2715  2.0590  0.6575
 2574SOL    HW2 9164   7.022   4.190   9.347 -1.9716 -1.1836  0.3108
 2575SOL     OW 9165   7.070   1.774  12.302  0.4043  0.2965 -0.6007
 2575SOL    HW1 9166   7.144   1.764  12.361  0.7158  0.9864 -0.8710
 2575SOL    HW2 9167   7.085   1.710  12.232  0.3404 -0.1006 -0.2570
 2576SOL     OW 9168   7.948   1.439  10.014  0.9320 -0.0700  0.3001
 2576SOL    HW1 9169   8.010   1.431  10.086  0.6955  0.4333  0.5602
 2576SOL    HW2 9170   7.873   1.484  10.052  0.4726 -0.5220 -0.0567
 2577SOL     OW 9171   1.424   2.015  12.424 -0.9569  0.0968 -0.2274
 2577SOL    HW1 9172   1.366   1.948  12.460  1.6041 -1.1084  1.9575
 2577SOL    HW2 9173   1.495   1.967  12.383  1.4302  1.3301  2.1807
 2578SOL     OW 9174   1.447   7.265   8.605  0.3441 -0.1430  0.2646
 2578SOL    HW1 9175   1.452   7.207   8.681  3.7304  0.4834  0.7098
 2578SOL    HW2 9176   1.376   7.325   8.626 -0.3812 -1.4467  1.8061
 2579SOL     OW 9177   7.517   1.145  10.893  0.3740  0.5742 -0.8370
 2579SOL    HW1 9178   7.492   1.184  10.977  1.5421  1.1857 -0.7597
 2579SOL    HW2 9179   7.434   1.115  10.855  0.0739 -3.0570  2.1461
 2580SOL     OW 9180   0.656   4.770   9.489 -0.0084 -0.1749 -0.1617
 2580SOL    HW1 9181   0.699   4.689   9.462  1.7449  0.4893  0.5125
 2580SOL    HW2 9182   0.701   4.796   9.569 -0.7442  1.3168 -0.1920
 2581SOL     OW 9183   0.086   5.222  11.248 -0.4418 -0.4431  1.0928
 2581SOL    HW1 9184   0.099   5.142  11.197  0.8276  0.1269  0.4871
 2581SOL    HW2 9185   0.029   5.196  11.320 -0.5841 -1.7345  0.5322
 2582SOL     OW 9186   2.001   4.322   8.375  0.0018  0.1017  0.3512
 2582SOL    HW1 9187   2.085   4.287   8.403 -0.6551 -0.3898  1.7738
 2582SOL    HW2 9188   1.942   4.308   8.449 -0.6687  2.9209  0.4581
 2583SOL     OW 9189   2.216   4.557   9.583 -0.1920 -0.1366 -0.1319
 2583SOL    HW1 9190   2.238   4.635   9.531 -0.2328  0.5169  0.8175
 2583SOL    HW2 9191   2.156   4.589   9.650 -0.1616 -0.9838  0.3092
 2584SOL     OW 9192   6.458   2.881   7.310 -0.2020  0.5433  0.3486
 2584SOL    HW1 9193   6.493   2.792   7.305  1.7492  1.3365 -1.9977
 2584SOL    HW2 9194   6.380   2.873   7.364  0.1413 -2.5168  0.5464
 2585SOL     OW 9195   0.001   3.881   9.674  0.1671  0.3131 -0.2085
 2585SOL    HW1 9196   0.005   3.852   9.583 -0.6020 -0.4377 -0.0188
 2585SOL    HW2 9197  -0.013   3.800   9.724  0.2169  0.7593  0.5373
 2586SOL     OW 9198   1.627   3.252  10.534 -0.2459 -0.6774  0.2012
 2586SOL    HW1 9199   1.688   3.315  10.495 -0.6403  0.9310  2.0322
 2586SOL    HW2 9200   1.683   3.192  10.583  0.0124 -0.5666  0.0423
 2587SOL     OW 9201   0.665   4.585   7.729  0.1204  0.3061 -0.4460
 2587SOL    HW1 9202   0.746   4.579   7.679  0.2129 -0.8173 -0.1774
 2587SOL    HW2 9203   0.652   4.498   7.765 -0.3163  0.9154  0.9294
 2588SOL     OW 9204   7.213   2.299  11.033  0.5007 -0.4101 -0.3513
 2588SOL    HW1 9205   7.190   2.389  11.010  1.5923 -0.1280 -0.4130
 2588SOL    HW2 9206   7.295   2.308  11.082 -0.0525 -1.2694  0.7623
 2589SOL     OW 9207   2.837   3.768   8.363 -0.2232 -0.0830  0.7797
 2589SOL    HW1 9208   2.874   3.856   8.364 -0.1954 -0.0964  1.2732
 2589SOL    HW2 9209   2.863   3.731   8.279 -1.6879  1.0005 -0.2089
 2590SOL     OW 9210   7.823   4.439   8.739 -0.5133  0.7734 -0.3233
 2590SOL    HW1 9211   7.919   4.445   8.747 -0.5820 -0.2512  2.5891
 2590SOL    HW2 9212   7.791   4.518   8.783 -1.0048  0.3689  0.0589
 2591SOL     OW 9213   0.945   3.431   9.718 -0.0771 -0.0705  0.1500
 2591SOL    HW1 9214   1.026   3.460   9.761  0.0646 -1.1027  0.6129
 2591SOL    HW2 9215   0.970   3.421   9.626  0.0950  0.4244  0.1389
 2592SOL     OW 9216   1.956   2.813   8.142 -0.3135 -0.2496 -0.2422
 2592SOL    HW1 9217   1.860   2.822   8.137 -0.1297  1.5823 -1.2375
 2592SOL    HW2 9218   1.987   2.840   8.056  1.2608  2.0650  0.9597
 2593SOL     OW 9219   1.394   3.995   9.335 -0.0612 -0.3565  0.2046
 2593SOL    HW1 9220   1.446   4.075   9.345 -0.9383  0.5572 -1.9318
 2593SOL    HW2 9221   1.453   3.933   9.293  0.3103 -0.4958  0.9201
 2594SOL     OW 9222   0.328   2.936   9.109  0.3720  0.4587 -0.3176
 2594SOL    HW1 9223   0.243   2.893   9.100 -1.1620  3.2422 -0.2556
 2594SOL    HW2 9224   0.382   2.873   9.158 -1.5718 -1.4494 -0.4781
 2595SOL     OW 9225   1.418   2.257  11.386 -0.2801  0.4330 -0.0466
 2595SOL    HW1 9226   1.510   2.250  11.411 -0.7840 -0.6301  1.6803
 2595SOL    HW2 9227   1.393   2.345  11.412  0.1492  0.5898 -0.1533
 2596SOL     OW 9228   0.256   1.682   9.928 -0.4312  0.4066  0.2595
 2596SOL    HW1 9229   0.197   1.677  10.003  0.9864 -0.8588  1.3566
 2596SOL    HW2 9230   0.266   1.776   9.912 -2.6448  0.6638  0.0612
 2597SOL     OW 9231   2.347   0.763  10.860 -0.4376 -0.1062  0.2197
 2597SOL    HW1 9232   2.274   0.701  10.857 -1.2702  0.7759  1.4043
 2597SOL    HW2 9233   2.411   0.721  10.918 -2.0476  1.1214  3.0996
 2598SOL     OW 9234   1.770   4.466   9.674 -0.0590  0.3291 -0.2669
 2598SOL    HW1 9235   1.818   4.518   9.610 -0.7547  0.4666 -0.6872
 2598SOL    HW2 9236   1.791   4.375   9.652 -1.1674  0.3216 -1.4225
 2599SOL     OW 9237   0.028   2.750   9.917 -0.3514 -0.3623  0.2308
 2599SOL    HW1 9238  -0.060   2.724   9.892 -0.5130  1.4573 -1.2400
 2599SOL    HW2 9239   0.017   2.795  10.001 -0.7630 -0.4481  0.2239
 2600SOL     OW 9240   0.421   1.261  10.985 -0.0097  0.2353 -0.3957
 2600SOL    HW1 9241   0.450   1.338  11.033  0.7980 -0.3919  0.1585
 2600SOL    HW2 9242   0.327   1.257  10.999 -0.2893  1.8411 -1.5065
 2601SOL     OW 9243   7.286   2.044  10.622  0.3472 -0.3560 -0.0935
 2601SOL    HW1 9244   7.306   2.134  10.648 -0.0259 -0.7676  1.7410
 2601SOL    HW2 9245   7.267   2.050  10.528 -1.7723  1.8679  0.3714
 2602SOL     OW 9246   0.552   3.613  10.381  0.2394 -0.2734  0.3828
 2602SOL    HW1 9247   0.543   3.608  10.476  0.8912  0.2432  0.4787
 2602SOL    HW2 9248   0.598   3.696  10.365  2.6695 -1.6278 -0.1859
 2603SOL     OW 9249   0.783   4.332   8.846 -0.1595 -0.4638  0.1092
 2603SOL    HW1 9250   0.724   4.284   8.903 -1.2243 -1.4984 -1.7781
 2603SOL    HW2 9251   0.731   4.352   8.768  0.9507  1.7317 -0.1510
 2604SOL     OW 9252   0.781   1.709  10.158  0.4232 -0.6978  0.0260
 2604SOL    HW1 9253   0.861   1.730  10.205 -0.9122  0.8192  1.8067
 2604SOL    HW2 9254   0.803   1.633  10.105  3.3494  0.3791 -0.5068
 2605SOL     OW 9255   0.782   1.752  11.654  0.4473 -0.6423 -0.0700
 2605SOL    HW1 9256   0.819   1.701  11.582 -1.3350 -1.1754 -0.6559
 2605SOL    HW2 9257   0.699   1.709  11.673 -0.0076  0.6632  1.0247
 2606SOL     OW 9258   0.778   4.314  10.012  0.0668 -0.1965  0.0965
 2606SOL    HW1 9259   0.800   4.261  10.089  1.5198  0.1076 -0.0774
 2606SOL    HW2 9260   0.763   4.250   9.943 -2.2255 -0.5193  0.8239
 2607SOL     OW 9261   2.061   3.414   9.139  0.1302  0.3430  0.0931
 2607SOL    HW1 9262   1.996   3.481   9.161 -0.0080 -0.3861  2.0806
 2607SOL    HW2 9263   2.116   3.406   9.217 -0.6096 -2.6720  0.4463
 2608SOL     OW 9264   0.809   2.100  11.417  0.1648 -0.0078 -0.6305
 2608SOL    HW1 9265   0.875   2.138  11.358 -0.2752 -0.1288 -1.2085
 2608SOL    HW2 9266   0.730   2.151  11.400 -0.1230 -0.4339 -0.5770
 2609SOL     OW 9267   1.849   3.826   9.537 -0.3159  0.4269  0.4218
 2609SOL    HW1 9268   1.877   3.815   9.627  1.5140  0.4677 -0.0851
 2609SOL    HW2 9269   1.765   3.781   9.531  0.1606 -0.7185  1.8187
 2610SOL     OW 9270   1.660   4.408   9.379 -0.1212  0.2037  0.3369
 2610SOL    HW1 9271   1.747   4.388   9.344  0.1537  0.7736  0.6758
 2610SOL    HW2 9272   1.634   4.488   9.333 -0.0685  0.5497  0.9069
 2611SOL     OW 9273   4.364   3.755  11.673 -0.3369 -0.7462 -0.4581
 2611SOL    HW1 9274   4.431   3.788  11.732 -1.0705 -0.2018  0.0968
 2611SOL    HW2 9275   4.309   3.699  11.728 -0.5631 -0.8835 -0.8160
 2612SOL     OW 9276   0.630   2.421  10.246  0.4638  0.2766 -0.3553
 2612SOL    HW1 9277   0.650   2.447  10.336  0.7913  1.3112 -0.7135
 2612SOL    HW2 9278   0.607   2.328  10.252  0.4424  0.3440  0.7976
 2613SOL     OW 9279   0.168   2.538  10.211 -0.3725 -0.4132 -0.5647
 2613SOL    HW1 9280   0.194   2.450  10.239 -0.8032 -0.2016  0.5863
 2613SOL    HW2 9281   0.238   2.567  10.154  1.1277 -0.4936  1.1571
 2614SOL     OW 9282   1.846   1.855   9.660 -0.2468 -0.1754  0.0581
 2614SOL    HW1 9283   1.863   1.946   9.635 -0.3612 -0.1226  0.1756
 2614SOL    HW2 9284   1.932   1.820   9.685 -0.5718  0.6717  2.6117
 2615SOL     OW 9285   7.468   3.755   9.940 -0.4318 -0.1282  0.0883
 2615SOL    HW1 9286   7.387   3.726   9.982  0.2269  0.4785  1.8688
 2615SOL    HW2 9287   7.458   3.849   9.929  0.1225 -0.0111  0.5395
 2616SOL     OW 9288   1.352   3.962  11.412 -0.2287 -0.5342  0.0641
 2616SOL    HW1 9289   1.364   3.871  11.438 -0.7412 -0.9025 -0.9360
 2616SOL    HW2 9290   1.265   3.964  11.372 -0.1804  0.3773 -0.0181
 2617SOL     OW 9291   7.831   2.649  10.459 -0.6170 -0.1199  0.7245
 2617SOL    HW1 9292   7.874   2.680  10.380  0.1931 -0.4713  1.0159
 2617SOL    HW2 9293   7.900   2.603  10.507 -1.7505 -2.3575  0.3338
 2618SOL     OW 9294   7.930   1.613   6.933  0.0002  0.0321 -0.5535
 2618SOL    HW1 9295   7.840   1.599   6.905 -0.1794 -0.0504  0.0654
 2618SOL    HW2 9296   7.952   1.701   6.902 -0.6582  0.4880  0.2550
 2619SOL     OW 9297   2.983   3.585   8.507 -0.3074 -0.3087 -0.0397
 2619SOL    HW1 9298   2.952   3.643   8.438  1.2549 -0.8392 -1.2553
 2619SOL    HW2 9299   2.936   3.502   8.491  0.7728 -0.7386 -1.1229
 2620SOL     OW 9300   0.601   1.769   7.123  0.1991  0.0462 -0.3090
 2620SOL    HW1 9301   0.613   1.684   7.166 -1.1635  0.4026  0.8876
 2620SOL    HW2 9302   0.516   1.761   7.079  0.3486  0.5773 -0.7004
 2621SOL     OW 9303   0.599   2.755   8.978  0.0845 -0.3217 -0.4471
 2621SOL    HW1 9304   0.569   2.726   9.063 -1.2889  0.8631 -0.5009
 2621SOL    HW2 9305   0.523   2.747   8.921  0.7565 -0.3094 -1.3796
 2622SOL     OW 9306   2.358   4.210  10.264 -0.1574  0.6042 -0.1439
 2622SOL    HW1 9307   2.392   4.134  10.216  0.0170  2.7998 -3.8676
 2622SOL    HW2 9308   2.263   4.195  10.269 -0.0182 -0.2688 -0.0363
 2623SOL     OW 9309   0.439   4.309  11.363 -0.5298  0.1052 -0.4416
 2623SOL    HW1 9310   0.512   4.357  11.325 -1.2058  2.0736  0.6062
 2623SOL    HW2 9311   0.388   4.278  11.288  0.2865  0.4630 -1.1542
 2624SOL     OW 9312   0.912   2.898  11.485  0.5029  0.5127 -0.1848
 2624SOL    HW1 9313   0.991   2.861  11.445  0.9428  0.6757  0.5189
 2624SOL    HW2 9314   0.933   2.905  11.578 -0.3147  0.6363 -0.0032
 2625SOL     OW 9315   7.088   4.785   7.744  0.4262  0.4003 -0.0723
 2625SOL    HW1 9316   6.999   4.820   7.750  0.7075  1.1385 -0.1565
 2625SOL    HW2 9317   7.138   4.833   7.810  0.9499  0.5661 -0.5789
 2626SOL     OW 9318   7.470   1.886  10.774 -0.2275  0.1118  0.6207
 2626SOL    HW1 9319   7.454   1.793  10.757  0.4901  0.0984 -0.0026
 2626SOL    HW2 9320   7.393   1.930  10.738 -0.3311 -0.1972  0.4594
 2627SOL     OW 9321   1.734   1.358  11.850 -0.3237 -0.0760  0.1555
 2627SOL    HW1 9322   1.711   1.266  11.857  0.1869 -0.4092 -1.8767
 2627SOL    HW2 9323   1.826   1.362  11.874 -0.8045  0.2535  2.1120
 2628SOL     OW 9324   0.826   3.691  12.213 -0.3989  0.3150 -0.3910
 2628SOL    HW1 9325   0.780   3.756  12.161 -0.1726  0.3545 -0.5439
 2628SOL    HW2 9326   0.918   3.716  12.207  0.0830 -1.5763 -2.7780
 2629SOL     OW 9327   2.821   4.560  10.294 -0.2975 -0.2413 -0.0172
 2629SOL    HW1 9328   2.843   4.469  10.316 -0.9462 -0.6847 -1.0871
 2629SOL    HW2 9329   2.873   4.613  10.354  1.1621 -1.2899 -0.2888
 2630SOL     OW 9330   7.582   4.004   7.632  0.1379  0.3369 -0.3322
 2630SOL    HW1 9331   7.550   4.091   7.611 -0.8129 -0.2158 -1.2894
 2630SOL    HW2 9332   7.664   4.019   7.680 -0.2963  1.7435  0.0145
 2631SOL     OW 9333   0.783   2.160  10.270 -0.5164  0.0188 -0.7494
 2631SOL    HW1 9334   0.828   2.228  10.222  0.0422 -0.5553 -1.0564
 2631SOL    HW2 9335   0.753   2.202  10.351  1.2508  0.2302 -0.1719
 2632SOL     OW 9336   7.684   3.979   8.918 -1.0227  0.2664 -1.0681
 2632SOL    HW1 9337   7.592   4.008   8.919 -0.4396  2.2750 -1.1506
 2632SOL    HW2 9338   7.733   4.055   8.949  0.4691 -1.4997  1.2916
 2633SOL     OW 9339   1.005   3.642   9.128  0.1565 -0.1624 -0.1952
 2633SOL    HW1 9340   0.992   3.622   9.035  0.7996 -2.0764  0.0703
 2633SOL    HW2 9341   1.089   3.602   9.150  0.3019  0.7882  1.0775
 2634SOL     OW 9342   2.069   3.594  11.535  0.2322  0.2619  0.2343
 2634SOL    HW1 9343   2.152   3.584  11.487  0.5438  0.2273  0.7792
 2634SOL    HW2 9344   2.068   3.686  11.561  0.3414  0.1385  0.6725
 2635SOL     OW 9345   1.420   4.423   8.699  0.4111  0.2159  0.2412
 2635SOL    HW1 9346   1.417   4.400   8.607  0.5921 -0.9298  0.5127
 2635SOL    HW2 9347   1.494   4.483   8.707  0.2967  0.4454 -0.3690
 2636SOL     OW 9348   2.312   3.709  10.585  0.1741  0.2246  0.0408
 2636SOL    HW1 9349   2.321   3.801  10.561  2.4777  1.2594  3.9564
 2636SOL    HW2 9350   2.221   3.700  10.613 -0.6298  0.6796 -2.2035
 2637SOL     OW 9351   0.372   2.168  10.407 -0.5721  0.5583  0.2152
 2637SOL    HW1 9352   0.393   2.244  10.462  2.3314 -1.2283  1.8915
 2637SOL    HW2 9353   0.333   2.105  10.467 -0.2840 -0.3014 -0.4727
 2638SOL     OW 9354   0.427   4.151  10.930 -0.3141 -0.0131 -0.3539
 2638SOL    HW1 9355   0.358   4.168  10.995 -0.1475  0.7875 -0.3671
 2638SOL    HW2 9356   0.508   4.151  10.980 -0.3333 -1.1710 -0.3092
 2639SOL     OW 9357   0.894   1.617  11.451  0.1570  0.6802 -0.1996
 2639SOL    HW1 9358   0.975   1.640  11.407  0.6810  0.5785  0.6950
 2639SOL    HW2 9359   0.909   1.530  11.486  0.1844  1.2101  1.1747
 2640SOL     OW 9360   1.931   3.865   8.176  1.3332 -0.4750 -0.6044
 2640SOL    HW1 9361   1.968   3.827   8.096  3.3805  0.3612 -0.1196
 2640SOL    HW2 9362   1.967   3.953   8.180 -0.3265  0.2020  0.2388
 2641SOL     OW 9363   0.121   2.327  10.936  0.7924 -0.2543  0.2169
 2641SOL    HW1 9364   0.041   2.352  10.890  1.4844  0.9384 -0.3883
 2641SOL    HW2 9365   0.125   2.388  11.010  0.6104 -1.0082  0.8684
 2642SOL     OW 9366   0.231   1.024  11.381  0.1006 -0.3188 -0.2769
 2642SOL    HW1 9367   0.197   1.006  11.469  0.3483  0.2208 -0.0712
 2642SOL    HW2 9368   0.232   0.938  11.339  0.4946 -0.6710  0.4304
 2643SOL     OW 9369   7.914   4.521   8.218 -0.6382  0.1505 -0.2798
 2643SOL    HW1 9370   7.931   4.495   8.309  0.2733 -0.9964 -0.7468
 2643SOL    HW2 9371   7.957   4.453   8.166 -0.7348  1.0548 -1.5769
 2644SOL     OW 9372   1.569   3.016  10.326 -0.5689  0.2709  0.3004
 2644SOL    HW1 9373   1.613   2.991  10.407  3.1406 -0.0711 -1.6271
 2644SOL    HW2 9374   1.611   3.098  10.299 -1.0645 -0.0532 -1.6687
 2645SOL     OW 9375   1.456   2.175  10.889 -0.1164 -0.2475  0.0303
 2645SOL    HW1 9376   1.478   2.268  10.886  0.2805 -0.3583 -0.7506
 2645SOL    HW2 9377   1.540   2.129  10.882 -0.2963 -0.6686  0.5247
 2646SOL     OW 9378   1.504   3.048  12.349 -0.3500  0.5291 -0.4122
 2646SOL    HW1 9379   1.426   3.104  12.357 -0.2055  0.6908 -0.1310
 2646SOL    HW2 9380   1.577   3.106  12.367 -0.2438  0.0740  0.6541
 2647SOL     OW 9381   7.766   2.332   0.214  0.3263 -0.1352 -0.1965
 2647SOL    HW1 9382   7.731   2.386   0.284  1.7994 -1.1991  1.4485
 2647SOL    HW2 9383   7.720   2.361   0.135 -0.2293  2.2139  0.9160
 2648SOL     OW 9384   1.723   4.325  11.353  0.1205 -0.9198 -0.0250
 2648SOL    HW1 9385   1.727   4.319  11.257  0.3568 -1.6504  0.0304
 2648SOL    HW2 9386   1.671   4.249  11.380  1.4977 -1.6928  0.5435
 2649SOL     OW 9387   7.762   5.945  12.049  0.1903 -0.2831  0.0161
 2649SOL    HW1 9388   7.799   6.003  12.116  1.8681 -1.3640  0.0728
 2649SOL    HW2 9389   7.781   5.990  11.966  0.0190  0.0228  0.1385
 2650SOL     OW 9390   1.396   3.771   8.548  0.1333  0.4799 -0.1850
 2650SOL    HW1 9391   1.347   3.688   8.556  0.8187 -0.0689 -1.4972
 2650SOL    HW2 9392   1.488   3.745   8.551  0.3691  1.0711 -1.6119
 2651SOL     OW 9393   1.565   3.119   9.778  0.2758 -0.5031 -0.0835
 2651SOL    HW1 9394   1.651   3.161   9.777  1.4925 -2.8427 -1.3149
 2651SOL    HW2 9395   1.533   3.126   9.688  0.3227 -1.7672 -0.2238
 2652SOL     OW 9396   1.971   3.431   9.915 -0.2030 -0.1511  0.4927
 2652SOL    HW1 9397   1.913   3.506   9.899  0.0751  0.3346  1.6523
 2652SOL    HW2 9398   2.041   3.466   9.970  0.5101 -1.0315  0.1758
 2653SOL     OW 9399   1.752   3.434  10.300  0.1372  0.1295 -0.1003
 2653SOL    HW1 9400   1.803   3.504  10.260  0.5552 -0.5617 -0.8031
 2653SOL    HW2 9401   1.759   3.360  10.238  0.6610 -0.9127  1.1601
 2654SOL     OW 9402   2.107   5.063   8.987  0.3259  0.4935  0.1430
 2654SOL    HW1 9403   2.037   5.127   8.973  0.6218  0.5344 -1.2596
 2654SOL    HW2 9404   2.187   5.115   8.990  0.4656  0.2865  0.0097
 2655SOL     OW 9405   1.868   4.006  10.843  0.1222 -0.0024 -0.3756
 2655SOL    HW1 9406   1.920   3.961  10.776 -1.6273 -1.2902 -0.9489
 2655SOL    HW2 9407   1.921   4.000  10.923  1.4589  0.0042 -1.2276
 2656SOL     OW 9408   1.511   3.109   9.505 -0.4160  0.0642  0.0652
 2656SOL    HW1 9409   1.591   3.128   9.456  0.7453  1.5323  2.3180
 2656SOL    HW2 9410   1.464   3.045   9.452  3.1068 -2.2898 -0.5346
 2657SOL     OW 9411   1.177   2.949   9.132  0.2901 -0.2043  0.6183
 2657SOL    HW1 9412   1.172   2.858   9.161 -1.3969  0.0403  1.2410
 2657SOL    HW2 9413   1.256   2.954   9.078 -0.3906 -2.3985 -0.6843
 2658SOL     OW 9414   1.293   3.210   9.904  0.1645  0.0840 -0.0625
 2658SOL    HW1 9415   1.267   3.201   9.812 -1.4364 -0.1192  0.3931
 2658SOL    HW2 9416   1.238   3.280   9.938  0.3073 -0.2628  0.9109
 2659SOL     OW 9417   7.471   1.780   9.628  0.3368  0.7377  0.1560
 2659SOL    HW1 9418   7.534   1.750   9.562  0.7545 -1.1562  1.3661
 2659SOL    HW2 9419   7.516   1.854   9.670  1.2170  0.2227  0.1476
 2660SOL     OW 9420   7.936   1.755  10.937 -0.4303 -0.1826 -0.3080
 2660SOL    HW1 9421   7.899   1.803  11.012  1.6849  1.5570 -0.2907
 2660SOL    HW2 9422   7.882   1.783  10.863 -0.2363  1.0384 -0.0185
 2661SOL     OW 9423   4.175   2.922  12.218 -0.3059 -0.2560  0.0567
 2661SOL    HW1 9424   4.181   3.000  12.163  2.0723 -0.0035  0.5619
 2661SOL    HW2 9425   4.110   2.867  12.175 -1.3147  1.5470 -0.8534
 2662SOL     OW 9426   1.097   1.995  11.197  0.3798 -0.4613  0.3347
 2662SOL    HW1 9427   1.132   2.084  11.189 -0.7721  0.0637  0.9223
 2662SOL    HW2 9428   1.055   1.977  11.113 -0.0455 -0.1479  0.4781
 2663SOL     OW 9429   1.412   2.780  10.344  0.3254  0.4608  0.1496
 2663SOL    HW1 9430   1.479   2.844  10.320  1.1016 -0.3134  0.2039
 2663SOL    HW2 9431   1.461   2.708  10.383 -0.5954  0.1230  0.7113
 2664SOL     OW 9432   7.436   2.516   8.849 -0.3421  0.2790 -0.0631
 2664SOL    HW1 9433   7.456   2.470   8.768 -0.1215 -0.1357  0.2224
 2664SOL    HW2 9434   7.340   2.519   8.852 -0.3706  2.0675 -1.3185
 2665SOL     OW 9435   7.097   2.051  11.002 -0.0263  0.5487 -0.0189
 2665SOL    HW1 9436   7.130   2.141  10.996  0.8096  0.1784 -1.9164
 2665SOL    HW2 9437   7.018   2.051  10.946 -0.2687  0.1962  0.3181
 2666SOL     OW 9438   0.373   3.506  12.007  0.3167 -0.6909 -0.0797
 2666SOL    HW1 9439   0.343   3.582  12.058  1.5961  0.2035 -0.6141
 2666SOL    HW2 9440   0.352   3.431  12.062  1.4785  0.2237  1.7368
 2667SOL     OW 9441   6.682   3.737  10.396 -0.5613  0.0110  0.1461
 2667SOL    HW1 9442   6.765   3.771  10.429 -0.2856 -1.6147  1.2044
 2667SOL    HW2 9443   6.627   3.729  10.473 -1.3969  0.1796 -0.4158
 2668SOL     OW 9444   0.947   1.956  10.965 -0.0025 -0.0765  0.3863
 2668SOL    HW1 9445   0.968   1.970  10.873  1.0613 -1.6436  0.3442
 2668SOL    HW2 9446   0.854   1.935  10.966 -0.1289  0.4356 -0.2649
 2669SOL     OW 9447   2.815   2.410   0.198 -0.0030 -0.2656 -0.5415
 2669SOL    HW1 9448   2.778   2.356   0.268 -0.6392  0.8902  0.0340
 2669SOL    HW2 9449   2.891   2.452   0.238 -1.1256  1.4439 -0.0684
 2670SOL     OW 9450   0.966   1.914  11.567  0.1637 -0.6122 -0.1862
 2670SOL    HW1 9451   0.925   1.963  11.496 -1.6109 -0.3696  0.9391
 2670SOL    HW2 9452   0.893   1.892  11.626  1.6546 -0.2377  1.8800
 2671SOL     OW 9453   2.316   1.316   0.174  0.5739  0.0787 -0.2042
 2671SOL    HW1 9454   2.323   1.357   0.087  1.9041  0.9954  0.3133
 2671SOL    HW2 9455   2.345   1.384   0.235 -0.6202 -0.4555  1.0128
 2672SOL     OW 9456   6.618   4.266  11.998 -0.4211  0.2555  0.5030
 2672SOL    HW1 9457   6.674   4.213  11.941  0.9035  1.0246  1.0350
 2672SOL    HW2 9458   6.679   4.320  12.048 -1.7201  3.1802 -0.8424
 2673SOL     OW 9459   7.668   2.262  10.137 -0.0118 -0.0809 -0.1479
 2673SOL    HW1 9460   7.753   2.266  10.094  0.3340 -0.5300  0.4828
 2673SOL    HW2 9461   7.675   2.321  10.211  0.0405 -0.7486  0.3932
 2674SOL     OW 9462   0.797   3.256  11.370 -0.5495 -0.0501 -0.2741
 2674SOL    HW1 9463   0.840   3.175  11.343  1.9892  1.0734  0.1018
 2674SOL    HW2 9464   0.741   3.279  11.297  0.0811 -1.2157 -1.1632
 2675SOL     OW 9465   0.353   1.836   9.536  0.3337  0.1483 -0.4039
 2675SOL    HW1 9466   0.366   1.918   9.585  3.1553  0.8190 -2.0411
 2675SOL    HW2 9467   0.306   1.862   9.457 -0.7485 -0.2288  0.1090
 2676SOL     OW 9468   0.158   1.728  10.423 -0.2687  0.0450  0.1557
 2676SOL    HW1 9469   0.229   1.713  10.485 -0.9472 -2.4160  0.4434
 2676SOL    HW2 9470   0.092   1.776  10.472  0.6300  1.1990  0.2670
 2677SOL     OW 9471   1.757   4.092  10.224 -0.0118 -0.4961 -0.3557
 2677SOL    HW1 9472   1.665   4.066  10.219 -0.4492  0.6158  1.2535
 2677SOL    HW2 9473   1.761   4.176  10.178  0.2766 -0.7078 -0.7233
 2678SOL     OW 9474   0.870   2.895  10.059 -0.6481  0.2750  0.3151
 2678SOL    HW1 9475   0.796   2.913  10.118 -0.0417 -1.8449  1.8284
 2678SOL    HW2 9476   0.945   2.936  10.101 -0.3616 -0.5320  0.6096
 2679SOL     OW 9477   0.933   3.351  11.636  0.2297 -0.2451 -0.1156
 2679SOL    HW1 9478   0.911   3.322  11.547  2.5577 -2.5158 -0.0700
 2679SOL    HW2 9479   0.997   3.421  11.623  2.5723 -2.3059 -0.3609
 2680SOL     OW 9480   0.488   4.004   8.352  0.3788 -0.3638 -0.4817
 2680SOL    HW1 9481   0.416   3.944   8.373 -0.7778  1.1499  0.0753
 2680SOL    HW2 9482   0.464   4.042   8.268  1.2087 -0.8100 -0.9308
 2681SOL     OW 9483   0.063   3.275   9.843  0.2816  0.1601 -0.1301
 2681SOL    HW1 9484   0.149   3.259   9.881  0.2092 -1.4813 -0.5843
 2681SOL    HW2 9485   0.054   3.209   9.774  0.0402  2.4185 -2.4272
 2682SOL     OW 9486   1.415   2.646  10.747  0.1523  0.1055  0.6529
 2682SOL    HW1 9487   1.372   2.728  10.723 -0.4608 -0.1783  0.7554
 2682SOL    HW2 9488   1.479   2.632  10.678  0.8895  1.1210  1.0973
 2683SOL     OW 9489   0.260   2.022  10.588 -0.2294 -0.2904  0.2518
 2683SOL    HW1 9490   0.174   1.980  10.595 -0.6108  0.4655  0.1986
 2683SOL    HW2 9491   0.264   2.081  10.663  0.1155 -0.0927  0.0803
 2684SOL     OW 9492   0.967   4.368   7.734 -0.3039  0.0697  0.0040
 2684SOL    HW1 9493   1.032   4.341   7.669 -0.1436  0.8610 -0.1696
 2684SOL    HW2 9494   0.883   4.356   7.690 -0.2535 -0.4502  0.0431
 2685SOL     OW 9495   7.702   3.120  10.908 -1.2903 -0.5721 -0.2297
 2685SOL    HW1 9496   7.620   3.167  10.923 -1.5916 -1.3192  0.5737
 2685SOL    HW2 9497   7.727   3.087  10.994 -1.3615 -2.3073 -0.8410
 2686SOL     OW 9498   0.412   3.057  11.176 -0.1362  0.1211 -0.0570
 2686SOL    HW1 9499   0.342   3.033  11.237 -0.6569  1.2266 -0.2000
 2686SOL    HW2 9500   0.488   3.008  11.208 -0.8868 -0.8847  0.2662
 2687SOL     OW 9501   7.090   5.296  11.110 -0.1442  0.3277 -0.5464
 2687SOL    HW1 9502   7.071   5.389  11.114 -0.2972  0.2528  2.2270
 2687SOL    HW2 9503   7.185   5.290  11.122 -0.0030  0.1254 -1.6182
 2688SOL     OW 9504   1.196   4.711   9.586 -0.1773  0.1950 -0.6766
 2688SOL    HW1 9505   1.127   4.668   9.535  0.2971 -1.7220  0.1842
 2688SOL    HW2 9506   1.278   4.678   9.549  0.2721  1.5470 -0.9372
 2689SOL     OW 9507   0.708   5.530   8.300  0.0171  0.0008  0.2595
 2689SOL    HW1 9508   0.688   5.603   8.241  0.1752 -0.8814 -0.9274
 2689SOL    HW2 9509   0.627   5.480   8.304  0.3073 -0.5048 -0.0475
 2690SOL     OW 9510   0.997   1.625  11.077  0.0513 -0.1919  0.1490
 2690SOL    HW1 9511   1.007   1.655  11.168 -0.2132 -1.4676  0.6218
 2690SOL    HW2 9512   1.018   1.702  11.024  1.6923  0.2016  1.2658
 2691SOL     OW 9513   6.859   2.411   9.905  0.3268 -0.5562  0.0358
 2691SOL    HW1 9514   6.860   2.345   9.973 -1.1716  2.6448  3.5267
 2691SOL    HW2 9515   6.949   2.442   9.900  0.5240 -1.0820  0.2724
 2692SOL     OW 9516   1.237   3.433   8.927  0.1367 -0.3938  0.1664
 2692SOL    HW1 9517   1.261   3.481   9.007 -0.6780  1.4546 -0.6254
 2692SOL    HW2 9518   1.263   3.343   8.945  0.0095 -0.0507  2.5073
 2693SOL     OW 9519   0.803   3.617  10.727  0.7064  0.3362  0.2816
 2693SOL    HW1 9520   0.813   3.531  10.685  0.4627  0.9370 -1.0468
 2693SOL    HW2 9521   0.893   3.649  10.736  0.6854  1.3412 -2.2923
 2694SOL     OW 9522   0.252   2.475   8.845  0.1995 -0.4397 -0.1453
 2694SOL    HW1 9523   0.326   2.532   8.822  0.5550 -1.2458 -1.0463
 2694SOL    HW2 9524   0.177   2.534   8.848  0.4883  0.0340 -1.4756
 2695SOL     OW 9525   0.088   3.565   8.876  0.3685  0.1239 -0.8451
 2695SOL    HW1 9526   0.084   3.593   8.967  1.8904  0.5424 -0.8714
 2695SOL    HW2 9527   0.010   3.604   8.835  0.0053  0.4487  0.1356
 2696SOL     OW 9528   7.231   3.426  11.649  0.1898  0.0168  0.4399
 2696SOL    HW1 9529   7.298   3.360  11.628  0.2366  0.3038 -0.3546
 2696SOL    HW2 9530   7.255   3.457  11.737  0.1480 -1.0401  0.8412
 2697SOL     OW 9531   6.840   3.720  10.802  0.2723 -0.3705 -0.0573
 2697SOL    HW1 9532   6.789   3.743  10.880  0.3391  1.3213 -0.4835
 2697SOL    HW2 9533   6.877   3.803  10.772  1.1953 -1.1810 -1.2281
 2698SOL     OW 9534   2.124   3.732   9.655  0.4815  0.2084 -0.1971
 2698SOL    HW1 9535   2.103   3.724   9.563 -1.7029 -1.6986  0.3718
 2698SOL    HW2 9536   2.199   3.674   9.668  2.0932  1.9657 -1.0267
 2699SOL     OW 9537   1.107   1.757  11.326  0.6122 -0.0453 -1.0401
 2699SOL    HW1 9538   1.202   1.754  11.340  0.6148 -1.9395 -1.2147
 2699SOL    HW2 9539   1.088   1.850  11.309  2.3560  0.4337 -0.5773
 2700SOL     OW 9540   7.040   4.017   8.041 -0.2197  0.1214 -0.1630
 2700SOL    HW1 9541   7.107   4.024   7.973  0.2304 -0.6955  0.1717
 2700SOL    HW2 9542   6.964   3.979   7.997 -0.1535  0.2073 -0.3516
 2701SOL     OW 9543   1.303   4.251  11.310  0.6592 -0.0803  0.4692
 2701SOL    HW1 9544   1.360   4.175  11.326  0.1166 -0.2870  1.5626
 2701SOL    HW2 9545   1.251   4.258  11.390  1.1162  1.8178  0.6404
 2702SOL     OW 9546   0.812   4.873   8.627 -0.0262 -0.5902 -0.0303
 2702SOL    HW1 9547   0.889   4.818   8.616 -0.4273 -1.0402 -0.6298
 2702SOL    HW2 9548   0.844   4.950   8.676  0.1917 -2.1742  2.5061
 2703SOL     OW 9549   0.915   3.251   0.382  0.5411 -0.5178 -0.2288
 2703SOL    HW1 9550   0.889   3.337   0.351 -0.4281 -1.2337 -1.5238
 2703SOL    HW2 9551   0.968   3.268   0.459  2.1174  1.3231 -1.6204
 2704SOL     OW 9552   0.465   2.926   9.787  0.3301 -0.0303  0.2731
 2704SOL    HW1 9553   0.500   2.913   9.699  0.9331  1.8327  0.2008
 2704SOL    HW2 9554   0.516   2.998   9.823 -2.1065  1.4875  0.9047
 2705SOL     OW 9555   7.412   1.494   9.318  0.2503  0.3503 -0.1799
 2705SOL    HW1 9556   7.322   1.518   9.341  0.5079  0.4969  0.7319
 2705SOL    HW2 9557   7.444   1.567   9.265  1.0154  2.1275  2.5316
 2706SOL     OW 9558   1.004   4.078  10.455 -0.4283  0.0047  0.6231
 2706SOL    HW1 9559   1.096   4.057  10.473  0.2193  3.1384  1.6352
 2706SOL    HW2 9560   0.954   4.023  10.516  0.3659 -4.2451 -2.1660
 2707SOL     OW 9561   1.807   3.272   8.725  0.3841 -0.4898 -0.9407
 2707SOL    HW1 9562   1.826   3.206   8.792 -0.2088 -1.1413 -1.4056
 2707SOL    HW2 9563   1.859   3.348   8.751 -0.4597 -0.4427  0.7315
 2708SOL     OW 9564   0.952   2.527   7.221 -0.1923 -0.2830 -0.0883
 2708SOL    HW1 9565   0.968   2.437   7.191  2.4260  0.2417 -0.5122
 2708SOL    HW2 9566   1.036   2.555   7.258 -0.5528  2.4257 -1.1197
 2709SOL     OW 9567   1.616   3.394  11.071 -0.3049 -0.3278 -0.5210
 2709SOL    HW1 9568   1.562   3.461  11.113 -0.9693 -1.0402 -0.2169
 2709SOL    HW2 9569   1.583   3.390  10.981 -0.0501 -0.0325 -0.6304
 2710SOL     OW 9570   0.755   3.168  10.386 -0.0593  0.0626 -0.6437
 2710SOL    HW1 9571   0.763   3.251  10.340  1.0560  0.6254  0.4961
 2710SOL    HW2 9572   0.845   3.140  10.402 -0.4107 -0.6119  0.2861
 2711SOL     OW 9573   0.994   4.018  12.285 -0.4441  0.7937  0.0168
 2711SOL    HW1 9574   1.026   3.948  12.228  0.6741  0.8879  0.5022
 2711SOL    HW2 9575   0.960   4.085  12.225 -1.4510 -0.1099 -0.4521
 2712SOL     OW 9576   1.883   3.604   9.216 -0.3074  0.2259 -0.0934
 2712SOL    HW1 9577   1.851   3.694   9.212 -0.1474  0.4271  1.8734
 2712SOL    HW2 9578   1.815   3.552   9.174  0.0316  1.3296 -2.1226
 2713SOL     OW 9579   0.600   4.463  12.117  0.2094  0.4335  0.6829
 2713SOL    HW1 9580   0.632   4.384  12.159 -2.5885 -1.6764 -0.7943
 2713SOL    HW2 9581   0.525   4.490  12.170  0.1856  1.1679  0.2935
 2714SOL     OW 9582   3.049   2.313   8.151 -0.1453 -0.2137 -0.7556
 2714SOL    HW1 9583   3.071   2.396   8.194  1.5044 -1.3494  0.7189
 2714SOL    HW2 9584   3.015   2.339   8.065  0.1273  1.9812 -0.2599
 2715SOL     OW 9585   2.468   3.365  11.500  0.0137  0.5515 -0.0342
 2715SOL    HW1 9586   2.562   3.371  11.517 -0.3314  1.3239  1.8522
 2715SOL    HW2 9587   2.446   3.275  11.522  0.4386  0.0944 -1.3763
 2716SOL     OW 9588   0.856   4.076  10.744  0.4205  0.0840 -0.0256
 2716SOL    HW1 9589   0.900   4.159  10.766  1.6595 -0.5495 -0.0288
 2716SOL    HW2 9590   0.879   4.017  10.815 -1.7223  0.1468  0.7715
 2717SOL     OW 9591   1.325   4.974  10.750  0.2459 -0.3170 -0.0658
 2717SOL    HW1 9592   1.289   4.942  10.832  0.2512  2.2739  1.0301
 2717SOL    HW2 9593   1.255   5.027  10.712  1.1107  0.5447 -0.4885
 2718SOL     OW 9594   2.180   4.223   9.949 -0.3735 -0.4798 -0.3985
 2718SOL    HW1 9595   2.206   4.154   9.888 -2.1738 -0.0125 -1.7708
 2718SOL    HW2 9596   2.263   4.258   9.981  0.5891 -3.1206  0.2100
 2719SOL     OW 9597   1.956   3.429   8.854  0.1033 -0.0798  0.6993
 2719SOL    HW1 9598   2.009   3.398   8.928 -1.4243 -0.6406  1.6082
 2719SOL    HW2 9599   1.964   3.524   8.856  2.3336 -0.1880 -0.1846
 2720SOL     OW 9600   6.709   4.692   7.990 -0.2636  0.2717  0.2618
 2720SOL    HW1 9601   6.779   4.655   8.044  0.7419  0.4154 -0.9034
 2720SOL    HW2 9602   6.647   4.729   8.053 -0.1779 -1.3891  1.3718
 2721SOL     OW 9603   6.991   1.881   9.642  0.2501 -0.0096  0.4850
 2721SOL    HW1 9604   7.083   1.905   9.632  0.0714  0.0324 -1.3598
 2721SOL    HW2 9605   6.945   1.965   9.649 -0.1513  0.3622 -3.9414
 2722SOL     OW 9606   0.438   3.260  11.434 -0.3056 -0.2954 -0.1968
 2722SOL    HW1 9607   0.525   3.294  11.411 -0.9405  2.1126  0.6601
 2722SOL    HW2 9608   0.405   3.222  11.352  1.0818 -0.2050 -0.8243
 2723SOL     OW 9609   0.079   4.059   9.863 -0.1872  0.0738 -0.0794
 2723SOL    HW1 9610   0.011   3.992   9.863 -0.1598 -0.0068  1.8893
 2723SOL    HW2 9611   0.114   4.058   9.774 -3.2599  0.6894 -1.3861
 2724SOL     OW 9612   7.754   2.449  11.705  0.2206 -0.1634  0.2094
 2724SOL    HW1 9613   7.703   2.504  11.764  0.8982  1.0723 -0.3189
 2724SOL    HW2 9614   7.697   2.436  11.629  0.4037  0.6506 -0.0853
 2725SOL     OW 9615   3.026   5.945  10.786  0.1859 -0.2151  0.2351
 2725SOL    HW1 9616   3.086   5.871  10.775  1.6983  0.5917  2.4410
 2725SOL    HW2 9617   2.951   5.908  10.831  0.2302 -0.6965 -0.0746
 2726SOL     OW 9618   6.875   3.890  12.270  0.8611 -0.4919 -0.2166
 2726SOL    HW1 9619   6.791   3.929  12.295  1.1683 -1.0294  1.9235
 2726SOL    HW2 9620   6.916   3.954  12.212 -0.1933  0.6600  0.2634
 2727SOL     OW 9621   0.783   2.836   0.453 -0.0505 -0.3346  0.2047
 2727SOL    HW1 9622   0.714   2.893   0.487 -0.1878 -0.0932 -0.4653
 2727SOL    HW2 9623   0.865   2.881   0.473 -0.1812  0.3869 -0.8180
 2728SOL     OW 9624   0.998   1.389  10.935  0.3244  0.4189  0.1458
 2728SOL    HW1 9625   0.994   1.433  10.850 -0.7876  1.5212  0.7331
 2728SOL    HW2 9626   0.972   1.456  10.998  0.4263 -0.5800  1.2825
 2729SOL     OW 9627   2.260   2.811  10.516  0.6378 -0.4347  0.7648
 2729SOL    HW1 9628   2.311   2.815  10.597 -0.0431 -0.6497  1.2171
 2729SOL    HW2 9629   2.316   2.764  10.455  1.0238 -0.5770  1.2205
 2730SOL     OW 9630   5.979   4.346  10.492 -0.1929 -0.3555  0.2323
 2730SOL    HW1 9631   6.024   4.431  10.495 -0.4896 -0.2106  1.0057
 2730SOL    HW2 9632   5.955   4.335  10.400  0.0482  0.2956  0.0807
 2731SOL     OW 9633   0.683   5.040   7.957  0.2461  0.2646  0.4206
 2731SOL    HW1 9634   0.686   4.991   8.039 -3.5357  0.8080  1.0894
 2731SOL    HW2 9635   0.758   5.099   7.961  0.9502 -0.7049  2.8319
 2732SOL     OW 9636   1.105   0.474  11.023  0.0522  0.1222 -0.3653
 2732SOL    HW1 9637   1.138   0.390  10.990  1.2345 -0.2913  1.7280
 2732SOL    HW2 9638   1.164   0.539  10.986 -1.4858  0.2552 -2.8687
 2733SOL     OW 9639   2.468   3.609  10.180  0.1099  0.0781  0.0285
 2733SOL    HW1 9640   2.516   3.680  10.222 -2.4175  1.4289  0.8562
 2733SOL    HW2 9641   2.502   3.529  10.220  2.5146  0.8089 -0.4070
 2734SOL     OW 9642   2.316   4.203   7.400  0.5439 -0.1191 -0.2116
 2734SOL    HW1 9643   2.263   4.217   7.478  1.5786  1.3199  0.2845
 2734SOL    HW2 9644   2.335   4.110   7.400 -2.1161 -0.7335 -0.5350
 2735SOL     OW 9645   0.282   2.480   9.591 -0.3521 -0.2855  0.2889
 2735SOL    HW1 9646   0.265   2.444   9.678  0.6080  1.2886  1.1885
 2735SOL    HW2 9647   0.248   2.569   9.595 -0.5223 -0.2628 -1.0460
 2736SOL     OW 9648   2.145   1.352   9.287 -0.1865 -0.1286  0.2232
 2736SOL    HW1 9649   2.116   1.342   9.196 -1.4227  0.2167  0.5529
 2736SOL    HW2 9650   2.117   1.441   9.311 -0.0700 -0.2951  1.0130
 2737SOL     OW 9651   7.962   3.769  11.725 -0.1861 -0.1557 -1.2443
 2737SOL    HW1 9652   8.000   3.848  11.688 -0.8644  1.5602  1.4497
 2737SOL    HW2 9653   7.907   3.734  11.655  0.4548  1.5140 -2.6490
 2738SOL     OW 9654   1.176   3.843   9.372  0.1103  0.3721  0.1597
 2738SOL    HW1 9655   1.248   3.903   9.352  0.2948  0.4348  0.9617
 2738SOL    HW2 9656   1.103   3.875   9.320  0.5811  0.4814 -0.4475
 2739SOL     OW 9657   7.716   5.985   7.394  0.1569 -0.1693 -0.1647
 2739SOL    HW1 9658   7.641   5.946   7.349 -0.1639 -0.1984  0.3970
 2739SOL    HW2 9659   7.715   5.947   7.481  0.2793  0.5277  0.1504
 2740SOL     OW 9660   0.894   4.292   9.365  0.1326  0.0120 -0.3381
 2740SOL    HW1 9661   0.912   4.292   9.459  0.2671  2.4606 -0.3029
 2740SOL    HW2 9662   0.821   4.231   9.355  1.5889 -2.0950  0.9815
 2741SOL     OW 9663   0.390   5.764  11.803 -1.3324  0.7003 -0.1850
 2741SOL    HW1 9664   0.413   5.820  11.729  0.1218  0.7515  0.2601
 2741SOL    HW2 9665   0.295   5.757  11.799 -1.4411  2.1129 -1.0241
 2742SOL     OW 9666   7.948   3.037   0.333  0.7328 -0.0072  0.0500
 2742SOL    HW1 9667   7.989   3.023   0.248  1.6633 -1.3002  0.6765
 2742SOL    HW2 9668   7.855   3.049   0.313  1.0455  0.4965 -1.1992
 2743SOL     OW 9669   0.703   2.372  10.760  0.1048 -0.2863  0.0251
 2743SOL    HW1 9670   0.704   2.283  10.797 -0.1906 -0.3487 -0.1143
 2743SOL    HW2 9671   0.624   2.412  10.795  0.7909  0.2927  0.9398
 2744SOL     OW 9672   7.360   3.721  11.587  0.2687 -0.3934 -0.3621
 2744SOL    HW1 9673   7.367   3.625  11.585 -0.1397 -0.4363  0.0089
 2744SOL    HW2 9674   7.271   3.739  11.556  0.1277 -0.1677  0.1663
 2745SOL     OW 9675   0.272   2.794   0.591 -0.1425 -0.5922  0.2088
 2745SOL    HW1 9676   0.264   2.805   0.496 -0.9202 -0.0769  0.3257
 2745SOL    HW2 9677   0.283   2.700   0.603 -2.2085 -0.9267 -0.2651
 2746SOL     OW 9678   7.586   4.811  12.327  0.0284 -0.0412  0.3704
 2746SOL    HW1 9679   7.657   4.764  12.369  1.7852 -0.3633 -2.6816
 2746SOL    HW2 9680   7.512   4.751  12.331  0.3908 -0.4325  2.0263
 2747SOL     OW 9681   2.036   2.417  11.251 -0.0142 -0.5260  0.2816
 2747SOL    HW1 9682   2.088   2.354  11.201 -1.2021  1.4234 -3.8834
 2747SOL    HW2 9683   1.946   2.389  11.240 -0.5405  1.5266 -1.3540
 2748SOL     OW 9684   7.990   2.817   1.695 -0.5782 -0.0849 -0.8593
 2748SOL    HW1 9685   8.056   2.817   1.765 -0.7870 -2.4578 -0.5652
 2748SOL    HW2 9686   8.041   2.825   1.614  0.0665 -1.3076 -0.6008
 2749SOL     OW 9687   0.628   2.958  11.293 -0.4663  0.6598 -0.3400
 2749SOL    HW1 9688   0.642   2.914  11.377  0.2260  1.3577 -0.0691
 2749SOL    HW2 9689   0.714   2.994  11.271 -0.4450 -0.1991 -1.7566
 2750SOL     OW 9690   0.806   4.994  11.971 -0.7579  0.4281  0.0801
 2750SOL    HW1 9691   0.847   4.955  11.894 -0.9354  1.5102 -0.5750
 2750SOL    HW2 9692   0.880   5.029  12.022 -0.7189  0.5992 -0.0949
 2751SOL     OW 9693   0.091   2.976  12.040 -0.5822 -0.2325  0.2303
 2751SOL    HW1 9694   0.086   2.904  12.103 -0.9071  0.7103  1.3235
 2751SOL    HW2 9695   0.009   3.024  12.052  1.1325  2.4799  2.2727
 2752SOL     OW 9696   7.181   4.118  10.735 -0.0049 -0.5568 -0.0742
 2752SOL    HW1 9697   7.253   4.174  10.705  0.7516 -1.0252  0.8225
 2752SOL    HW2 9698   7.126   4.106  10.657  0.3860  0.5536 -0.5403
 2753SOL     OW 9699   0.861   4.353  11.079  0.0433 -0.0244 -0.7713
 2753SOL    HW1 9700   0.936   4.374  11.135  0.2467  1.4582 -1.5405
 2753SOL    HW2 9701   0.786   4.392  11.124 -0.1314 -0.6588 -0.4956
 2754SOL     OW 9702   7.231   2.815  11.417  0.0258 -0.4236 -0.2173
 2754SOL    HW1 9703   7.151   2.799  11.366 -0.4827  1.5185 -0.1072
 2754SOL    HW2 9704   7.199   2.831  11.506  0.2295  2.6246 -0.5927
 2755SOL     OW 9705   0.229   4.195  11.745  0.1965 -0.2503 -0.3296
 2755SOL    HW1 9706   0.247   4.254  11.819 -1.0156  0.2860 -0.4428
 2755SOL    HW2 9707   0.301   4.132  11.747  0.5462  0.1549  0.8994
 2756SOL     OW 9708   7.647   1.555  11.213  0.0627  0.0682 -0.3426
 2756SOL    HW1 9709   7.563   1.521  11.245 -1.0429  0.5185 -2.5541
 2756SOL    HW2 9710   7.631   1.575  11.121  1.7025  3.1396 -0.0972
 2757SOL     OW 9711   2.915   3.285   9.698  0.8427  0.5181  0.9229
 2757SOL    HW1 9712   2.886   3.194   9.705 -2.7687  1.1201 -2.5558
 2757SOL    HW2 9713   3.008   3.283   9.724  0.9582 -4.1020  0.9378
 2758SOL     OW 9714   7.304   2.842  10.436 -0.5265 -0.3740  0.1277
 2758SOL    HW1 9715   7.220   2.804  10.412 -2.0245  2.5663  0.2007
 2758SOL    HW2 9716   7.282   2.908  10.502  2.0671 -0.5503  1.2684
 2759SOL     OW 9717   0.303   4.128  11.176  0.5564  0.0874 -0.4348
 2759SOL    HW1 9718   0.215   4.128  11.212 -0.0977  0.8077 -1.9078
 2759SOL    HW2 9719   0.337   4.041  11.194 -0.0504  0.1322  1.0626
 2760SOL     OW 9720   2.005   2.906  10.663  0.3292  0.4144  0.1699
 2760SOL    HW1 9721   2.039   2.986  10.703  0.6452  0.7768 -0.7938
 2760SOL    HW2 9722   2.082   2.862  10.628  0.2249 -0.6108  1.1934
 2761SOL     OW 9723   0.128   3.552  11.163 -0.1705  0.2509 -0.1020
 2761SOL    HW1 9724   0.185   3.478  11.142  0.4710  0.7728 -0.2316
 2761SOL    HW2 9725   0.188   3.625  11.180 -0.7893  0.7207  0.1081
 2762SOL     OW 9726   7.298   3.848  10.825  0.4307  0.2362  0.3502
 2762SOL    HW1 9727   7.332   3.936  10.806 -2.6737  1.7581  1.0658
 2762SOL    HW2 9728   7.236   3.830  10.755 -1.3708  0.1309  1.8766
 2763SOL     OW 9729   1.393   3.130  11.538 -0.4983 -0.1390 -0.1609
 2763SOL    HW1 9730   1.453   3.181  11.593  0.7813  1.6106 -2.9276
 2763SOL    HW2 9731   1.354   3.066  11.597  1.5972  0.8462  2.4905
 2764SOL     OW 9732   6.939   3.732  11.755 -0.1564 -0.7970 -0.2085
 2764SOL    HW1 9733   6.903   3.662  11.700 -0.0142 -1.4136  0.4676
 2764SOL    HW2 9734   6.993   3.687  11.819  2.4739  0.1088 -1.5955
 2765SOL     OW 9735   2.977   2.367   9.662 -0.1702  0.0840 -0.4366
 2765SOL    HW1 9736   3.003   2.329   9.746 -0.2769 -0.5027 -0.6650
 2765SOL    HW2 9737   2.940   2.294   9.613  1.1121  0.1128 -1.5050
 2766SOL     OW 9738   4.251   2.370   0.063  0.3684  0.3502 -0.0930
 2766SOL    HW1 9739   4.319   2.314   0.026  0.3139  0.1739  0.0763
 2766SOL    HW2 9740   4.169   2.335   0.030  0.3735  0.6999 -0.4759
 2767SOL     OW 9741   1.944   3.157  12.004  0.2240 -0.0880 -0.2704
 2767SOL    HW1 9742   1.903   3.233  12.046 -1.4446 -0.9309 -0.3039
 2767SOL    HW2 9743   2.031   3.152  12.045  0.8125  2.4191 -1.0175
 2768SOL     OW 9744   1.167   4.551  11.697  0.2298  0.1666 -0.6857
 2768SOL    HW1 9745   1.092   4.543  11.755 -0.0154 -2.3612 -1.2465
 2768SOL    HW2 9746   1.242   4.557  11.755 -0.2306  0.5433 -0.1200
 2769SOL     OW 9747   0.945   2.014   1.129  0.4063 -0.5433 -0.4241
 2769SOL    HW1 9748   0.973   2.078   1.194  0.2099  0.5580 -1.3837
 2769SOL    HW2 9749   1.026   1.968   1.105  0.5492 -0.6673  0.2768
 2770SOL     OW 9750   0.845   3.361  11.914  0.0901  0.1263  0.1199
 2770SOL    HW1 9751   0.873   3.380  11.824 -0.5677  1.1705  0.1221
 2770SOL    HW2 9752   0.749   3.358  11.908  0.0819 -0.7725  0.6082
 2771SOL     OW 9753   2.233   2.568   1.369  0.2899 -0.0052 -0.7555
 2771SOL    HW1 9754   2.262   2.477   1.367  0.0978 -0.0710 -0.5458
 2771SOL    HW2 9755   2.243   2.596   1.460  0.1738  0.1244 -0.7806
 2772SOL     OW 9756   0.995   3.511  10.381 -0.1186  0.5154 -0.2217
 2772SOL    HW1 9757   0.952   3.588  10.419  2.5994  1.1068  1.9297
 2772SOL    HW2 9758   0.986   3.523  10.286 -2.6842  1.6734  0.0750
 2773SOL     OW 9759   0.233   2.742  10.761  0.1729 -0.0597  0.3342
 2773SOL    HW1 9760   0.185   2.728  10.842  1.2396  0.1291  1.0060
 2773SOL    HW2 9761   0.208   2.830  10.733 -1.1983 -0.5989 -0.2566
 2774SOL     OW 9762   5.662   3.663   1.167  0.4518  0.4236  0.1504
 2774SOL    HW1 9763   5.678   3.717   1.089 -1.1013 -0.1367 -0.5913
 2774SOL    HW2 9764   5.645   3.726   1.236  0.6618  0.9159 -0.2352
 2775SOL     OW 9765   0.002   5.000  11.488  0.4810  0.0816 -0.1206
 2775SOL    HW1 9766  -0.019   5.008  11.581  2.3414  1.6618  0.2145
 2775SOL    HW2 9767  -0.077   5.029  11.443  0.2021  1.1529  1.0044
 2776SOL     OW 9768   7.691   4.060  10.106 -0.3796  0.4084  0.3104
 2776SOL    HW1 9769   7.767   4.002  10.106 -1.3824 -1.0770 -2.1927
 2776SOL    HW2 9770   7.727   4.146  10.084  0.5209 -0.5331 -2.2836
 2777SOL     OW 9771   7.748   4.667  12.473  0.2563 -0.1831  0.2630
 2777SOL    HW1 9772   7.685   4.657  12.545  1.5525 -0.3225  1.4459
 2777SOL    HW2 9773   7.770   4.577  12.448  1.4271 -0.2009  1.2332
 2778SOL     OW 9774   0.258   4.269  12.137  0.7403 -0.1993  0.0111
 2778SOL    HW1 9775   0.176   4.225  12.115 -0.0551  0.8584  0.7867
 2778SOL    HW2 9776   0.307   4.271  12.054  0.1964 -1.2311 -0.3588
 2779SOL     OW 9777   7.586   2.996   0.270 -0.1908 -0.1341  0.0197
 2779SOL    HW1 9778   7.650   2.951   0.215  0.3535  1.1026 -0.3920
 2779SOL    HW2 9779   7.635   3.068   0.309 -0.7427 -0.5870  1.6145
 2780SOL     OW 9780   1.720   3.381   0.277  0.5373 -0.1057 -0.0973
 2780SOL    HW1 9781   1.723   3.430   0.194  0.7636 -1.1402 -0.7202
 2780SOL    HW2 9782   1.798   3.410   0.324 -0.1221  1.2526  0.2273
 2781SOL     OW 9783   7.971   3.628  10.774 -0.7406 -0.2735  0.5551
 2781SOL    HW1 9784   8.035   3.566  10.738 -0.2673  0.3803  0.2422
 2781SOL    HW2 9785   7.901   3.573  10.809 -1.2528 -0.9576 -1.3904
 2782SOL     OW 9786   1.451   1.503   1.593 -0.1806  0.1123 -0.4764
 2782SOL    HW1 9787   1.502   1.501   1.674  1.1072  1.3269 -1.2282
 2782SOL    HW2 9788   1.515   1.496   1.523 -1.2903 -1.0461 -1.4340
 2783SOL     OW 9789   1.876   5.348  10.803 -0.4352 -0.0613 -0.3742
 2783SOL    HW1 9790   1.869   5.256  10.827  3.2200 -0.3166  0.1863
 2783SOL    HW2 9791   1.805   5.361  10.740 -2.6518 -2.5363  1.3639
 2784SOL     OW 9792   2.115   3.477  12.152 -0.4831  0.0041  0.4470
 2784SOL    HW1 9793   2.156   3.445  12.071  1.2106  0.6442  0.9959
 2784SOL    HW2 9794   2.153   3.564  12.165 -0.3522 -0.2845  2.1736
 2785SOL     OW 9795   7.336   4.343   8.558  0.4442 -0.5392  0.1912
 2785SOL    HW1 9796   7.418   4.379   8.523  0.6879  0.0078  1.2931
 2785SOL    HW2 9797   7.318   4.266   8.502  0.3018  0.8112 -1.7222
 2786SOL     OW 9798   2.675   0.192  12.092  0.0097  0.1546 -0.0433
 2786SOL    HW1 9799   2.616   0.118  12.076  0.7484 -0.4202 -0.1638
 2786SOL    HW2 9800   2.624   0.253  12.146 -0.4906 -0.6047  0.3494
 2787SOL     OW 9801   0.361   4.839   1.450  0.3427 -0.0544 -0.0186
 2787SOL    HW1 9802   0.381   4.748   1.472 -1.5934 -0.4025  0.4615
 2787SOL    HW2 9803   0.270   4.837   1.422  0.5280  1.6208 -0.8415
 2788SOL     OW 9804   1.199   3.479   1.078  0.3098  0.3824  0.3042
 2788SOL    HW1 9805   1.245   3.537   1.139  0.4835  1.1218 -0.5175
 2788SOL    HW2 9806   1.256   3.403   1.070 -0.4568 -0.4864  2.2909
 2789SOL     OW 9807   7.340   2.877  11.956  0.2726 -0.1253  0.6327
 2789SOL    HW1 9808   7.410   2.942  11.964  0.5425 -0.6011  2.5218
 2789SOL    HW2 9809   7.306   2.867  12.044 -1.3815 -0.8196 -0.0392
 2790SOL     OW 9810   0.957   4.526  11.417 -0.4878  0.0437  0.1104
 2790SOL    HW1 9811   0.880   4.583  11.412  0.5101  1.4653  0.4109
 2790SOL    HW2 9812   0.982   4.512  11.326 -1.3382 -0.7786 -0.0091
 2791SOL     OW 9813   7.471   3.806  11.833 -0.1309  0.2458 -0.0426
 2791SOL    HW1 9814   7.416   3.767  11.764  1.0590 -2.0773  0.2086
 2791SOL    HW2 9815   7.483   3.735  11.896  1.8835  1.1603  0.6704
 2792SOL     OW 9816   0.698   2.416  11.949 -0.1722  0.0652  0.5345
 2792SOL    HW1 9817   0.713   2.483  12.016  0.7006 -1.4895  1.9823
 2792SOL    HW2 9818   0.617   2.443  11.905 -0.6342  1.2858  2.0517
 2793SOL     OW 9819   6.443   2.295   0.378 -0.6161  0.6252  0.0736
 2793SOL    HW1 9820   6.367   2.238   0.371  0.0040 -0.2172 -0.0212
 2793SOL    HW2 9821   6.467   2.316   0.288 -1.0267  1.3041  0.1146
 2794SOL     OW 9822   1.369   3.150  10.594  0.2502 -0.1671 -0.4324
 2794SOL    HW1 9823   1.316   3.215  10.549 -1.2561 -1.4690 -0.6294
 2794SOL    HW2 9824   1.459   3.168  10.565 -0.5146 -0.3075 -3.2072
 2795SOL     OW 9825   0.524   2.537   0.314  0.2583  0.1910 -0.0282
 2795SOL    HW1 9826   0.501   2.476   0.244 -0.8316  1.6512 -0.9913
 2795SOL    HW2 9827   0.587   2.596   0.274 -0.1846  0.8850  0.2889
 2796SOL     OW 9828   0.469   3.613   1.448  0.3562 -0.2845 -0.5686
 2796SOL    HW1 9829   0.452   3.569   1.531 -0.0713  0.8906 -0.0081
 2796SOL    HW2 9830   0.471   3.542   1.383 -1.3879 -1.0279  0.1288
 2797SOL     OW 9831   0.203   4.356   0.297 -0.0110 -0.0538  0.0878
 2797SOL    HW1 9832   0.127   4.399   0.258 -0.7794 -0.8158  0.7067
 2797SOL    HW2 9833   0.188   4.263   0.284  1.6214 -0.1804 -1.2066
 2798SOL     OW 9834   6.622   3.801  11.757  0.2867 -0.0105  0.2873
 2798SOL    HW1 9835   6.540   3.840  11.726  0.5483  0.3032 -0.0169
 2798SOL    HW2 9836   6.595   3.725  11.807 -0.1279 -1.0650 -1.4480
 2799SOL     OW 9837   1.253   4.933  11.984 -0.3339  0.4524  0.0071
 2799SOL    HW1 9838   1.306   5.007  11.955  0.1438 -0.3167 -1.1578
 2799SOL    HW2 9839   1.179   4.973  12.029  0.1827  1.6141 -0.1267
 2800SOL     OW 9840   1.591   4.006  10.867  0.2804 -0.0302  0.1698
 2800SOL    HW1 9841   1.599   4.002  10.963 -0.9282 -0.7634  0.2684
 2800SOL    HW2 9842   1.678   3.984  10.834  0.6826  0.1157  1.0980
 2801SOL     OW 9843   1.789   3.484  11.415 -0.9123  0.4575 -0.1414
 2801SOL    HW1 9844   1.788   3.547  11.342  2.4140  0.0274 -0.7102
 2801SOL    HW2 9845   1.872   3.500  11.459 -0.4947 -2.6845  0.4416
 2802SOL     OW 9846   0.611   2.660  11.117  0.2910  0.2408  0.0677
 2802SOL    HW1 9847   0.626   2.747  11.156 -1.4098  0.0181  1.3633
 2802SOL    HW2 9848   0.665   2.601  11.170  2.9917  0.6612 -2.0345
 2803SOL     OW 9849   1.991   4.493   0.240 -0.2861 -0.4995 -0.2790
 2803SOL    HW1 9850   1.983   4.581   0.275 -0.1432 -1.2135  1.7089
 2803SOL    HW2 9851   1.901   4.466   0.221 -0.3341  0.0271 -0.8204
 2804SOL     OW 9852   1.775   4.403  10.606  0.0040  0.7836  0.0451
 2804SOL    HW1 9853   1.705   4.454  10.567 -1.7657 -0.0079  1.9737
 2804SOL    HW2 9854   1.735   4.319  10.628  1.3176  0.5782  1.9377
 2805SOL     OW 9855   7.881   2.582   0.615 -0.2155  0.0376  0.4927
 2805SOL    HW1 9856   7.818   2.560   0.546 -0.7630  3.1606 -0.1689
 2805SOL    HW2 9857   7.896   2.675   0.603  2.2916 -0.0238  2.5465
 2806SOL     OW 9858   1.166   3.814  12.483 -0.4120  0.0411  0.2047
 2806SOL    HW1 9859   1.083   3.802  12.530 -0.7018  1.3460  0.0670
 2806SOL    HW2 9860   1.145   3.793  12.392 -1.1510  2.2713 -0.2013
 2807SOL     OW 9861   7.437   3.072   1.105  0.2241 -0.5529 -0.4886
 2807SOL    HW1 9862   7.491   2.996   1.086  0.7716 -0.3696  0.2835
 2807SOL    HW2 9863   7.486   3.146   1.068 -0.1287 -0.5300 -0.9182
 2808SOL     OW 9864   1.340   2.911  12.140  0.0045  0.0606 -0.3737
 2808SOL    HW1 9865   1.427   2.948  12.124 -0.3838  1.2620  0.2062
 2808SOL    HW2 9866   1.287   2.943  12.067 -0.1344 -0.0883 -0.3392
 2809SOL     OW 9867   1.674   2.332  10.961  0.6729  0.2445  0.2170
 2809SOL    HW1 9868   1.698   2.399  11.025 -0.4303  0.9727 -0.0935
 2809SOL    HW2 9869   1.704   2.250  11.000 -0.2328  0.6249  1.8310
 2810SOL     OW 9870   7.811   4.247   0.227 -0.5034 -0.1224  0.0177
 2810SOL    HW1 9871   7.756   4.323   0.240 -2.2029 -1.2469 -0.3087
 2810SOL    HW2 9872   7.807   4.199   0.310  0.7695  0.2425  0.3160
 2811SOL     OW 9873   1.640   4.350  12.479  0.0467 -0.2161  0.3723
 2811SOL    HW1 9874   1.620   4.343  12.573  0.8584  2.1518  0.8074
 2811SOL    HW2 9875   1.574   4.411  12.445  0.6143  0.0428 -0.2816
 2812SOL     OW 9876   0.754   4.839   0.600 -0.5494 -0.2188  0.1478
 2812SOL    HW1 9877   0.723   4.913   0.548  1.3078 -0.3260 -1.2025
 2812SOL    HW2 9878   0.694   4.835   0.675 -0.8951  2.4120  0.0790
 2813SOL     OW 9879   1.153   3.875  11.900  0.1116  0.2843  0.5994
 2813SOL    HW1 9880   1.133   3.861  11.808 -0.1213  0.2590  0.6534
 2813SOL    HW2 9881   1.219   3.944  11.900  0.3057  0.1008  0.4006
 2814SOL     OW 9882   0.220   2.413   1.168  0.0294  0.5237 -0.2254
 2814SOL    HW1 9883   0.234   2.493   1.117  3.7259  0.1765 -0.0303
 2814SOL    HW2 9884   0.147   2.370   1.125 -1.2524  3.3571 -1.1175
 2815SOL     OW 9885   2.286   2.033  12.033 -0.3011 -0.3163  0.1143
 2815SOL    HW1 9886   2.366   2.036  12.085 -0.9032 -0.3362  1.0665
 2815SOL    HW2 9887   2.217   2.013  12.096 -0.9894 -0.8160 -0.7742
 2816SOL     OW 9888   7.407   3.136  11.656 -0.0358  0.1082 -0.5926
 2816SOL    HW1 9889   7.462   3.179  11.590  0.8795 -1.4514 -0.8954
 2816SOL    HW2 9890   7.459   3.138  11.736 -0.9588  1.5939  0.0017
 2817SOL     OW 9891   1.736   2.090  12.208  0.7162 -0.5457 -0.9841
 2817SOL    HW1 9892   1.728   1.997  12.188  1.4291 -0.8839  0.2069
 2817SOL    HW2 9893   1.812   2.119  12.157  1.4012 -0.9701 -0.2196
 2818SOL     OW 9894   7.106   3.858  11.554 -0.1481  0.0375  0.1808
 2818SOL    HW1 9895   7.063   3.824  11.632 -0.1188  0.4579  0.3870
 2818SOL    HW2 9896   7.138   3.945  11.581  2.0349 -0.7876  0.4673
 2819SOL     OW 9897   0.283   3.062  11.857  0.9522  0.2509 -0.4981
 2819SOL    HW1 9898   0.211   3.044  11.916  0.8190  1.5583 -0.2289
 2819SOL    HW2 9899   0.343   2.988  11.868 -0.7698 -1.3801 -1.4817
 2820SOL     OW 9900   0.572   3.353  11.836 -0.0611 -0.3120 -0.0606
 2820SOL    HW1 9901   0.559   3.394  11.922  0.6393  0.2282 -0.2014
 2820SOL    HW2 9902   0.487   3.362  11.793  0.1860  1.4806 -0.2757
 2821SOL     OW 9903   7.608   4.592   1.649  0.0406  0.5055 -0.0818
 2821SOL    HW1 9904   7.618   4.586   1.744  2.6618 -0.0630 -0.3276
 2821SOL    HW2 9905   7.585   4.683   1.633 -0.2130  0.6599  1.0846
 2822SOL     OW 9906   0.965   2.979   1.038 -0.4496  0.1815 -0.2767
 2822SOL    HW1 9907   1.049   3.023   1.023  0.2991 -1.3778 -0.8688
 2822SOL    HW2 9908   0.943   3.000   1.129  0.1991  1.2262 -0.3432
 2823SOL     OW 9909   0.464   1.796   0.057 -0.1785  0.5719 -0.0094
 2823SOL    HW1 9910   0.388   1.776   0.002  0.6022 -0.3402 -0.7910
 2823SOL    HW2 9911   0.495   1.880   0.025 -0.7154  0.8424  0.1635
 2824SOL     OW 9912   1.724   5.455  10.049  0.2604  0.4535 -0.0905
 2824SOL    HW1 9913   1.693   5.454   9.959 -0.5452  0.9394  0.1638
 2824SOL    HW2 9914   1.799   5.514  10.048 -0.1884  1.0416 -0.3263
 2825SOL     OW 9915   0.182   1.161   1.114 -0.0292 -0.0678 -0.4098
 2825SOL    HW1 9916   0.186   1.233   1.052 -1.2052 -0.1638 -0.6278
 2825SOL    HW2 9917   0.113   1.104   1.080  0.6624 -1.1376 -0.0711
 2826SOL     OW 9918   7.111   4.499   0.716 -0.4863  0.2351 -0.2550
 2826SOL    HW1 9919   7.112   4.414   0.673 -2.0866 -0.1161  0.3451
 2826SOL    HW2 9920   7.094   4.479   0.808 -0.4749  1.1829 -0.0344
 2827SOL     OW 9921   7.608   2.255   0.574  0.2629 -0.0292 -0.1508
 2827SOL    HW1 9922   7.625   2.165   0.546 -0.0659  0.0449 -0.5948
 2827SOL    HW2 9923   7.552   2.245   0.652 -1.4590 -0.1928 -1.3484
 2828SOL     OW 9924   6.893   3.469  11.956  0.2754  0.1021  0.0884
 2828SOL    HW1 9925   6.984   3.446  11.971  0.1540 -1.2018 -1.0614
 2828SOL    HW2 9926   6.850   3.452  12.040  0.9591  0.1564  0.4597
 2829SOL     OW 9927   6.798   4.028  11.850  0.0218 -0.3893 -0.0143
 2829SOL    HW1 9928   6.772   3.941  11.820  0.0862 -1.1452  1.9502
 2829SOL    HW2 9929   6.824   4.074  11.771  0.0272 -2.1758 -1.1099
 2830SOL     OW 9930   7.802   3.014  10.621  0.3821  0.4462 -0.8189
 2830SOL    HW1 9931   7.742   3.025  10.547  0.2106  0.2226 -0.7152
 2830SOL    HW2 9932   7.751   3.038  10.698  1.2812  3.2172 -0.9451
 2831SOL     OW 9933   0.687   2.590  12.161  0.3032  0.4111 -0.6225
 2831SOL    HW1 9934   0.616   2.654  12.168 -0.3847 -0.4033  0.0692
 2831SOL    HW2 9935   0.694   2.554  12.249  1.3356  0.2183 -0.7797
 2832SOL     OW 9936   1.637   2.397  12.359 -0.1375  0.0938 -0.2462
 2832SOL    HW1 9937   1.630   2.325  12.421  0.9961  0.1098 -0.0818
 2832SOL    HW2 9938   1.677   2.358  12.281  2.5662  0.9110  0.5979
 2833SOL     OW 9939   0.560   4.696  10.454  0.0326 -0.2113 -0.2287
 2833SOL    HW1 9940   0.604   4.650  10.383 -1.1499 -1.4058 -0.2119
 2833SOL    HW2 9941   0.511   4.766  10.411  0.0649 -0.3511 -0.4925
 2834SOL     OW 9942   0.796   2.160  12.454 -0.2780  0.1767  0.2371
 2834SOL    HW1 9943   0.802   2.163  12.359 -1.5474  1.4581  0.1710
 2834SOL    HW2 9944   0.849   2.233  12.485  0.7302 -0.6654  0.5817
 2835SOL     OW 9945   1.126   3.532  11.612 -0.4463 -0.6863  0.7926
 2835SOL    HW1 9946   1.133   3.547  11.518 -1.2302  0.8333  0.9448
 2835SOL    HW2 9947   1.118   3.620  11.649 -1.7940 -1.3293  2.1264
 2836SOL     OW 9948   7.848   3.080  12.101 -0.3783  0.2682 -0.0122
 2836SOL    HW1 9949   7.776   3.060  12.041 -0.1618  1.0486 -0.5521
 2836SOL    HW2 9950   7.805   3.101  12.184 -0.6129 -2.7813  0.7600
 2837SOL     OW 9951   7.699   4.176  11.361  0.1100 -0.3116  0.3693
 2837SOL    HW1 9952   7.754   4.228  11.303 -0.7216  0.6156  0.3874
 2837SOL    HW2 9953   7.639   4.130  11.301 -2.0536  2.1288  0.4710
 2838SOL     OW 9954   7.575   3.977  11.205  0.4365  0.1507 -0.1844
 2838SOL    HW1 9955   7.549   3.949  11.117  1.8073 -0.0760 -0.5361
 2838SOL    HW2 9956   7.607   3.897  11.247 -0.9632  0.0913  0.8282
 2839SOL     OW 9957   0.424   5.218   9.861  0.5428 -0.5397  0.1843
 2839SOL    HW1 9958   0.447   5.303   9.899  2.6410 -0.5301 -0.9791
 2839SOL    HW2 9959   0.369   5.240   9.785  0.8977 -0.2404  0.0134
 2840SOL     OW 9960   1.518   1.797   0.557 -0.3175 -0.6942  0.8813
 2840SOL    HW1 9961   1.550   1.771   0.643 -2.7131 -0.1684  2.0141
 2840SOL    HW2 9962   1.587   1.853   0.521  0.7647 -1.0080  2.4080
 2841SOL     OW 9963   6.868   4.031  11.554 -0.4904  0.5601 -0.2342
 2841SOL    HW1 9964   6.952   4.025  11.599 -0.3489 -0.5572 -0.6108
 2841SOL    HW2 9965   6.847   3.941  11.531 -2.2230  0.7206  0.6066
 2842SOL     OW 9966   1.860   1.754  10.898  0.0149  0.0678 -0.2935
 2842SOL    HW1 9967   1.883   1.721  10.811 -1.4226 -1.4951 -0.1539
 2842SOL    HW2 9968   1.924   1.713  10.957  1.0015  1.1429 -0.5908
 2843SOL     OW 9969   1.086   2.261  10.093  0.2315  0.1433 -0.2901
 2843SOL    HW1 9970   1.064   2.198  10.161 -1.4303 -0.6497 -1.4803
 2843SOL    HW2 9971   1.007   2.314  10.083 -0.0598 -0.5887 -2.4277
 2844SOL     OW 9972   0.763   2.912  10.707 -0.0121  0.1644 -0.1802
 2844SOL    HW1 9973   0.819   2.851  10.756 -1.0206 -0.4075  0.3083
 2844SOL    HW2 9974   0.763   2.877  10.618  1.9335  1.2815 -0.6733
 2845SOL     OW 9975   7.063   1.798   0.772  0.0692  0.0043 -0.0690
 2845SOL    HW1 9976   7.068   1.860   0.698  0.2677  1.3763  1.0481
 2845SOL    HW2 9977   7.004   1.729   0.742  2.5416 -1.1763 -2.7162
 2846SOL     OW 9978   7.954   1.894  11.674 -0.0001  0.6708 -0.5786
 2846SOL    HW1 9979   7.885   1.929  11.731  0.2759 -1.3917  1.1726
 2846SOL    HW2 9980   7.935   1.800  11.668  1.1613  0.4954 -2.2616
 2847SOL     OW 9981   7.827   4.282  12.009 -0.1037 -0.1422 -0.3271
 2847SOL    HW1 9982   7.824   4.259  11.916 -0.4532 -0.1313 -0.3193
 2847SOL    HW2 9983   7.750   4.238  12.047 -0.2011  0.2030 -0.1222
 2848SOL     OW 9984   0.433   3.360   0.009  0.5124 -0.0077  0.1428
 2848SOL    HW1 9985   0.379   3.334   0.083  0.7319  0.7672  0.5866
 2848SOL    HW2 9986   0.414   3.453  -0.004  1.3841  0.1616  0.0099
 2849SOL     OW 9987   0.096   2.412   0.589 -0.6426 -0.1998 -0.3780
 2849SOL    HW1 9988   0.036   2.480   0.621 -0.3042  0.7229 -1.6479
 2849SOL    HW2 9989   0.182   2.442   0.618 -0.6258 -0.8211  0.2499
 2850SOL     OW 9990   1.543   3.469  11.503 -0.7566  1.4049 -0.2118
 2850SOL    HW1 9991   1.547   3.411  11.579  0.0812  1.9639  0.1757
 2850SOL    HW2 9992   1.634   3.473  11.471 -1.2936 -0.0144 -2.1574
 2851SOL     OW 9993   6.212   3.174  10.794 -0.2836 -0.1642  0.6876
 2851SOL    HW1 9994   6.275   3.102  10.802  0.5772  0.3446 -0.9715
 2851SOL    HW2 9995   6.265   3.248  10.762 -1.6022  0.4346 -0.1906
 2852SOL     OW 9996   0.726   2.295  10.496 -0.4996 -0.1948  0.4313
 2852SOL    HW1 9997   0.815   2.269  10.520  0.4764 -0.0384 -2.6002
 2852SOL    HW2 9998   0.687   2.325  10.578  0.9486 -3.6515  2.6000
 2853SOL     OW 9999   3.066   4.167  11.071  0.1255 -1.0806 -0.6087
 2853SOL    HW110000   3.135   4.180  11.006 -0.1622 -2.5127 -1.2418
 2853SOL    HW210001   3.050   4.072  11.071 -0.3199 -1.0350  1.1126
 2854SOL     OW10002   1.209   4.219   0.270 -0.3373 -0.0017 -0.8508
 2854SOL    HW110003   1.146   4.181   0.332  0.2094 -0.7974 -0.7705
 2854SOL    HW210004   1.203   4.164   0.192  0.0103  0.1292 -0.9723
 2855SOL     OW10005   0.868   2.560  11.222  0.2034  0.4696  0.1567
 2855SOL    HW110006   0.924   2.506  11.166 -0.1511  0.7620 -0.4862
 2855SOL    HW210007   0.907   2.552  11.309  1.0984  0.4687 -0.2332
 2856SOL     OW10008   3.870   3.119   0.819 -0.2714 -0.1780 -0.5390
 2856SOL    HW110009   3.790   3.169   0.801  0.2001 -0.0636 -2.6721
 2856SOL    HW210010   3.901   3.153   0.903 -2.2507  0.0214  0.1666
 2857SOL     OW10011   1.275   2.659  11.611  0.1247 -0.1993  0.2296
 2857SOL    HW110012   1.316   2.621  11.688  0.0695  1.3472  1.0625
 2857SOL    HW210013   1.197   2.604  11.596 -0.1925 -0.1749  1.6418
 2858SOL     OW10014   6.456   3.931   0.428  0.1865 -0.7974 -0.1417
 2858SOL    HW110015   6.368   3.907   0.456  0.3045  0.8302  1.8503
 2858SOL    HW210016   6.514   3.882   0.486  0.6455 -1.7406 -1.3395
 2859SOL     OW10017   1.039   4.557  10.710 -0.4262  0.4443  0.1318
 2859SOL    HW110018   1.041   4.605  10.627 -2.2525  0.7704  0.2303
 2859SOL    HW210019   1.126   4.570  10.748  0.6493 -0.1502 -1.9474
 2860SOL     OW10020   6.457   1.456  11.822 -0.7666 -0.2454  0.1985
 2860SOL    HW110021   6.502   1.491  11.745 -0.8170  1.4750  0.9130
 2860SOL    HW210022   6.369   1.492  11.817 -1.1331 -1.0967  0.4383
 2861SOL     OW10023   0.040   3.350  11.685  0.4056 -0.4325  0.8112
 2861SOL    HW110024   0.127   3.313  11.671  0.7733  0.4145  0.8404
 2861SOL    HW210025   0.031   3.355  11.780 -0.2622 -1.8525  0.8616
 2862SOL     OW10026   2.455   4.344  10.793  0.3938 -0.2434  0.5689
 2862SOL    HW110027   2.364   4.339  10.761  0.8725 -0.5079 -0.8297
 2862SOL    HW210028   2.467   4.263  10.843 -0.1243 -0.2307  0.7211
 2863SOL     OW10029   1.938   1.005  11.366 -0.5807 -0.3202  0.0167
 2863SOL    HW110030   2.013   1.044  11.413  1.7734 -1.9920 -2.0684
 2863SOL    HW210031   1.912   0.931  11.420 -0.1766 -0.2161  0.3612
 2864SOL     OW10032   0.340   1.755  11.173 -0.1637 -0.5960 -0.4843
 2864SOL    HW110033   0.245   1.764  11.185 -0.0109  0.4079  0.0220
 2864SOL    HW210034   0.368   1.839  11.138  0.8787  0.0377  1.6626
 2865SOL     OW10035   7.538   3.267  11.475 -0.2295 -0.3378  0.0010
 2865SOL    HW110036   7.634   3.259  11.475 -0.1600 -0.2050 -1.9953
 2865SOL    HW210037   7.519   3.318  11.396 -2.0204 -1.5186 -0.3756
 2866SOL     OW10038   2.502   1.998   0.735  0.0737  0.3810  0.3097
 2866SOL    HW110039   2.483   1.911   0.771 -0.8478  0.6464  0.4869
 2866SOL    HW210040   2.418   2.029   0.701  0.8247  0.3235 -1.7278
 2867SOL     OW10041   7.982   3.548   0.727  0.8394 -0.6760  0.0939
 2867SOL    HW110042   7.985   3.628   0.780 -1.2203 -0.3277 -0.2179
 2867SOL    HW210043   8.057   3.497   0.757 -0.9487 -1.2090  4.5517
 2868SOL     OW10044   7.888   2.384   8.832  0.3130 -0.2645  0.5423
 2868SOL    HW110045   7.926   2.300   8.857 -0.8269 -0.4213  1.8843
 2868SOL    HW210046   7.795   2.376   8.856  0.3464  1.6557  1.4666
 2869SOL     OW10047   0.992   0.790  11.316 -0.0615  0.0220  0.1701
 2869SOL    HW110048   0.904   0.763  11.290 -1.1389  0.2231  3.1978
 2869SOL    HW210049   1.038   0.708  11.334  0.1965 -0.0582 -0.7861
 2870SOL     OW10050   0.503   3.874   0.164 -0.7093  0.8899 -0.3379
 2870SOL    HW110051   0.477   3.892   0.074  2.0831  3.3342 -0.8121
 2870SOL    HW210052   0.599   3.883   0.164 -0.3426 -1.2593  2.4484
 2871SOL     OW10053   0.911   2.954  11.778 -0.4344  0.6382 -0.0278
 2871SOL    HW110054   0.965   2.958  11.857  0.9765  0.2798 -0.9345
 2871SOL    HW210055   0.845   3.022  11.791  0.3751  1.2576  1.0161
 2872SOL     OW10056   0.081   3.445   1.053  0.2182  0.4537 -0.1478
 2872SOL    HW110057  -0.012   3.430   1.072  0.3611 -0.4486 -0.1158
 2872SOL    HW210058   0.124   3.442   1.139  0.7008 -2.4350 -0.3903
 2873SOL     OW10059   0.351   4.047   0.347  0.0798  0.1804  0.3210
 2873SOL    HW110060   0.382   3.987   0.279  1.0659  1.6086 -0.5516
 2873SOL    HW210061   0.391   4.131   0.324  1.0868  0.5629  3.0952
 2874SOL     OW10062   7.687   2.677  11.244 -0.1299 -0.0119  0.1079
 2874SOL    HW110063   7.664   2.727  11.322 -1.1610 -0.7975  0.3244
 2874SOL    HW210064   7.737   2.602  11.276  1.7200  1.0081 -0.2481
 2875SOL     OW10065   2.429   1.852  11.801 -0.0383  0.0704 -0.1741
 2875SOL    HW110066   2.412   1.904  11.723 -0.0572  0.7604  0.2861
 2875SOL    HW210067   2.448   1.916  11.870  2.0631 -0.5549 -0.0850
 2876SOL     OW10068   2.348   4.451  11.545 -0.5532  0.1218  0.3147
 2876SOL    HW110069   2.279   4.441  11.611  0.6217 -0.1835  1.5230
 2876SOL    HW210070   2.429   4.454  11.594  0.4508 -1.0661 -1.1762
 2877SOL     OW10071   0.571   3.963  12.374  0.2986  0.0837 -0.5118
 2877SOL    HW110072   0.582   3.868  12.372 -0.3374 -0.0409  0.5866
 2877SOL    HW210073   0.488   3.978  12.329 -0.2581 -0.0265  0.4467
 2878SOL     OW10074   7.386   4.681  11.722 -0.6772 -0.0647 -0.2275
 2878SOL    HW110075   7.404   4.669  11.629 -0.5577  0.1633 -0.2360
 2878SOL    HW210076   7.412   4.772  11.739  0.3469 -0.4358  0.2758
 2879SOL     OW10077   1.719   1.563  12.073 -0.1749 -0.0452 -0.5279
 2879SOL    HW110078   1.678   1.584  11.989  0.9248  1.3117 -0.7604
 2879SOL    HW210079   1.787   1.630  12.084  1.6514 -1.8970  0.0741
 2880SOL     OW10080   1.712   4.745  12.064 -0.2940  0.3372  0.1606
 2880SOL    HW110081   1.804   4.768  12.081 -0.5503  1.7495 -0.2237
 2880SOL    HW210082   1.700   4.764  11.971 -0.3475 -2.1935 -0.4255
 2881SOL     OW10083   6.930   2.957  12.434 -0.1663  0.4157 -0.6330
 2881SOL    HW110084   7.002   2.969  12.496  0.0252 -0.0019 -0.7713
 2881SOL    HW210085   6.941   2.867  12.402 -0.6528  0.4068 -0.7772
 2882SOL     OW10086   1.108   1.941  12.363  0.0292 -0.2519 -0.0255
 2882SOL    HW110087   1.023   1.903  12.382  0.7361 -1.5340  0.7365
 2882SOL    HW210088   1.097   1.982  12.277 -1.2781 -0.6010 -0.0483
 2883SOL     OW10089   7.930   2.483  12.239  0.1435 -0.2648  0.5216
 2883SOL    HW110090   7.875   2.427  12.184 -0.2137 -1.0285  1.6107
 2883SOL    HW210091   8.005   2.429  12.262  1.6254  0.9110 -1.2982
 2884SOL     OW10092   1.761   4.795  11.466  0.3189  0.0976  0.2010
 2884SOL    HW110093   1.791   4.780  11.556 -0.5956  2.1268  0.8828
 2884SOL    HW210094   1.789   4.884  11.446  0.2533 -0.2203 -1.4598
 2885SOL     OW10095   7.915   1.216  12.014 -0.0869  0.5415  0.0602
 2885SOL    HW110096   7.953   1.301  11.990  0.0644  0.3915 -0.2257
 2885SOL    HW210097   7.860   1.193  11.940  0.2687  0.1498 -0.0871
 2886SOL     OW10098   1.811   0.727  12.459  0.1646 -0.1299  0.1689
 2886SOL    HW110099   1.899   0.708  12.491  1.2128  0.1895 -2.3221
 2886SOL    HW210100   1.820   0.810  12.411 -0.9848 -1.1197 -1.8963
 2887SOL     OW10101   1.003   7.714   0.297  0.0979  0.1596  0.0045
 2887SOL    HW110102   0.995   7.779   0.366  2.5397  1.8600 -1.1622
 2887SOL    HW210103   0.970   7.633   0.336 -2.3994  1.8808  1.7436
 2888SOL     OW10104   0.313   2.700  11.296  0.3661  0.6403 -0.0715
 2888SOL    HW110105   0.379   2.719  11.228 -0.5282  0.1694 -1.1030
 2888SOL    HW210106   0.264   2.782  11.305  2.0954  1.5492  1.9220
 2889SOL     OW10107   1.276   2.229  11.142  0.0868 -0.0429  0.3626
 2889SOL    HW110108   1.336   2.257  11.211  0.6768 -0.8880  0.2131
 2889SOL    HW210109   1.333   2.185  11.078 -0.8139 -1.8880  0.7684
 2890SOL     OW10110   7.465   4.190   0.586 -0.3764 -0.1130 -0.0568
 2890SOL    HW110111   7.556   4.186   0.617 -0.0474 -1.6162 -1.1097
 2890SOL    HW210112   7.468   4.252   0.514  0.6766 -2.7776 -2.5090
 2891SOL     OW10113   0.489   1.160  10.664  0.2885  0.3135 -0.0493
 2891SOL    HW110114   0.494   1.252  10.691  1.9739 -0.4020  2.3761
 2891SOL    HW210115   0.579   1.136  10.644 -0.0957 -0.9227 -0.3696
 2892SOL     OW10116   0.881   5.598  10.496  0.3596 -0.2828  0.3455
 2892SOL    HW110117   0.912   5.525  10.550 -0.7430 -0.6480  0.5134
 2892SOL    HW210118   0.856   5.666  10.558  1.8879  0.4621  0.1686
 2893SOL     OW10119   1.616   5.260  12.046  0.0543  0.1800 -0.3906
 2893SOL    HW110120   1.564   5.332  12.080 -0.0896 -0.2301  0.2964
 2893SOL    HW210121   1.706   5.293  12.046  0.1990 -0.0960  1.3244
 2894SOL     OW10122   6.303   5.686   0.374  0.3547 -0.2066 -0.2313
 2894SOL    HW110123   6.241   5.676   0.301  0.2295  1.1865 -0.3365
 2894SOL    HW210124   6.313   5.781   0.384  0.9674 -0.3942  1.0705
 2895SOL     OW10125   1.305   4.895   0.747 -0.1778  0.6417 -0.3613
 2895SOL    HW110126   1.353   4.861   0.671 -1.2024  2.7848 -2.1094
 2895SOL    HW210127   1.220   4.850   0.743  0.3894 -0.5509  0.6154
 2896SOL     OW10128   0.488   5.388  11.848  0.2259  0.1161  0.2307
 2896SOL    HW110129   0.567   5.337  11.831 -0.3283 -0.7466  0.2134
 2896SOL    HW210130   0.456   5.355  11.932 -0.3990  0.0901 -0.0119
 2897SOL     OW10131   1.036   3.707   1.084 -0.2446  0.2884 -0.0966
 2897SOL    HW110132   1.089   3.628   1.099 -3.3502 -1.5306  2.5622
 2897SOL    HW210133   0.987   3.687   1.004 -1.6298 -0.9980  1.0044
 2898SOL     OW10134   0.159   4.283   1.337 -0.2125 -0.5904  0.4776
 2898SOL    HW110135   0.114   4.204   1.367 -1.2596 -1.7779 -3.5661
 2898SOL    HW210136   0.103   4.318   1.268  1.7149  1.9882  0.0751
 2899SOL     OW10137   1.422   5.182   1.366 -0.1669 -0.4171  0.1524
 2899SOL    HW110138   1.451   5.095   1.394  0.8328 -0.1897 -0.1259
 2899SOL    HW210139   1.326   5.177   1.368 -0.1333 -1.6745 -0.3157
 2900SOL     OW10140   1.899   4.481  11.025 -0.5429 -0.2235  0.8627
 2900SOL    HW110141   1.882   4.559  10.971 -0.8178 -0.8434  0.0191
 2900SOL    HW210142   1.934   4.515  11.107 -0.3740  0.7717  0.3915
 2901SOL     OW10143   1.150   4.813  11.212  0.0866 -0.1912  0.7455
 2901SOL    HW110144   1.154   4.840  11.304  0.4015 -0.2661  0.7535
 2901SOL    HW210145   1.216   4.745  11.203  0.0007 -0.2437  0.4804
 2902SOL     OW10146   0.415   2.412   1.599 -0.4720 -0.3029  0.3108
 2902SOL    HW110147   0.326   2.400   1.566  0.2109  0.2391 -1.8697
 2902SOL    HW210148   0.404   2.421   1.694 -2.6925 -0.5689  0.1320
 2903SOL     OW10149   0.526   4.844  11.498 -0.1238 -0.4606  0.0838
 2903SOL    HW110150   0.435   4.873  11.498  0.1271  0.3679  0.3932
 2903SOL    HW210151   0.540   4.806  11.584  0.0888  0.3157  0.3992
 2904SOL     OW10152   5.877   4.719   0.558  0.1275  0.2807  0.4251
 2904SOL    HW110153   5.948   4.733   0.496 -0.0808  0.4114  0.2179
 2904SOL    HW210154   5.839   4.805   0.572 -1.0881 -0.0352 -0.7806
 2905SOL     OW10155   5.925   4.413   1.688 -0.5549 -0.1674  0.1448
 2905SOL    HW110156   5.912   4.319   1.691 -0.1303 -0.2131  0.7869
 2905SOL    HW210157   5.841   4.450   1.714 -0.9520 -0.3465 -0.8453
 2906SOL     OW10158   1.590   3.528   0.830 -0.6898 -0.1683  0.3226
 2906SOL    HW110159   1.654   3.561   0.767 -1.1449 -0.6951 -0.4323
 2906SOL    HW210160   1.518   3.494   0.776 -1.4404  0.0613  1.1403
 2907SOL     OW10161   0.606   5.302  11.113 -0.3940 -0.2792  0.1010
 2907SOL    HW110162   0.514   5.296  11.087 -1.1756 -0.6816  2.6372
 2907SOL    HW210163   0.641   5.215  11.097 -0.3125 -0.0225 -1.2325
 2908SOL     OW10164   1.850   2.323   0.946  0.1432  0.0452  0.6385
 2908SOL    HW110165   1.821   2.263   0.877 -0.4339  0.2366  0.7032
 2908SOL    HW210166   1.939   2.346   0.923 -1.3210  3.5185 -2.5244
 2909SOL     OW10167   7.774   3.823  11.349 -0.4032  0.7205  0.0028
 2909SOL    HW110168   7.849   3.805  11.405  0.5468 -0.4314 -1.6018
 2909SOL    HW210169   7.702   3.837  11.411  0.2792 -1.9051  1.5260
 2910SOL     OW10170   3.221   6.080   0.382 -0.0443  0.3625 -0.0365
 2910SOL    HW110171   3.147   6.086   0.443  0.4647  1.1719  0.5131
 2910SOL    HW210172   3.229   6.168   0.345  0.2309  0.1092 -0.5871
 2911SOL     OW10173   5.805   6.909  11.537 -0.3048 -0.1029  0.0857
 2911SOL    HW110174   5.848   6.993  11.554  0.1196 -0.2057 -0.4505
 2911SOL    HW210175   5.876   6.851  11.511 -0.3584 -1.0508  1.8682
 2912SOL     OW10176   5.918   4.692  11.822  0.0757 -0.4300  0.1278
 2912SOL    HW110177   5.853   4.702  11.753 -0.5565 -0.9835  0.6301
 2912SOL    HW210178   6.002   4.705  11.779 -0.2828 -1.2537 -0.8463
 2913SOL     OW10179   0.004   4.969   3.274  1.0640 -0.2015  0.6911
 2913SOL    HW110180  -0.067   5.030   3.294 -0.3465 -1.2902 -0.6824
 2913SOL    HW210181   0.072   4.989   3.338  1.2934  3.7335 -0.5604
 2914SOL     OW10182   0.473   4.302  11.938  0.2713  0.0854 -1.0463
 2914SOL    HW110183   0.502   4.391  11.959  0.4446  0.1426 -1.5310
 2914SOL    HW210184   0.542   4.266  11.883  0.7130 -0.7303 -0.0004
 2915SOL     OW10185   1.311   3.422   1.413 -0.0618 -0.7461 -0.3562
 2915SOL    HW110186   1.405   3.438   1.405  0.1192 -0.5386  1.5740
 2915SOL    HW210187   1.273   3.509   1.427  0.0874 -1.0889  3.2913
 2916SOL     OW10188   0.438   3.518   1.707 -0.1485  0.3790 -0.2654
 2916SOL    HW110189   0.348   3.538   1.681 -0.5030 -0.8867 -0.0834
 2916SOL    HW210190   0.452   3.571   1.786 -1.4834 -0.9415  0.9153
 2917SOL     OW10191   0.583   6.156  12.133  0.4206  0.1741  0.1284
 2917SOL    HW110192   0.573   6.114  12.048 -0.3073  2.0234 -0.7516
 2917SOL    HW210193   0.677   6.159  12.148  0.5685  0.0390 -0.7229
 2918SOL     OW10194   0.231   5.444  12.491  0.2131 -0.4402 -0.1602
 2918SOL    HW110195   0.282   5.447  12.571  0.0469  0.2221 -0.0693
 2918SOL    HW210196   0.146   5.481  12.515  0.7493  1.5163 -1.0441
 2919SOL     OW10197   1.590   4.173  12.241 -0.4892 -0.5679 -0.7743
 2919SOL    HW110198   1.548   4.200  12.159 -1.3553  0.7080  0.0586
 2919SOL    HW210199   1.606   4.255  12.288  0.0908 -1.2721  0.2936
 2920SOL     OW10200   1.879   3.408  12.277  0.1487  0.1262  0.0404
 2920SOL    HW110201   1.884   3.460  12.357 -0.3637 -1.2261  0.9907
 2920SOL    HW210202   1.959   3.429  12.229  0.6782  0.6393  1.1189
 2921SOL     OW10203   0.229   5.358   1.155  0.0993 -0.3328 -0.1321
 2921SOL    HW110204   0.211   5.308   1.234  2.2680 -1.8082 -0.4889
 2921SOL    HW210205   0.250   5.446   1.186 -1.4046 -0.2316  0.6955
 2922SOL     OW10206   7.836   4.139   0.466 -0.0742  0.5568  0.3421
 2922SOL    HW110207   7.932   4.142   0.465 -0.0950  2.4010  0.2274
 2922SOL    HW210208   7.813   4.138   0.558  0.0541 -0.9324  0.3704
 2923SOL     OW10209   1.295   4.666  11.907 -0.4821  0.0113  0.0144
 2923SOL    HW110210   1.369   4.649  11.966  0.4611  0.0204 -1.1264
 2923SOL    HW210211   1.282   4.761  11.912  1.0779  0.3487 -1.4485
 2924SOL     OW10212   0.233   4.589   2.501  0.5246 -0.1265  0.0262
 2924SOL    HW110213   0.261   4.519   2.443  0.4665 -0.5561  0.5035
 2924SOL    HW210214   0.314   4.631   2.529  0.4806  1.3162 -1.8300
 2925SOL     OW10215   7.795   4.757   2.736 -0.3350 -0.8799 -0.0595
 2925SOL    HW110216   7.718   4.757   2.794 -0.5197 -1.5226 -0.2980
 2925SOL    HW210217   7.825   4.667   2.736 -0.7904 -1.0589 -1.5511
 2926SOL     OW10218   0.691   2.951  12.016 -0.1415 -0.5129 -0.3552
 2926SOL    HW110219   0.639   3.009  12.072  0.7708  2.0424 -1.9980
 2926SOL    HW210220   0.777   2.947  12.058  0.0046 -0.0845 -0.6114
 2927SOL     OW10221   1.737   5.040   0.247 -0.3217  0.0633 -0.3626
 2927SOL    HW110222   1.747   4.995   0.330 -0.7863 -0.3653 -0.5348
 2927SOL    HW210223   1.646   5.025   0.222 -1.1940  2.9190  0.6399
 2928SOL     OW10224   0.791   4.100   1.252 -0.2015  0.4738  0.2334
 2928SOL    HW110225   0.713   4.155   1.261  1.2762  2.3650  2.5515
 2928SOL    HW210226   0.850   4.151   1.196 -0.8387 -1.3755 -2.3538
 2929SOL     OW10227   1.645   3.789   1.012  0.0111  0.0719 -0.5219
 2929SOL    HW110228   1.643   3.715   0.951  0.2934  0.5799 -1.1437
 2929SOL    HW210229   1.652   3.747   1.098  0.4329 -0.6196 -0.8808
 2930SOL     OW10230   2.713   4.437  12.326  0.0245 -0.0558  0.8751
 2930SOL    HW110231   2.748   4.355  12.291  0.7101  0.1400  1.0859
 2930SOL    HW210232   2.780   4.503  12.306 -0.3244  0.3714  1.0865
 2931SOL     OW10233   1.529   4.942  11.774  0.3184  0.1810 -0.4917
 2931SOL    HW110234   1.461   4.990  11.820  0.5860  1.3746 -1.3085
 2931SOL    HW210235   1.508   4.952  11.681  1.0930 -0.2104 -0.7233
 2932SOL     OW10236   0.052   4.019  11.663  0.5677 -0.2338  0.2472
 2932SOL    HW110237   0.109   4.088  11.697 -0.5972  0.4798  0.7987
 2932SOL    HW210238  -0.035   4.058  11.662 -0.1859 -1.8065  0.9291
 2933SOL     OW10239   2.183   7.328  11.711 -0.1316  0.6327  0.0177
 2933SOL    HW110240   2.120   7.303  11.643  0.2419  0.5528 -0.3036
 2933SOL    HW210241   2.183   7.254  11.772  0.4801  0.1279 -0.5808
 2934SOL     OW10242   0.144   1.155   2.305 -0.2760  0.6599 -0.3803
 2934SOL    HW110243   0.138   1.234   2.251 -2.6274  0.0073 -1.2197
 2934SOL    HW210244   0.128   1.186   2.395  1.1284  1.4032 -0.3576
 2935SOL     OW10245   1.098   2.840   1.884 -0.5199  0.4548  0.2617
 2935SOL    HW110246   1.110   2.840   1.789 -0.5865  1.1116  0.2436
 2935SOL    HW210247   1.078   2.750   1.906 -1.9185  0.5464 -0.5297
 2936SOL     OW10248   2.660   5.406  11.099 -0.3928 -0.0266 -0.4629
 2936SOL    HW110249   2.669   5.421  11.005  0.1377 -1.2531 -0.6234
 2936SOL    HW210250   2.621   5.319  11.105  2.5919 -1.4219  0.4585
 2937SOL     OW10251   1.071   5.477   0.750  0.1690 -0.0577 -0.0170
 2937SOL    HW110252   1.023   5.437   0.823 -0.1403 -2.6470 -1.5395
 2937SOL    HW210253   1.162   5.453   0.764  0.2636  0.3054  0.0177
 2938SOL     OW10254   6.832   5.276  11.631 -0.2003 -0.0129 -0.5245
 2938SOL    HW110255   6.920   5.264  11.595  0.2235 -1.8378  0.9764
 2938SOL    HW210256   6.773   5.257  11.558  0.6061  1.0830 -1.5032
 2939SOL     OW10257   7.101   5.929  10.999 -0.0190  0.5728  0.5360
 2939SOL    HW110258   7.050   5.985  11.057  0.2181  2.2171 -0.7561
 2939SOL    HW210259   7.038   5.900  10.933  0.6663  3.1043 -1.4220
 2940SOL     OW10260   0.497   5.422   0.203  0.0164  0.3690  0.3413
 2940SOL    HW110261   0.540   5.482   0.265  1.3890 -0.0754 -0.1265
 2940SOL    HW210262   0.533   5.447   0.118 -1.0670  0.2948 -0.1470
 2941SOL     OW10263   0.234   3.671   0.513  0.2271  0.4192 -0.0242
 2941SOL    HW110264   0.140   3.675   0.531  0.1217  1.2298 -0.6930
 2941SOL    HW210265   0.267   3.603   0.572 -1.1509 -1.5221 -1.3700
 2942SOL     OW10266   0.994   4.230   1.115  0.2161  0.6643  0.1156
 2942SOL    HW110267   1.089   4.227   1.103  0.1942  1.8097 -0.4858
 2942SOL    HW210268   0.958   4.191   1.036  0.1845  0.7680  0.0780
 2943SOL     OW10269   2.173   5.749   9.531  0.1902  0.1873 -0.0478
 2943SOL    HW110270   2.118   5.826   9.547  0.1071 -0.2071  1.8162
 2943SOL    HW210271   2.136   5.682   9.588  1.2107 -0.7818 -0.4999
 2944SOL     OW10272   1.465   4.175   0.345  0.3999 -0.4414  0.1881
 2944SOL    HW110273   1.381   4.192   0.303  0.2021 -1.3175  0.1998
 2944SOL    HW210274   1.465   4.080   0.361  0.7397 -0.2260  1.6025
 2945SOL     OW10275   2.774   6.002   0.077 -0.2877 -0.1179 -0.4386
 2945SOL    HW110276   2.741   6.008  -0.012 -1.8106  0.2508  0.1197
 2945SOL    HW210277   2.801   6.091   0.099  0.8381 -0.3571 -0.7814
 2946SOL     OW10278   7.550   6.310   1.174  0.5212  0.6343  0.8874
 2946SOL    HW110279   7.550   6.317   1.270 -1.4201 -0.3948  1.0265
 2946SOL    HW210280   7.606   6.236   1.155 -0.7070 -0.4886  1.4336
 2947SOL     OW10281   2.492   3.960  12.359 -0.4368  0.7113 -0.1396
 2947SOL    HW110282   2.550   3.936  12.430 -1.1665 -0.4242  0.0888
 2947SOL    HW210283   2.524   3.912  12.283 -0.8270  0.3967 -0.1093
 2948SOL     OW10284   1.952   6.931   1.927 -0.4333 -0.1101 -0.0455
 2948SOL    HW110285   1.890   6.863   1.953  1.0599 -1.0893  1.1329
 2948SOL    HW210286   2.029   6.883   1.896  0.7460  1.0141  1.0293
 2949SOL     OW10287   7.231   4.332   0.078  0.1330 -0.1538  0.5380
 2949SOL    HW110288   7.307   4.321   0.135  1.0474 -0.3146 -0.6825
 2949SOL    HW210289   7.225   4.427   0.065  1.5719 -0.2493 -1.2115
 2950SOL     OW10290   2.726   3.360  11.954 -0.1335  0.3759 -0.1929
 2950SOL    HW110291   2.755   3.318  12.036 -2.0888  1.0232  0.9014
 2950SOL    HW210292   2.768   3.445  11.955  3.1075 -1.0221 -1.9634
 2951SOL     OW10293   0.689   5.872   0.062  0.1908  0.1324  0.2420
 2951SOL    HW110294   0.752   5.893  -0.007  1.5803 -2.9341  0.4242
 2951SOL    HW210295   0.603   5.887   0.021  0.9294 -2.3077 -2.5442
 2952SOL     OW10296   0.389   3.333  12.236  0.1545 -0.5365  0.2217
 2952SOL    HW110297   0.477   3.361  12.213  0.2331 -0.1126  1.0237
 2952SOL    HW210298   0.390   3.323  12.331 -0.4042 -1.4553  0.1440
 2953SOL     OW10299   7.708   1.640   1.576 -0.6303 -0.6012 -0.5868
 2953SOL    HW110300   7.780   1.686   1.533 -0.5092  1.7977  1.9221
 2953SOL    HW210301   7.737   1.628   1.666 -2.2822 -2.1527 -0.1984
 2954SOL     OW10302   2.487   5.824  10.757 -0.5543 -0.4503  0.6520
 2954SOL    HW110303   2.406   5.774  10.772 -0.4625 -0.5520  0.8241
 2954SOL    HW210304   2.537   5.770  10.696 -1.1232  0.1812 -0.3975
 2955SOL     OW10305   7.777   4.810  11.815  0.1559  0.2707 -0.0734
 2955SOL    HW110306   7.817   4.875  11.872 -0.8223  1.4341 -0.6827
 2955SOL    HW210307   7.745   4.860  11.740  0.8479 -1.1261 -1.3592
 2956SOL     OW10308   1.717   4.524   0.490 -0.0970  0.0005 -0.4540
 2956SOL    HW110309   1.721   4.489   0.579 -3.1641  0.1276 -0.1437
 2956SOL    HW210310   1.729   4.448   0.433 -0.2555 -0.4437  0.0987
 2957SOL     OW10311   0.728   4.574   0.668  0.2987 -0.1686 -0.4834
 2957SOL    HW110312   0.743   4.665   0.643 -0.1599 -0.1082 -0.5483
 2957SOL    HW210313   0.642   4.553   0.633 -0.2699 -0.1571  0.8321
 2958SOL     OW10314   2.596   6.931  12.206 -0.1726  0.2685  0.1120
 2958SOL    HW110315   2.666   6.994  12.190 -0.3027  0.4040  0.0700
 2958SOL    HW210316   2.627   6.849  12.168 -0.1244  0.3793 -0.0894
 2959SOL     OW10317   0.510   3.488   0.930  0.0006 -0.2562 -0.5364
 2959SOL    HW110318   0.543   3.443   0.852 -0.0116  0.5023 -0.9872
 2959SOL    HW210319   0.551   3.574   0.927 -0.3524 -0.0630  0.0569
 2960SOL     OW10320   1.230   4.025   0.836  0.3163  0.0960  0.0077
 2960SOL    HW110321   1.258   4.042   0.926 -0.8603  1.6265  0.1175
 2960SOL    HW210322   1.229   4.111   0.794 -1.6541 -0.2192 -0.7121
 2961SOL     OW10323   3.052   6.351  10.223 -0.2178  0.5910 -0.2430
 2961SOL    HW110324   3.118   6.284  10.241 -1.6361 -0.5425  1.0326
 2961SOL    HW210325   3.077   6.387  10.138  0.8128 -1.2770 -0.7966
 2962SOL     OW10326   0.116   5.538   2.495 -0.1417  0.6114  0.3252
 2962SOL    HW110327   0.073   5.458   2.525  0.8482  0.0606  0.3353
 2962SOL    HW210328   0.050   5.584   2.443 -0.6646 -0.2819  0.1925
 2963SOL     OW10329   0.053   5.109   0.586  0.7444 -0.5762 -0.2804
 2963SOL    HW110330   0.022   5.141   0.671 -1.0945 -1.9762 -0.3612
 2963SOL    HW210331   0.114   5.176   0.556  0.2039  0.7448  1.4132
 2964SOL     OW10332   1.309   3.364  11.384 -0.0188 -0.3718  0.8488
 2964SOL    HW110333   1.342   3.443  11.428  0.8928  0.8615 -1.8499
 2964SOL    HW210334   1.342   3.291  11.437  1.0202  0.9979  2.1742
 2965SOL     OW10335   0.456   4.566   0.599 -0.0925  0.1481  0.6342
 2965SOL    HW110336   0.446   4.648   0.647 -1.0499  2.2362 -2.7588
 2965SOL    HW210337   0.373   4.556   0.552  1.1848 -0.9256 -1.5785
 2966SOL     OW10338   2.068   2.867  12.205 -0.0062  0.0993 -0.3739
 2966SOL    HW110339   2.111   2.809  12.267  0.7149  1.3685  0.3490
 2966SOL    HW210340   2.014   2.925  12.260 -0.8656 -0.0029 -1.0872
 2967SOL     OW10341   0.831   4.614  12.068  0.4468 -0.1808  0.1396
 2967SOL    HW110342   0.896   4.544  12.065  2.1550  1.2712  1.3532
 2967SOL    HW210343   0.749   4.569  12.092  1.3005 -1.8438  0.1062
 2968SOL     OW10344   1.152   4.950   0.420 -0.2873 -0.6670 -0.0780
 2968SOL    HW110345   1.091   5.014   0.383  1.4397  0.6465 -0.8142
 2968SOL    HW210346   1.206   5.000   0.480 -0.0849 -1.8563  0.7717
 2969SOL     OW10347   0.106   6.530  11.408 -0.5266 -0.0094 -0.7304
 2969SOL    HW110348   0.023   6.513  11.453 -0.6591 -0.7648 -1.2380
 2969SOL    HW210349   0.083   6.585  11.334 -0.5756 -0.1750 -0.8402
 2970SOL     OW10350   1.581   3.485   0.059 -0.0902 -0.0441  0.3932
 2970SOL    HW110351   1.488   3.464   0.073 -0.2353  0.3151  0.0029
 2970SOL    HW210352   1.579   3.567   0.009  0.4340 -0.1449  0.2072
 2971SOL     OW10353   7.862   4.302   1.183  0.0934 -0.0495  0.0269
 2971SOL    HW110354   7.811   4.371   1.142  0.7495 -0.7158 -2.0859
 2971SOL    HW210355   7.849   4.313   1.277 -1.3569  1.7122 -0.3439
 2972SOL     OW10356   2.297   6.099   1.489 -0.5435  0.5491 -0.0522
 2972SOL    HW110357   2.239   6.053   1.551  0.0763  1.2592  1.0899
 2972SOL    HW210358   2.255   6.184   1.475  0.2384  1.1043  0.8555
 2973SOL     OW10359   7.768   4.413   0.877  0.1909 -0.0192 -0.1488
 2973SOL    HW110360   7.747   4.462   0.956  0.7028 -0.2385  0.1269
 2973SOL    HW210361   7.720   4.458   0.807  0.0346  0.3998  0.2245
 2974SOL     OW10362   2.019   5.721  11.799  0.0168  0.1284 -0.5114
 2974SOL    HW110363   2.097   5.775  11.810  0.9360 -1.1162 -0.6988
 2974SOL    HW210364   1.997   5.729  11.706  0.9601 -0.8508 -0.8407
 2975SOL     OW10365   0.842   5.459  11.945  0.4736  0.0075  0.3721
 2975SOL    HW110366   0.795   5.376  11.936  1.3809 -0.3251 -1.9058
 2975SOL    HW210367   0.796   5.520  11.888  1.1817  0.4322  0.2394
 2976SOL     OW10368   0.803   4.808  12.489  0.2374 -0.1075  0.0800
 2976SOL    HW110369   0.886   4.809  12.442  0.1969 -1.5060 -0.0598
 2976SOL    HW210370   0.818   4.863  12.566  2.2380 -2.5020  1.5509
 2977SOL     OW10371   7.606   3.921   1.534 -0.1029  0.6731 -0.6291
 2977SOL    HW110372   7.694   3.886   1.547 -0.6140 -0.0170  1.3548
 2977SOL    HW210373   7.595   3.984   1.606 -1.7744 -0.4209  0.1281
 2978SOL     OW10374   7.826   3.759  12.259 -0.0336  0.1102  0.1515
 2978SOL    HW110375   7.785   3.844  12.275  1.0158  0.5570  0.5614
 2978SOL    HW210376   7.816   3.711  12.341  0.6032  0.3809  0.3994
 2979SOL     OW10377   7.690   3.528   1.739  0.3251  0.1763  0.2391
 2979SOL    HW110378   7.715   3.604   1.685 -2.5181 -0.4578 -2.2340
 2979SOL    HW210379   7.612   3.557   1.785 -0.3978 -0.9985 -0.2160
 2980SOL     OW10380   1.954   2.230   0.375  0.5543  0.5171 -0.2442
 2980SOL    HW110381   1.887   2.295   0.352  0.9262  0.3458 -1.9335
 2980SOL    HW210382   2.030   2.255   0.322 -0.3016 -3.1674 -3.6793
 2981SOL     OW10383   1.103   2.571   1.942  0.3180  0.5696 -0.3084
 2981SOL    HW110384   1.051   2.577   2.022  1.3932  2.0273  0.3426
 2981SOL    HW210385   1.182   2.524   1.969  0.2475  0.1933 -0.7602
 2982SOL     OW10386   2.106   4.312  12.415 -0.1939  0.1806 -0.0064
 2982SOL    HW110387   2.081   4.247  12.349  0.5626 -0.9049  0.7205
 2982SOL    HW210388   2.202   4.316  12.409  0.0388 -0.9899  1.8869
 2983SOL     OW10389   6.157   3.632  11.342  0.2236 -0.1584 -0.3712
 2983SOL    HW110390   6.213   3.556  11.360 -0.3967 -0.1904  1.6818
 2983SOL    HW210391   6.069   3.597  11.335  0.2935 -0.0043 -2.8245
 2984SOL     OW10392   1.980   5.135   0.154  0.3866 -0.2431 -0.7287
 2984SOL    HW110393   2.021   5.134   0.240 -0.8909  3.8286  0.1517
 2984SOL    HW210394   1.891   5.103   0.170  0.3320 -0.0534 -0.6508
 2985SOL     OW10395   3.454   3.246   0.260 -0.6784  0.4466  0.2351
 2985SOL    HW110396   3.482   3.191   0.334  0.5404  0.2380 -0.3588
 2985SOL    HW210397   3.466   3.336   0.291  1.4825  0.3884 -0.2349
 2986SOL     OW10398   2.504   2.817  11.928 -0.3847 -0.6555 -0.2134
 2986SOL    HW110399   2.444   2.790  11.997 -1.0973 -1.0309 -0.9623
 2986SOL    HW210400   2.447   2.839  11.854  0.3958 -0.9486 -0.9204
 2987SOL     OW10401   2.241   3.326   1.508  0.0271 -0.1677 -0.0139
 2987SOL    HW110402   2.231   3.381   1.587  0.5290  0.9931 -0.7339
 2987SOL    HW210403   2.200   3.243   1.532  0.0978  0.1841  1.4506
 2988SOL     OW10404   1.094   5.552   0.412 -0.9767  0.3591  0.4550
 2988SOL    HW110405   1.171   5.581   0.362 -2.0403  0.2093 -1.3571
 2988SOL    HW210406   1.105   5.592   0.498  0.9152  0.6677  0.1268
 2989SOL     OW10407   2.745   5.281   2.721  0.3851 -0.1773 -0.4996
 2989SOL    HW110408   2.827   5.295   2.770 -0.5353 -0.9250  1.3564
 2989SOL    HW210409   2.676   5.305   2.783 -0.8288 -0.3977 -1.7298
 2990SOL     OW10410   0.254   3.716   1.273 -0.1869  0.2592 -0.2666
 2990SOL    HW110411   0.234   3.808   1.259 -1.3124  0.1093  0.2852
 2990SOL    HW210412   0.344   3.716   1.308 -0.2292  1.1513 -0.1550
 2991SOL     OW10413   1.725   4.748  11.760 -0.4586 -0.3041 -0.3196
 2991SOL    HW110414   1.650   4.806  11.749  0.2317  0.8763  0.9797
 2991SOL    HW210415   1.690   4.660  11.744 -1.9578  0.2778 -0.3714
 2992SOL     OW10416   1.421   1.813   3.071  0.3236  0.6213 -0.1134
 2992SOL    HW110417   1.423   1.721   3.097 -2.1715 -0.0778 -2.0256
 2992SOL    HW210418   1.514   1.837   3.060  1.0638 -1.3487  1.2965
 2993SOL     OW10419   0.958   4.289  12.192  0.2571  0.0928  0.1972
 2993SOL    HW110420   0.868   4.288  12.224 -0.3177 -0.2331 -1.3518
 2993SOL    HW210421   0.953   4.248  12.106  1.8543  0.3054 -0.0220
 2994SOL     OW10422   2.637   4.268   1.541  0.1263  0.3523 -0.0969
 2994SOL    HW110423   2.591   4.329   1.600 -1.3460  0.3918 -1.2337
 2994SOL    HW210424   2.714   4.317   1.512  0.0399  0.9091  0.5866
 2995SOL     OW10425   7.417   2.675   1.601  0.1337 -0.3894 -0.6450
 2995SOL    HW110426   7.380   2.660   1.687  0.7532 -0.8875 -0.4556
 2995SOL    HW210427   7.388   2.763   1.577  1.6166  0.6023  0.9487
 2996SOL     OW10428   0.446   4.181   1.658  0.3016  0.2779  0.0486
 2996SOL    HW110429   0.522   4.235   1.681  1.5029 -0.1507 -2.5409
 2996SOL    HW210430   0.427   4.205   1.567 -0.7660 -1.7982 -0.3231
 2997SOL     OW10431   6.324   5.966   0.328 -0.1519  0.9848  0.2287
 2997SOL    HW110432   6.384   6.004   0.264 -1.0647  1.7265 -0.2129
 2997SOL    HW210433   6.246   6.022   0.324 -1.0911 -0.2717  0.3761
 2998SOL     OW10434   7.513   4.942   0.236 -0.0736  0.0901 -0.6497
 2998SOL    HW110435   7.594   4.950   0.287 -0.5334 -2.0241  0.5591
 2998SOL    HW210436   7.444   4.932   0.301 -1.2687  1.3371 -1.6738
 2999SOL     OW10437   1.702   5.445   0.484  0.5536 -0.2392  0.2489
 2999SOL    HW110438   1.733   5.510   0.546  0.2031  1.0215 -0.8387
 2999SOL    HW210439   1.696   5.492   0.401 -1.7743 -1.0716 -0.1395
 3000SOL     OW10440   7.594   4.687   0.668 -0.0849  0.1111  0.0766
 3000SOL    HW110441   7.508   4.669   0.630 -0.1509  0.4483  0.0641
 3000SOL    HW210442   7.645   4.608   0.650 -0.2385  0.1068 -0.3575
 3001SOL     OW10443   0.996   4.229  12.476  0.2068 -0.2463  0.0257
 3001SOL    HW110444   1.044   4.154  12.510 -0.3793  0.1327  1.7968
 3001SOL    HW210445   0.989   4.213  12.382  2.4160 -1.0580 -0.0520
 3002SOL     OW10446   0.078   2.911   0.746 -0.4648 -0.2235 -0.1906
 3002SOL    HW110447   0.072   2.884   0.837 -0.7780 -0.7612 -0.3640
 3002SOL    HW210448   0.172   2.912   0.727 -0.3446  0.7937  0.3911
 3003SOL     OW10449   1.455   5.200   0.347 -0.0139  0.1584 -0.0178
 3003SOL    HW110450   1.541   5.187   0.387  0.7984  1.6939 -1.1824
 3003SOL    HW210451   1.440   5.120   0.297  0.7604 -0.0954  0.1408
 3004SOL     OW10452   0.863   7.491  12.357  0.0072 -0.0496  0.0684
 3004SOL    HW110453   0.850   7.569  12.411 -2.7905 -0.4258  0.1118
 3004SOL    HW210454   0.781   7.482  12.309  1.8547 -0.5329 -3.2744
 3005SOL     OW10455   0.478   3.128   3.382 -0.1582 -0.2501 -0.0835
 3005SOL    HW110456   0.520   3.175   3.310  1.1253 -1.2878 -0.0554
 3005SOL    HW210457   0.421   3.065   3.339  0.5406 -0.8090 -0.2152
 3006SOL     OW10458   0.104   3.162   1.502 -0.2752  0.2348  0.4486
 3006SOL    HW110459   0.068   3.086   1.456  1.4063 -0.3371  0.0102
 3006SOL    HW210460   0.029   3.198   1.549 -1.1523 -1.6355  0.6008
 3007SOL     OW10461   7.957   6.570   2.390 -0.0863 -0.1624 -0.3021
 3007SOL    HW110462   8.000   6.563   2.475 -0.9696 -1.7328  0.0521
 3007SOL    HW210463   7.942   6.664   2.378 -0.9051  0.0290  1.8018
 3008SOL     OW10464   7.209   5.050   0.752 -0.3078 -0.0961 -0.2680
 3008SOL    HW110465   7.128   5.098   0.771 -0.6128 -0.8629  0.3955
 3008SOL    HW210466   7.186   4.958   0.764 -0.1488 -0.5979 -2.9863
 3009SOL     OW10467   1.229   4.331   1.595  0.8850  0.2033  0.3146
 3009SOL    HW110468   1.191   4.357   1.679  0.3583 -1.0423  0.4742
 3009SOL    HW210469   1.164   4.357   1.530 -0.0341 -1.4340  0.5437
 3010SOL     OW10470   2.023   4.057  11.971 -0.1309 -0.1245 -0.4562
 3010SOL    HW110471   1.942   4.006  11.968 -0.9683  1.1590 -0.6228
 3010SOL    HW210472   2.002   4.132  12.028  0.9829  0.1565 -0.3936
 3011SOL     OW10473   0.012   4.464   2.246 -0.2171 -0.0513  0.2099
 3011SOL    HW110474   0.104   4.448   2.269  0.2205 -2.2545 -2.5195
 3011SOL    HW210475  -0.037   4.402   2.300  0.1770 -0.6321 -0.0792
 3012SOL     OW10476   7.193   5.809  11.894 -0.1076 -0.0857  0.0002
 3012SOL    HW110477   7.239   5.758  11.827 -1.9871  0.4896 -1.8207
 3012SOL    HW210478   7.167   5.889  11.850 -3.8755 -0.8721  0.4652
 3013SOL     OW10479   1.241   3.659   2.657  0.4032 -0.1093 -0.3789
 3013SOL    HW110480   1.231   3.579   2.708 -0.0938  0.0480 -0.2227
 3013SOL    HW210481   1.215   3.729   2.717  1.7178  0.2634 -0.2156
 3014SOL     OW10482   0.783   3.699   1.498  0.1707  0.0899 -0.9729
 3014SOL    HW110483   0.749   3.725   1.584 -0.0702 -1.1206 -0.6859
 3014SOL    HW210484   0.704   3.680   1.446  0.3461 -0.9406 -0.8813
 3015SOL     OW10485   0.139   4.633   0.842  0.2542  0.2429  0.0498
 3015SOL    HW110486   0.219   4.685   0.846  0.8144 -0.6337  0.4613
 3015SOL    HW210487   0.101   4.654   0.756  2.8249 -2.0732 -1.8211
 3016SOL     OW10488   4.095   2.903   0.841  0.0987  0.1160  0.0323
 3016SOL    HW110489   4.050   2.970   0.790  1.3551  1.4216  0.5807
 3016SOL    HW210490   4.028   2.869   0.900 -0.7087  0.4289 -0.6737
 3017SOL     OW10491   1.852   4.149   2.295  0.5450 -0.4851  0.0338
 3017SOL    HW110492   1.860   4.178   2.203  2.2197  2.1654  0.8864
 3017SOL    HW210493   1.913   4.076   2.302  3.2423  1.5848 -0.2334
 3018SOL     OW10494   2.637   5.493   4.180  0.2439 -0.2666  1.1337
 3018SOL    HW110495   2.612   5.430   4.111  1.1132  0.3671  0.2141
 3018SOL    HW210496   2.591   5.462   4.258 -0.0301 -1.5499  0.4954
 3019SOL     OW10497   0.150   6.188   2.401  0.2380  0.3199 -0.3166
 3019SOL    HW110498   0.063   6.191   2.363 -1.2680  1.2965  2.8281
 3019SOL    HW210499   0.172   6.279   2.420  0.4241 -0.1029  1.8441
 3020SOL     OW10500   0.341   5.001   0.220  0.2752 -0.7983  0.5559
 3020SOL    HW110501   0.260   5.011   0.270  0.8219  2.6461  1.0234
 3020SOL    HW210502   0.392   5.080   0.241  2.1951 -1.0592 -2.4828
 3021SOL     OW10503   2.131   4.478  12.071  0.2829 -0.0953 -0.2608
 3021SOL    HW110504   2.152   4.568  12.047  0.4316 -0.2674 -0.7888
 3021SOL    HW210505   2.215   4.433  12.069  0.1021 -0.4221 -0.7809
 3022SOL     OW10506   7.765   3.659   1.280 -0.4413 -0.8598 -0.2146
 3022SOL    HW110507   7.843   3.621   1.320 -0.4636  1.4915  2.3649
 3022SOL    HW210508   7.787   3.752   1.268 -2.3504 -0.4140 -0.7078
 3023SOL     OW10509   0.436   5.633   2.171  0.3391 -0.6684  0.0073
 3023SOL    HW110510   0.455   5.557   2.116 -1.9826 -1.3367  0.0414
 3023SOL    HW210511   0.407   5.595   2.255  1.2207  0.3045  0.7827
 3024SOL     OW10512   7.310   4.063  11.607 -0.3978 -0.3336  0.8064
 3024SOL    HW110513   7.247   4.079  11.677  0.9433  0.3742  1.8865
 3024SOL    HW210514   7.395   4.084  11.645  0.4297 -0.4814 -0.8607
 3025SOL     OW10515   7.189   4.712   2.196 -0.3477  0.3155 -0.5487
 3025SOL    HW110516   7.217   4.625   2.224  1.8100  0.7373 -1.2193
 3025SOL    HW210517   7.119   4.735   2.257  0.5294 -0.9862  1.0337
 3026SOL     OW10518   0.576   5.149   2.183 -0.0205  0.0684 -0.1914
 3026SOL    HW110519   0.657   5.144   2.131 -0.8117 -2.0724 -1.3113
 3026SOL    HW210520   0.522   5.077   2.150 -1.4164 -0.0530  2.1928
 3027SOL     OW10521   1.699   3.729   1.303 -0.0691 -0.3727 -0.0065
 3027SOL    HW110522   1.644   3.698   1.375 -0.8434  0.5183 -0.1999
 3027SOL    HW210523   1.703   3.823   1.315 -0.3243 -0.1914 -1.2132
 3028SOL     OW10524   6.667   5.355   0.242 -0.2762 -0.6661  0.2436
 3028SOL    HW110525   6.584   5.372   0.198 -0.8499  0.3566  1.6433
 3028SOL    HW210526   6.718   5.435   0.230  0.9654 -1.6411 -1.4678
 3029SOL     OW10527   7.723   4.938   1.916 -0.1107 -0.1303 -0.0306
 3029SOL    HW110528   7.764   4.990   1.986 -2.0232 -0.0369  1.0999
 3029SOL    HW210529   7.795   4.915   1.858  1.6404 -0.5072  2.1605
 3030SOL     OW10530   2.041   4.602   1.513 -0.2358  0.0068 -0.1354
 3030SOL    HW110531   2.002   4.648   1.588 -0.3477 -0.4299  0.0807
 3030SOL    HW210532   2.045   4.511   1.542 -1.0278 -0.3035 -0.9682
 3031SOL     OW10533   0.960   5.101  10.904  0.0302  0.4510  0.2316
 3031SOL    HW110534   0.907   5.053  10.839 -0.2718 -0.6260  1.2472
 3031SOL    HW210535   0.943   5.194  10.884  0.4920  0.1747 -1.6577
 3032SOL     OW10536   7.460   1.750   1.633 -0.1028  0.0257  0.4869
 3032SOL    HW110537   7.456   1.701   1.715  2.4812  1.2754  1.4602
 3032SOL    HW210538   7.548   1.732   1.599 -0.2969  1.3668 -0.8045
 3033SOL     OW10539   0.845   3.734   3.053  0.0037 -0.5059 -0.3616
 3033SOL    HW110540   0.763   3.773   3.081  0.0579 -0.6192 -0.0477
 3033SOL    HW210541   0.823   3.642   3.035  0.3263 -0.8595  0.9511
 3034SOL     OW10542   2.232   4.568  12.356  0.0913 -0.4212 -0.2739
 3034SOL    HW110543   2.293   4.571  12.283 -0.4687  1.4728 -0.7026
 3034SOL    HW210544   2.156   4.619  12.327  0.3118  1.3570  1.9754
 3035SOL     OW10545   1.691   4.375   1.674  0.4816 -0.0573  1.1787
 3035SOL    HW110546   1.607   4.369   1.719 -0.8641  0.5734 -1.1201
 3035SOL    HW210547   1.681   4.450   1.615  1.3023 -2.1663 -1.8243
 3036SOL     OW10548   2.267   2.981   0.917  0.2161 -0.3263  0.3470
 3036SOL    HW110549   2.316   3.036   0.856 -1.3505 -0.7956 -1.4613
 3036SOL    HW210550   2.316   2.899   0.920  1.8479  0.6397  2.0324
 3037SOL     OW10551   6.447   4.751   1.560  0.3771 -0.4791  0.1667
 3037SOL    HW110552   6.358   4.761   1.527  1.3002 -0.4040 -2.5614
 3037SOL    HW210553   6.447   4.668   1.607 -1.0383 -0.7079 -0.2136
 3038SOL     OW10554   1.930   4.528  11.890  0.5017 -0.1649 -0.2186
 3038SOL    HW110555   1.996   4.497  11.952  1.0261  0.5309 -0.4120
 3038SOL    HW210556   1.881   4.449  11.865  1.0930 -0.6485  0.1244
 3039SOL     OW10557   1.383   6.477   1.099  0.1929  0.0980  0.3201
 3039SOL    HW110558   1.309   6.519   1.056 -1.4092 -1.3772  1.5268
 3039SOL    HW210559   1.387   6.389   1.061  0.3403 -0.3535  1.3483
 3040SOL     OW10560   0.581   4.703  11.744 -0.3972  0.1750  0.3988
 3040SOL    HW110561   0.570   4.761  11.819 -1.1470 -0.0358  0.4545
 3040SOL    HW210562   0.665   4.661  11.759  0.1875  1.2776  0.3312
 3041SOL     OW10563   6.455   4.745   0.714 -0.0261 -0.0191 -0.6635
 3041SOL    HW110564   6.513   4.673   0.740  0.6896  0.5713 -0.6113
 3041SOL    HW210565   6.448   4.800   0.792 -0.9717 -0.2842 -0.5509
 3042SOL     OW10566   1.690   5.145   1.016 -0.1065  0.4456 -0.1290
 3042SOL    HW110567   1.706   5.225   0.965 -0.7443 -0.5102 -1.9242
 3042SOL    HW210568   1.608   5.110   0.981  0.9484 -1.8199 -0.5517
 3043SOL     OW10569   2.759   4.807  10.624  0.5087 -0.6007  0.4457
 3043SOL    HW110570   2.751   4.817  10.529 -0.5558 -1.3627  0.4389
 3043SOL    HW210571   2.779   4.715  10.637  0.8104 -0.4694  0.9665
 3044SOL     OW10572   1.731   4.798   1.059  0.2057 -0.0814 -0.9670
 3044SOL    HW110573   1.779   4.717   1.038 -0.3552 -0.5190 -0.5724
 3044SOL    HW210574   1.756   4.858   0.989  1.7550 -0.1154 -0.4954
 3045SOL     OW10575   7.785   3.914   1.199  0.1617 -0.2168  0.1828
 3045SOL    HW110576   7.706   3.963   1.224 -0.2707 -0.7554 -0.0860
 3045SOL    HW210577   7.814   3.956   1.118 -0.1850 -0.3697 -0.0265
 3046SOL     OW10578   1.027   2.539   0.738  0.8325 -0.3204  0.3004
 3046SOL    HW110579   0.939   2.549   0.776  0.6394 -1.6207  0.2414
 3046SOL    HW210580   1.010   2.518   0.646  1.2692  1.1938 -0.1700
 3047SOL     OW10581   1.400   5.151  11.888  0.5517 -0.2116  0.4576
 3047SOL    HW110582   1.463   5.170  11.958  0.4178 -0.4703  0.6495
 3047SOL    HW210583   1.417   5.218  11.822 -0.2444  0.9177  1.3422
 3048SOL     OW10584   1.494   3.985  11.964  0.0498  0.4749 -0.3482
 3048SOL    HW110585   1.444   4.066  11.976 -0.6525 -0.0793  0.6671
 3048SOL    HW210586   1.467   3.929  12.037  3.3240  0.7128  1.2157
 3049SOL     OW10587   1.944   4.463  11.479 -0.0104  0.3075 -0.0950
 3049SOL    HW110588   1.851   4.442  11.485 -0.1933  0.4117 -2.0880
 3049SOL    HW210589   1.958   4.486  11.388  1.9758  0.3510  0.1760
 3050SOL     OW10590   7.904   5.001  11.970  0.3340  0.2118 -0.0948
 3050SOL    HW110591   7.948   4.985  12.054 -0.5855 -1.7973  0.0375
 3050SOL    HW210592   7.824   5.048  11.994 -0.6416 -1.6026  0.3572
 3051SOL     OW10593   6.560   4.830  12.046 -0.2119 -0.3775 -0.3900
 3051SOL    HW110594   6.570   4.865  11.957 -0.4375 -1.5469 -0.9079
 3051SOL    HW210595   6.503   4.893  12.090  0.3271  0.4918 -0.9097
 3052SOL     OW10596   1.649   4.500  11.688  0.5252  0.1741 -0.0589
 3052SOL    HW110597   1.596   4.475  11.612  1.2127  0.9309 -0.8105
 3052SOL    HW210598   1.689   4.418  11.717 -0.3377 -0.2520 -0.0343
 3053SOL     OW10599   7.143   4.418   1.001 -0.0284 -0.1425  0.2168
 3053SOL    HW110600   7.068   4.445   1.054 -0.0458 -1.3501  0.8414
 3053SOL    HW210601   7.211   4.483   1.021 -0.4648  0.1818  0.6820
 3054SOL     OW10602   0.328   4.052   0.997 -0.4472 -0.3938 -0.0207
 3054SOL    HW110603   0.237   4.033   1.019 -0.4008 -1.0199 -0.3346
 3054SOL    HW210604   0.325   4.092   0.910 -0.5056  0.6396  0.4426
 3055SOL     OW10605   0.707   5.467   1.258 -0.5895 -0.1185  0.3496
 3055SOL    HW110606   0.668   5.423   1.183 -2.4588  0.1750  1.0826
 3055SOL    HW210607   0.727   5.397   1.320  0.3543 -0.2967 -0.1408
 3056SOL     OW10608   2.142   2.650   0.834 -0.1332  0.0400 -0.1602
 3056SOL    HW110609   2.139   2.711   0.908  1.9341 -2.9609  2.6865
 3056SOL    HW210610   2.189   2.698   0.766  2.6521  1.2885  2.4260
 3057SOL     OW10611   7.823   4.166   2.037 -0.4623 -0.0935  0.0414
 3057SOL    HW110612   7.827   4.080   1.995 -1.4269 -0.1394  0.0298
 3057SOL    HW210613   7.867   4.153   2.121 -2.9311 -1.3468  1.2436
 3058SOL     OW10614   1.765   5.009  12.131  0.0582 -0.0625 -0.2092
 3058SOL    HW110615   1.696   4.968  12.182 -0.0071  0.2837 -0.0148
 3058SOL    HW210616   1.719   5.072  12.075  0.0748 -0.7656 -1.0416
 3059SOL     OW10617   1.434   4.379  11.577  0.0526 -0.3455  0.5149
 3059SOL    HW110618   1.464   4.295  11.544 -1.0672 -1.0796  1.2909
 3059SOL    HW210619   1.341   4.381  11.556 -0.2602  0.0245  1.8747
 3060SOL     OW10620   3.285   3.158  11.568 -0.0450 -0.0738  0.0087
 3060SOL    HW110621   3.190   3.159  11.574 -0.0245 -0.2676  0.4017
 3060SOL    HW210622   3.304   3.118  11.483 -0.3465  2.2355 -1.2209
 3061SOL     OW10623   4.398   4.706  12.177 -0.0614  0.3383  0.3398
 3061SOL    HW110624   4.423   4.797  12.161  2.1111 -0.1247  0.8917
 3061SOL    HW210625   4.315   4.696  12.129  1.0412  1.8277 -2.0859
 3062SOL     OW10626   2.141   5.766  12.170 -0.2315 -0.3320  0.0294
 3062SOL    HW110627   2.219   5.747  12.221 -0.1500 -0.9341 -0.3193
 3062SOL    HW210628   2.091   5.827  12.225  0.2082 -0.3887  0.4960
 3063SOL     OW10629   0.796   3.744   0.200 -0.6138 -0.0394  0.3385
 3063SOL    HW110630   0.768   3.663   0.157 -0.0130  0.0111 -0.1627
 3063SOL    HW210631   0.815   3.804   0.128  2.7218 -0.7068  0.5061
 3064SOL     OW10632   0.783   4.158   0.430  0.7495  0.5045  0.1647
 3064SOL    HW110633   0.781   4.200   0.344  0.7122 -2.6434 -1.5013
 3064SOL    HW210634   0.876   4.140   0.446  0.6917  0.5148  0.5201
 3065SOL     OW10635   1.337   5.339   0.768  0.8618  0.1002  0.1981
 3065SOL    HW110636   1.289   5.290   0.835 -0.4886 -0.3216 -1.0225
 3065SOL    HW210637   1.301   5.307   0.685  3.1164 -0.0289 -0.7837
 3066SOL     OW10638   1.426   4.185  10.740  0.2183  0.2056 -0.1718
 3066SOL    HW110639   1.460   4.141  10.817 -2.3485 -1.4192  0.1303
 3066SOL    HW210640   1.403   4.273  10.771  0.3776 -0.0156  0.5956
 3067SOL     OW10641   0.105   4.488   1.078  0.2633  0.0960 -0.0501
 3067SOL    HW110642   0.067   4.404   1.052 -1.6913  0.7257  0.6245
 3067SOL    HW210643   0.115   4.536   0.996 -0.5731 -0.0336 -0.2367
 3068SOL     OW10644   5.900   6.921   0.503  0.0153  0.2070  0.5740
 3068SOL    HW110645   5.890   6.997   0.560  1.0544  0.4035  0.5091
 3068SOL    HW210646   5.821   6.920   0.449 -0.2307  0.9512  0.9181
 3069SOL     OW10647   0.038   3.866  12.128  0.3517  0.1182  0.0422
 3069SOL    HW110648   0.025   3.959  12.149 -2.0838  0.1957 -1.2887
 3069SOL    HW210649  -0.022   3.820  12.187 -0.2615 -0.3541 -0.9250
 3070SOL     OW10650   0.334   3.421   2.098  0.4595  0.3683 -0.2020
 3070SOL    HW110651   0.259   3.364   2.082  0.5338 -0.3601  1.8612
 3070SOL    HW210652   0.385   3.377   2.165  1.8779  1.6621 -0.3626
 3071SOL     OW10653   0.847   4.621  11.793 -0.5694  0.0434 -0.0661
 3071SOL    HW110654   0.820   4.610  11.884 -0.8247 -1.4065 -0.2905
 3071SOL    HW210655   0.887   4.708  11.790  2.3785 -1.0366  2.2024
 3072SOL     OW10656   2.189   4.985   0.080 -0.1198 -0.0911 -0.3648
 3072SOL    HW110657   2.114   5.037   0.108  0.0061 -0.6344  1.0568
 3072SOL    HW210658   2.223   4.946   0.160 -0.7385 -3.1206 -1.4717
 3073SOL     OW10659   5.882   4.283  10.737  0.1763  0.2522 -0.3108
 3073SOL    HW110660   5.847   4.194  10.739  0.2733  0.2249  0.5290
 3073SOL    HW210661   5.913   4.294  10.647  0.9413 -0.8686 -0.2122
 3074SOL     OW10662   4.382   2.698  11.513 -0.2358 -0.0099  0.2506
 3074SOL    HW110663   4.473   2.670  11.505 -0.0895  0.4705  0.2323
 3074SOL    HW210664   4.382   2.789  11.484 -0.7203 -0.0041  0.2594
 3075SOL     OW10665   1.155   3.228   3.289  0.0943 -0.2673  0.1824
 3075SOL    HW110666   1.232   3.186   3.251  0.0885 -1.7513  1.6959
 3075SOL    HW210667   1.190   3.291   3.351  0.0907 -0.3902  0.3091
 3076SOL     OW10668   1.998   5.093   0.617  0.0404  0.0432  0.5401
 3076SOL    HW110669   2.023   5.033   0.688 -2.2143  1.2239  2.4724
 3076SOL    HW210670   1.904   5.078   0.605 -0.0413  1.3684 -0.7417
 3077SOL     OW10671   0.717   3.898   1.058  0.4346 -0.0691  0.0871
 3077SOL    HW110672   0.761   3.943   1.130  0.2971  0.2905 -0.0548
 3077SOL    HW210673   0.738   3.949   0.981  0.0164 -0.0635 -0.0274
 3078SOL     OW10674   1.055   4.088   0.467 -0.3995 -0.1816  0.5606
 3078SOL    HW110675   1.101   4.008   0.491  1.1356  0.4704 -0.0727
 3078SOL    HW210676   1.083   4.152   0.532  0.6866  0.5783 -0.6304
 3079SOL     OW10677   7.527   4.650   0.174  0.0193  0.5518 -0.4605
 3079SOL    HW110678   7.525   4.746   0.181  1.0319  0.5948 -0.5295
 3079SOL    HW210679   7.458   4.629   0.112 -1.3384  1.0991  0.8134
 3080SOL     OW10680   1.736   2.874   1.021 -0.2373  0.3130 -0.5241
 3080SOL    HW110681   1.722   2.924   0.940  0.1804  0.2462 -0.6403
 3080SOL    HW210682   1.652   2.832   1.038 -0.2711  0.1581 -1.0444
 3081SOL     OW10683   1.570   3.970  11.143  0.4382  0.3230 -0.3214
 3081SOL    HW110684   1.499   3.988  11.205  0.0294 -0.6819 -0.4736
 3081SOL    HW210685   1.637   4.035  11.162 -0.4647  1.1896 -0.0632
 3082SOL     OW10686   0.891   4.402  11.649  0.4176 -0.2048  0.1401
 3082SOL    HW110687   0.868   4.484  11.694 -1.1530 -0.7843  0.4533
 3082SOL    HW210688   0.929   4.430  11.566 -2.6950  0.9105 -1.0437
 3083SOL     OW10689   1.115   3.143  11.330  0.6488  0.3657 -1.2208
 3083SOL    HW110690   1.196   3.192  11.337  1.1131 -0.2732 -2.0199
 3083SOL    HW210691   1.090   3.124  11.421  1.7400 -0.0032 -0.9909
 3084SOL     OW10692   0.368   2.750   1.433  0.4229  0.1063 -0.2034
 3084SOL    HW110693   0.447   2.698   1.445 -0.9085 -2.1646 -0.7691
 3084SOL    HW210694   0.400   2.838   1.413  2.7599 -0.1453  1.9091
 3085SOL     OW10695   2.582   5.584   0.776 -0.0804  0.0487  0.5619
 3085SOL    HW110696   2.505   5.636   0.797 -0.3104 -0.5677  1.2786
 3085SOL    HW210697   2.612   5.549   0.860  0.7188 -0.0809  0.2352
 3086SOL     OW10698   0.438   5.441  12.347  0.2079 -0.4304 -0.0787
 3086SOL    HW110699   0.350   5.453  12.383 -0.1937 -1.0922 -0.8065
 3086SOL    HW210700   0.457   5.348  12.360  0.3447 -0.5285 -0.9239
 3087SOL     OW10701   0.902   4.686   0.330 -0.4506 -0.2120  0.4348
 3087SOL    HW110702   0.866   4.599   0.344 -1.1916  0.1617  0.9195
 3087SOL    HW210703   0.994   4.671   0.307 -0.6819 -1.1310  0.0870
 3088SOL     OW10704   0.490   5.922  11.621  0.3126 -0.1938  0.3922
 3088SOL    HW110705   0.529   5.867  11.553  1.2283  0.1780  0.6060
 3088SOL    HW210706   0.436   5.985  11.573  1.5794  0.5669 -0.0508
 3089SOL     OW10707   1.461   4.918   1.384  0.2545  0.1093 -0.2981
 3089SOL    HW110708   1.546   4.938   1.345  1.2307  1.2018  2.1695
 3089SOL    HW210709   1.430   4.841   1.336  3.2284 -1.1289 -0.4809
 3090SOL     OW10710   7.589   4.980  12.103  0.3895 -0.2689 -0.0695
 3090SOL    HW110711   7.594   4.914  12.172 -1.5163 -1.3217 -0.8714
 3090SOL    HW210712   7.537   5.051  12.141 -0.7317 -0.8847 -0.4090
 3091SOL     OW10713   7.029   7.020   1.685 -0.0341  0.4998 -0.7858
 3091SOL    HW110714   6.955   7.040   1.742 -0.5946 -0.6750 -1.0825
 3091SOL    HW210715   7.087   7.096   1.693 -1.1110  1.2854 -0.2953
 3092SOL     OW10716   0.396   3.616   0.283  0.8167  0.3068  0.6433
 3092SOL    HW110717   0.444   3.696   0.306  0.6780  0.0229  1.9896
 3092SOL    HW210718   0.336   3.603   0.356 -0.5605  0.0483 -0.4974
 3093SOL     OW10719   7.923   3.362   0.317  0.0228 -0.0423 -0.1359
 3093SOL    HW110720   7.895   3.445   0.356  0.2261 -0.4050  0.8142
 3093SOL    HW210721   8.010   3.381   0.281  0.2499  0.0617  0.4483
 3094SOL     OW10722   2.129   4.816  10.907 -0.2117  0.1224 -0.4409
 3094SOL    HW110723   2.042   4.808  10.946 -0.4981 -0.8566 -1.2216
 3094SOL    HW210724   2.138   4.737  10.854  1.0095  0.3952 -0.6650
 3095SOL     OW10725   1.634   5.375   0.208 -0.5597 -0.5017 -0.0418
 3095SOL    HW110726   1.619   5.434   0.134 -0.5576 -0.9424 -0.4011
 3095SOL    HW210727   1.546   5.347   0.234 -0.6312  0.4151  0.7683
 3096SOL     OW10728   0.667   3.703   0.465  0.2337 -0.1560 -0.0297
 3096SOL    HW110729   0.611   3.774   0.495  2.1291  1.0442  0.8900
 3096SOL    HW210730   0.727   3.744   0.403 -0.2962 -1.5492 -1.5345
 3097SOL     OW10731   0.815   4.768   1.370  0.6793 -0.2611  0.1698
 3097SOL    HW110732   0.906   4.737   1.371  1.3607  1.2881 -2.3954
 3097SOL    HW210733   0.818   4.847   1.316 -1.8304  1.2116  1.9707
 3098SOL     OW10734   1.433   2.910   2.171 -0.1098  0.0612 -0.1743
 3098SOL    HW110735   1.354   2.938   2.218 -0.8424 -2.2700  0.1321
 3098SOL    HW210736   1.505   2.943   2.225 -0.9076 -0.2726  1.1631
 3099SOL     OW10737   1.346   3.320   0.131 -0.5769  0.1713  0.2945
 3099SOL    HW110738   1.291   3.397   0.119  0.3023  0.9615  1.2445
 3099SOL    HW210739   1.312   3.278   0.210 -0.1310  0.3865  0.5998
 3100SOL     OW10740   1.328   4.050   2.188 -0.0400 -0.0943 -0.0444
 3100SOL    HW110741   1.391   3.977   2.184  0.3398  0.2280 -0.0099
 3100SOL    HW210742   1.305   4.056   2.281 -2.9688 -2.5964 -0.4673
 3101SOL     OW10743   1.747   5.144   0.516 -0.3503  0.3383  0.4350
 3101SOL    HW110744   1.699   5.124   0.596 -0.3552 -0.6589  0.1894
 3101SOL    HW210745   1.736   5.239   0.505 -2.6010  0.0986  0.1772
 3102SOL     OW10746   0.980   4.351  10.424  0.2628  0.0132 -0.7587
 3102SOL    HW110747   0.989   4.256  10.419 -0.6011 -0.1455  0.2668
 3102SOL    HW210748   0.903   4.365  10.480  1.8899  1.3187  1.3289
 3103SOL     OW10749   2.260   6.025  12.310 -0.1094  0.3044  0.3235
 3103SOL    HW110750   2.351   6.012  12.338 -0.1833 -0.1650  0.3475
 3103SOL    HW210751   2.265   6.028  12.215  0.1063  1.6319  0.3567
 3104SOL     OW10752   7.593   4.103   1.753 -0.4892  0.2464  0.0661
 3104SOL    HW110753   7.526   4.168   1.735 -0.3183  1.0339  2.0039
 3104SOL    HW210754   7.548   4.033   1.800 -0.7896 -1.4058 -2.4836
 3105SOL     OW10755   7.502   4.807   0.896 -0.7502 -0.3262 -0.5241
 3105SOL    HW110756   7.522   4.771   0.810 -0.5043  0.8639 -0.9826
 3105SOL    HW210757   7.558   4.884   0.903 -0.7070 -0.4517  0.7454
 3106SOL     OW10758   0.603   5.034  11.120  0.0522  0.0571  0.3010
 3106SOL    HW110759   0.554   4.961  11.157  0.8165  0.2281  1.7392
 3106SOL    HW210760   0.622   5.007  11.030 -1.6237 -0.5066  0.0796
 3107SOL     OW10761   7.816   3.328   2.588  0.5102  0.1412  0.0180
 3107SOL    HW110762   7.766   3.408   2.576 -0.7352  0.2372  4.1527
 3107SOL    HW210763   7.759   3.258   2.555  0.4837  0.7335 -1.2175
 3108SOL     OW10764   0.811   2.735   1.477 -0.1155  0.6532 -0.3662
 3108SOL    HW110765   0.849   2.745   1.390  1.7416  0.4824  0.3785
 3108SOL    HW210766   0.751   2.661   1.469  1.2436 -0.4179 -1.1433
 3109SOL     OW10767   6.985   5.144   0.447  0.1863  0.3014 -0.8256
 3109SOL    HW110768   7.059   5.204   0.452  0.4658 -0.1302  0.6904
 3109SOL    HW210769   6.952   5.154   0.358  0.9324  1.8511 -0.9627
 3110SOL     OW10770   7.855   6.002   1.192  0.3392  0.2680 -0.0196
 3110SOL    HW110771   7.817   5.950   1.263 -0.0735 -0.0042 -0.4327
 3110SOL    HW210772   7.873   6.088   1.231  0.5156 -0.0122  0.5227
 3111SOL     OW10773   1.513   4.999   2.984 -0.0585  0.1449 -0.0159
 3111SOL    HW110774   1.435   5.018   3.036 -1.3862  1.1383 -2.2257
 3111SOL    HW210775   1.505   5.055   2.907  0.4554 -3.0266 -2.5839
 3112SOL     OW10776   0.336   3.521   2.442 -0.1495  0.4360  0.0081
 3112SOL    HW110777   0.397   3.494   2.374  1.5248  1.9135  0.8435
 3112SOL    HW210778   0.297   3.602   2.409 -1.7699 -0.5390 -0.5538
 3113SOL     OW10779   2.518   2.816   1.394 -0.1509  0.0593  0.4222
 3113SOL    HW110780   2.525   2.831   1.489 -1.1395  0.6001  0.4280
 3113SOL    HW210781   2.562   2.733   1.380 -1.0701 -0.6669  1.5737
 3114SOL     OW10782   0.332   4.258   2.873  0.4052 -0.6097  0.0521
 3114SOL    HW110783   0.348   4.336   2.925  1.0782 -1.1881  0.7470
 3114SOL    HW210784   0.278   4.202   2.929 -0.0866 -0.6394 -0.4438
 3115SOL     OW10785   1.243   3.855   3.646 -0.0461 -0.1248  0.0305
 3115SOL    HW110786   1.264   3.865   3.738  0.7794 -1.5406  0.0188
 3115SOL    HW210787   1.195   3.935   3.623  1.1414  0.9868  1.2743
 3116SOL     OW10788   0.614   5.177   1.886  0.1295  0.3821  0.5280
 3116SOL    HW110789   0.539   5.127   1.918 -0.6597  0.9669 -0.3471
 3116SOL    HW210790   0.676   5.111   1.856 -1.1904 -0.1143 -1.2671
 3117SOL     OW10791   7.979   5.211   2.864  0.1860 -0.3333 -0.0469
 3117SOL    HW110792   8.022   5.224   2.949 -1.1515  1.0380  0.4649
 3117SOL    HW210793   7.969   5.116   2.857 -0.8714 -0.4195  1.9619
 3118SOL     OW10794   7.803   5.557   2.717 -0.2856 -0.3055  0.0846
 3118SOL    HW110795   7.816   5.591   2.805  1.4203  0.9939 -0.6157
 3118SOL    HW210796   7.889   5.523   2.691 -0.7958 -0.8400 -1.0203
 3119SOL     OW10797   0.764   6.078   3.134  0.2274 -0.4711  0.0882
 3119SOL    HW110798   0.712   6.110   3.208  2.1706  0.1469  1.2751
 3119SOL    HW210799   0.785   5.987   3.157  0.9217 -0.2464  0.3988
 3120SOL     OW10800   7.806   1.672   3.413  0.6440 -0.2068 -0.0565
 3120SOL    HW110801   7.771   1.598   3.461  0.6115 -0.5752 -0.6303
 3120SOL    HW210802   7.843   1.633   3.333 -0.5146  0.5178 -0.9819
 3121SOL     OW10803   3.657   2.925   3.061  0.3694  0.1786 -0.4023
 3121SOL    HW110804   3.576   2.878   3.077  0.1926  0.5635 -0.1368
 3121SOL    HW210805   3.690   2.891   2.978  0.7432 -1.0972  0.2401
 3122SOL     OW10806   7.950   5.108  11.733 -0.4634  0.4007  0.0833
 3122SOL    HW110807   7.942   5.056  11.813  0.6625 -1.3745 -0.8808
 3122SOL    HW210808   8.039   5.144  11.737 -0.2916  0.0511 -0.4929
 3123SOL     OW10809   7.822   4.794   4.487 -0.4561  0.0093 -0.0935
 3123SOL    HW110810   7.731   4.806   4.513 -0.6917 -0.8512 -0.4703
 3123SOL    HW210811   7.872   4.847   4.548 -1.0606 -1.1693  1.5053
 3124SOL     OW10812   1.290   5.740   0.252 -0.1150 -0.3751 -0.2756
 3124SOL    HW110813   1.267   5.832   0.251 -1.3745 -0.6700  0.3606
 3124SOL    HW210814   1.329   5.726   0.339  2.3469  0.0529 -1.2237
 3125SOL     OW10815   0.268   5.278   2.107  0.1777  0.5236  0.4754
 3125SOL    HW110816   0.213   5.200   2.118  1.9459 -0.9329 -0.3602
 3125SOL    HW210817   0.228   5.326   2.035 -1.8922  1.3436  2.0563
 3126SOL     OW10818   1.196   5.927   1.839 -0.2575  0.4920  0.3940
 3126SOL    HW110819   1.194   5.891   1.928 -2.8669  1.2574  0.7380
 3126SOL    HW210820   1.175   6.020   1.850 -4.4068 -0.0389 -1.1442
 3127SOL     OW10821   7.417   6.419   1.749 -0.0772  0.0877  0.2935
 3127SOL    HW110822   7.349   6.416   1.682  0.8701 -0.8849 -0.6526
 3127SOL    HW210823   7.459   6.504   1.737 -0.5432  0.3233  0.3061
 3128SOL     OW10824   3.045   3.397   1.974  0.3383  0.4968 -1.0329
 3128SOL    HW110825   3.082   3.386   1.886 -0.9473  1.1978 -1.6816
 3128SOL    HW210826   2.951   3.412   1.959  0.2884  1.8103  0.3909
 3129SOL     OW10827   0.350   5.415   2.370 -0.2097 -0.2179 -0.2916
 3129SOL    HW110828   0.280   5.438   2.432  0.7763 -0.1921  0.8482
 3129SOL    HW210829   0.310   5.349   2.313 -1.4849  0.5638 -0.3517
 3130SOL     OW10830   7.856   5.748   0.833 -0.4367  0.0629 -0.7288
 3130SOL    HW110831   7.776   5.742   0.885 -1.8211 -0.1683 -2.8032
 3130SOL    HW210832   7.916   5.799   0.888 -0.9678 -2.0433  2.0670
 3131SOL     OW10833   7.554   4.029   1.207  0.4111 -0.0330 -0.6990
 3131SOL    HW110834   7.524   4.093   1.271  1.3523  0.3642 -0.6457
 3131SOL    HW210835   7.511   3.947   1.234  1.1671  0.0135  0.7400
 3132SOL     OW10836   0.577   3.414   0.426 -0.0102  0.4532  0.1176
 3132SOL    HW110837   0.589   3.497   0.471  0.6768  0.4344 -0.0164
 3132SOL    HW210838   0.537   3.438   0.342  1.0876  0.7597 -0.3318
 3133SOL     OW10839   2.235   3.548   0.485  0.0365 -0.4848 -0.6786
 3133SOL    HW110840   2.210   3.602   0.561  0.0573 -0.2874 -0.8117
 3133SOL    HW210841   2.327   3.569   0.470  0.3271 -1.2980 -0.1174
 3134SOL     OW10842   1.212   4.435   2.032 -0.2511 -0.4845 -0.1874
 3134SOL    HW110843   1.142   4.464   2.090  0.4042  0.0302  0.3554
 3134SOL    HW210844   1.287   4.490   2.054  0.3443 -1.0493 -0.7329
 3135SOL     OW10845   1.732   4.249  11.056 -0.2843 -0.5503  0.2433
 3135SOL    HW110846   1.812   4.298  11.037 -1.5454  0.6844 -2.3146
 3135SOL    HW210847   1.726   4.185  10.985 -2.8630  1.1819 -1.2683
 3136SOL     OW10848   2.334   3.722   2.812 -0.5508  0.3822 -0.3317
 3136SOL    HW110849   2.340   3.702   2.905  0.5321  0.5565 -0.3422
 3136SOL    HW210850   2.280   3.801   2.808  0.5408  1.1870  0.2871
 3137SOL     OW10851   1.693   4.613   1.522 -0.3494 -0.8181  0.3392
 3137SOL    HW110852   1.774   4.622   1.472 -2.0785  0.0684 -2.5533
 3137SOL    HW210853   1.640   4.688   1.495 -2.0406 -1.1682  2.4070
 3138SOL     OW10854   7.162   5.353   0.428  0.3149  0.5062  0.2378
 3138SOL    HW110855   7.234   5.366   0.366  0.4532  2.2839  0.7104
 3138SOL    HW210856   7.176   5.421   0.495 -0.4645 -0.6362  1.6178
 3139SOL     OW10857   2.177   3.014   3.165 -0.1130 -0.6816 -0.2161
 3139SOL    HW110858   2.185   3.104   3.197  0.5204 -0.8574  0.1369
 3139SOL    HW210859   2.096   3.014   3.114  0.8722  0.6227 -1.9257
 3140SOL     OW10860   7.640   5.289   1.551  0.7881 -0.2434  0.5746
 3140SOL    HW110861   7.567   5.317   1.496  1.4254  0.6109  0.1261
 3140SOL    HW210862   7.599   5.244   1.625 -0.0377 -2.4844 -1.1505
 3141SOL     OW10863   0.799   4.883   2.667 -0.2712  0.4568  0.3537
 3141SOL    HW110864   0.889   4.851   2.671  0.2031  1.6729 -0.0913
 3141SOL    HW210865   0.805   4.967   2.622 -1.6804  0.4008  0.0078
 3142SOL     OW10866   0.430   4.525   2.741 -0.0959 -0.4733 -0.2769
 3142SOL    HW110867   0.446   4.617   2.758  2.0082 -0.8407 -0.0313
 3142SOL    HW210868   0.369   4.498   2.810 -0.3510  0.6044 -0.0694
 3143SOL     OW10869   0.695   4.944   1.017  0.1800 -0.3197 -0.2218
 3143SOL    HW110870   0.778   4.935   1.063 -0.0462  0.8690  0.4813
 3143SOL    HW210871   0.629   4.950   1.086 -0.1976  1.2565 -0.6655
 3144SOL     OW10872   7.461   4.216   1.404 -0.1533 -0.5298  0.0340
 3144SOL    HW110873   7.369   4.241   1.400 -0.0168  0.1833  1.0794
 3144SOL    HW210874   7.508   4.299   1.414  0.5893 -0.9131 -0.1651
 3145SOL     OW10875   7.753   3.627   3.178  0.4825 -0.2394  0.3180
 3145SOL    HW110876   7.664   3.596   3.161 -0.2728  1.1598  1.5078
 3145SOL    HW210877   7.756   3.640   3.273  1.2899  1.6525  0.0824
 3146SOL     OW10878   1.864   4.923   3.569  0.4180 -0.4900 -0.1490
 3146SOL    HW110879   1.854   4.911   3.664  1.5482  1.9473  0.3612
 3146SOL    HW210880   1.915   4.846   3.541  1.5773 -0.4231  1.5615
 3147SOL     OW10881   1.683   3.722   3.593 -0.0752 -0.4735 -0.3958
 3147SOL    HW110882   1.733   3.707   3.513 -0.5311 -1.2358 -0.5443
 3147SOL    HW210883   1.631   3.800   3.574  0.0376 -0.4771 -0.7302
 3148SOL     OW10884   2.587   4.749   3.973 -0.1625  0.3455  0.1912
 3148SOL    HW110885   2.529   4.676   3.952  0.3678 -0.2379  0.6791
 3148SOL    HW210886   2.660   4.708   4.021  0.6394  1.0504 -0.3878
 3149SOL     OW10887   0.843   4.832   3.225  0.4679  0.1034 -0.0681
 3149SOL    HW110888   0.892   4.773   3.282 -0.6998  1.0696  2.0562
 3149SOL    HW210889   0.764   4.783   3.203  0.5727  0.0092 -0.2351
 3150SOL     OW10890   2.328   3.574   2.568  0.2304 -0.3414 -0.0483
 3150SOL    HW110891   2.320   3.631   2.644 -1.7311  1.3681 -1.4204
 3150SOL    HW210892   2.421   3.552   2.564  0.6761  0.9846  1.7903
 3151SOL     OW10893   1.412   4.643   2.035  0.4522  0.6681  0.3514
 3151SOL    HW110894   1.424   4.669   2.126  1.1222 -0.8875  0.7464
 3151SOL    HW210895   1.485   4.583   2.018 -0.2832  0.0982 -0.8692
 3152SOL     OW10896   6.971   2.567   3.260  0.6306  0.8996  0.7516
 3152SOL    HW110897   7.036   2.542   3.193  2.0985 -0.2939  2.5019
 3152SOL    HW210898   7.018   2.628   3.317 -1.1000  3.1447 -0.1341
 3153SOL     OW10899   0.664   5.591   1.549  0.3212  0.1112 -0.3658
 3153SOL    HW110900   0.700   5.670   1.588  1.2739 -0.4800 -0.0257
 3153SOL    HW210901   0.686   5.521   1.610  0.8412 -0.6589 -1.4024
 3154SOL     OW10902   2.269   3.767   1.682 -0.5519  0.4069 -0.1619
 3154SOL    HW110903   2.309   3.835   1.736  0.1092 -0.2976  0.2554
 3154SOL    HW210904   2.339   3.738   1.624 -0.9717  0.4365 -0.6878
 3155SOL     OW10905   1.826   3.700   4.016  0.8945  0.3668 -0.1605
 3155SOL    HW110906   1.895   3.640   4.043  0.6276  0.9383  1.9310
 3155SOL    HW210907   1.744   3.653   4.033  0.7146  0.3176 -1.0806
 3156SOL     OW10908   1.206   3.677   3.061 -0.4849 -0.4457  0.0124
 3156SOL    HW110909   1.157   3.714   3.135 -3.1361 -0.8083 -1.4360
 3156SOL    HW210910   1.159   3.597   3.039  1.7064 -1.6632 -0.5847
 3157SOL     OW10911   0.968   3.471   2.218  0.4283 -0.0406 -0.0671
 3157SOL    HW110912   1.013   3.533   2.275 -1.5160  0.6238  0.8544
 3157SOL    HW210913   0.975   3.387   2.263  0.4305  0.1317  0.2606
 3158SOL     OW10914   7.901   5.838   1.441  0.2157  0.4154  0.7444
 3158SOL    HW110915   7.940   5.797   1.518  0.9272 -0.3664 -0.0052
 3158SOL    HW210916   7.920   5.931   1.450  3.3677 -0.0365 -0.1668
 3159SOL     OW10917   1.819   6.106   3.096  0.8271 -0.1350  0.0285
 3159SOL    HW110918   1.820   6.103   3.001  0.7563 -0.9755  0.0448
 3159SOL    HW210919   1.861   6.024   3.123  0.0064 -0.3469  0.7046
 3160SOL     OW10920   0.252   4.548   1.443 -0.4509  0.2169  0.2180
 3160SOL    HW110921   0.291   4.461   1.442 -0.0745  0.3758  0.5786
 3160SOL    HW210922   0.158   4.533   1.440 -0.3950 -0.2125  0.5527
 3161SOL     OW10923   1.419   4.120   2.898 -0.4450  0.2262 -0.0314
 3161SOL    HW110924   1.439   4.179   2.825  0.5402  0.5680  0.4950
 3161SOL    HW210925   1.504   4.094   2.932 -0.8828 -0.7539  0.3552
 3162SOL     OW10926   7.738   5.302   3.051 -0.2181  0.0991  0.2767
 3162SOL    HW110927   7.832   5.296   3.071 -0.0452 -0.3672 -0.6346
 3162SOL    HW210928   7.722   5.232   2.988 -1.4125 -0.5215  1.2266
 3163SOL     OW10929   1.529   3.909   1.756 -0.4312 -0.1393 -0.4766
 3163SOL    HW110930   1.469   3.864   1.815  0.0253  1.4660  1.2982
 3163SOL    HW210931   1.616   3.885   1.787 -0.0978 -1.3458 -2.1753
 3164SOL     OW10932   7.696   5.277   2.513 -0.6619  0.9327 -0.0229
 3164SOL    HW110933   7.626   5.327   2.555 -0.2627  3.0421 -1.7196
 3164SOL    HW210934   7.675   5.279   2.420  0.2366 -0.7726 -0.3081
 3165SOL     OW10935   3.163   4.609   1.200 -0.2918 -0.3615 -0.4098
 3165SOL    HW110936   3.218   4.681   1.169 -1.2339  0.4983 -0.1359
 3165SOL    HW210937   3.079   4.649   1.220 -1.6831 -1.9606 -2.6434
 3166SOL     OW10938   3.021   3.916   2.560  0.3692 -0.2370 -0.0845
 3166SOL    HW110939   3.011   3.830   2.600 -0.7362 -0.2586 -0.3827
 3166SOL    HW210940   3.074   3.965   2.623  0.2471 -0.8551  0.5123
 3167SOL     OW10941   1.503   6.388   1.989 -0.1645 -0.2701 -0.2814
 3167SOL    HW110942   1.441   6.446   1.944  2.2340 -0.4883 -4.3693
 3167SOL    HW210943   1.551   6.446   2.048 -1.6471  0.6520  0.0949
 3168SOL     OW10944   7.876   4.078   1.012 -0.7653 -0.0909  0.3018
 3168SOL    HW110945   7.846   4.134   1.083  1.6418 -0.5813  1.7952
 3168SOL    HW210946   7.932   4.134   0.959 -1.5505 -0.0737 -0.5527
 3169SOL     OW10947   2.159   4.438   2.044  0.5432  0.4658 -0.8527
 3169SOL    HW110948   2.243   4.455   2.085  0.8950 -0.2365 -1.2601
 3169SOL    HW210949   2.128   4.524   2.017  1.6487  0.6303 -1.6765
 3170SOL     OW10950   7.697   5.237   0.979 -0.0379 -0.2535 -0.5499
 3170SOL    HW110951   7.623   5.217   0.922  0.5646  0.8513 -1.7733
 3170SOL    HW210952   7.691   5.332   0.994  2.1433  0.2282 -2.2235
 3171SOL     OW10953   1.262   5.078   2.706 -0.3541  0.0273  0.2688
 3171SOL    HW110954   1.353   5.069   2.734 -0.9174  0.3353  2.4388
 3171SOL    HW210955   1.264   5.066   2.612  2.0141  0.6645  0.1780
 3172SOL     OW10956   7.400   4.403   2.029  0.0508  0.0535  0.2095
 3172SOL    HW110957   7.366   4.395   1.940  0.0287  1.1539  0.1036
 3172SOL    HW210958   7.323   4.420   2.083  0.3093  1.8007  0.0754
 3173SOL     OW10959   1.757   4.622   3.343 -0.2217  0.5201 -0.1256
 3173SOL    HW110960   1.841   4.667   3.350  0.6114 -0.9647 -0.0676
 3173SOL    HW210961   1.739   4.591   3.432 -1.1152  1.2843 -0.0248
 3174SOL     OW10962   7.225   4.374   1.552 -0.6717 -0.2542  0.0507
 3174SOL    HW110963   7.192   4.458   1.584 -0.1788  0.1620 -0.5070
 3174SOL    HW210964   7.163   4.349   1.484  0.1268  0.5452 -1.0224
 3175SOL     OW10965   0.147   4.190   3.102 -0.2967  0.3254  0.2254
 3175SOL    HW110966   0.097   4.271   3.089 -0.4461  0.1607 -0.2669
 3175SOL    HW210967   0.140   4.172   3.196 -3.3673 -1.0610 -0.1255
 3176SOL     OW10968   0.658   6.175   1.273  0.5262 -0.2549  0.0319
 3176SOL    HW110969   0.601   6.150   1.200  1.3563 -0.0733 -0.7060
 3176SOL    HW210970   0.745   6.147   1.246  1.3924  2.5481 -0.4747
 3177SOL     OW10971   7.664   2.288   2.970 -0.1285  0.2773 -0.5510
 3177SOL    HW110972   7.715   2.301   3.049  1.9074 -0.5312 -1.6412
 3177SOL    HW210973   7.703   2.347   2.906 -2.1941  1.4475 -0.8266
 3178SOL     OW10974   1.093   5.242   1.231 -0.2356 -0.6724 -0.3471
 3178SOL    HW110975   1.048   5.161   1.255  1.7499 -1.3270  1.4546
 3178SOL    HW210976   1.114   5.283   1.315  1.4207  0.1993 -1.1493
 3179SOL     OW10977   1.333   5.071   2.104  0.0677  0.0060  0.3206
 3179SOL    HW110978   1.367   5.148   2.150  1.3637 -0.7613  0.6986
 3179SOL    HW210979   1.403   5.006   2.111 -1.1583 -1.3533  0.3580
 3180SOL     OW10980   0.859   3.473   2.760 -0.1503 -0.1527  0.6819
 3180SOL    HW110981   0.839   3.453   2.669 -1.1161  1.1738  0.5663
 3180SOL    HW210982   0.784   3.524   2.790  0.9654  0.9549  1.6884
 3181SOL     OW10983   7.227   2.848   0.218 -0.7115 -0.0115  0.8039
 3181SOL    HW110984   7.307   2.801   0.193  0.3229  1.5342  1.0357
 3181SOL    HW210985   7.179   2.859   0.137  0.0308  0.3316  0.4055
 3182SOL     OW10986   2.408   2.940   2.670  0.2021  0.0509  0.1444
 3182SOL    HW110987   2.383   2.991   2.592  0.6254  0.5575  0.3278
 3182SOL    HW210988   2.499   2.916   2.653 -0.4877 -2.1659 -0.7342
 3183SOL     OW10989   0.092   2.629   2.282  0.0889  0.8651 -0.0015
 3183SOL    HW110990   0.054   2.547   2.315 -1.1429  1.7008  0.7634
 3183SOL    HW210991   0.170   2.602   2.234  0.8388 -0.5949  1.9140
 3184SOL     OW10992   2.499   3.630   3.115 -0.2808  0.1008 -0.0745
 3184SOL    HW110993   2.537   3.579   3.186 -1.7340 -1.2910 -0.2415
 3184SOL    HW210994   2.450   3.700   3.159 -1.3034 -0.8466  0.3304
 3185SOL     OW10995   1.826   7.303   0.882  0.2580  0.7940 -0.0100
 3185SOL    HW110996   1.746   7.318   0.933  0.3036  0.3648  0.1874
 3185SOL    HW210997   1.833   7.208   0.877  0.7825  0.8327  0.0138
 3186SOL     OW10998   0.795   5.273   0.119  0.0084 -0.0624  0.4633
 3186SOL    HW110999   0.724   5.214   0.146 -1.2487  0.9880 -0.4035
 3186SOL    HW211000   0.758   5.361   0.128  1.5639  0.5761  0.9261
 3187SOL     OW11001   0.760   3.632   2.070  0.3194 -0.1085  0.1947
 3187SOL    HW111002   0.811   3.710   2.046 -1.7188  0.9095 -1.1315
 3187SOL    HW211003   0.817   3.584   2.130  3.4988  0.1123 -2.3557
 3188SOL     OW11004   0.821   4.297   0.179  0.1189  0.7554  0.3649
 3188SOL    HW111005   0.786   4.385   0.164 -0.6680  0.5596  1.0191
 3188SOL    HW211006   0.889   4.287   0.112 -0.1265  1.6696 -0.0361
 3189SOL     OW11007   0.446   3.980   3.155 -0.1620  0.1683  0.4650
 3189SOL    HW111008   0.460   4.072   3.176 -0.1755  0.5393 -1.0116
 3189SOL    HW211009   0.368   3.956   3.204 -1.0721  1.4040 -0.3123
 3190SOL     OW11010   0.638   2.315   3.889 -0.4213 -0.2000  0.3187
 3190SOL    HW111011   0.668   2.380   3.954 -2.7457  0.8087  0.4980
 3190SOL    HW211012   0.637   2.363   3.806  1.0262 -1.0349 -0.2176
 3191SOL     OW11013   7.932   3.746   3.683 -0.5381  0.4316 -0.5388
 3191SOL    HW111014   7.924   3.655   3.654 -1.2226  0.7007 -1.2378
 3191SOL    HW211015   8.026   3.762   3.686 -0.4251  0.0782 -1.6909
 3192SOL     OW11016   1.685   2.981   3.328 -0.3808  0.0121 -0.0984
 3192SOL    HW111017   1.729   2.949   3.407  0.5463  1.0985 -0.1435
 3192SOL    HW211018   1.602   2.934   3.326  0.1124 -0.9508  0.8451
 3193SOL     OW11019   1.369   6.053   3.313  0.0346 -0.3824  0.1837
 3193SOL    HW111020   1.321   5.985   3.266 -1.2009  0.2463  0.4769
 3193SOL    HW211021   1.336   6.135   3.276  0.0266  0.0934  1.2028
 3194SOL     OW11022   7.331   3.117   3.421 -0.1494 -0.5082 -0.0966
 3194SOL    HW111023   7.306   3.165   3.342  0.6580 -1.2082 -0.7954
 3194SOL    HW211024   7.410   3.163   3.453  0.8364 -1.5433 -0.9670
 3195SOL     OW11025   2.569   4.851   2.628  0.4018  0.2145  0.1223
 3195SOL    HW111026   2.648   4.905   2.625  0.3132  0.2991 -1.2535
 3195SOL    HW211027   2.497   4.915   2.635  0.4510  0.1122  3.1922
 3196SOL     OW11028   1.606   4.454   1.974 -0.2260  0.1613 -0.4318
 3196SOL    HW111029   1.579   4.384   2.034  0.6612  1.0668  1.0807
 3196SOL    HW211030   1.557   4.437   1.894 -1.5613 -1.0197  0.5897
 3197SOL     OW11031   1.499   5.170   3.460 -0.0318  0.4438 -0.0289
 3197SOL    HW111032   1.555   5.212   3.395 -0.0922  0.6730  0.0628
 3197SOL    HW211033   1.552   5.100   3.497  0.2624  0.7700  0.1822
 3198SOL     OW11034   0.738   3.389   0.740  0.2066 -0.4284  0.1904
 3198SOL    HW111035   0.789   3.460   0.700  0.3752 -0.0170  1.1131
 3198SOL    HW211036   0.804   3.327   0.772  0.0644 -0.9055 -0.4187
 3199SOL     OW11037   2.220   1.851   4.533  0.3114 -0.2879  0.4990
 3199SOL    HW111038   2.186   1.866   4.621  1.7390 -2.6005  1.5312
 3199SOL    HW211039   2.311   1.825   4.546  0.5793 -0.6435 -1.6830
 3200SOL     OW11040   2.614   4.762   2.994  0.6023  0.8409  0.1591
 3200SOL    HW111041   2.690   4.801   2.950  1.3375 -0.9739 -0.2451
 3200SOL    HW211042   2.641   4.753   3.085 -0.2224  2.8139  0.6628
 3201SOL     OW11043   2.011   6.296   1.237 -0.0097  0.3438 -0.1463
 3201SOL    HW111044   1.950   6.223   1.224 -0.6443  1.0636 -1.3755
 3201SOL    HW211045   2.074   6.288   1.166 -0.4422  1.3302 -0.6584
 3202SOL     OW11046   7.835   5.357   4.130  0.5498 -0.0105  0.0141
 3202SOL    HW111047   7.794   5.278   4.094  2.2290 -1.3240  0.8142
 3202SOL    HW211048   7.929   5.342   4.120  0.9364  1.4193  1.1563
 3203SOL     OW11049   0.167   4.996   3.973  0.1456 -0.4147 -0.0175
 3203SOL    HW111050   0.152   5.017   3.881  1.0860  1.2507  0.1825
 3203SOL    HW211051   0.262   4.986   3.980  0.0031 -1.5378  0.5967
 3204SOL     OW11052   3.029   5.308   3.802 -0.2909 -1.0511 -0.6099
 3204SOL    HW111053   2.957   5.330   3.862 -0.1063 -1.6062 -0.1770
 3204SOL    HW211054   3.104   5.291   3.859  0.3219  0.0022 -1.0865
 3205SOL     OW11055   1.876   5.678   2.251 -0.0822 -0.5974  0.5245
 3205SOL    HW111056   1.834   5.755   2.212  0.4951 -0.2754  0.5396
 3205SOL    HW211057   1.804   5.617   2.266 -0.7722  0.4907  1.8600
 3206SOL     OW11058   0.023   5.819   3.220 -0.1674  0.1475  0.0711
 3206SOL    HW111059   0.068   5.881   3.163  0.5332  0.0424  0.4982
 3206SOL    HW211060  -0.070   5.837   3.207 -0.0630 -0.3489 -1.6325
 3207SOL     OW11061   1.337   3.069   1.839  0.2415  0.4365  0.0588
 3207SOL    HW111062   1.284   2.990   1.838  1.3297 -0.3141 -0.9141
 3207SOL    HW211063   1.273   3.141   1.839 -0.7720 -0.4338 -0.6298
 3208SOL     OW11064   0.555   5.577   3.803  0.0579 -0.1747 -0.2939
 3208SOL    HW111065   0.596   5.497   3.772  0.1148 -0.6770  1.0527
 3208SOL    HW211066   0.473   5.549   3.842 -0.3322  0.5260 -0.5925
 3209SOL     OW11067   1.551   1.849   1.956 -0.4560 -0.4370 -0.6719
 3209SOL    HW111068   1.628   1.793   1.955 -0.1650 -0.1666  1.3676
 3209SOL    HW211069   1.554   1.896   1.873  1.7406 -0.2202 -0.5309
 3210SOL     OW11070   0.424   4.969   2.587 -0.1882  0.1661 -0.6075
 3210SOL    HW111071   0.392   5.018   2.663 -1.6844  0.4676 -1.4021
 3210SOL    HW211072   0.489   5.027   2.547  0.3103  0.1780  0.1983
 3211SOL     OW11073   0.109   3.603   2.707 -0.4322 -0.1910  0.4379
 3211SOL    HW111074   0.113   3.695   2.683  0.5530 -0.4667 -0.5028
 3211SOL    HW211075   0.140   3.600   2.798 -1.7422  0.5440  0.9392
 3212SOL     OW11076   0.160   3.114   2.389  0.2287 -0.0190 -0.0057
 3212SOL    HW111077   0.154   3.165   2.470 -0.9847 -1.5168  0.8935
 3212SOL    HW211078   0.094   3.152   2.331 -1.9048 -1.5450  1.2869
 3213SOL     OW11079   1.498   5.658   1.804  0.4910  0.1963 -0.1418
 3213SOL    HW111080   1.514   5.574   1.761 -1.9297 -0.8633  0.8813
 3213SOL    HW211081   1.509   5.640   1.898  1.3657  1.4154  0.0281
 3214SOL     OW11082   1.335   5.603   2.436  1.0752 -0.1890 -0.0051
 3214SOL    HW111083   1.256   5.619   2.487 -0.7703 -1.3531 -2.3341
 3214SOL    HW211084   1.404   5.650   2.483 -0.9434  0.7633  2.1784
 3215SOL     OW11085   1.272   4.229   2.490 -0.2271 -0.4630 -0.2459
 3215SOL    HW111086   1.358   4.204   2.456  0.0088 -1.3661  0.9372
 3215SOL    HW211087   1.276   4.324   2.497  0.9074 -0.5431  0.3745
 3216SOL     OW11088   7.337   5.208   3.746 -0.3985  0.0230 -0.0781
 3216SOL    HW111089   7.409   5.258   3.783 -0.4287 -0.7627  1.1076
 3216SOL    HW211090   7.376   5.123   3.724 -0.9018 -0.3423  0.4042
 3217SOL     OW11091   0.991   2.191   3.061  0.0067 -0.0317 -0.1447
 3217SOL    HW111092   1.026   2.242   2.988 -0.2114  0.0536 -0.1885
 3217SOL    HW211093   1.066   2.181   3.120  0.3135 -0.5426 -0.6194
 3218SOL     OW11094   2.428   2.574   2.663 -0.1205 -0.1101 -0.0398
 3218SOL    HW111095   2.391   2.622   2.737  0.1622 -1.1600  0.8054
 3218SOL    HW211096   2.353   2.551   2.609 -0.3352  0.6203 -0.0669
 3219SOL     OW11097   1.151   2.588   4.060 -0.1598  0.2961  0.4165
 3219SOL    HW111098   1.226   2.610   4.004  0.2334  2.2050  1.6229
 3219SOL    HW211099   1.076   2.592   4.001  0.4913 -0.1126 -0.4834
 3220SOL     OW11100   1.610   3.398   3.247  0.0333  0.3890 -0.1807
 3220SOL    HW111101   1.551   3.446   3.190 -1.6684  1.0931  2.0045
 3220SOL    HW211102   1.696   3.440   3.235 -0.9413  2.5625  0.0342
 3221SOL     OW11103   1.654   4.075   3.030  0.4052  0.5999  0.6376
 3221SOL    HW111104   1.662   3.980   3.015  1.5708  0.7759  0.0669
 3221SOL    HW211105   1.691   4.115   2.952 -0.7379  1.5488  0.5518
 3222SOL     OW11106   0.820   4.322   2.522  0.1469  0.3656 -0.4883
 3222SOL    HW111107   0.822   4.288   2.433  2.1336  1.3109 -0.8611
 3222SOL    HW211108   0.885   4.268   2.569 -1.1337 -0.3639  0.5044
 3223SOL     OW11109   7.361   3.254   1.718  0.2222  0.6269  0.0625
 3223SOL    HW111110   7.418   3.279   1.790  1.0233  0.6594 -0.5675
 3223SOL    HW211111   7.282   3.222   1.760 -0.3151  2.9105  0.9230
 3224SOL     OW11112   7.993   5.332   3.540  0.3931 -0.6420  0.4339
 3224SOL    HW111113   7.920   5.289   3.497  0.1354 -0.3716  0.5991
 3224SOL    HW211114   8.050   5.360   3.468 -0.7680  1.1504  0.1386
 3225SOL     OW11115   6.313   4.860   4.005  0.2564  0.1727 -0.4092
 3225SOL    HW111116   6.400   4.900   4.005 -0.3196  1.4796  0.0784
 3225SOL    HW211117   6.253   4.933   4.021 -0.7996 -1.0141  1.3384
 3226SOL     OW11118   7.516   2.236   2.536 -0.1721 -0.4776  0.2224
 3226SOL    HW111119   7.519   2.232   2.441  0.8156 -0.3184  0.2280
 3226SOL    HW211120   7.553   2.152   2.564 -0.3451 -0.4736  0.4600
 3227SOL     OW11121   2.177   5.194   4.529 -0.0623  0.5495  0.6613
 3227SOL    HW111122   2.269   5.168   4.534  0.1813  1.5880  1.9502
 3227SOL    HW211123   2.170   5.238   4.444  0.4042 -0.3184  0.1572
 3228SOL     OW11124   0.426   4.230   1.385 -0.0509  0.5464 -0.2724
 3228SOL    HW111125   0.343   4.230   1.338  0.1220  0.0703 -0.5889
 3228SOL    HW211126   0.492   4.223   1.316  0.1378 -3.3071  0.1004
 3229SOL     OW11127   2.685   3.785   4.156  1.0656 -0.4527 -0.4081
 3229SOL    HW111128   2.606   3.755   4.201 -0.5035  2.3017 -1.0774
 3229SOL    HW211129   2.748   3.800   4.227 -0.9236  2.5542  0.9551
 3230SOL     OW11130   0.158   4.427   4.649  0.2258  0.3006  0.3239
 3230SOL    HW111131   0.131   4.383   4.568  0.7664  0.6981 -0.0739
 3230SOL    HW211132   0.097   4.501   4.658 -0.0552  0.0553  0.4720
 3231SOL     OW11133   7.399   3.530   5.709  0.1622 -0.7360  0.6072
 3231SOL    HW111134   7.410   3.572   5.794  3.4745  0.7412 -0.3717
 3231SOL    HW211135   7.479   3.479   5.697  0.1197 -0.3634 -1.8452
 3232SOL     OW11136   7.227   6.056   1.814  0.5373  0.1322  0.0858
 3232SOL    HW111137   7.225   6.046   1.909 -0.5794 -2.3342 -0.1387
 3232SOL    HW211138   7.320   6.062   1.792  0.8380 -0.0915  1.2590
 3233SOL     OW11139   7.786   4.232   3.132  0.5100 -0.2411 -0.1464
 3233SOL    HW111140   7.849   4.304   3.137  0.2103 -0.0501  3.3772
 3233SOL    HW211141   7.815   4.170   3.199 -2.5218 -0.5592  1.0110
 3234SOL     OW11142   0.802   4.943   0.281  0.0559  0.2251  0.0231
 3234SOL    HW111143   0.871   4.987   0.331  0.4447 -0.8776  0.4856
 3234SOL    HW211144   0.816   4.850   0.298  0.5041 -0.2298 -2.5084
 3235SOL     OW11145   7.596   2.545   1.851  0.1466  0.0071 -0.1135
 3235SOL    HW111146   7.605   2.495   1.770 -1.1044  0.6835 -0.7070
 3235SOL    HW211147   7.501   2.551   1.865  0.3237  0.6400  0.9242
 3236SOL     OW11148   1.427   4.892   2.410  0.3930 -0.8318 -0.4276
 3236SOL    HW111149   1.489   4.915   2.479  2.0134 -2.6445 -1.1844
 3236SOL    HW211150   1.357   4.956   2.418  1.4580  0.1627  1.6658
 3237SOL     OW11151   7.962   3.366   2.262 -0.2251  0.0690  0.0936
 3237SOL    HW111152   7.877   3.350   2.303 -0.3952  1.4513  0.3497
 3237SOL    HW211153   7.995   3.445   2.306  1.2431 -0.5092  0.0708
 3238SOL     OW11154   7.375   3.959   3.834 -0.1479 -0.0387 -0.3063
 3238SOL    HW111155   7.299   3.941   3.889  0.9592  0.3331  1.4536
 3238SOL    HW211156   7.450   3.928   3.886  0.8817 -0.9896 -2.2441
 3239SOL     OW11157   1.901   3.208   2.554  0.3165 -0.3685 -0.2089
 3239SOL    HW111158   1.977   3.263   2.538 -0.1745  0.2419 -0.5019
 3239SOL    HW211159   1.838   3.266   2.599 -0.2176 -0.6705 -0.5546
 3240SOL     OW11160   2.348   3.545   3.725  0.6392 -0.7721  0.3348
 3240SOL    HW111161   2.381   3.634   3.719 -1.2899 -0.0268  0.0165
 3240SOL    HW211162   2.396   3.506   3.798  2.9186 -0.1549 -0.7608
 3241SOL     OW11163   7.896   5.951   2.427 -0.1736 -0.6266  0.3677
 3241SOL    HW111164   7.903   6.028   2.370  1.9073  0.6145  2.1610
 3241SOL    HW211165   7.824   5.901   2.390 -0.1349  1.0399 -2.2211
 3242SOL     OW11166   0.291   5.220   1.819  0.4079 -0.0129 -0.2890
 3242SOL    HW111167   0.240   5.145   1.786  1.2142 -0.2099 -1.1254
 3242SOL    HW211168   0.289   5.210   1.914 -2.6794  1.0385 -0.1436
 3243SOL     OW11169   0.431   4.965   4.014 -0.5274 -0.2621  0.0565
 3243SOL    HW111170   0.442   4.988   4.107 -2.8559  0.3802  0.2394
 3243SOL    HW211171   0.486   4.888   4.002  0.2779 -0.0224  1.8163
 3244SOL     OW11172   1.155   5.062   4.325 -0.2212 -0.0311  0.7600
 3244SOL    HW111173   1.090   5.032   4.389 -0.9707 -0.3446 -0.1293
 3244SOL    HW211174   1.145   5.157   4.325 -0.5812 -0.0647  0.7381
 3245SOL     OW11175   2.068   3.323   2.895  0.6100 -0.0437 -0.0502
 3245SOL    HW111176   2.110   3.369   2.968  0.4606 -0.2573  0.1726
 3245SOL    HW211177   2.140   3.295   2.840  0.6541  1.7744 -1.0023
 3246SOL     OW11178   7.997   2.877   3.134  0.2418 -0.0098 -0.5877
 3246SOL    HW111179   7.950   2.946   3.088 -0.5936 -1.2468 -1.6322
 3246SOL    HW211180   8.073   2.858   3.078 -0.2762 -0.8826 -0.9958
 3247SOL     OW11181   0.425   4.789   2.829 -0.2659  0.0032  0.1622
 3247SOL    HW111182   0.479   4.824   2.758 -0.8679 -0.3479 -0.4823
 3247SOL    HW211183   0.442   4.847   2.903  0.9076 -0.0370 -0.0568
 3248SOL     OW11184   0.542   3.825   2.599 -0.1769 -0.0147 -0.5570
 3248SOL    HW111185   0.472   3.890   2.585  0.5027  0.5022 -1.6200
 3248SOL    HW211186   0.616   3.877   2.631  0.8348 -0.0181 -2.7705
 3249SOL     OW11187   1.144   4.135   2.864 -0.3160  0.0754  0.2589
 3249SOL    HW111188   1.238   4.145   2.878 -0.2928 -0.3837  0.4542
 3249SOL    HW211189   1.116   4.075   2.933 -1.0523  1.4853  1.2204
 3250SOL     OW11190   7.557   5.320   3.884 -0.2596  0.0963 -0.2528
 3250SOL    HW111191   7.632   5.379   3.891 -0.4108  0.2669 -0.0515
 3250SOL    HW211192   7.558   5.269   3.965 -0.6195  0.4077 -0.0481
 3251SOL     OW11193   7.882   3.696   2.857 -0.4793 -0.3551  0.1016
 3251SOL    HW111194   7.854   3.604   2.851  0.2074 -0.5437 -0.2195
 3251SOL    HW211195   7.965   3.693   2.905 -1.3124  0.2728  1.6867
 3252SOL     OW11196   0.341   5.689   2.560 -0.0148 -0.1354  0.1977
 3252SOL    HW111197   0.359   5.620   2.624 -0.8909 -0.6969 -0.1496
 3252SOL    HW211198   0.271   5.655   2.506 -1.5653  1.6420  0.9732
 3253SOL     OW11199   1.751   4.079  11.961  0.4174 -0.0028  0.0356
 3253SOL    HW111200   1.771   4.047  12.049 -0.9729  0.2233  0.4599
 3253SOL    HW211201   1.659   4.059  11.949 -0.5904  3.6968  0.3158
 3254SOL     OW11202   0.676   1.851   2.095  0.5618 -0.0044 -0.6300
 3254SOL    HW111203   0.764   1.856   2.058 -0.2919  0.2368 -2.7572
 3254SOL    HW211204   0.619   1.837   2.020 -1.2308 -0.2234  0.7054
 3255SOL     OW11205   1.355   4.631   2.364 -0.2394 -0.5693 -0.0707
 3255SOL    HW111206   1.269   4.640   2.324 -0.3356 -1.3639 -0.0503
 3255SOL    HW211207   1.382   4.721   2.384 -0.4226 -0.1873 -1.4311
 3256SOL     OW11208   1.910   4.379   2.765 -0.5351  0.6033 -0.6298
 3256SOL    HW111209   1.845   4.379   2.835  1.2236 -0.1460  1.1173
 3256SOL    HW211210   1.953   4.464   2.773 -2.1719  1.7171 -2.7363
 3257SOL     OW11211   2.217   4.085   3.160 -0.4403  0.4146 -0.4127
 3257SOL    HW111212   2.123   4.068   3.166 -0.4547  1.0443  4.1116
 3257SOL    HW211213   2.258   4.002   3.185  0.0663  0.9613  0.6381
 3258SOL     OW11214   0.412   5.035   4.552  0.4970 -0.3491 -0.2562
 3258SOL    HW111215   0.359   5.048   4.631 -0.2172  0.4025 -0.8386
 3258SOL    HW211216   0.502   5.051   4.581  0.2318  0.0130  0.3880
 3259SOL     OW11217   0.502   5.369   3.160 -0.0964  0.1293  0.0822
 3259SOL    HW111218   0.580   5.385   3.108  0.4058 -0.4729  0.6480
 3259SOL    HW211219   0.533   5.363   3.250 -0.9265  0.9220  0.4445
 3260SOL     OW11220   0.133   4.989   2.530  0.3012  0.2847  0.0102
 3260SOL    HW111221   0.215   5.039   2.528  0.5850 -0.1614  0.2131
 3260SOL    HW211222   0.129   4.952   2.619  0.8144 -1.2015 -0.5523
 3261SOL     OW11223   1.836   1.841   1.863  0.1473  0.3784  0.1118
 3261SOL    HW111224   1.893   1.806   1.931  0.9808 -1.6326 -1.4948
 3261SOL    HW211225   1.883   1.916   1.827  1.4387 -0.7289 -0.5965
 3262SOL     OW11226   2.234   6.152   3.365 -0.3202 -0.5448 -0.2411
 3262SOL    HW111227   2.271   6.170   3.452 -0.3196 -3.0585  0.3489
 3262SOL    HW211228   2.169   6.084   3.380  0.0516 -1.4327 -2.2794
 3263SOL     OW11229   7.605   4.803   3.352  0.4812  0.4682  0.0555
 3263SOL    HW111230   7.632   4.860   3.425 -0.6851  0.6608  0.3597
 3263SOL    HW211231   7.608   4.715   3.389 -0.6890  0.6151  0.5473
 3264SOL     OW11232   7.471   5.173   0.853  0.1258 -0.2125  0.7164
 3264SOL    HW111233   7.402   5.113   0.825  2.4202 -3.3103  1.1943
 3264SOL    HW211234   7.500   5.216   0.773 -2.5130  1.5275  0.5658
 3265SOL     OW11235   0.616   3.595   3.634 -0.1767 -0.3780  0.9725
 3265SOL    HW111236   0.627   3.563   3.544  0.0394 -0.9077  1.1791
 3265SOL    HW211237   0.557   3.670   3.626  0.4410  0.0461  0.3024
 3266SOL     OW11238   0.233   5.227  12.074 -0.1426 -0.5088 -0.3193
 3266SOL    HW111239   0.199   5.151  12.122  1.4152  0.4345  2.4508
 3266SOL    HW211240   0.187   5.302  12.111  2.6284  0.4743  1.4071
 3267SOL     OW11241   0.380   6.772   3.350 -0.0501  0.6762 -0.1143
 3267SOL    HW111242   0.439   6.803   3.418 -1.5266  2.3021  0.4961
 3267SOL    HW211243   0.327   6.849   3.328 -1.2087 -0.4507 -1.4012
 3268SOL     OW11244   1.921   4.306   2.058 -0.1212  0.1803  0.2192
 3268SOL    HW111245   2.012   4.334   2.049  0.3698 -1.2227  0.5663
 3268SOL    HW211246   1.876   4.382   2.096  0.9047  0.8687  0.1025
 3269SOL     OW11247   0.363   3.662   1.950 -0.8011 -0.0250  0.0437
 3269SOL    HW111248   0.402   3.704   2.027  0.6274 -0.1263 -0.5786
 3269SOL    HW211249   0.367   3.568   1.971  1.3790 -0.2090 -0.8577
 3270SOL     OW11250   1.163   4.429  12.319  0.5839 -0.5574 -0.8339
 3270SOL    HW111251   1.147   4.411  12.412  1.7248 -0.9876 -0.7012
 3270SOL    HW211252   1.101   4.372  12.273  0.1451 -0.4844 -0.3418
 3271SOL     OW11253   2.410   5.348   3.247  0.7686  0.1442  0.6673
 3271SOL    HW111254   2.383   5.283   3.312  0.5425  0.4206  0.8540
 3271SOL    HW211255   2.453   5.297   3.178 -0.9709 -0.4085 -0.0569
 3272SOL     OW11256   1.151   4.395   4.006  0.1969 -0.5522 -0.1236
 3272SOL    HW111257   1.080   4.459   4.017 -1.2557 -1.9547 -0.9517
 3272SOL    HW211258   1.195   4.394   4.091  0.0100  1.2369  0.0340
 3273SOL     OW11259   2.097   5.026   2.392 -0.1584  0.3394  0.2929
 3273SOL    HW111260   2.064   4.950   2.345 -1.8750  1.4849 -0.4415
 3273SOL    HW211261   2.097   5.000   2.484  0.7681 -1.0384 -0.0654
 3274SOL     OW11262   0.573   6.262   2.218 -0.3008  0.2106 -0.4027
 3274SOL    HW111263   0.631   6.206   2.270 -0.2738 -1.1377 -1.7934
 3274SOL    HW211264   0.610   6.258   2.129 -1.0251  1.4641 -0.7818
 3275SOL     OW11265   1.243   5.073   2.427 -0.1457 -0.0349  0.1716
 3275SOL    HW111266   1.299   5.140   2.387  0.6174 -0.7522  0.0174
 3275SOL    HW211267   1.154   5.100   2.404  0.1816  0.6015 -0.4005
 3276SOL     OW11268   1.224   2.949   3.105 -0.1667 -1.1036  0.1316
 3276SOL    HW111269   1.256   2.962   3.016  0.8580 -1.8507  0.3770
 3276SOL    HW211270   1.303   2.939   3.158 -0.7784 -1.3626  1.0214
 3277SOL     OW11271   2.199   3.637   3.392  0.2728 -0.4012  0.3337
 3277SOL    HW111272   2.125   3.679   3.436 -0.9245 -1.6984 -0.3669
 3277SOL    HW211273   2.276   3.680   3.429 -0.7485 -0.1228  2.2920
 3278SOL     OW11274   0.513   4.659   2.176 -0.2442  0.3686 -0.5279
 3278SOL    HW111275   0.492   4.698   2.261 -1.8024 -0.9146 -0.2829
 3278SOL    HW211276   0.597   4.699   2.152  0.3293  0.6507  1.6879
 3279SOL     OW11277   2.690   3.515   3.372  0.3072 -0.1190 -0.2580
 3279SOL    HW111278   2.746   3.496   3.297 -0.4178 -0.0145 -0.8325
 3279SOL    HW211279   2.678   3.431   3.416 -0.1562 -0.3805 -0.8827
 3280SOL     OW11280   1.174   6.003   2.934 -0.0015 -0.5208 -0.2126
 3280SOL    HW111281   1.253   6.054   2.951  0.3918 -1.2941  0.3433
 3280SOL    HW211282   1.163   5.948   3.012 -1.4754  0.0626  0.0199
 3281SOL     OW11283   6.551   5.086   3.494 -0.3453 -0.0800  0.3544
 3281SOL    HW111284   6.642   5.061   3.507 -0.2043  0.3985  0.3060
 3281SOL    HW211285   6.503   5.039   3.563 -0.1234 -0.6755  0.1020
 3282SOL     OW11286   1.936   2.994   3.015  0.3070  0.7898  0.1829
 3282SOL    HW111287   1.983   2.979   2.933  2.1345  1.7827  0.9905
 3282SOL    HW211288   1.909   3.086   3.011 -3.0033 -0.1125 -0.9057
 3283SOL     OW11289   7.890   2.326   3.131 -0.2609  0.0551 -0.0754
 3283SOL    HW111290   7.927   2.413   3.142 -3.8857  1.6518  1.0232
 3283SOL    HW211291   7.895   2.309   3.037  0.9143  1.2357 -0.2402
 3284SOL     OW11292   0.982   3.716   2.790 -0.2960  0.6371 -0.4382
 3284SOL    HW111293   0.918   3.645   2.798  0.7067 -0.5163 -1.8984
 3284SOL    HW211294   0.987   3.754   2.877  0.5649 -2.4364  1.0202
 3285SOL     OW11295   0.357   3.833   1.753  0.2648 -0.1461  0.0971
 3285SOL    HW111296   0.265   3.811   1.739 -0.3233  0.3150  2.7684
 3285SOL    HW211297   0.385   3.775   1.824  1.3781  1.2487  0.8461
 3286SOL     OW11298   1.101   4.502  12.035 -0.2033 -0.2191  0.0841
 3286SOL    HW111299   1.111   4.525  12.128 -2.9463  0.5248  0.2772
 3286SOL    HW211300   1.170   4.552  11.991  0.5525  0.1516  1.6139
 3287SOL     OW11301   0.881   4.204   3.198 -0.3249  0.3562  0.0853
 3287SOL    HW111302   0.867   4.215   3.292 -0.5125  2.1855 -0.1145
 3287SOL    HW211303   0.970   4.235   3.183 -0.5203  0.6809 -0.4251
 3288SOL     OW11304   0.747   5.732   2.610 -0.0417  0.9704  0.8451
 3288SOL    HW111305   0.702   5.672   2.670 -1.7000  1.2749 -0.0531
 3288SOL    HW211306   0.732   5.819   2.647 -1.0449  1.1580  0.0222
 3289SOL     OW11307   1.508   4.357   2.699 -0.4835  0.1694 -0.3710
 3289SOL    HW111308   1.564   4.414   2.751 -1.7074  1.7788 -0.7293
 3289SOL    HW211309   1.568   4.313   2.639  0.5437  0.9615  0.0421
 3290SOL     OW11310   0.975   4.724   2.965 -0.2505  0.3345 -0.3854
 3290SOL    HW111311   0.964   4.663   3.038  0.3909 -0.1242 -0.6678
 3290SOL    HW211312   1.069   4.735   2.957 -0.3210  0.4742 -1.0794
 3291SOL     OW11313   2.082   6.991   2.484  0.1619  0.0719  0.1026
 3291SOL    HW111314   2.048   7.005   2.572  1.3423 -1.2933  0.8137
 3291SOL    HW211315   2.166   6.948   2.496 -0.7020 -2.4136 -1.6693
 3292SOL     OW11316   1.205   5.359   1.450  0.4767 -0.4498 -0.0075
 3292SOL    HW111317   1.268   5.424   1.421  1.2236 -0.8226  0.7534
 3292SOL    HW211318   1.240   5.326   1.533 -0.3243 -1.2093  0.0456
 3293SOL     OW11319   1.180   3.160   2.823 -0.1597 -0.5600 -0.3802
 3293SOL    HW111320   1.257   3.105   2.833 -0.0293 -0.3753 -0.3657
 3293SOL    HW211321   1.177   3.181   2.730 -0.5356 -1.0614 -0.4888
 3294SOL     OW11322   0.721   2.601   2.387  0.3479 -0.2915 -0.1819
 3294SOL    HW111323   0.629   2.625   2.376  0.4776  0.7713  0.8606
 3294SOL    HW211324   0.748   2.644   2.469  1.0653 -2.6780  0.9213
 3295SOL     OW11325   2.697   2.008   3.032 -0.0566 -0.3389  0.5243
 3295SOL    HW111326   2.744   2.032   3.112  2.7406  0.8862 -1.3358
 3295SOL    HW211327   2.765   1.996   2.966 -2.2198 -1.4829 -1.6974
 3296SOL     OW11328   1.771   2.537   3.166 -0.1052 -0.2452 -0.5625
 3296SOL    HW111329   1.746   2.505   3.080  1.2054 -2.0510 -0.3362
 3296SOL    HW211330   1.787   2.630   3.153 -1.1309 -0.2269 -1.9685
 3297SOL     OW11331   7.715   4.534   1.125  0.5615  0.1269  0.2316
 3297SOL    HW111332   7.633   4.566   1.163  0.3505 -0.4297  0.2591
 3297SOL    HW211333   7.780   4.601   1.147 -0.2825  1.5988 -1.5466
 3298SOL     OW11334   7.967   6.848   3.684  0.2187 -0.5993  0.0892
 3298SOL    HW111335   7.975   6.772   3.742  0.1650 -0.5999  0.0959
 3298SOL    HW211336   7.888   6.893   3.715 -1.2478 -1.9159 -1.5287
 3299SOL     OW11337   2.504   6.447   2.218  0.5005  0.2326  0.1025
 3299SOL    HW111338   2.593   6.421   2.192  0.1090 -1.5822  0.4329
 3299SOL    HW211339   2.474   6.376   2.275 -0.4372  1.7927  1.6372
 3300SOL     OW11340   1.055   5.113   3.501  0.5050 -0.0465 -0.6271
 3300SOL    HW111341   1.082   5.185   3.444 -1.7190 -0.0675 -1.8186
 3300SOL    HW211342   1.131   5.097   3.557  0.8806  3.7334  0.2476
 3301SOL     OW11343   3.114   5.262   0.683  0.0079  0.1559  0.1597
 3301SOL    HW111344   3.025   5.289   0.661 -0.1671 -0.1293  0.5166
 3301SOL    HW211345   3.154   5.241   0.598  0.3890  2.2123 -0.2100
 3302SOL     OW11346   0.706   6.744   3.005 -0.1097 -0.2831 -0.2408
 3302SOL    HW111347   0.687   6.679   2.938  0.2824 -0.5338 -0.1058
 3302SOL    HW211348   0.799   6.762   2.997  0.1794 -1.1061  0.9388
 3303SOL     OW11349   0.731   5.195   0.781 -0.4231 -0.0657  0.3228
 3303SOL    HW111350   0.721   5.186   0.876  1.2346  0.1240  0.5447
 3303SOL    HW211351   0.820   5.166   0.764  0.1256  2.0951 -0.8603
 3304SOL     OW11352   0.767   3.994   4.917  0.4030 -0.3574  0.4582
 3304SOL    HW111353   0.736   4.071   4.870 -0.0605 -0.7446  0.1223
 3304SOL    HW211354   0.740   4.008   5.008 -0.5803 -0.5836  0.2147
 3305SOL     OW11355   1.929   3.369   2.207  0.6899 -0.1914  0.5103
 3305SOL    HW111356   2.006   3.425   2.220  0.1028  0.5434  0.8914
 3305SOL    HW211357   1.935   3.341   2.115  0.8248  0.7574  0.2229
 3306SOL     OW11358   1.298   3.692   1.263 -0.5845  0.2477  0.0239
 3306SOL    HW111359   1.361   3.735   1.322 -0.0378 -1.3271  0.6522
 3306SOL    HW211360   1.219   3.747   1.269  0.2532  1.4746  0.3228
 3307SOL     OW11361   2.505   5.383   2.822  0.8326  0.5329  0.3093
 3307SOL    HW111362   2.507   5.315   2.889 -0.2900  1.1679  1.0196
 3307SOL    HW211363   2.578   5.441   2.845  0.8099  0.4339  0.6327
 3308SOL     OW11364   1.119   3.158   4.015 -0.2375  0.4409  0.6367
 3308SOL    HW111365   1.115   3.079   4.068  2.8825  0.8372  1.7021
 3308SOL    HW211366   1.152   3.129   3.930  0.0152  0.4556  0.7275
 3309SOL     OW11367   7.706   5.541   1.636 -0.4381 -0.1053 -0.5248
 3309SOL    HW111368   7.695   5.620   1.583  1.5022  0.2385 -0.4776
 3309SOL    HW211369   7.674   5.470   1.580  0.0025  0.4468 -1.4956
 3310SOL     OW11370   1.727   3.146   1.498 -0.2387 -0.0055 -0.0144
 3310SOL    HW111371   1.780   3.103   1.431 -0.1836 -1.5564  0.9839
 3310SOL    HW211372   1.739   3.094   1.577 -2.0242  0.4968  0.6582
 3311SOL     OW11373   7.109   2.376   3.488 -0.0517 -0.3438  0.3387
 3311SOL    HW111374   7.193   2.358   3.530  0.4346 -0.3431 -0.6057
 3311SOL    HW211375   7.052   2.405   3.559  0.7583 -0.3170  0.9876
 3312SOL     OW11376   1.129   5.911   3.190  0.3863 -0.3974 -0.1096
 3312SOL    HW111377   1.066   5.980   3.212  0.6262  0.0098 -0.6791
 3312SOL    HW211378   1.104   5.837   3.247  1.2208  0.7183  1.8031
 3313SOL     OW11379   1.496   6.011  12.218 -0.4427  0.9312 -0.1688
 3313SOL    HW111380   1.585   5.980  12.200  0.3706  0.6962  3.4736
 3313SOL    HW211381   1.446   5.988  12.140  2.2122 -0.9240 -1.4570
 3314SOL     OW11382   2.039   2.047   1.275  0.0561 -0.3399 -0.2426
 3314SOL    HW111383   2.118   2.011   1.314 -0.3501 -1.3200 -0.2981
 3314SOL    HW211384   2.070   2.100   1.202  0.8039  1.1262  1.0632
 3315SOL     OW11385   2.210   4.608   0.970 -0.1205  0.0120 -0.2222
 3315SOL    HW111386   2.291   4.615   1.020  1.5158 -1.3937 -2.5090
 3315SOL    HW211387   2.163   4.689   0.990  1.9986  1.0734  0.8557
 3316SOL     OW11388   1.514   4.245   3.188 -0.3836  0.0319  0.0176
 3316SOL    HW111389   1.550   4.186   3.122 -1.0678 -0.0462 -0.3002
 3316SOL    HW211390   1.486   4.323   3.139  2.9381  1.8624  0.7349
 3317SOL     OW11391   0.211   6.964   2.969  0.2811 -0.2050 -0.8445
 3317SOL    HW111392   0.294   6.920   2.986  0.5793  0.7213  0.2507
 3317SOL    HW211393   0.183   6.931   2.884  1.1754 -1.4273 -0.6952
 3318SOL     OW11394   2.410   4.570   0.261 -0.5403 -0.0965  0.3417
 3318SOL    HW111395   2.464   4.496   0.290  1.3191  0.3339 -1.6780
 3318SOL    HW211396   2.346   4.531   0.202 -1.0254 -0.3624  1.0438
 3319SOL     OW11397   7.860   2.841   4.370  0.5544  0.2414 -0.2682
 3319SOL    HW111398   7.818   2.809   4.450  2.0218 -1.0754  0.0178
 3319SOL    HW211399   7.817   2.793   4.299  1.1608 -0.6901 -0.0216
 3320SOL     OW11400   0.852   3.188   4.259 -0.2782  0.6019  0.0211
 3320SOL    HW111401   0.922   3.251   4.275 -0.2905  0.3284  1.2195
 3320SOL    HW211402   0.810   3.176   4.344  0.4233 -1.8550  0.1081
 3321SOL     OW11403   7.384   2.086   3.060 -0.5073 -0.4372  0.4591
 3321SOL    HW111404   7.434   2.130   3.128 -0.7693  0.9542 -0.2074
 3321SOL    HW211405   7.445   2.023   3.022  0.2427  0.1385  0.6912
 3322SOL     OW11406   0.688   5.446   2.974  0.1588  0.5012 -0.5269
 3322SOL    HW111407   0.719   5.355   2.976  0.2004  0.4883 -1.2873
 3322SOL    HW211408   0.658   5.458   2.884 -2.7003  0.3071  0.3299
 3323SOL     OW11409   0.279   5.334   4.965 -0.5800  0.3542  0.3254
 3323SOL    HW111410   0.374   5.344   4.971 -0.4184 -0.8748  0.0399
 3323SOL    HW211411   0.258   5.266   5.028 -1.3977  1.2246  1.0080
 3324SOL     OW11412   2.426   4.346   4.595  0.2402 -0.8505  0.2284
 3324SOL    HW111413   2.497   4.310   4.542 -0.9345 -3.1545  0.1000
 3324SOL    HW211414   2.431   4.297   4.677 -1.7585 -1.8176 -0.1634
 3325SOL     OW11415   0.560   5.052   3.518  0.3584 -0.0248  0.4497
 3325SOL    HW111416   0.644   5.044   3.563  1.0144  1.4788 -0.4539
 3325SOL    HW211417   0.550   4.970   3.470  1.7553  0.1554 -0.1685
 3326SOL     OW11418   0.951   5.254   4.167  0.0038  0.2217 -0.0188
 3326SOL    HW111419   0.875   5.291   4.122 -0.4249 -0.8853 -0.2442
 3326SOL    HW211420   0.913   5.191   4.229  0.7626 -0.9644 -0.7282
 3327SOL     OW11421   2.811   5.623   7.138 -0.5325 -0.1882 -0.0622
 3327SOL    HW111422   2.849   5.556   7.195  0.3840 -1.1347 -1.6937
 3327SOL    HW211423   2.769   5.573   7.068  1.2043  0.8973 -1.9772
 3328SOL     OW11424   1.172   4.610   4.570 -0.5458 -0.3687 -0.2241
 3328SOL    HW111425   1.110   4.540   4.547  1.1105 -2.2072  0.6330
 3328SOL    HW211426   1.175   4.609   4.666  2.3093 -1.8360 -0.2163
 3329SOL     OW11427   1.835   2.755   5.194 -0.4100  0.0285  0.0975
 3329SOL    HW111428   1.904   2.780   5.255 -0.2935 -0.8590  0.3515
 3329SOL    HW211429   1.838   2.821   5.125  1.6987 -0.7872 -0.6723
 3330SOL     OW11430   0.823   5.227   5.519 -0.3137 -0.0553  0.1666
 3330SOL    HW111431   0.837   5.304   5.464  1.6124  0.6187  1.4641
 3330SOL    HW211432   0.739   5.192   5.491  0.0392  0.9040 -2.3610
 3331SOL     OW11433   1.151   3.416   4.136 -0.4934 -0.5993  0.2149
 3331SOL    HW111434   1.244   3.435   4.147 -0.5752  0.3537 -0.5894
 3331SOL    HW211435   1.148   3.333   4.090 -0.0455 -0.6192  0.2213
 3332SOL     OW11436   0.602   5.341   4.956  0.0244 -1.0007  0.1149
 3332SOL    HW111437   0.569   5.397   4.886  1.1478  0.4533  0.7130
 3332SOL    HW211438   0.655   5.275   4.911  2.1364  0.9119 -0.3469
 3333SOL     OW11439   1.016   4.114   6.298 -0.2828 -0.2347  0.0506
 3333SOL    HW111440   1.012   4.209   6.285  1.1764 -0.1733 -0.2227
 3333SOL    HW211441   0.974   4.100   6.383 -0.3451  0.6850  0.1908
 3334SOL     OW11442   0.982   3.445   4.347  0.2855 -0.6710 -0.0509
 3334SOL    HW111443   1.024   3.516   4.395 -0.1382 -1.4777  1.6070
 3334SOL    HW211444   1.038   3.430   4.271  0.8249  0.8699  0.0121
 3335SOL     OW11445   7.799   4.541   4.869  0.0400 -0.2606  0.0349
 3335SOL    HW111446   7.835   4.456   4.893  0.2711 -0.1526  0.0733
 3335SOL    HW211447   7.848   4.604   4.923  1.5900  0.1364 -1.7468
 3336SOL     OW11448   7.577   4.084   2.656  0.3269  0.3398  0.3569
 3336SOL    HW111449   7.564   4.134   2.576 -3.2758  0.3331  0.7894
 3336SOL    HW211450   7.633   4.140   2.710  3.2526  0.1457 -2.1756
 3337SOL     OW11451   7.605   4.228   3.448 -0.3153  0.1770  0.1490
 3337SOL    HW111452   7.689   4.193   3.416 -1.0502 -0.3638 -1.2823
 3337SOL    HW211453   7.541   4.162   3.423 -0.9477 -0.5615  3.2829
 3338SOL     OW11454   1.311   5.692   4.897 -0.1411 -0.2585  0.3722
 3338SOL    HW111455   1.311   5.711   4.803  0.4337 -0.5108  0.3164
 3338SOL    HW211456   1.289   5.599   4.902  0.3711 -0.3804  0.4493
 3339SOL     OW11457   0.130   2.939   3.541  0.0197  0.1232 -0.0763
 3339SOL    HW111458   0.166   3.028   3.540 -3.2959  1.5804  0.0167
 3339SOL    HW211459   0.094   2.928   3.629  1.9201 -2.0887  0.5193
 3340SOL     OW11460   0.509   4.999   6.874  0.1433  0.3873  0.4606
 3340SOL    HW111461   0.542   4.947   6.947  0.4906 -0.3114 -0.1762
 3340SOL    HW211462   0.537   5.089   6.894  0.3353  0.1858  1.1224
 3341SOL     OW11463   0.272   3.615   4.825 -0.1554  0.2123  0.1698
 3341SOL    HW111464   0.192   3.586   4.869 -0.3983  0.4153 -0.1346
 3341SOL    HW211465   0.299   3.693   4.874 -0.7052  0.7335 -0.3402
 3342SOL     OW11466   1.295   4.501   2.794 -0.1921  0.7401  0.2758
 3342SOL    HW111467   1.333   4.588   2.803  0.7372  0.2326  1.4591
 3342SOL    HW211468   1.365   4.448   2.755 -0.7507  0.4972 -0.4387
 3343SOL     OW11469   0.489   6.644   3.681  0.9837  0.2705 -0.4801
 3343SOL    HW111470   0.507   6.688   3.764  1.2863 -0.1082 -0.3401
 3343SOL    HW211471   0.515   6.707   3.614 -1.3070  1.4702 -0.3459
 3344SOL     OW11472   2.080   4.177   4.854  0.8427  0.0181  0.2089
 3344SOL    HW111473   2.106   4.240   4.788  0.7341  0.2677  0.4004
 3344SOL    HW211474   2.124   4.096   4.830  0.4137 -0.0217 -0.4449
 3345SOL     OW11475   0.523   6.593   4.666 -0.1216 -0.2272  0.1763
 3345SOL    HW111476   0.430   6.597   4.685 -0.6772  2.5113 -2.3706
 3345SOL    HW211477   0.528   6.570   4.573  1.7732 -0.9274  0.4112
 3346SOL     OW11478   0.874   6.040   5.217 -0.1232 -0.2732  0.1574
 3346SOL    HW111479   0.909   6.054   5.129  1.8191 -1.8085  0.5955
 3346SOL    HW211480   0.940   6.078   5.275 -0.5352 -0.7552  0.9682
 3347SOL     OW11481   6.585   4.230   3.906 -0.0593 -0.0318  0.0747
 3347SOL    HW111482   6.529   4.304   3.926 -0.6725 -1.1046  2.6636
 3347SOL    HW211483   6.525   4.163   3.873  0.0013 -0.4374  0.7699
 3348SOL     OW11484   1.498   5.366   3.836 -0.8299 -0.5765  0.3286
 3348SOL    HW111485   1.588   5.399   3.833 -1.1679  0.4266  0.7358
 3348SOL    HW211486   1.506   5.274   3.861  0.2065 -1.0749 -1.6396
 3349SOL     OW11487   1.473   2.678   2.807  0.0193  0.5192  0.3082
 3349SOL    HW111488   1.547   2.734   2.829 -0.9971  1.8005  0.5562
 3349SOL    HW211489   1.510   2.612   2.748  1.5934  0.3949  1.3850
 3350SOL     OW11490   6.589   4.660   4.924 -0.0523 -0.4141 -0.4594
 3350SOL    HW111491   6.554   4.738   4.967 -0.6713 -1.1893  0.4658
 3350SOL    HW211492   6.630   4.694   4.844 -2.9781  0.5562 -1.6747
 3351SOL     OW11493   0.022   4.538   5.462  0.1723 -0.0792 -0.1706
 3351SOL    HW111494   0.019   4.614   5.520 -1.5834 -0.7298  0.6712
 3351SOL    HW211495  -0.022   4.469   5.512  1.1012 -1.4596 -1.1991
 3352SOL     OW11496   7.897   4.882   7.006 -0.3366 -0.5853 -0.1397
 3352SOL    HW111497   7.897   4.821   6.933  0.2301  1.3129 -1.7949
 3352SOL    HW211498   7.833   4.949   6.982 -0.5711 -0.2053  1.3890
 3353SOL     OW11499   6.030   4.579   6.023  0.1046  0.3226 -0.0463
 3353SOL    HW111500   5.997   4.508   6.079  1.6372 -1.4411 -1.2865
 3353SOL    HW211501   6.123   4.584   6.043  0.2324  1.2263 -0.8189
 3354SOL     OW11502   2.107   4.424   4.709 -0.3998  0.1242 -0.1956
 3354SOL    HW111503   2.183   4.466   4.668 -1.0064  0.2702 -1.2211
 3354SOL    HW211504   2.095   4.470   4.792  1.8057 -1.1938  0.9541
 3355SOL     OW11505   0.661   6.210   4.528  0.2149  0.5952  0.4442
 3355SOL    HW111506   0.728   6.208   4.596  0.3251 -0.4912  0.3237
 3355SOL    HW211507   0.588   6.259   4.567  0.9514  1.5279  0.6761
 3356SOL     OW11508   0.520   3.828   3.446 -0.1881  0.5862  0.2439
 3356SOL    HW111509   0.439   3.869   3.416 -0.4689  0.0769  0.2840
 3356SOL    HW211510   0.587   3.896   3.437 -0.6178  1.0055  0.1972
 3357SOL     OW11511   2.557   4.013   5.987  0.6013  0.1052 -0.3787
 3357SOL    HW111512   2.582   4.050   6.072  0.0862 -1.4698  0.5035
 3357SOL    HW211513   2.615   3.938   5.975  2.0239  1.4384 -2.4077
 3358SOL     OW11514   1.000   4.664   3.411  0.3309 -0.3246  0.3292
 3358SOL    HW111515   0.995   4.577   3.373 -0.5245 -1.3191  2.5274
 3358SOL    HW211516   1.078   4.662   3.466  0.1346  0.1956  0.6359
 3359SOL     OW11517   0.589   1.245   3.222  0.5029 -0.2528  0.4071
 3359SOL    HW111518   0.569   1.305   3.150  1.0821  0.9879  1.2362
 3359SOL    HW211519   0.644   1.297   3.281  0.0061 -1.2136  1.7613
 3360SOL     OW11520   1.702   4.007   5.133  0.1082 -0.4253 -0.0937
 3360SOL    HW111521   1.637   4.050   5.189 -0.6201 -2.5820  0.8252
 3360SOL    HW211522   1.786   4.025   5.176 -0.0970  0.6276 -0.1167
 3361SOL     OW11523   2.088   1.917   6.676 -0.0576  0.2421  0.1274
 3361SOL    HW111524   2.052   2.000   6.708 -0.2408  0.4315 -0.5513
 3361SOL    HW211525   2.182   1.933   6.669 -0.2513  0.9549 -1.5397
 3362SOL     OW11526   1.924   2.833   2.799  0.8719  0.1505 -0.2135
 3362SOL    HW111527   2.013   2.862   2.778  0.9282 -0.0343 -0.2323
 3362SOL    HW211528   1.929   2.737   2.798  0.7589  0.1394  0.1548
 3363SOL     OW11529   0.526   1.919   3.858  0.3672 -0.6998  0.3211
 3363SOL    HW111530   0.509   2.001   3.904 -0.1412 -0.8809  0.4704
 3363SOL    HW211531   0.522   1.942   3.765 -3.0802 -1.0923  0.2259
 3364SOL     OW11532   1.202   4.240   3.159  0.8716 -0.0763 -0.0913
 3364SOL    HW111533   1.265   4.301   3.119  1.7033 -0.2602  0.9049
 3364SOL    HW211534   1.256   4.178   3.207 -0.0684 -0.2820  0.7312
 3365SOL     OW11535   0.607   5.771   4.029  0.0195  0.5591 -1.0077
 3365SOL    HW111536   0.582   5.797   3.941 -2.3117 -0.8354 -0.8498
 3365SOL    HW211537   0.530   5.725   4.063  1.4791 -0.4853  1.1149
 3366SOL     OW11538   2.404   3.383   2.124  0.1056 -0.1737 -0.2514
 3366SOL    HW111539   2.331   3.435   2.157  0.6543 -1.5621  3.7585
 3366SOL    HW211540   2.476   3.445   2.117 -0.4107  0.4539 -0.1415
 3367SOL     OW11541   0.821   3.719   5.820 -0.2777  0.0264 -0.1896
 3367SOL    HW111542   0.871   3.718   5.902  0.7016 -0.9726 -0.7745
 3367SOL    HW211543   0.878   3.676   5.756 -1.4940 -0.2652 -1.1213
 3368SOL     OW11544   0.345   4.119   6.362  0.5838  0.0443  0.2674
 3368SOL    HW111545   0.330   4.037   6.315 -0.5327  1.2304 -1.5801
 3368SOL    HW211546   0.299   4.109   6.445 -0.8460 -0.6444 -0.5843
 3369SOL     OW11547   1.548   4.277   3.454  0.0923 -0.0265  0.3255
 3369SOL    HW111548   1.621   4.332   3.482  1.5597 -1.9449  0.5044
 3369SOL    HW211549   1.559   4.267   3.360  0.2422 -0.5467  0.3939
 3370SOL     OW11550   1.216   5.842   2.088 -0.4194 -0.2307 -0.2886
 3370SOL    HW111551   1.252   5.754   2.098  2.0031  0.8338  1.5604
 3370SOL    HW211552   1.226   5.882   2.175 -1.3283  1.9153 -1.0955
 3371SOL     OW11553   0.858   5.793   5.514 -0.0339 -0.2971  0.3092
 3371SOL    HW111554   0.920   5.726   5.543 -1.6485 -1.6732  0.7831
 3371SOL    HW211555   0.899   5.876   5.538  2.3887 -1.0315 -0.9860
 3372SOL     OW11556   1.550   4.364   5.045 -0.5847  0.6328  0.8898
 3372SOL    HW111557   1.639   4.381   5.075 -1.0183 -0.7200  3.1857
 3372SOL    HW211558   1.548   4.271   5.024 -1.1234  0.9396 -0.5991
 3373SOL     OW11559   7.594   4.069   5.072  0.0750  0.2651 -0.4623
 3373SOL    HW111560   7.561   4.019   4.998 -2.1329 -0.4881  0.9266
 3373SOL    HW211561   7.672   4.021   5.101 -0.1013 -0.4791 -1.1818
 3374SOL     OW11562   2.341   3.844   3.705 -0.3665 -0.1301 -0.7702
 3374SOL    HW111563   2.316   3.937   3.703  0.6752  0.1582 -0.7267
 3374SOL    HW211564   2.435   3.844   3.720 -0.4810 -1.2267  0.1079
 3375SOL     OW11565   7.792   5.756   5.028  0.4660 -0.3660 -0.0811
 3375SOL    HW111566   7.712   5.808   5.026  0.4047 -0.0306  3.6357
 3375SOL    HW211567   7.862   5.820   5.042  1.0089 -0.8930 -0.3326
 3376SOL     OW11568   0.046   5.161   5.191 -0.4659  0.0520 -0.5293
 3376SOL    HW111569   0.061   5.255   5.205 -1.6560  0.2262 -0.2807
 3376SOL    HW211570   0.131   5.127   5.163  0.0350  1.1658 -0.4318
 3377SOL     OW11571   7.994   5.941   2.893 -0.0538 -0.1618  0.4792
 3377SOL    HW111572   8.072   5.965   2.942  0.8676 -1.4469 -0.3131
 3377SOL    HW211573   8.006   5.984   2.808  0.1973 -1.0125  0.0767
 3378SOL     OW11574   5.933   3.444   4.966 -0.3472 -0.1102  0.0801
 3378SOL    HW111575   5.926   3.370   5.026 -0.5835  1.7805  2.5236
 3378SOL    HW211576   5.843   3.467   4.944 -0.2529 -1.0306 -1.3676
 3379SOL     OW11577   0.886   5.654   2.423 -0.2592  0.1234 -0.3037
 3379SOL    HW111578   0.832   5.709   2.480 -1.2209 -1.0181 -0.0877
 3379SOL    HW211579   0.908   5.711   2.349 -1.0361  0.8711  0.0256
 3380SOL     OW11580   0.665   5.791   3.645  0.1405 -0.4772  0.5542
 3380SOL    HW111581   0.709   5.858   3.698 -0.0018  0.8108 -0.8864
 3380SOL    HW211582   0.628   5.730   3.709 -1.5907  1.9617  2.0552
 3381SOL     OW11583   1.710   2.676   3.920 -0.1899  0.6176  0.2793
 3381SOL    HW111584   1.698   2.721   3.837 -1.7561 -0.2565 -0.0151
 3381SOL    HW211585   1.798   2.701   3.949  1.5040 -1.0792 -2.8900
 3382SOL     OW11586   7.351   6.698   5.448  0.4264  0.2262  0.6504
 3382SOL    HW111587   7.385   6.686   5.360 -1.3873  0.7785 -0.1771
 3382SOL    HW211588   7.428   6.697   5.504  1.7950  1.4050 -1.0944
 3383SOL     OW11589   0.584   5.513   5.463 -0.2469  0.3138 -0.5806
 3383SOL    HW111590   0.580   5.584   5.526 -1.7373  0.3285 -0.6535
 3383SOL    HW211591   0.674   5.481   5.467 -0.4039  0.0547  1.8248
 3384SOL     OW11592   0.440   3.150   5.283 -0.5955 -0.0642  0.3439
 3384SOL    HW111593   0.514   3.157   5.223  1.0062 -0.5994  2.1316
 3384SOL    HW211594   0.386   3.227   5.266  0.0737  0.0511 -1.3818
 3385SOL     OW11595   0.240   3.416   5.204 -0.7050  0.0148  0.1764
 3385SOL    HW111596   0.318   3.471   5.211 -0.6582 -0.0956  0.5782
 3385SOL    HW211597   0.184   3.446   5.276 -0.9046 -0.1061  0.0719
 3386SOL     OW11598   1.590   3.417   1.408  0.0604 -0.3626 -0.3103
 3386SOL    HW111599   1.610   3.323   1.415  1.1208 -0.1169  0.0335
 3386SOL    HW211600   1.662   3.461   1.454 -1.4763  0.5384  1.3923
 3387SOL     OW11601   1.387   2.653   6.443 -0.4928 -0.8187 -0.5343
 3387SOL    HW111602   1.403   2.698   6.360 -0.8882 -1.4646 -0.9777
 3387SOL    HW211603   1.399   2.560   6.422 -1.5252 -1.0629 -0.1024
 3388SOL     OW11604   7.569   4.613   4.310 -0.0182  0.4072  0.5274
 3388SOL    HW111605   7.665   4.618   4.309  0.1397 -1.6405  0.8919
 3388SOL    HW211606   7.550   4.548   4.377 -1.5227 -1.2972 -1.4495
 3389SOL     OW11607   2.707   3.269   6.153  0.4489 -0.2558 -0.2530
 3389SOL    HW111608   2.775   3.317   6.201 -0.7531 -0.0308  1.3170
 3389SOL    HW211609   2.748   3.246   6.070  1.8654  1.3518 -0.0515
 3390SOL     OW11610   0.208   6.794   4.618 -0.5575 -0.2157  0.7409
 3390SOL    HW111611   0.206   6.710   4.663  0.2422 -1.1785 -0.9554
 3390SOL    HW211612   0.120   6.804   4.581 -0.5708 -0.4332  0.7164
 3391SOL     OW11613   1.540   4.191   3.881  0.2832  0.4081  0.1951
 3391SOL    HW111614   1.481   4.261   3.852  0.0408  0.2501  0.3022
 3391SOL    HW211615   1.569   4.218   3.968  1.5517  1.2214 -0.4452
 3392SOL     OW11616   0.920   4.963   3.889  0.1440 -0.0102  0.6200
 3392SOL    HW111617   0.997   4.951   3.833  0.9670 -0.2073  1.7648
 3392SOL    HW211618   0.945   4.924   3.973 -1.2337 -0.1315  0.9988
 3393SOL     OW11619   2.681   3.240   2.040  0.0553  0.4230  0.3050
 3393SOL    HW111620   2.718   3.294   1.970  1.4219 -0.4794  0.2866
 3393SOL    HW211621   2.725   3.269   2.119 -1.5013  1.4522  0.8451
 3394SOL     OW11622   1.353   3.435   3.660  0.1201  0.0812 -0.4372
 3394SOL    HW111623   1.380   3.525   3.642 -0.8293  0.5460  0.3682
 3394SOL    HW211624   1.365   3.389   3.576 -0.4603  1.2350 -1.1851
 3395SOL     OW11625   0.556   2.770   2.790  0.1101 -0.3472 -0.1176
 3395SOL    HW111626   0.479   2.798   2.741  0.0820 -1.2239 -0.5869
 3395SOL    HW211627   0.528   2.692   2.838  0.3927 -0.0188  0.6023
 3396SOL     OW11628   2.220   2.375   4.088 -0.3323  0.0123  0.6030
 3396SOL    HW111629   2.134   2.355   4.127 -0.3467  2.0959  1.7384
 3396SOL    HW211630   2.260   2.437   4.148  1.6230 -0.2103 -0.3964
 3397SOL     OW11631   0.797   5.508   4.623 -0.2424 -0.2804  0.2869
 3397SOL    HW111632   0.709   5.498   4.657 -0.2164  0.7641  0.7018
 3397SOL    HW211633   0.787   5.505   4.528 -0.7374 -0.0559  0.3336
 3398SOL     OW11634   7.676   7.342   2.827  0.5264  0.2415  0.6699
 3398SOL    HW111635   7.755   7.290   2.811  0.2470 -0.0327  0.1492
 3398SOL    HW211636   7.606   7.294   2.781  0.1096  0.6339  0.8837
 3399SOL     OW11637   1.352   4.919   4.135  0.0637  0.4362 -0.4006
 3399SOL    HW111638   1.328   4.827   4.124 -0.4794  0.8315 -3.6156
 3399SOL    HW211639   1.277   4.958   4.181  0.1609 -0.6373  0.7167
 3400SOL     OW11640   2.875   5.361   4.031  0.5084 -0.4014 -0.3618
 3400SOL    HW111641   2.819   5.426   4.074 -2.0533 -1.4405 -1.9049
 3400SOL    HW211642   2.891   5.295   4.098  1.4383  0.7671  0.6178
 3401SOL     OW11643   7.241   3.047   4.727 -0.6308  0.0039  0.0217
 3401SOL    HW111644   7.224   2.963   4.685  0.1300  0.4988 -1.3528
 3401SOL    HW211645   7.161   3.068   4.774 -0.7646 -1.5642  0.5514
 3402SOL     OW11646   7.135   4.263   3.518 -0.4150 -0.2071  0.7257
 3402SOL    HW111647   7.164   4.300   3.434 -0.0264  0.7759  1.2872
 3402SOL    HW211648   7.211   4.271   3.575 -0.9263 -0.1549  1.4056
 3403SOL     OW11649   2.405   3.328   4.777  0.1951  0.7237  0.3853
 3403SOL    HW111650   2.451   3.411   4.768 -1.0609  1.2853 -1.4169
 3403SOL    HW211651   2.452   3.268   4.720  0.2079  0.6062  0.5190
 3404SOL     OW11652   7.709   5.928   4.215  0.0408  0.1460 -0.0138
 3404SOL    HW111653   7.741   5.844   4.180 -1.6832  0.2919 -2.1332
 3404SOL    HW211654   7.749   5.934   4.302  0.2059 -2.8850  0.2317
 3405SOL     OW11655   0.157   4.778   5.161  0.2925  0.3214  0.1648
 3405SOL    HW111656   0.135   4.746   5.074  1.3608  0.8366 -0.3223
 3405SOL    HW211657   0.078   4.821   5.193 -0.0487  0.2933 -0.6367
 3406SOL     OW11658   0.631   5.584   6.038 -0.0495 -0.2936 -0.0292
 3406SOL    HW111659   0.667   5.671   6.020 -1.2431  0.2576  0.1280
 3406SOL    HW211660   0.686   5.524   5.989  1.7853  0.3845  1.0982
 3407SOL     OW11661   0.800   5.122   4.412  0.3782  0.0469  0.6159
 3407SOL    HW111662   0.822   5.034   4.382  1.4072  0.4196  0.2225
 3407SOL    HW211663   0.781   5.112   4.505 -0.5751 -0.7594  0.3427
 3408SOL     OW11664   1.019   4.774   5.161 -0.3334  0.9974  0.2176
 3408SOL    HW111665   0.984   4.801   5.246 -0.2235  1.4847  0.1075
 3408SOL    HW211666   1.111   4.799   5.164  0.1504 -0.7001  0.6847
 3409SOL     OW11667   1.643   4.768   6.498  0.7279  0.6979 -0.5292
 3409SOL    HW111668   1.699   4.705   6.544  0.2771 -0.6216 -1.7205
 3409SOL    HW211669   1.615   4.722   6.419 -3.6689  0.4891  0.8642
 3410SOL     OW11670   2.238   6.202   5.546 -0.1356 -0.0002  0.0774
 3410SOL    HW111671   2.188   6.250   5.480 -1.3450  0.2332  1.1177
 3410SOL    HW211672   2.251   6.265   5.617 -1.3585 -1.0163  1.2702
 3411SOL     OW11673   1.298   4.404   3.573  0.1506  0.2667 -0.8897
 3411SOL    HW111674   1.317   4.410   3.666  0.8504  0.9701 -1.0702
 3411SOL    HW211675   1.364   4.343   3.538  0.9615  1.2979 -1.2020
 3412SOL     OW11676   3.101   5.119   4.197  0.0427 -0.3971  0.4717
 3412SOL    HW111677   3.135   5.037   4.232  1.0677 -1.1149 -1.9964
 3412SOL    HW211678   3.127   5.119   4.105 -1.2984  1.9812 -0.0042
 3413SOL     OW11679   2.216   4.699   6.480  0.2841 -0.4219 -0.1722
 3413SOL    HW111680   2.234   4.605   6.480  0.7302 -0.3439 -0.7872
 3413SOL    HW211681   2.303   4.740   6.486  0.0024 -0.0396  2.4473
 3414SOL     OW11682   1.555   5.001   5.974  0.1228  0.4848 -0.3789
 3414SOL    HW111683   1.643   4.964   5.964  0.0877  0.4896 -0.7237
 3414SOL    HW211684   1.497   4.925   5.974  0.3362  0.1891  3.0622
 3415SOL     OW11685   6.680   3.739   3.446  0.3719 -0.2247  0.4312
 3415SOL    HW111686   6.620   3.805   3.412  0.8310 -0.2017 -0.3338
 3415SOL    HW211687   6.750   3.789   3.488  0.1164 -0.2457  0.8879
 3416SOL     OW11688   1.882   4.384   5.756 -0.1436  0.2114 -0.2015
 3416SOL    HW111689   1.890   4.293   5.786 -0.6850  0.1040 -0.3697
 3416SOL    HW211690   1.972   4.412   5.740 -0.0902 -1.3468 -3.2945
 3417SOL     OW11691   0.326   2.137   4.934  0.1566 -0.4468 -0.3360
 3417SOL    HW111692   0.330   2.059   4.879  0.3334  0.0405 -1.0227
 3417SOL    HW211693   0.399   2.192   4.904 -0.5079  0.3799 -0.4759
 3418SOL     OW11694   1.145   2.640   5.123 -0.7824 -0.1774  0.2394
 3418SOL    HW111695   1.207   2.676   5.187  1.5090 -0.9582 -1.3886
 3418SOL    HW211696   1.136   2.548   5.150  0.6263 -0.6551 -0.7824
 3419SOL     OW11697   1.138   4.872   3.715 -0.3959 -0.4636  0.8924
 3419SOL    HW111698   1.176   4.799   3.666 -0.8302 -0.0601 -0.0841
 3419SOL    HW211699   1.208   4.902   3.773  1.4952  1.4044 -2.0947
 3420SOL     OW11700   1.783   4.212   2.550  0.8192 -0.2559  0.1643
 3420SOL    HW111701   1.853   4.260   2.596  1.1719  0.3083 -0.9179
 3420SOL    HW211702   1.818   4.199   2.462 -0.7711  0.8154 -0.6683
 3421SOL     OW11703   7.642   2.826   4.862  0.8058  0.0841  0.1865
 3421SOL    HW111704   7.696   2.871   4.928 -1.0605  0.3769  1.5965
 3421SOL    HW211705   7.568   2.792   4.912 -2.0528  2.4851 -2.0737
 3422SOL     OW11706   7.681   6.102   3.985 -0.0453  0.0684  0.2668
 3422SOL    HW111707   7.613   6.164   4.013  1.1842  1.6365 -0.0667
 3422SOL    HW211708   7.708   6.059   4.066 -0.6003  0.2873  0.5782
 3423SOL     OW11709   0.309   3.862   4.001  0.4825  0.4313  0.1244
 3423SOL    HW111710   0.307   3.857   4.097 -0.5353 -1.6451  0.0538
 3423SOL    HW211711   0.217   3.849   3.975  0.9406 -0.4444 -1.1411
 3424SOL     OW11712   0.160   5.564   4.912 -0.2198 -0.1247 -0.0278
 3424SOL    HW111713   0.191   5.474   4.909  1.6553  0.4749 -0.3467
 3424SOL    HW211714   0.137   5.579   5.004 -0.7615 -0.9802 -0.0159
 3425SOL     OW11715   6.771   6.596   3.574  0.0159  0.2813  0.0704
 3425SOL    HW111716   6.690   6.554   3.603 -0.3060  1.4655  0.9353
 3425SOL    HW211717   6.760   6.688   3.594  1.0505  0.6860 -1.0406
 3426SOL     OW11718   1.915   4.135   5.840 -0.1470  0.3458 -0.2478
 3426SOL    HW111719   1.972   4.072   5.886 -0.4512  0.4341  0.2576
 3426SOL    HW211720   1.832   4.089   5.832 -1.2165  1.5815  2.4709
 3427SOL     OW11721   1.480   4.424   5.329  0.0347 -0.1964  0.2231
 3427SOL    HW111722   1.536   4.360   5.286  0.1260  0.0201  0.0175
 3427SOL    HW211723   1.536   4.500   5.343 -0.1056 -0.1154  0.3542
 3428SOL     OW11724   7.934   6.353   3.727  0.4814 -0.0601 -0.0128
 3428SOL    HW111725   7.843   6.334   3.704  0.3370 -0.5428  0.9177
 3428SOL    HW211726   7.983   6.336   3.647 -0.0761 -1.1568 -0.1413
 3429SOL     OW11727   7.186   3.724   5.206  0.4402  0.1514  0.2238
 3429SOL    HW111728   7.238   3.687   5.277  1.3015  1.0352  0.0796
 3429SOL    HW211729   7.136   3.795   5.247 -0.4772 -0.5161  0.3036
 3430SOL     OW11730   2.663   3.831   4.928  0.5344 -0.1918  0.3252
 3430SOL    HW111731   2.665   3.853   5.021  0.3914  0.3668  0.1956
 3430SOL    HW211732   2.755   3.815   4.905  0.5349 -0.6535  0.6366
 3431SOL     OW11733   0.120   1.235   4.879  0.3110  0.2819 -0.6975
 3431SOL    HW111734   0.192   1.266   4.934  0.0547 -0.6400  0.1784
 3431SOL    HW211735   0.079   1.315   4.846  0.4061  0.8744  0.5503
 3432SOL     OW11736   7.004   4.476   4.854  0.6777  0.1087  0.1151
 3432SOL    HW111737   7.022   4.539   4.784 -0.8538 -1.2658 -1.6654
 3432SOL    HW211738   7.089   4.459   4.895  1.6756  0.8665 -1.5361
 3433SOL     OW11739   0.196   3.545   4.121 -0.0833 -0.1161  0.1297
 3433SOL    HW111740   0.138   3.569   4.193 -1.0297 -0.4109 -0.5214
 3433SOL    HW211741   0.284   3.548   4.159 -0.3726  1.7297  0.7812
 3434SOL     OW11742   0.350   4.448   6.011  0.2790 -0.4330  0.9860
 3434SOL    HW111743   0.300   4.465   6.091 -2.1180 -1.8265 -0.1193
 3434SOL    HW211744   0.385   4.359   6.024 -0.6111 -0.8972  0.2773
 3435SOL     OW11745   0.200   5.367   3.384 -0.3643 -0.0755 -0.8557
 3435SOL    HW111746   0.211   5.445   3.330 -0.0714 -0.2202 -1.0072
 3435SOL    HW211747   0.262   5.379   3.455 -1.0729  0.3327 -0.2920
 3436SOL     OW11748   7.615   3.569   4.894  0.0347  0.2315 -0.1822
 3436SOL    HW111749   7.638   3.630   4.825 -1.0992  1.5722  0.5900
 3436SOL    HW211750   7.613   3.622   4.974  3.6117 -1.6306  1.3980
 3437SOL     OW11751   7.814   4.008   4.406 -0.1448  0.1097  0.6523
 3437SOL    HW111752   7.822   4.103   4.407  0.5830  0.0986 -0.8905
 3437SOL    HW211753   7.725   3.990   4.435 -0.8751  1.3611 -0.6855
 3438SOL     OW11754   7.543   3.973   4.405  0.2746 -0.2523  0.1089
 3438SOL    HW111755   7.549   4.043   4.470  1.9927  0.5634 -0.8567
 3438SOL    HW211756   7.474   4.003   4.345 -0.6207 -0.5379  0.9690
 3439SOL     OW11757   2.157   5.119   5.887  0.3774  0.6067  0.5192
 3439SOL    HW111758   2.152   5.024   5.871 -1.1599  0.7031  0.2710
 3439SOL    HW211759   2.155   5.127   5.983 -2.0926  0.4459  0.5397
 3440SOL     OW11760   7.552   3.418   4.407  0.0847  0.1941 -0.2589
 3440SOL    HW111761   7.546   3.474   4.329 -0.9787 -0.6947 -0.8628
 3440SOL    HW211762   7.594   3.472   4.473  0.8637  1.0314 -1.4073
 3441SOL     OW11763   1.388   4.782   5.445  0.0379  0.4393 -0.1653
 3441SOL    HW111764   1.469   4.739   5.469 -1.9257 -3.2241  0.5641
 3441SOL    HW211765   1.349   4.809   5.529 -0.6759 -0.1869 -0.2886
 3442SOL     OW11766   1.708   4.711   4.499 -0.1847 -0.2738 -0.4768
 3442SOL    HW111767   1.660   4.742   4.576  2.0480 -0.1731  0.9866
 3442SOL    HW211768   1.725   4.791   4.448 -0.9879 -0.2274 -0.6845
 3443SOL     OW11769   1.926   2.776   4.876  0.0177 -0.0353  0.2872
 3443SOL    HW111770   1.927   2.859   4.924  1.7346  0.5671 -0.7184
 3443SOL    HW211771   2.005   2.730   4.905 -1.6829 -2.0946  2.0061
 3444SOL     OW11772   1.687   4.425   6.310 -0.1772  0.0292 -0.0819
 3444SOL    HW111773   1.611   4.370   6.289  0.5529 -0.2150 -2.4346
 3444SOL    HW211774   1.745   4.414   6.235  1.8462  0.8412  1.2855
 3445SOL     OW11775   1.207   4.569   5.056  0.0280 -0.5268 -0.2464
 3445SOL    HW111776   1.233   4.653   5.093 -0.5316 -0.0743 -0.8670
 3445SOL    HW211777   1.214   4.508   5.129 -0.5843  0.2590  0.4985
 3446SOL     OW11778   1.242   3.206   5.854 -0.1184 -0.2809 -0.2606
 3446SOL    HW111779   1.275   3.157   5.929 -1.3633  0.2389  0.6596
 3446SOL    HW211780   1.286   3.291   5.859 -0.7851  0.0447  0.3802
 3447SOL     OW11781   0.364   4.794   3.742  0.2681 -0.1690  0.1560
 3447SOL    HW111782   0.454   4.760   3.746  1.1913  1.2267 -3.8454
 3447SOL    HW211783   0.374   4.888   3.730 -1.5512 -0.1821 -2.2199
 3448SOL     OW11784   0.078   4.739   4.036  0.3919 -0.0039  0.2406
 3448SOL    HW111785   0.135   4.811   4.009  2.8191 -2.4228 -1.6538
 3448SOL    HW211786   0.099   4.724   4.128  0.7746  0.8974  0.3096
 3449SOL     OW11787   7.883   1.447   4.777  0.6977  0.4376  0.6616
 3449SOL    HW111788   7.942   1.441   4.702 -0.3165  2.3036 -0.3667
 3449SOL    HW211789   7.850   1.537   4.774 -0.8453 -0.0259  2.2429
 3450SOL     OW11790   0.809   4.189   4.576  0.2614  0.0870 -0.6822
 3450SOL    HW111791   0.798   4.211   4.668  0.9442 -1.7009 -0.1348
 3450SOL    HW211792   0.762   4.107   4.565 -1.0782  1.0158 -2.3163
 3451SOL     OW11793   1.664   3.973   7.175 -0.5034  0.4755  0.0518
 3451SOL    HW111794   1.721   3.950   7.101 -0.5888  1.3918 -0.3206
 3451SOL    HW211795   1.697   3.921   7.248  0.2818  0.3608 -0.3711
 3452SOL     OW11796   1.402   3.509   4.435 -0.7965  0.4829 -0.2017
 3452SOL    HW111797   1.435   3.482   4.521 -0.4946 -0.4360 -0.5938
 3452SOL    HW211798   1.361   3.430   4.400  0.3888  0.4360 -1.5248
 3453SOL     OW11799   6.540   5.866   3.347 -0.3652  0.4390 -0.1879
 3453SOL    HW111800   6.557   5.942   3.404 -1.6049  1.7731 -1.5208
 3453SOL    HW211801   6.593   5.882   3.269 -1.6603  0.6662 -1.0541
 3454SOL     OW11802   6.937   6.854   2.286  0.6242  0.2451  0.1643
 3454SOL    HW111803   6.963   6.778   2.232  0.6865  1.0179 -0.9295
 3454SOL    HW211804   6.955   6.827   2.376 -0.7640 -1.6252 -0.0616
 3455SOL     OW11805   0.487   4.683   5.719  0.4649 -0.2904  0.2229
 3455SOL    HW111806   0.417   4.619   5.706 -0.0393 -0.2122  2.2463
 3455SOL    HW211807   0.565   4.631   5.735  0.2869 -0.3935  0.7561
 3456SOL     OW11808   1.366   4.081   4.846  0.5856  0.2492 -0.2357
 3456SOL    HW111809   1.460   4.097   4.849  0.7337 -0.7312  0.8013
 3456SOL    HW211810   1.355   3.993   4.882 -0.7863  0.6237  0.3324
 3457SOL     OW11811   7.353   3.792   4.988 -0.0782  0.0618 -0.1091
 3457SOL    HW111812   7.441   3.795   5.025 -0.3462  0.5664  0.5116
 3457SOL    HW211813   7.300   3.749   5.055 -0.9974  2.8174  1.0576
 3458SOL     OW11814   7.091   5.421   6.057 -0.3200 -0.0197 -0.0552
 3458SOL    HW111815   7.173   5.373   6.062  0.1006  0.7070  0.2177
 3458SOL    HW211816   7.094   5.482   6.131 -0.4542  1.0158 -0.8756
 3459SOL     OW11817   0.898   4.569   4.009 -0.1431  0.2186 -0.0852
 3459SOL    HW111818   0.911   4.661   3.986  0.8933  0.1190  0.0440
 3459SOL    HW211819   0.813   4.567   4.054  0.0449  1.1913  0.3467
 3460SOL     OW11820   1.791   3.408   4.628  0.0437 -0.2470  0.1776
 3460SOL    HW111821   1.818   3.428   4.539  0.8494 -0.9076  0.2565
 3460SOL    HW211822   1.800   3.491   4.675 -1.4586  0.3812 -0.5852
 3461SOL     OW11823   0.519   3.685   5.420  0.1434 -0.8702 -0.1715
 3461SOL    HW111824   0.466   3.764   5.419 -0.4060 -1.2258  0.2429
 3461SOL    HW211825   0.503   3.647   5.507  1.2740 -0.8488  0.0573
 3462SOL     OW11826   0.465   5.820   4.943 -0.2395 -0.3774 -0.2151
 3462SOL    HW111827   0.399   5.756   4.916  0.9061 -1.8177  0.2608
 3462SOL    HW211828   0.472   5.808   5.037  0.1000  0.3623 -0.1471
 3463SOL     OW11829   0.089   5.060   2.125 -0.0866 -0.4591  0.6364
 3463SOL    HW111830   0.120   4.975   2.155  0.1731 -1.0150 -1.0823
 3463SOL    HW211831   0.003   5.070   2.164  0.2827 -1.0589  1.6322
 3464SOL     OW11832   0.453   6.503   4.028 -0.2057  0.1197  0.3158
 3464SOL    HW111833   0.406   6.539   4.103 -0.4556  0.4291  0.0155
 3464SOL    HW211834   0.500   6.427   4.063 -0.4084  0.1953  0.7585
 3465SOL     OW11835   0.862   4.319   1.900  0.2149 -0.3355  0.6402
 3465SOL    HW111836   0.825   4.293   1.984  0.3813 -0.0627  0.7998
 3465SOL    HW211837   0.889   4.237   1.859  2.7650 -0.3088  2.0881
 3466SOL     OW11838   1.132   6.357   4.881  0.3400  0.4603 -0.1023
 3466SOL    HW111839   1.203   6.307   4.842 -0.4985 -0.1826 -0.8729
 3466SOL    HW211840   1.063   6.292   4.897 -0.8948  1.3988 -1.4030
 3467SOL     OW11841   7.779   3.809   6.153 -0.0591 -0.0978 -0.4524
 3467SOL    HW111842   7.860   3.802   6.203 -1.4818 -2.4203  1.7725
 3467SOL    HW211843   7.728   3.732   6.179 -1.5928 -0.6717 -4.4132
 3468SOL     OW11844   0.523   5.937   3.458 -0.3529 -0.0314 -0.0136
 3468SOL    HW111845   0.535   6.032   3.465 -0.5434  0.1296 -1.5839
 3468SOL    HW211846   0.559   5.903   3.540  0.8591  1.2979  0.0574
 3469SOL     OW11847   2.050   5.765   5.118  0.3353 -0.3865 -0.1937
 3469SOL    HW111848   2.140   5.758   5.087 -0.1310 -0.2792 -1.6696
 3469SOL    HW211849   2.049   5.718   5.201  1.7185 -0.4952 -0.2190
 3470SOL     OW11850   1.596   5.024   3.691  0.0425 -0.1763 -0.2143
 3470SOL    HW111851   1.661   4.966   3.652  0.3680  1.0150 -1.5461
 3470SOL    HW211852   1.636   5.055   3.772 -0.2351 -1.9323  0.6536
 3471SOL     OW11853   7.925   2.615   4.634 -0.7469  0.5036 -1.0700
 3471SOL    HW111854   7.836   2.635   4.605 -1.5117 -0.5608  0.4276
 3471SOL    HW211855   7.930   2.519   4.631 -0.2128  0.4683  0.4070
 3472SOL     OW11856   1.851   6.330   5.027 -0.2450 -0.1042  0.6061
 3472SOL    HW111857   1.788   6.361   4.963  0.5239  0.0673 -0.0833
 3472SOL    HW211858   1.930   6.382   5.011  0.7267 -1.6517  0.1085
 3473SOL     OW11859   1.749   2.668   4.283  0.6686  0.2009  0.6277
 3473SOL    HW111860   1.825   2.637   4.332  1.2124  0.0054 -0.3233
 3473SOL    HW211861   1.786   2.715   4.208 -0.1371 -0.6940 -0.3557
 3474SOL     OW11862   0.395   3.407   3.698  0.3076 -0.1656 -0.2135
 3474SOL    HW111863   0.482   3.369   3.713  0.9118  1.6125  1.1048
 3474SOL    HW211864   0.370   3.444   3.782 -0.2809  2.1912 -1.3418
 3475SOL     OW11865   7.453   4.545   5.659  0.3133 -0.0235  0.0082
 3475SOL    HW111866   7.507   4.564   5.582  0.8801  0.3936  0.5025
 3475SOL    HW211867   7.465   4.620   5.716  0.7970 -0.8371  1.0048
 3476SOL     OW11868   0.626   4.753   3.721 -0.1142  0.1739  0.2093
 3476SOL    HW111869   0.648   4.828   3.665 -1.2876 -0.0615 -0.6103
 3476SOL    HW211870   0.699   4.692   3.710  0.8461  1.1594  0.8615
 3477SOL     OW11871   0.547   3.041   5.506 -0.2129  0.4438 -0.5241
 3477SOL    HW111872   0.491   3.060   5.430 -0.3258  1.0558 -0.2922
 3477SOL    HW211873   0.633   3.024   5.467 -0.5311 -0.4259 -0.8762
 3478SOL     OW11874   0.418   3.569   3.105  0.4495  0.2726 -0.2504
 3478SOL    HW111875   0.461   3.580   3.189  0.6840 -0.8806 -0.1971
 3478SOL    HW211876   0.363   3.491   3.116  0.1671  0.3456 -1.0379
 3479SOL     OW11877   7.474   6.172   4.994 -0.3179 -0.1489 -0.5946
 3479SOL    HW111878   7.463   6.085   4.954  0.3396 -0.8435  0.6747
 3479SOL    HW211879   7.551   6.163   5.050 -0.9270  0.9238  0.4609
 3480SOL     OW11880   1.481   3.301   4.965 -0.0707  0.2354  0.4065
 3480SOL    HW111881   1.515   3.343   5.044  0.2415  0.9742 -0.1103
 3480SOL    HW211882   1.459   3.373   4.906 -1.1097 -0.2840  0.1369
 3481SOL     OW11883   0.129   2.718   4.803 -0.0359  0.3702 -0.4649
 3481SOL    HW111884   0.072   2.692   4.730 -0.4433 -1.3122  0.3983
 3481SOL    HW211885   0.214   2.734   4.762 -0.6114  0.9109 -1.4943
 3482SOL     OW11886   0.720   5.280   3.326  0.1459  0.2757 -0.1258
 3482SOL    HW111887   0.798   5.321   3.363  0.3563 -0.8100  0.6771
 3482SOL    HW211888   0.689   5.220   3.394 -0.6072 -0.3106 -0.9557
 3483SOL     OW11889   1.605   3.872   4.240 -0.0008  0.4276 -0.0331
 3483SOL    HW111890   1.661   3.900   4.168 -2.0330  1.4161 -1.3061
 3483SOL    HW211891   1.666   3.837   4.305  1.8156 -2.1597 -2.8883
 3484SOL     OW11892   6.741   3.231   2.855  0.0177 -0.2244  0.1642
 3484SOL    HW111893   6.655   3.194   2.874 -0.7514  1.5375  0.2850
 3484SOL    HW211894   6.729   3.326   2.863  1.8099  0.0974 -0.4892
 3485SOL     OW11895   0.207   6.005   3.079  0.2717  0.0631 -0.0312
 3485SOL    HW111896   0.248   6.044   3.156  1.6456 -1.1984 -0.0802
 3485SOL    HW211897   0.281   5.980   3.023 -0.5883 -1.4495 -0.5486
 3486SOL     OW11898   7.173   3.783   5.846 -0.2558 -0.2561  0.6451
 3486SOL    HW111899   7.190   3.788   5.752  1.0623 -1.0839  0.8108
 3486SOL    HW211900   7.132   3.697   5.858  1.8529 -1.2759  1.0866
 3487SOL     OW11901   0.083   4.900   6.082 -0.1672 -0.6066 -0.1093
 3487SOL    HW111902   0.072   4.863   5.994 -0.6489 -1.5938  0.3590
 3487SOL    HW211903   0.053   4.832   6.141 -1.6944  0.7321  0.7543
 3488SOL     OW11904   1.667   2.870   2.875 -0.0165  0.5066 -0.4197
 3488SOL    HW111905   1.669   2.922   2.955 -0.2017 -0.0291 -0.0633
 3488SOL    HW211906   1.759   2.858   2.852  0.0454  2.8299 -1.7309
 3489SOL     OW11907   0.938   2.815   4.742  0.0021 -0.3244  0.3428
 3489SOL    HW111908   0.958   2.725   4.768  0.9570 -0.4639 -0.7643
 3489SOL    HW211909   0.982   2.869   4.808  0.8723 -0.6784  0.0765
 3490SOL     OW11910   1.197   5.380   4.129  0.0313  0.3260 -0.1873
 3490SOL    HW111911   1.119   5.329   4.108 -1.7948  1.8453  2.3319
 3490SOL    HW211912   1.179   5.468   4.096 -0.0589  1.0605  1.6793
 3491SOL     OW11913   1.582   5.623   4.051  0.5792  0.0927  0.0410
 3491SOL    HW111914   1.672   5.625   4.082  0.5516  1.2273  0.0835
 3491SOL    HW211915   1.533   5.583   4.123  0.9831 -0.1637  0.1796
 3492SOL     OW11916   1.261   2.857   2.831  0.0886  0.1743 -0.7801
 3492SOL    HW111917   1.320   2.781   2.839 -0.3993 -0.2739 -1.2870
 3492SOL    HW211918   1.204   2.834   2.758  0.0366  1.1122 -1.0436
 3493SOL     OW11919   1.066   5.022   5.900  0.1104 -0.3429 -0.0722
 3493SOL    HW111920   1.053   4.929   5.921  1.1099 -0.6176 -0.5936
 3493SOL    HW211921   1.047   5.068   5.981  0.6993 -1.1094  0.5203
 3494SOL     OW11922   1.199   2.855   5.851  0.4588 -0.3439  0.4391
 3494SOL    HW111923   1.212   2.949   5.861 -0.2075  0.0286 -1.6393
 3494SOL    HW211924   1.252   2.831   5.775  0.4272 -1.6117  0.7886
 3495SOL     OW11925   0.730   4.788   2.914  0.2212  0.4891  0.4646
 3495SOL    HW111926   0.746   4.857   2.850  1.5285  0.9368  1.2504
 3495SOL    HW211927   0.815   4.772   2.955 -0.3018 -0.7488  1.1439
 3496SOL     OW11928   2.504   4.482   6.569  0.1075  1.1892 -0.2581
 3496SOL    HW111929   2.493   4.577   6.571 -2.0550  0.9918 -0.1154
 3496SOL    HW211930   2.475   4.452   6.656 -1.1139  0.2840 -0.9374
 3497SOL     OW11931   2.004   4.647   2.711 -0.3852  0.4034  0.4861
 3497SOL    HW111932   2.075   4.640   2.647 -1.4653 -0.4650 -0.6646
 3497SOL    HW211933   2.047   4.679   2.790  1.0896  1.0051 -0.5019
 3498SOL     OW11934   2.456   5.193   3.609 -0.5043 -0.4063 -0.5962
 3498SOL    HW111935   2.415   5.113   3.576 -0.4683 -0.2435 -1.0388
 3498SOL    HW211936   2.549   5.183   3.587 -0.2268 -0.9690  0.7846
 3499SOL     OW11937   7.752   4.181   6.601 -0.5204  0.2975 -0.2494
 3499SOL    HW111938   7.787   4.270   6.594 -0.4602  0.1691 -1.9195
 3499SOL    HW211939   7.695   4.171   6.525 -0.2472 -1.2122 -0.2933
 3500SOL     OW11940   0.673   5.456   2.688  0.3428 -0.4008  0.0144
 3500SOL    HW111941   0.764   5.426   2.692  0.0337 -1.4849 -0.6196
 3500SOL    HW211942   0.657   5.470   2.594 -0.5743 -1.6856 -0.0490
 3501SOL     OW11943   0.170   3.838   4.264 -0.1751  0.2528 -0.5818
 3501SOL    HW111944   0.263   3.818   4.254 -0.1406 -1.5718  2.1155
 3501SOL    HW211945   0.129   3.752   4.274 -1.3330  1.0823  3.3340
 3502SOL     OW11946   7.975   3.714   4.720  0.3023 -0.0236 -0.1186
 3502SOL    HW111947   7.999   3.629   4.684  0.9552  0.7663 -1.6407
 3502SOL    HW211948   7.994   3.776   4.649 -0.3789  1.3593  0.8716
 3503SOL     OW11949   7.930   5.545   3.275  0.1988 -0.2694 -0.2400
 3503SOL    HW111950   7.997   5.604   3.239 -2.0445  1.2852 -2.1648
 3503SOL    HW211951   7.897   5.591   3.352  0.8194 -0.7164  0.3080
 3504SOL     OW11952   2.505   2.931   4.590  0.9210 -0.2167  0.2050
 3504SOL    HW111953   2.577   2.909   4.531  1.6920 -0.0555  1.0627
 3504SOL    HW211954   2.530   3.016   4.628  0.3358 -0.2124  0.5866
 3505SOL     OW11955   0.950   4.898   4.449  0.5852 -0.7985 -0.3067
 3505SOL    HW111956   0.980   4.917   4.538  0.0626  0.8245 -0.4354
 3505SOL    HW211957   0.894   4.822   4.457 -0.4083  0.0361  0.9656
 3506SOL     OW11958   0.296   4.454   5.460  0.3468 -0.3977 -0.4549
 3506SOL    HW111959   0.326   4.475   5.549  0.1735 -0.6912 -0.3248
 3506SOL    HW211960   0.202   4.470   5.462 -0.0901 -2.6667  0.1196
 3507SOL     OW11961   2.299   3.770   5.984  0.0397  0.3213 -0.0340
 3507SOL    HW111962   2.326   3.699   6.042  1.3100 -0.9573 -2.0791
 3507SOL    HW211963   2.367   3.773   5.916 -1.2421  1.9106 -1.3412
 3508SOL     OW11964   1.724   3.129   6.664  0.0449  0.1510 -0.1400
 3508SOL    HW111965   1.711   3.222   6.644 -0.5011  0.1134  0.0103
 3508SOL    HW211966   1.710   3.123   6.759  1.5902  0.1621  0.1169
 3509SOL     OW11967   0.242   3.204   3.568 -0.2582  0.1718  0.3614
 3509SOL    HW111968   0.254   3.214   3.474 -1.3766  3.1735  0.4161
 3509SOL    HW211969   0.306   3.264   3.607 -1.2023  0.5467  1.4022
 3510SOL     OW11970   1.083   5.595   3.696  0.0218 -0.0776  0.0583
 3510SOL    HW111971   1.119   5.669   3.746 -0.4148 -0.0886  0.3968
 3510SOL    HW211972   1.150   5.527   3.703  0.5558  0.3799 -0.4957
 3511SOL     OW11973   1.775   6.007   3.869  1.0815  0.6489 -0.1461
 3511SOL    HW111974   1.726   6.072   3.818 -0.3047 -0.0632  0.2327
 3511SOL    HW211975   1.861   6.005   3.828  0.7465  1.8178 -0.9557
 3512SOL     OW11976   0.468   5.317   5.766 -0.3714  0.2772 -0.4081
 3512SOL    HW111977   0.402   5.363   5.818 -1.4158  0.8420 -2.1595
 3512SOL    HW211978   0.538   5.382   5.754 -0.0411  0.0834  0.4230
 3513SOL     OW11979   1.328   6.092   3.851  0.2571 -0.3693  0.0507
 3513SOL    HW111980   1.310   6.074   3.943  0.1290  2.7803  0.7337
 3513SOL    HW211981   1.243   6.116   3.814  1.0268  4.6617  0.8363
 3514SOL     OW11982   1.734   5.105   4.815 -0.6948 -0.4640 -0.3508
 3514SOL    HW111983   1.694   5.136   4.734 -1.2195 -0.4476 -0.0892
 3514SOL    HW211984   1.816   5.064   4.787 -1.0413 -0.7742 -0.9288
 3515SOL     OW11985   0.442   3.922   3.724 -0.2481 -0.5293 -0.1213
 3515SOL    HW111986   0.464   3.895   3.813  0.7999  0.1950 -0.1383
 3515SOL    HW211987   0.486   4.006   3.713 -0.0427 -0.7918 -1.4543
 3516SOL     OW11988   0.118   3.976   4.879 -0.1456  0.1633 -0.2098
 3516SOL    HW111989   0.053   3.926   4.926 -1.5110  1.2510 -0.8591
 3516SOL    HW211990   0.199   3.927   4.889 -0.9278 -0.8974  1.1435
 3517SOL     OW11991   1.826   2.404   5.206 -0.3546 -0.3688  0.1702
 3517SOL    HW111992   1.869   2.368   5.129  1.4536 -0.5040  1.1848
 3517SOL    HW211993   1.875   2.485   5.225 -2.9944  1.5996 -0.8286
 3518SOL     OW11994   0.694   2.418   5.188 -0.0347 -0.0082 -0.1321
 3518SOL    HW111995   0.678   2.489   5.127  0.7278 -1.3268 -1.9707
 3518SOL    HW211996   0.670   2.339   5.139  1.6709 -1.2036  0.8670
 3519SOL     OW11997   0.609   4.803   5.156 -0.4760 -0.1815 -0.0975
 3519SOL    HW111998   0.581   4.856   5.081  0.7458  0.4389 -0.1408
 3519SOL    HW211999   0.532   4.749   5.178 -0.5183 -1.1946 -2.4763
 3520SOL     OW12000   2.156   5.062   5.369  0.4474 -0.1540 -0.3937
 3520SOL    HW112001   2.136   4.968   5.375 -1.8723  0.3930  2.3357
 3520SOL    HW212002   2.071   5.104   5.362  1.1654  1.8986  2.0154
 3521SOL     OW12003   7.235   6.511   3.068 -0.3700  0.1805 -0.2968
 3521SOL    HW112004   7.273   6.599   3.077  0.8110 -0.2675 -0.6160
 3521SOL    HW212005   7.193   6.512   2.982  1.5669 -0.2037 -1.3175
 3522SOL     OW12006   1.836   2.989   5.025 -0.0932 -0.2210 -0.1085
 3522SOL    HW112007   1.758   3.031   4.989  0.5662 -0.2889 -1.6949
 3522SOL    HW212008   1.871   3.053   5.087 -1.4676 -0.2537  0.7228
 3523SOL     OW12009   1.285   3.752   4.590 -0.1988  0.3244  0.0879
 3523SOL    HW112010   1.319   3.701   4.516  1.0577 -1.7719  2.0070
 3523SOL    HW212011   1.352   3.818   4.606  0.6935 -0.7118  0.7784
 3524SOL     OW12012   0.899   5.310   2.799  0.0887  0.2167 -0.1038
 3524SOL    HW112013   0.958   5.241   2.830  0.2966  0.4963  0.1322
 3524SOL    HW212014   0.926   5.388   2.848  0.3678  0.6528 -0.9354
 3525SOL     OW12015   7.959   4.812   3.549 -0.1624  0.2570  0.4013
 3525SOL    HW112016   7.895   4.831   3.618  0.5091 -1.4272  1.5572
 3525SOL    HW212017   8.008   4.893   3.539  0.7643  0.1230  3.0826
 3526SOL     OW12018   1.717   3.499   2.323 -0.2643 -0.3171  0.0578
 3526SOL    HW112019   1.643   3.472   2.268 -0.1091 -2.7627  0.8988
 3526SOL    HW212020   1.795   3.477   2.272 -0.1350 -1.1152  0.5673
 3527SOL     OW12021   2.397   4.130   3.775 -0.2217 -0.1689 -0.1974
 3527SOL    HW112022   2.456   4.099   3.706 -0.6857  0.1408 -0.7412
 3527SOL    HW212023   2.455   4.151   3.849  0.2820 -0.4777 -0.4985
 3528SOL     OW12024   1.004   3.724   3.560 -0.4796  0.1875  0.1893
 3528SOL    HW112025   1.083   3.741   3.611 -1.0697  0.3767  1.0652
 3528SOL    HW212026   0.937   3.778   3.601 -1.3417 -0.8832  0.2248
 3529SOL     OW12027   1.072   5.354   2.502 -0.1729  0.4417 -0.1088
 3529SOL    HW112028   1.086   5.375   2.410  0.1765 -1.0974 -0.4312
 3529SOL    HW212029   0.996   5.295   2.502 -0.5786  0.9403  0.6703
 3530SOL     OW12030   6.808   4.858   0.798  0.0496  0.1301 -0.6715
 3530SOL    HW112031   6.835   4.791   0.735 -3.5303 -0.9761 -1.2472
 3530SOL    HW212032   6.837   4.940   0.759 -0.1375 -0.7138 -2.7116
 3531SOL     OW12033   6.573   4.275   5.371  0.3457  0.4334  0.6972
 3531SOL    HW112034   6.519   4.269   5.450  0.7526 -1.6527  0.8679
 3531SOL    HW212035   6.657   4.309   5.401 -0.0609  1.3761  0.8235
 3532SOL     OW12036   7.225   6.047   5.178  0.4590  0.2242 -0.0227
 3532SOL    HW112037   7.204   5.981   5.245 -0.6239  1.7874  1.2590
 3532SOL    HW212038   7.320   6.051   5.178  0.5547 -1.3473 -0.1659
 3533SOL     OW12039   4.381   6.831   6.790  0.0225  0.0889  0.1679
 3533SOL    HW112040   4.380   6.922   6.762  0.6986  0.5041  1.4346
 3533SOL    HW212041   4.330   6.829   6.870 -0.5665 -0.7870 -0.2141
 3534SOL     OW12042   3.560   6.396   7.020 -0.9684 -0.3529  0.3767
 3534SOL    HW112043   3.617   6.464   7.055 -1.4236  1.3286 -1.9789
 3534SOL    HW212044   3.497   6.380   7.091  0.8591 -0.4834  2.0676
 3535SOL     OW12045   1.292   4.427   6.223  0.1559 -0.3146 -0.2638
 3535SOL    HW112046   1.315   4.469   6.140  2.2104 -1.8751 -0.5662
 3535SOL    HW212047   1.366   4.369   6.242 -1.7777 -2.5655  0.9112
 3536SOL     OW12048   2.742   4.590   5.069 -0.1577 -0.0840  0.4098
 3536SOL    HW112049   2.684   4.515   5.084  1.9184 -1.5456  1.6569
 3536SOL    HW212050   2.746   4.600   4.974 -1.7624 -0.4622  0.2836
 3537SOL     OW12051   1.874   5.786   6.228  0.2032  0.0823  0.6909
 3537SOL    HW112052   1.931   5.863   6.235  0.6027 -0.0239 -1.0202
 3537SOL    HW212053   1.915   5.721   6.285  0.4252  0.7916  1.3671
 3538SOL     OW12054   0.339   3.245   6.316 -0.2545  0.4095 -0.3809
 3538SOL    HW112055   0.285   3.173   6.348  0.6358 -0.4216 -0.6879
 3538SOL    HW212056   0.363   3.220   6.227 -0.7385  1.5668 -0.8578
 3539SOL     OW12057   7.112   4.454   4.536  0.2443 -0.0656  0.5196
 3539SOL    HW112058   7.159   4.436   4.617  0.0433  0.0303  0.6572
 3539SOL    HW212059   7.032   4.401   4.542  0.3152 -0.2016  0.3009
 3540SOL     OW12060   2.080   6.355   7.049 -0.0193  0.4889 -0.0330
 3540SOL    HW112061   2.069   6.261   7.042  1.6259  0.2171  0.6227
 3540SOL    HW212062   2.174   6.368   7.064  0.1508  2.3347 -2.0979
 3541SOL     OW12063   0.338   4.167   5.848  0.4754  0.0261 -0.1395
 3541SOL    HW112064   0.422   4.184   5.805  1.1625  3.2138  2.1021
 3541SOL    HW212065   0.362   4.126   5.931 -0.5385 -2.3319 -0.9337
 3542SOL     OW12066   1.214   3.959   8.553 -0.6110  0.0159  0.0511
 3542SOL    HW112067   1.181   3.954   8.643 -2.6918 -0.2521 -0.6745
 3542SOL    HW212068   1.278   3.889   8.546 -0.0110  0.3933  1.4671
 3543SOL     OW12069   0.478   5.338   8.269  0.0794 -0.1111 -0.3581
 3543SOL    HW112070   0.518   5.335   8.182 -1.9647 -1.2204 -1.3231
 3543SOL    HW212071   0.481   5.248   8.300 -2.6060 -0.4907 -0.9784
 3544SOL     OW12072   1.017   3.158   5.709 -0.1729  0.1393 -0.4100
 3544SOL    HW112073   0.945   3.205   5.750 -0.9573 -2.0411  0.8406
 3544SOL    HW212074   1.095   3.187   5.757 -0.6755 -0.0486  0.5292
 3545SOL     OW12075   0.207   2.716   5.094  0.1866  0.6950  0.2695
 3545SOL    HW112076   0.154   2.642   5.124 -1.4524  1.3606 -0.8501
 3545SOL    HW212077   0.193   2.719   5.000  3.0088  0.3372 -0.2432
 3546SOL     OW12078   2.985   6.174   7.367 -0.2192  0.0881  0.1271
 3546SOL    HW112079   3.032   6.097   7.399  1.3183  1.3421  0.9723
 3546SOL    HW212080   2.972   6.156   7.273  1.4874 -0.5404 -0.0230
 3547SOL     OW12081   7.991   4.357   6.226 -0.7790  0.6734  0.0868
 3547SOL    HW112082   7.985   4.302   6.147  0.8901  0.6581 -0.0812
 3547SOL    HW212083   8.070   4.409   6.212 -0.4593  0.6847  1.7365
 3548SOL     OW12084   0.015   6.428   6.465 -0.1486 -0.3045  0.2580
 3548SOL    HW112085  -0.014   6.355   6.519  0.5252 -0.0179  1.0274
 3548SOL    HW212086   0.001   6.398   6.375 -1.2391 -0.8043  0.5777
 3549SOL     OW12087   1.128   7.303   8.023  0.1303 -0.3648 -0.3719
 3549SOL    HW112088   1.115   7.209   8.035 -2.2136 -0.2560 -1.4890
 3549SOL    HW212089   1.094   7.321   7.936  2.9039  1.1701 -1.2847
 3550SOL     OW12090   0.580   4.790   7.062 -0.5101 -0.3538 -0.6168
 3550SOL    HW112091   0.506   4.735   7.034 -0.1611 -1.0841 -0.1313
 3550SOL    HW212092   0.647   4.776   6.995 -0.3572 -0.6711 -0.4035
 3551SOL     OW12093   2.028   5.451   7.254 -0.4342 -0.2887 -0.2724
 3551SOL    HW112094   2.122   5.429   7.254 -0.6671 -1.6214  2.1703
 3551SOL    HW212095   2.024   5.540   7.221  1.7850  0.0828  0.3029
 3552SOL     OW12096   0.259   3.310   5.745 -0.0008 -0.6410  0.1678
 3552SOL    HW112097   0.278   3.237   5.804  2.8505  0.9213  1.3704
 3552SOL    HW212098   0.334   3.314   5.686 -0.3678  0.9614 -0.2504
 3553SOL     OW12099   0.750   4.900   4.217  0.4216  0.3743 -0.6550
 3553SOL    HW112100   0.843   4.885   4.202  0.1959 -0.9575 -0.8270
 3553SOL    HW212101   0.706   4.861   4.141 -0.3289 -0.0784 -0.0141
 3554SOL     OW12102   7.464   5.827   3.897 -0.1332  0.0685  0.4575
 3554SOL    HW112103   7.503   5.778   3.825  2.6681  0.1273  1.8093
 3554SOL    HW212104   7.419   5.900   3.855  0.7679 -0.3178 -1.2764
 3555SOL     OW12105   1.364   5.658   5.521  0.6194 -0.0364 -0.5155
 3555SOL    HW112106   1.393   5.569   5.497 -1.3018 -0.9248  0.2347
 3555SOL    HW212107   1.419   5.681   5.596  1.4201 -0.4042 -0.9727
 3556SOL     OW12108   1.447   5.088   6.490 -0.3113 -0.1387  0.2732
 3556SOL    HW112109   1.378   5.072   6.425 -1.4186 -1.8502  1.7483
 3556SOL    HW212110   1.461   5.003   6.531  1.1357  0.6577  1.5276
 3557SOL     OW12111   6.255   5.868   8.219  0.3212 -0.4680  0.1939
 3557SOL    HW112112   6.175   5.903   8.258  0.1415 -1.5405  0.8041
 3557SOL    HW212113   6.254   5.775   8.241  1.1138 -0.7401 -0.8564
 3558SOL     OW12114   0.217   2.956   6.945  0.1569  0.2085  0.1705
 3558SOL    HW112115   0.207   2.959   6.850  1.4709  0.6874  0.0243
 3558SOL    HW212116   0.203   2.864   6.968  1.2026 -0.1694 -0.6594
 3559SOL     OW12117   2.770   5.854   7.511 -0.0515 -0.1335 -0.3090
 3559SOL    HW112118   2.826   5.897   7.447 -0.8652  0.4338 -0.6711
 3559SOL    HW212119   2.709   5.803   7.458 -0.2032 -0.3191  0.0474
 3560SOL     OW12120   0.574   5.047   7.400  0.1036  0.4448 -0.1070
 3560SOL    HW112121   0.553   5.010   7.486 -0.5932 -0.3718 -0.6068
 3560SOL    HW212122   0.660   5.086   7.411  0.9356 -1.4274  0.4500
 3561SOL     OW12123   0.246   3.411   6.846  0.2965  0.1039  0.4190
 3561SOL    HW112124   0.274   3.453   6.928  0.8671  0.5120  0.0235
 3561SOL    HW212125   0.182   3.345   6.874 -2.2634  2.5895  0.9143
 3562SOL     OW12126   1.877   4.617   5.322  0.1205  0.9323 -0.3095
 3562SOL    HW112127   1.809   4.622   5.254  0.4392  0.3263 -0.6774
 3562SOL    HW212128   1.956   4.592   5.275  0.1852 -0.2302  0.3744
 3563SOL     OW12129   2.511   6.685   5.954 -0.0046  0.6630 -0.1384
 3563SOL    HW112130   2.512   6.776   5.924  1.4806  1.3585  1.8133
 3563SOL    HW212131   2.583   6.680   6.016 -2.0619 -1.0022  2.2816
 3564SOL     OW12132   2.215   4.736   7.076  0.1594 -0.2104 -0.3778
 3564SOL    HW112133   2.196   4.779   6.993 -1.5967 -0.2048 -0.0065
 3564SOL    HW212134   2.232   4.644   7.052 -0.2863 -0.1984 -0.7547
 3565SOL     OW12135   1.058   4.991   7.340  0.1253 -0.1591 -0.3831
 3565SOL    HW112136   1.073   5.045   7.262 -3.1313  0.5977 -0.6085
 3565SOL    HW212137   1.043   5.055   7.410  0.2949 -0.8261  0.2701
 3566SOL     OW12138   3.020   6.838   6.012  0.2861 -0.2450  0.3455
 3566SOL    HW112139   3.038   6.904   6.080 -0.4046 -1.9434  2.2633
 3566SOL    HW212140   3.002   6.758   6.060 -3.5051 -0.8338 -1.6632
 3567SOL     OW12141   7.589   4.731   4.902 -0.3266 -0.2474  0.0082
 3567SOL    HW112142   7.671   4.696   4.868 -0.1923  0.3169 -0.2687
 3567SOL    HW212143   7.614   4.812   4.947 -0.5288 -0.8943  1.3165
 3568SOL     OW12144   1.019   1.969   5.935  0.2474 -1.3189  0.0581
 3568SOL    HW112145   1.057   1.949   6.021  1.3540 -2.8119 -0.7355
 3568SOL    HW212146   1.052   2.057   5.915  2.3095 -2.0544 -0.0245
 3569SOL     OW12147   0.351   6.185   5.071 -0.7782 -0.3036 -0.2425
 3569SOL    HW112148   0.330   6.261   5.126  5.4091  2.2001 -0.4821
 3569SOL    HW212149   0.419   6.138   5.120 -0.8016 -2.7238 -2.3333
 3570SOL     OW12150   0.004   2.241   7.781  0.2659 -0.3420 -0.0790
 3570SOL    HW112151   0.081   2.237   7.837 -0.2048 -1.1587  0.5344
 3570SOL    HW212152  -0.006   2.152   7.747 -0.4850 -0.2911 -0.0185
 3571SOL     OW12153   2.330   5.619   5.972  0.2356 -0.3885  0.1448
 3571SOL    HW112154   2.294   5.532   5.955  0.4782 -0.0362 -2.7086
 3571SOL    HW212155   2.394   5.606   6.041  0.0879 -2.4275 -0.0537
 3572SOL     OW12156   1.410   5.935   6.921 -0.0029  0.4902  0.2938
 3572SOL    HW112157   1.435   5.996   6.852 -0.7240 -0.8435 -1.2167
 3572SOL    HW212158   1.487   5.878   6.931 -0.1051  0.3301  0.1773
 3573SOL     OW12159   7.436   4.702   6.817 -0.0229 -0.3092  0.0078
 3573SOL    HW112160   7.449   4.688   6.911 -1.3351  1.0460  0.4425
 3573SOL    HW212161   7.501   4.646   6.775  2.6828  1.2553  1.7722
 3574SOL     OW12162   1.846   5.976   6.908  0.6889  0.1383 -0.2444
 3574SOL    HW112163   1.811   5.970   6.820 -1.9703  0.0040  0.7428
 3574SOL    HW212164   1.774   6.008   6.961  1.5119 -1.7720  2.2557
 3575SOL     OW12165   0.720   2.699   5.759  0.8895 -0.6515 -0.0951
 3575SOL    HW112166   0.780   2.694   5.685  1.7318  0.0603  0.5164
 3575SOL    HW212167   0.725   2.790   5.788  1.7698 -1.2629  1.7929
 3576SOL     OW12168   6.322   6.621   7.248 -0.4366 -0.1282 -0.3933
 3576SOL    HW112169   6.412   6.652   7.258 -0.0782 -1.1205 -0.4548
 3576SOL    HW212170   6.331   6.536   7.206 -1.2339 -1.3646  1.7743
 3577SOL     OW12171   7.693   3.038   5.834  0.4706  0.1734 -0.1644
 3577SOL    HW112172   7.757   3.100   5.870  0.8437 -0.2810 -0.0298
 3577SOL    HW212173   7.736   3.002   5.757  0.7960 -0.8599  0.4748
 3578SOL     OW12174   0.522   2.421   7.164  0.6201 -0.6963 -0.3144
 3578SOL    HW112175   0.433   2.437   7.196  0.3886 -2.3623 -0.0058
 3578SOL    HW212176   0.577   2.432   7.242  0.7029  0.2966 -0.4971
 3579SOL     OW12177   1.885   4.426   6.533 -0.5715  0.7046 -0.1420
 3579SOL    HW112178   1.866   4.464   6.447 -1.7499  1.6531  0.5103
 3579SOL    HW212179   1.849   4.489   6.596  0.7414  0.2944  1.0727
 3580SOL     OW12180   1.079   4.013   5.868 -0.2410  0.2996 -0.5490
 3580SOL    HW112181   1.136   3.942   5.896 -0.9535  0.6306  1.9997
 3580SOL    HW212182   1.093   4.019   5.774  2.8512 -0.5501 -0.2567
 3581SOL     OW12183   0.069   6.893   1.889 -0.2626 -0.0549  0.4060
 3581SOL    HW112184   0.110   6.925   1.969  1.0021 -1.5353  0.3857
 3581SOL    HW212185   0.138   6.846   1.844 -1.5410 -1.1254 -0.4996
 3582SOL     OW12186   0.591   6.390   3.607 -0.4718  0.2847  0.5143
 3582SOL    HW112187   0.593   6.464   3.668 -0.6941  1.2397 -0.6054
 3582SOL    HW212188   0.612   6.428   3.522  0.2308 -1.0901  0.0396
 3583SOL     OW12189   2.991   4.832   6.330 -0.0319  0.2086 -0.5766
 3583SOL    HW112190   2.974   4.748   6.374 -0.7809 -1.2501 -3.4263
 3583SOL    HW212191   3.084   4.848   6.345 -0.2036 -0.2922  1.3295
 3584SOL     OW12192   7.967   5.434   6.516 -0.2343 -0.0731  0.1526
 3584SOL    HW112193   7.885   5.387   6.501 -0.5703  0.8874 -1.2872
 3584SOL    HW212194   7.946   5.496   6.587  0.0281 -1.5580  1.5945
 3585SOL     OW12195   2.899   4.859   4.983  0.4762 -0.1003 -0.1652
 3585SOL    HW112196   2.855   4.806   5.049  0.9359 -0.4253 -0.1138
 3585SOL    HW212197   2.851   4.841   4.902  0.0497  0.1285  0.0361
 3586SOL     OW12198   1.139   5.650   6.969 -0.3781  0.2926 -0.6931
 3586SOL    HW112199   1.111   5.690   7.051 -0.1321  0.2927 -0.6063
 3586SOL    HW212200   1.182   5.568   6.996 -1.6384 -0.4662 -0.9232
 3587SOL     OW12201   0.845   4.169   7.579  0.1053 -0.2069  0.1542
 3587SOL    HW112202   0.863   4.084   7.539  2.3275 -0.0315  0.6912
 3587SOL    HW212203   0.831   4.228   7.505  0.1858 -0.7030 -0.2608
 3588SOL     OW12204   0.903   6.951   3.173  0.7606  0.3006 -0.0859
 3588SOL    HW112205   0.828   7.000   3.139  0.2034  0.4939  1.3659
 3588SOL    HW212206   0.877   6.925   3.261  1.7784 -1.0403 -0.1573
 3589SOL     OW12207   7.539   3.071   6.477  0.3342 -0.0593 -0.0412
 3589SOL    HW112208   7.508   3.069   6.386 -0.0006  0.3277  0.0601
 3589SOL    HW212209   7.503   3.152   6.513  0.5474 -0.1599  0.4104
 3590SOL     OW12210   0.285   5.078   5.121 -0.1957  0.1843 -0.2807
 3590SOL    HW112211   0.302   4.988   5.147  1.9907  0.0447 -1.9638
 3590SOL    HW212212   0.363   5.127   5.149 -1.0415  1.4493 -0.0094
 3591SOL     OW12213   1.806   4.177   3.797  0.3887 -0.1163 -0.2604
 3591SOL    HW112214   1.715   4.189   3.825  0.2453 -1.5643 -0.0212
 3591SOL    HW212215   1.837   4.103   3.849  1.2870 -0.5004 -1.3186
 3592SOL     OW12216   0.903   4.232   5.491  0.2739 -0.1957  0.1566
 3592SOL    HW112217   0.923   4.325   5.500  1.3392 -0.4977  1.1420
 3592SOL    HW212218   0.978   4.195   5.445 -0.4029 -0.4969 -0.7506
 3593SOL     OW12219   3.197   6.445   7.482  0.0259  0.2486  0.0248
 3593SOL    HW112220   3.108   6.409   7.493  0.8875 -1.6511  1.4739
 3593SOL    HW212221   3.252   6.368   7.468  1.5551  1.3190 -0.1178
 3594SOL     OW12222   0.476   5.913   6.301  0.4076 -0.6045  0.3679
 3594SOL    HW112223   0.462   5.992   6.353  1.6144  1.0188 -1.6333
 3594SOL    HW212224   0.474   5.841   6.365 -3.7294  0.5925  1.9610
 3595SOL     OW12225   7.671   5.512   6.452  0.6402 -0.3913  0.0956
 3595SOL    HW112226   7.713   5.427   6.463 -0.1672 -0.8862 -0.5747
 3595SOL    HW212227   7.612   5.520   6.527 -0.1424 -0.9453 -0.4483
 3596SOL     OW12228   0.392   4.205   5.359 -0.9210 -0.1629 -0.1614
 3596SOL    HW112229   0.470   4.215   5.413  0.1100  1.7099 -1.8539
 3596SOL    HW212230   0.336   4.279   5.384 -1.2103 -0.2882 -0.4374
 3597SOL     OW12231   0.099   3.287   4.767 -0.3704  0.2771  0.0511
 3597SOL    HW112232   0.107   3.210   4.823 -1.2554  0.6715  0.7264
 3597SOL    HW212233   0.181   3.288   4.717 -1.0191 -2.0356 -1.1907
 3598SOL     OW12234   0.709   3.088   6.552 -0.1724 -0.2462 -0.3480
 3598SOL    HW112235   0.732   3.055   6.639 -0.4259  0.9311  0.1825
 3598SOL    HW212236   0.705   3.009   6.497 -1.9200 -1.2673  1.1037
 3599SOL     OW12237   6.570   5.589   5.567 -0.2963  0.1673 -0.1029
 3599SOL    HW112238   6.588   5.597   5.661  0.0525 -0.2412 -0.1356
 3599SOL    HW212239   6.483   5.548   5.563 -1.2059  1.9540  0.0474
 3600SOL     OW12240   1.987   3.072   5.770  0.5667 -0.0556 -0.4040
 3600SOL    HW112241   1.931   3.150   5.771 -0.6088 -0.8884  0.6634
 3600SOL    HW212242   2.076   3.108   5.764  0.1805  1.4741  1.6951
 3601SOL     OW12243   7.491   4.578   7.076 -0.2002  0.2290  0.0046
 3601SOL    HW112244   7.475   4.492   7.038  1.4527  0.6341 -1.7380
 3601SOL    HW212245   7.572   4.568   7.127  0.9791  1.1045 -1.6235
 3602SOL     OW12246   7.779   3.772   6.542 -0.2182  0.3098  0.0640
 3602SOL    HW112247   7.703   3.828   6.559 -0.6318 -0.4118  0.6895
 3602SOL    HW212248   7.746   3.705   6.482  0.0600  0.2646 -0.0411
 3603SOL     OW12249   7.587   2.641   6.385  0.4112 -0.0250 -0.3750
 3603SOL    HW112250   7.497   2.672   6.396  0.3394  0.6608 -2.4464
 3603SOL    HW212251   7.616   2.619   6.473 -0.8764  2.3095  0.7352
 3604SOL     OW12252   7.975   3.624   5.890 -0.3104  0.0917 -0.1216
 3604SOL    HW112253   8.005   3.577   5.812 -2.3843  0.0335 -0.9569
 3604SOL    HW212254   8.047   3.616   5.953 -0.1193 -3.2742 -0.6085
 3605SOL     OW12255   0.254   4.832   5.428 -0.3028  0.4281  0.7496
 3605SOL    HW112256   0.212   4.808   5.345 -0.1826 -1.4891  1.1971
 3605SOL    HW212257   0.185   4.820   5.494 -0.6155  2.6442  0.8919
 3606SOL     OW12258   7.321   3.635   5.437  0.2388 -0.5744 -0.3540
 3606SOL    HW112259   7.342   3.613   5.528  0.1289 -0.1522 -0.2288
 3606SOL    HW212260   7.405   3.629   5.391  0.3265 -0.6052 -0.1906
 3607SOL     OW12261   0.790   4.737   6.886  0.2042 -0.5993  0.2107
 3607SOL    HW112262   0.881   4.712   6.903  0.1128 -0.0627  1.6641
 3607SOL    HW212263   0.782   4.735   6.791  2.2952  1.1266 -0.0844
 3608SOL     OW12264   1.587   3.647   7.828 -0.3430  0.6603  0.1484
 3608SOL    HW112265   1.526   3.628   7.757 -0.5358  0.1197  0.4485
 3608SOL    HW212266   1.652   3.577   7.824  0.0894  1.0664  0.0193
 3609SOL     OW12267   7.039   4.283   5.873  0.7039 -0.8579  0.3259
 3609SOL    HW112268   7.033   4.224   5.798  2.9511 -0.5442 -0.1611
 3609SOL    HW212269   7.093   4.236   5.937  0.1558 -0.4620  1.0950
 3610SOL     OW12270   0.836   3.830   6.597 -0.0516  0.6994  0.7420
 3610SOL    HW112271   0.810   3.862   6.511 -0.2213  1.0685  0.9271
 3610SOL    HW212272   0.871   3.742   6.581 -0.7264  0.4864  0.3910
 3611SOL     OW12273   7.855   3.190   6.905  0.6881  0.2062  0.6229
 3611SOL    HW112274   7.808   3.244   6.969 -3.4542 -1.3432 -0.8197
 3611SOL    HW212275   7.883   3.113   6.955  1.2574  0.8766  1.3770
 3612SOL     OW12276   7.232   4.444   5.528 -0.1114 -0.6192  0.0342
 3612SOL    HW112277   7.318   4.471   5.560  0.7480 -0.6505 -2.0932
 3612SOL    HW212278   7.189   4.525   5.500 -0.5448 -0.6746  0.5097
 3613SOL     OW12279   1.213   1.214   5.889  0.0001 -0.3046 -0.1531
 3613SOL    HW112280   1.154   1.184   5.820 -0.4922 -1.9052  0.9332
 3613SOL    HW212281   1.156   1.234   5.963  0.7436 -1.1775  0.6768
 3614SOL     OW12282   1.482   4.077   8.444 -0.6923 -0.6043  0.2755
 3614SOL    HW112283   1.410   4.015   8.430 -2.0563  0.9323  0.2096
 3614SOL    HW212284   1.544   4.057   8.374 -3.4691  1.3821 -3.0838
 3615SOL     OW12285   6.973   2.698   3.879 -0.1785 -0.3368 -0.4214
 3615SOL    HW112286   7.023   2.687   3.798 -1.2799 -3.3834 -0.8148
 3615SOL    HW212287   7.040   2.700   3.948  0.6861  0.5665 -1.2593
 3616SOL     OW12288   1.233   4.901   5.677 -0.1334 -0.8864 -0.1938
 3616SOL    HW112289   1.177   4.975   5.700  1.0514  0.2364 -0.8549
 3616SOL    HW212290   1.176   4.824   5.690 -1.8033  0.1925 -0.7504
 3617SOL     OW12291   1.695   6.734   6.790 -0.4280  0.2201  0.0285
 3617SOL    HW112292   1.639   6.766   6.861 -2.6876 -0.3609 -1.3657
 3617SOL    HW212293   1.710   6.641   6.811 -0.7059  0.1670 -0.0015
 3618SOL     OW12294   1.101   4.776   6.358  0.2016  0.0878  0.2015
 3618SOL    HW112295   1.074   4.850   6.413 -0.6766 -0.7566  0.9364
 3618SOL    HW212296   1.068   4.699   6.404 -1.3138 -0.6120 -1.9158
 3619SOL     OW12297   0.750   3.688   5.319  0.0343 -0.3768 -0.6646
 3619SOL    HW112298   0.777   3.778   5.336 -0.6305 -0.0095 -1.4549
 3619SOL    HW212299   0.666   3.680   5.364 -0.4221 -0.2545 -1.4850
 3620SOL     OW12300   1.961   5.619   6.414  0.7923 -0.1515 -0.0267
 3620SOL    HW112301   1.885   5.568   6.441  0.5244  0.2362 -0.0478
 3620SOL    HW212302   2.032   5.555   6.409  0.2618 -0.6773 -0.9270
 3621SOL     OW12303   0.438   3.823   4.293 -0.3668 -0.4109  0.2522
 3621SOL    HW112304   0.471   3.741   4.255 -1.4752 -1.0830  0.6749
 3621SOL    HW212305   0.514   3.863   4.333 -0.0231 -1.8712  1.1295
 3622SOL     OW12306   1.358   3.502   6.457 -0.0936  0.3008 -0.4337
 3622SOL    HW112307   1.353   3.491   6.362  1.0080  0.5729 -0.5262
 3622SOL    HW212308   1.361   3.413   6.491  2.5310  0.1657 -0.8423
 3623SOL     OW12309   1.009   5.008   6.484 -0.8525 -0.1051  0.5733
 3623SOL    HW112310   1.022   5.017   6.578 -0.9698  0.7382  0.5223
 3623SOL    HW212311   0.914   5.004   6.472 -0.9416  1.5389  0.3887
 3624SOL     OW12312   0.601   4.130   5.763 -0.0534  0.0774 -0.4225
 3624SOL    HW112313   0.681   4.156   5.809  0.2922  0.5655 -1.2716
 3624SOL    HW212314   0.616   4.039   5.738  0.2672  0.1757 -0.6056
 3625SOL     OW12315   2.587   5.356   5.441  0.2221  0.3391 -0.3207
 3625SOL    HW112316   2.509   5.362   5.387 -0.2994  0.1816  0.4030
 3625SOL    HW212317   2.556   5.324   5.525  0.9736  0.8923  0.1814
 3626SOL     OW12318   1.681   5.944   6.112 -0.2125  0.6603  0.3227
 3626SOL    HW112319   1.735   5.884   6.163  0.5080  1.2924  0.3102
 3626SOL    HW212320   1.635   5.997   6.177 -1.3065 -0.2655  0.3502
 3627SOL     OW12321   1.884   5.190   5.333 -0.1246  0.5623  0.2288
 3627SOL    HW112322   1.804   5.143   5.311 -0.0724 -1.2754  3.3521
 3627SOL    HW212323   1.864   5.238   5.413  1.7957  0.1952  0.9993
 3628SOL     OW12324   7.634   3.961   5.513  0.2091 -0.0287 -0.8441
 3628SOL    HW112325   7.563   3.966   5.577  0.1024  0.8434 -1.0256
 3628SOL    HW212326   7.643   4.050   5.479  1.6598 -0.0373 -0.5453
 3629SOL     OW12327   1.655   5.605   6.593 -0.1176 -0.1534  0.1748
 3629SOL    HW112328   1.624   5.564   6.512  2.3914  1.2816 -1.6552
 3629SOL    HW212329   1.712   5.540   6.634  1.0758  0.1763 -0.8999
 3630SOL     OW12330   1.707   2.683   5.699  0.2842  0.6800 -0.0442
 3630SOL    HW112331   1.650   2.742   5.651 -0.0586  0.4806  0.1139
 3630SOL    HW212332   1.775   2.658   5.636 -0.6487 -0.2679 -0.6910
 3631SOL     OW12333   2.173   5.146   6.156 -0.5067  0.4114 -0.1686
 3631SOL    HW112334   2.101   5.118   6.213  0.8757  0.3027  1.5867
 3631SOL    HW212335   2.211   5.222   6.199  0.4341  0.4869 -1.0807
 3632SOL     OW12336   1.102   6.745   8.239  0.5688  0.0700  0.3608
 3632SOL    HW112337   1.159   6.712   8.308  1.1259  0.5240  0.1224
 3632SOL    HW212338   1.018   6.760   8.282  0.2205 -1.8480  0.4335
 3633SOL     OW12339   1.060   7.841   8.377 -0.3874 -0.5646  0.1487
 3633SOL    HW112340   1.026   7.782   8.310 -2.4633 -0.9991  1.5046
 3633SOL    HW212341   0.983   7.867   8.428  1.2870 -2.1327  3.8814
 3634SOL     OW12342   0.691   3.320   6.111 -0.2046  0.3958 -0.0981
 3634SOL    HW112343   0.732   3.257   6.051 -0.4907 -0.7300  0.8495
 3634SOL    HW212344   0.623   3.362   6.058  1.3236  1.4254 -1.3404
 3635SOL     OW12345   6.698   3.595   5.655 -0.1896  0.2651 -0.1351
 3635SOL    HW112346   6.640   3.527   5.620 -0.5627  1.1252 -1.2574
 3635SOL    HW212347   6.784   3.574   5.618 -0.1704  0.0304  0.0438
 3636SOL     OW12348   1.134   6.168   5.322  0.5998  0.1910  0.0600
 3636SOL    HW112349   1.221   6.175   5.363  0.7128  0.7348 -0.2639
 3636SOL    HW212350   1.108   6.259   5.305 -0.7990  0.1621  1.7391
 3637SOL     OW12351   0.130   4.552   7.064  0.2592 -0.5982  0.1265
 3637SOL    HW112352   0.093   4.489   7.002 -0.0595  0.3246 -0.6392
 3637SOL    HW212353   0.215   4.575   7.026  0.0462 -0.0026 -0.0137
 3638SOL     OW12354   0.475   4.382   6.487 -0.3996 -0.1082  0.5319
 3638SOL    HW112355   0.557   4.332   6.490  0.4247  1.1748  0.4140
 3638SOL    HW212356   0.410   4.321   6.452  0.6487 -0.9795  0.0558
 3639SOL     OW12357   0.790   6.377   7.605 -0.3357 -0.3310  0.5480
 3639SOL    HW112358   0.874   6.414   7.631 -0.6375  2.2809 -1.7428
 3639SOL    HW212359   0.785   6.294   7.651  3.0939 -0.1836  1.4387
 3640SOL     OW12360   6.713   5.018   7.583 -0.5127 -0.1048  0.0587
 3640SOL    HW112361   6.726   4.930   7.618 -0.6205 -0.0949  0.1253
 3640SOL    HW212362   6.786   5.068   7.618 -1.4632  0.2906  1.5829
 3641SOL     OW12363   1.981   5.323   6.870  0.7229  0.1810 -0.3116
 3641SOL    HW112364   1.932   5.404   6.883  0.8102 -0.0559  1.8600
 3641SOL    HW212365   2.056   5.348   6.816  1.0188  1.6794  0.7354
 3642SOL     OW12366   0.904   4.996   6.917  0.7097  0.1387  0.0501
 3642SOL    HW112367   0.843   4.923   6.912  0.4291  0.4313 -1.3991
 3642SOL    HW212368   0.987   4.961   6.884  0.4833  0.5329 -0.9893
 3643SOL     OW12369   0.949   3.897   9.210  0.2444 -0.2339  0.0482
 3643SOL    HW112370   0.873   3.928   9.162  1.0276  0.4748 -0.7790
 3643SOL    HW212371   0.964   3.808   9.177 -0.6624 -0.6751  0.7774
 3644SOL     OW12372   6.229   5.418   8.806 -0.2549  0.0267  0.3076
 3644SOL    HW112373   6.222   5.432   8.711 -0.7391  0.1290  0.3524
 3644SOL    HW212374   6.322   5.405   8.822 -0.3329 -1.5734 -0.3951
 3645SOL     OW12375   7.655   4.855   6.048 -0.7047 -0.3056 -0.1979
 3645SOL    HW112376   7.638   4.768   6.084 -1.1495 -0.8191 -1.5664
 3645SOL    HW212377   7.740   4.846   6.004 -0.7843 -0.0744 -0.3994
 3646SOL     OW12378   1.328   4.165   7.651  0.8253  0.0204 -0.0070
 3646SOL    HW112379   1.418   4.182   7.626  0.9276 -0.7503 -0.2093
 3646SOL    HW212380   1.276   4.224   7.596  1.1745  0.0147 -0.3488
 3647SOL     OW12381   7.773   3.272   5.115 -0.0873  0.0833 -0.5464
 3647SOL    HW112382   7.823   3.191   5.125  2.0324  1.4518  0.7072
 3647SOL    HW212383   7.805   3.310   5.033 -0.3723  0.1293 -0.6387
 3648SOL     OW12384   1.416   7.954   6.414  0.3854 -0.0365 -0.8342
 3648SOL    HW112385   1.380   7.895   6.348 -1.2463 -2.3082  1.8994
 3648SOL    HW212386   1.498   7.913   6.441 -0.2903 -0.6087  0.4122
 3649SOL     OW12387   6.849   4.086   8.616  0.4158  0.1566  0.2037
 3649SOL    HW112388   6.858   4.164   8.560  2.1189  0.7249  1.2095
 3649SOL    HW212389   6.764   4.050   8.592  0.1905  1.5479 -1.2787
 3650SOL     OW12390   1.123   4.971   8.174  0.2042  0.1097 -0.3835
 3650SOL    HW112391   1.200   4.974   8.116  0.5136  0.7595  0.0500
 3650SOL    HW212392   1.052   4.940   8.118  0.6157  0.2327 -0.9837
 3651SOL     OW12393   1.068   4.374   7.164  0.2302 -0.1317  0.8413
 3651SOL    HW112394   1.152   4.415   7.181  1.8296 -2.3765 -0.9990
 3651SOL    HW212395   1.075   4.288   7.205 -1.2842 -0.2772  0.8579
 3652SOL     OW12396   1.723   4.838   7.542  0.6036 -0.3820  0.2878
 3652SOL    HW112397   1.772   4.762   7.574  1.0591 -0.4170 -0.4476
 3652SOL    HW212398   1.632   4.807   7.537  0.9190 -1.2213 -0.9123
 3653SOL     OW12399   1.235   4.803   7.444  0.0266  0.6681  0.1227
 3653SOL    HW112400   1.203   4.888   7.414  1.9013  0.8175 -1.5991
 3653SOL    HW212401   1.168   4.741   7.416 -0.7955  1.4134  0.3718
 3654SOL     OW12402   2.437   4.543   7.282  0.2268  0.1443 -0.2239
 3654SOL    HW112403   2.524   4.577   7.264  0.1576  0.2639 -0.3378
 3654SOL    HW212404   2.397   4.608   7.341  0.5701 -0.4111  0.6356
 3655SOL     OW12405   1.962   5.050   6.274  0.6144 -0.5154  0.3665
 3655SOL    HW112406   1.986   4.958   6.263  0.0043 -0.4491 -2.0138
 3655SOL    HW212407   1.872   5.047   6.304 -0.4558 -0.7761 -2.5666
 3656SOL     OW12408   7.169   7.141   8.098 -0.2797 -0.8020 -0.6219
 3656SOL    HW112409   7.235   7.202   8.066 -0.5517 -0.6470 -0.8966
 3656SOL    HW212410   7.181   7.062   8.044 -0.9732 -0.4135 -1.3720
 3657SOL     OW12411   2.216   6.495   7.568 -0.2092  0.3899 -0.2098
 3657SOL    HW112412   2.274   6.566   7.597  0.8653 -1.2842  1.9571
 3657SOL    HW212413   2.271   6.417   7.568 -2.2655 -1.1573  1.2794
 3658SOL     OW12414   0.591   4.841   5.912 -0.8540 -0.2842  0.7402
 3658SOL    HW112415   0.546   4.819   5.830  1.3951 -0.8714 -0.4203
 3658SOL    HW212416   0.539   4.799   5.980 -1.3309 -2.0930 -0.6520
 3659SOL     OW12417   7.328   5.315   6.087  0.2168 -0.1174  0.8237
 3659SOL    HW112418   7.410   5.310   6.039  0.3841  1.9162  0.8243
 3659SOL    HW212419   7.354   5.304   6.179  0.4736  0.3556  0.8106
 3660SOL     OW12420   0.040   3.877   4.508  0.2488  0.2207 -0.1529
 3660SOL    HW112421   0.082   3.846   4.428 -0.4003 -0.6518 -0.1667
 3660SOL    HW212422  -0.022   3.944   4.480  0.2418  0.1330 -0.3437
 3661SOL     OW12423   0.918   4.356   5.822  0.4952 -0.5138  0.2123
 3661SOL    HW112424   0.874   4.272   5.834 -0.6630  0.0694  0.1904
 3661SOL    HW212425   1.000   4.334   5.779  0.5711 -1.7099  0.9054
 3662SOL     OW12426   1.347   4.115   7.973 -0.5880 -0.2116 -0.5421
 3662SOL    HW112427   1.422   4.171   7.989 -0.6402  0.0113 -1.0531
 3662SOL    HW212428   1.309   4.100   8.060 -1.5119  1.8617 -0.5253
 3663SOL     OW12429   1.136   5.911   6.842 -0.1305  0.2894  0.3056
 3663SOL    HW112430   1.230   5.917   6.855 -0.1637  1.8059 -0.0133
 3663SOL    HW212431   1.112   5.825   6.878  1.4476 -0.3878 -0.1925
 3664SOL     OW12432   6.505   5.468   6.806  0.7751  0.1271 -0.1065
 3664SOL    HW112433   6.519   5.425   6.722 -1.0983 -0.2534 -0.2785
 3664SOL    HW212434   6.467   5.400   6.862  1.9900  0.3730  1.0803
 3665SOL     OW12435   7.966   3.606   7.424 -0.4643  0.1602  0.0320
 3665SOL    HW112436   7.998   3.544   7.490 -0.1187  0.4359  0.1236
 3665SOL    HW212437   7.959   3.554   7.344 -0.7298 -0.1364  0.2475
 3666SOL     OW12438   2.311   5.158   7.863 -0.4553  0.1124  0.1062
 3666SOL    HW112439   2.298   5.201   7.947  0.7702 -0.1927  0.4803
 3666SOL    HW212440   2.380   5.209   7.820 -0.0802 -0.5524 -0.0989
 3667SOL     OW12441   0.576   6.327   7.987 -0.1136  0.5328 -0.5781
 3667SOL    HW112442   0.498   6.376   7.958 -0.8305  0.4106  1.0219
 3667SOL    HW212443   0.607   6.283   7.908 -0.3405  2.3332 -1.7476
 3668SOL     OW12444   0.592   6.287   6.029 -0.1212 -0.0275 -0.5733
 3668SOL    HW112445   0.661   6.245   5.977  0.5135 -1.3416  1.2504
 3668SOL    HW212446   0.585   6.233   6.107 -1.6783  1.3852  0.3081
 3669SOL     OW12447   0.033   4.222   7.003 -0.4850  0.2036  0.3521
 3669SOL    HW112448   0.044   4.130   7.026 -0.3567  0.0494 -0.3100
 3669SOL    HW212449   0.112   4.265   7.038 -1.8813  0.6111  3.3070
 3670SOL     OW12450   1.101   6.770   6.316 -0.4342  0.1045 -0.2866
 3670SOL    HW112451   1.020   6.726   6.343 -1.3381  2.3167  0.8793
 3670SOL    HW212452   1.170   6.725   6.364 -1.6562  1.7687  3.3886
 3671SOL     OW12453   0.363   3.865   4.881 -0.2621  0.5226 -0.1113
 3671SOL    HW112454   0.392   3.890   4.794  1.6648  3.1121  1.1333
 3671SOL    HW212455   0.444   3.861   4.933 -1.1527 -2.5270  1.2793
 3672SOL     OW12456   2.021   4.209   4.555 -0.3514 -0.1724 -0.9000
 3672SOL    HW112457   2.092   4.146   4.564 -0.6756 -0.4759 -0.4188
 3672SOL    HW212458   2.056   4.291   4.590  0.3354  0.1293 -2.2419
 3673SOL     OW12459   0.448   6.166   6.407  0.0331  0.2937 -0.0859
 3673SOL    HW112460   0.386   6.238   6.415  0.1895  0.6443 -1.6486
 3673SOL    HW212461   0.502   6.172   6.486 -1.6882  0.1582  1.1681
 3674SOL     OW12462   6.990   5.159   7.609 -0.6206  0.3512 -0.2866
 3674SOL    HW112463   7.061   5.183   7.548  0.0216  1.7802  0.9563
 3674SOL    HW212464   6.916   5.211   7.580 -0.3707  0.8848  0.0146
 3675SOL     OW12465   0.158   5.240   6.497 -0.2301  0.3628 -0.0186
 3675SOL    HW112466   0.105   5.319   6.510 -0.3043  0.4157 -0.6384
 3675SOL    HW212467   0.248   5.272   6.495 -0.1115  0.2083  1.6149
 3676SOL     OW12468   0.390   4.391   4.104  0.5135 -0.3991  0.0124
 3676SOL    HW112469   0.426   4.311   4.067 -0.1830 -1.3495  1.2881
 3676SOL    HW212470   0.306   4.403   4.059  0.1770 -0.9430  0.4702
 3677SOL     OW12471   1.848   6.764   7.688 -0.4390 -0.1890 -0.1376
 3677SOL    HW112472   1.801   6.737   7.609 -0.1703  2.6772 -1.3833
 3677SOL    HW212473   1.937   6.782   7.658 -0.5939  1.9971  0.5316
 3678SOL     OW12474   1.244   3.726   5.253 -0.4323 -0.3891 -0.4930
 3678SOL    HW112475   1.337   3.735   5.233 -0.8965  0.6873 -2.3774
 3678SOL    HW212476   1.228   3.632   5.247  0.2558 -0.4543 -1.5645
 3679SOL     OW12477   0.601   6.348   6.595 -0.0541  0.1337  0.4324
 3679SOL    HW112478   0.574   6.416   6.533  0.8905 -0.2966 -0.4934
 3679SOL    HW212479   0.526   6.336   6.652 -1.4463 -0.3126 -1.4085
 3680SOL     OW12480   7.900   4.127   7.593 -0.6268 -0.1949 -0.3231
 3680SOL    HW112481   7.842   4.120   7.669 -1.2818  0.0035 -0.7971
 3680SOL    HW212482   7.885   4.047   7.543  0.0158 -0.4609 -0.1071
 3681SOL     OW12483   1.570   7.824   7.560 -0.4239  0.4144 -0.1789
 3681SOL    HW112484   1.483   7.789   7.578 -0.9432  0.9372 -1.5470
 3681SOL    HW212485   1.580   7.819   7.465  0.4988  1.6004 -0.1781
 3682SOL     OW12486   0.154   6.141   7.420 -0.3165  0.2232  0.0805
 3682SOL    HW112487   0.059   6.148   7.428 -0.3632 -0.3105  0.0143
 3682SOL    HW212488   0.168   6.092   7.339  0.0207  0.4169  0.0176
 3683SOL     OW12489   1.114   4.786   6.052 -0.2380 -0.0931  0.5853
 3683SOL    HW112490   1.104   4.792   6.147 -1.5028 -0.2495  0.4751
 3683SOL    HW212491   1.065   4.707   6.028 -3.2563  1.9869 -0.6128
 3684SOL     OW12492   1.583   3.186   4.438  0.0709 -0.2516  0.0837
 3684SOL    HW112493   1.606   3.279   4.431  0.1233 -0.1595  1.2029
 3684SOL    HW212494   1.594   3.152   4.350  0.1075  0.7945 -0.3352
 3685SOL     OW12495   1.922   6.290   6.802 -0.2426  0.0787  0.1957
 3685SOL    HW112496   1.887   6.267   6.888 -0.5039 -1.7547 -0.3627
 3685SOL    HW212497   1.845   6.311   6.749 -0.1230  0.6368  0.2310
 3686SOL     OW12498   7.078   5.320   8.930 -0.3963 -0.0504  0.1439
 3686SOL    HW112499   7.037   5.376   8.864 -0.8966  0.0945  0.5728
 3686SOL    HW212500   7.006   5.268   8.965 -0.2954  0.5114  1.2125
 3687SOL     OW12501   1.395   1.930   6.097 -0.4153 -0.0154 -0.1752
 3687SOL    HW112502   1.444   1.969   6.169 -1.2020  0.7917 -0.0633
 3687SOL    HW212503   1.449   1.856   6.068  1.3335  1.4219 -0.7219
 3688SOL     OW12504   2.495   4.396   6.836  0.7802 -0.1959 -0.3671
 3688SOL    HW112505   2.467   4.306   6.848  1.8404 -0.5148 -0.2252
 3688SOL    HW212506   2.591   4.393   6.842  0.8654  0.8338 -1.0271
 3689SOL     OW12507   2.552   6.151   5.021  0.2297  0.3979 -0.4020
 3689SOL    HW112508   2.623   6.113   5.072  0.9778 -1.8039 -2.8186
 3689SOL    HW212509   2.533   6.235   5.063  2.2237 -0.2723  2.0578
 3690SOL     OW12510   0.815   5.326   6.393 -0.2092  0.2260 -0.1112
 3690SOL    HW112511   0.749   5.263   6.363  0.3375 -0.9133  0.9826
 3690SOL    HW212512   0.797   5.336   6.487 -0.4265  1.9178 -0.2906
 3691SOL     OW12513   2.246   3.767   6.795  0.1271  0.4644  0.0930
 3691SOL    HW112514   2.330   3.743   6.835  0.5146 -0.5256 -1.2191
 3691SOL    HW212515   2.185   3.701   6.826  0.0282  0.6785  0.3600
 3692SOL     OW12516   7.407   4.347   6.987 -0.2178  0.2395 -0.3864
 3692SOL    HW112517   7.314   4.365   7.004 -0.5412 -0.7755 -1.0378
 3692SOL    HW212518   7.408   4.306   6.901  0.8233  0.0590 -0.2936
 3693SOL     OW12519   1.121   5.388   5.488  0.0493  0.3510  0.3072
 3693SOL    HW112520   1.101   5.456   5.424  0.6793  1.0110  0.7972
 3693SOL    HW212521   1.192   5.424   5.541 -0.4564 -0.1747  1.3864
 3694SOL     OW12522   0.918   6.093   6.897 -0.0891  0.0176  0.3014
 3694SOL    HW112523   0.992   6.042   6.865  1.2857  2.4158 -0.6375
 3694SOL    HW212524   0.841   6.039   6.879  1.0236 -0.6918 -2.9199
 3695SOL     OW12525   2.328   5.603   7.059  0.2079 -0.4101 -0.0062
 3695SOL    HW112526   2.333   5.520   7.108  1.9932 -1.4424 -1.8232
 3695SOL    HW212527   2.362   5.582   6.972 -1.5908  1.6894 -1.3189
 3696SOL     OW12528   1.765   7.175   7.151 -0.3082 -0.2663  0.1567
 3696SOL    HW112529   1.699   7.137   7.094  1.8477  1.4106 -3.8431
 3696SOL    HW212530   1.839   7.114   7.148 -0.3824 -0.5135  1.8965
 3697SOL     OW12531   7.837   4.197   7.287 -0.4539  0.2178  0.2866
 3697SOL    HW112532   7.821   4.178   7.194 -2.4055  2.5734  0.0394
 3697SOL    HW212533   7.761   4.160   7.332 -1.5323  2.3944  0.4014
 3698SOL     OW12534   1.260   5.222   7.401  0.1375 -0.5966 -0.1551
 3698SOL    HW112535   1.314   5.249   7.326  0.5082  0.0601  0.3429
 3698SOL    HW212536   1.323   5.204   7.471 -0.2249 -0.9118  0.0975
 3699SOL     OW12537   7.905   7.589   3.586 -0.4523 -0.2233  0.1325
 3699SOL    HW112538   7.926   7.644   3.661 -2.1764 -0.0158  0.4999
 3699SOL    HW212539   7.811   7.599   3.574 -0.8611 -3.0818  0.2131
 3700SOL     OW12540   0.948   4.423   4.599 -0.2670  0.1791 -0.1461
 3700SOL    HW112541   0.924   4.335   4.570 -0.8468  0.2423  0.1064
 3700SOL    HW212542   0.985   4.410   4.686 -2.5281  0.3707  0.9284
 3701SOL     OW12543   7.656   4.735   7.583 -0.6526 -0.1359  0.0462
 3701SOL    HW112544   7.702   4.812   7.551  0.3179  0.3366  2.3812
 3701SOL    HW212545   7.725   4.678   7.617 -1.5088 -1.1015  0.2209
 3702SOL     OW12546   2.645   4.476   7.746 -0.7326  0.3262 -0.5408
 3702SOL    HW112547   2.700   4.485   7.824 -1.0265 -0.1182 -0.2747
 3702SOL    HW212548   2.690   4.412   7.692 -0.4573  0.7363 -0.8079
 3703SOL     OW12549   0.810   4.702   4.579  0.4976  0.3854  0.2143
 3703SOL    HW112550   0.764   4.698   4.663 -1.6008 -1.0520 -0.9231
 3703SOL    HW212551   0.864   4.622   4.578 -0.9909 -0.6436 -0.5805
 3704SOL     OW12552   6.627   5.371   6.513  0.2540  0.2552  0.2179
 3704SOL    HW112553   6.680   5.426   6.454  2.8329 -2.0293  0.2128
 3704SOL    HW212554   6.684   5.297   6.534 -2.3446 -1.4488  1.7742
 3705SOL     OW12555   0.738   3.622   7.561  0.5551 -0.2691  0.4436
 3705SOL    HW112556   0.791   3.552   7.599 -0.3945  0.7368  4.0040
 3705SOL    HW212557   0.652   3.612   7.601 -0.5911  0.9639 -1.5544
 3706SOL     OW12558   6.983   4.958   4.902 -0.0695 -0.0215  0.0970
 3706SOL    HW112559   7.019   5.046   4.890 -1.6214  0.6446  0.0071
 3706SOL    HW212560   7.052   4.899   4.872  1.8616  1.0351  2.1696
 3707SOL     OW12561   0.582   6.568   5.941 -0.2703  0.4134  0.1739
 3707SOL    HW112562   0.594   6.489   5.994 -2.1468  0.7629  1.2007
 3707SOL    HW212563   0.529   6.626   5.995 -1.3272  1.2395 -1.6462
 3708SOL     OW12564   0.693   5.230   6.934 -0.0673 -0.1475 -0.4269
 3708SOL    HW112565   0.772   5.176   6.934  0.0313 -0.0046 -0.5550
 3708SOL    HW212566   0.648   5.207   7.015  0.7160  0.6525  0.2469
 3709SOL     OW12567   1.514   5.449   6.347 -0.3084  0.7019 -0.4515
 3709SOL    HW112568   1.551   5.371   6.306 -2.3296 -0.8309  0.4826
 3709SOL    HW212569   1.423   5.450   6.320 -0.0976  3.4718 -1.3999
 3710SOL     OW12570   0.924   5.177   8.016  0.2445  0.4983  0.4309
 3710SOL    HW112571   0.946   5.085   7.998 -1.1660  0.2628 -0.2053
 3710SOL    HW212572   0.926   5.183   8.111 -1.1218 -0.6096  0.5655
 3711SOL     OW12573   0.570   5.678   7.970  0.5959  0.0054  0.2423
 3711SOL    HW112574   0.581   5.615   7.898  1.4842  0.6008 -0.1562
 3711SOL    HW212575   0.519   5.630   8.035  0.8387 -0.9726 -0.2545
 3712SOL     OW12576   1.722   6.150   7.976 -0.0862  0.2157  0.0939
 3712SOL    HW112577   1.722   6.166   7.881  0.7152 -0.5468 -0.0461
 3712SOL    HW212578   1.768   6.066   7.986  2.7376  1.7937  1.4138
 3713SOL     OW12579   2.343   5.539   8.040 -0.4123  0.6052 -0.4683
 3713SOL    HW112580   2.248   5.551   8.032 -0.4962 -0.7044 -2.0770
 3713SOL    HW212581   2.378   5.581   7.962  0.1210 -0.6628 -0.9423
 3714SOL     OW12582   0.168   4.739   7.727  0.1733 -0.1280 -0.2777
 3714SOL    HW112583   0.178   4.804   7.657 -1.0408  1.8382  1.2912
 3714SOL    HW212584   0.252   4.740   7.773  0.0896  0.4948 -0.1364
 3715SOL     OW12585   2.191   2.537   6.915 -0.4690  0.3163 -0.1531
 3715SOL    HW112586   2.215   2.452   6.954 -1.5224 -1.6670 -3.4604
 3715SOL    HW212587   2.275   2.577   6.893  0.0452  0.1170  1.2923
 3716SOL     OW12588   1.679   5.217   6.667  0.4392 -0.1877 -0.0631
 3716SOL    HW112589   1.597   5.176   6.642  0.1474  0.0899  0.4062
 3716SOL    HW212590   1.703   5.176   6.750 -0.2688  1.1025  0.8235
 3717SOL     OW12591   7.948   5.028   6.696  0.3833  0.0837 -0.1940
 3717SOL    HW112592   7.965   5.044   6.603  1.9039 -0.7051 -0.0729
 3717SOL    HW212593   8.007   4.956   6.720 -0.6771 -0.3918  1.1555
 3718SOL     OW12594   7.291   5.217   6.538  0.1591  0.5458  0.0250
 3718SOL    HW112595   7.247   5.164   6.471  0.4699  0.1039  0.1586
 3718SOL    HW212596   7.377   5.175   6.548 -0.3141 -0.1278  1.5480
 3719SOL     OW12597   2.561   3.573   7.371 -0.5951  0.4736 -0.1336
 3719SOL    HW112598   2.625   3.644   7.367 -0.3592  0.3984  1.4942
 3719SOL    HW212599   2.584   3.516   7.298 -1.2091  2.3599 -1.8908
 3720SOL     OW12600   7.596   5.111   5.628 -0.6131 -0.7381  0.7471
 3720SOL    HW112601   7.624   5.092   5.717 -0.1658  1.7956  1.2307
 3720SOL    HW212602   7.621   5.035   5.577  1.3262 -1.2307  2.3506
 3721SOL     OW12603   0.749   5.526   7.057 -0.0770 -0.1617  0.4187
 3721SOL    HW112604   0.791   5.576   7.127  0.3871 -1.2738  0.9518
 3721SOL    HW212605   0.801   5.546   6.979 -1.4535  2.2302  0.0225
 3722SOL     OW12606   1.269   3.456   6.035  0.7250  0.3343 -0.6874
 3722SOL    HW112607   1.335   3.491   6.095 -0.5596  1.1408  0.3161
 3722SOL    HW212608   1.244   3.371   6.073  1.3685 -0.0995 -1.2196
 3723SOL     OW12609   1.464   4.139   5.231 -0.0096 -0.4403  0.5592
 3723SOL    HW112610   1.459   4.139   5.327  0.0139 -1.5216  0.5673
 3723SOL    HW212611   1.375   4.115   5.203 -0.1116  0.2239  0.2953
 3724SOL     OW12612   1.514   6.582   6.327 -0.3620  0.1840 -0.4781
 3724SOL    HW112613   1.560   6.645   6.382 -1.4546  0.8555 -0.2980
 3724SOL    HW212614   1.572   6.506   6.323  0.3119  0.6281  0.5270
 3725SOL     OW12615   7.839   3.788   5.496 -0.5287 -0.3130  0.3378
 3725SOL    HW112616   7.917   3.819   5.540 -0.6925  0.7098 -0.0693
 3725SOL    HW212617   7.773   3.856   5.512 -0.7762 -0.2168 -0.9172
 3726SOL     OW12618   6.855   3.864   5.789 -0.2941  0.7812  0.2430
 3726SOL    HW112619   6.902   3.939   5.751  0.1957  0.5794  0.4491
 3726SOL    HW212620   6.899   3.848   5.873  0.1935 -0.3044 -0.1978
 3727SOL     OW12621   2.430   5.872   6.940 -0.0751  0.1036 -0.2359
 3727SOL    HW112622   2.420   5.909   7.028 -2.4665  2.2524 -1.2655
 3727SOL    HW212623   2.499   5.925   6.899  0.0034  0.0788 -0.1363
 3728SOL     OW12624   1.461   4.839   6.672 -0.1368  0.0682  0.0233
 3728SOL    HW112625   1.512   4.809   6.597  1.1817 -0.8508  1.2158
 3728SOL    HW212626   1.526   4.854   6.740 -1.1511  2.2379  0.5921
 3729SOL     OW12627   1.458   4.337   7.036  0.6973  0.2429 -0.7458
 3729SOL    HW112628   1.475   4.405   6.971 -0.2111  0.0015 -1.2486
 3729SOL    HW212629   1.532   4.277   7.027  1.9363  1.5627  0.2712
 3730SOL     OW12630   1.754   5.503   7.252 -0.0805  0.9179  0.0223
 3730SOL    HW112631   1.761   5.528   7.160  1.1823  0.7320  0.0577
 3730SOL    HW212632   1.842   5.474   7.277 -0.5629  0.3067  1.1031
 3731SOL     OW12633   7.725   3.548   5.522 -0.6624  0.0959 -0.2913
 3731SOL    HW112634   7.786   3.618   5.497  0.7696 -0.6599  0.9251
 3731SOL    HW212635   7.714   3.557   5.616 -0.4857 -1.2481 -0.1095
 3732SOL     OW12636   0.369   4.621   5.225 -0.4166 -0.0069  0.6052
 3732SOL    HW112637   0.294   4.679   5.209  0.4086  0.8416 -0.3791
 3732SOL    HW212638   0.344   4.568   5.301 -2.5712 -0.7174 -0.5252
 3733SOL     OW12639   2.548   3.059   7.414  0.2554  0.2893  0.5048
 3733SOL    HW112640   2.454   3.075   7.415  0.3193  1.2210 -1.9266
 3733SOL    HW212641   2.570   3.040   7.505 -2.1318  0.8325  1.2665
 3734SOL     OW12642   0.323   5.415   7.590 -0.0607  0.0648 -0.0379
 3734SOL    HW112643   0.298   5.347   7.652 -0.5438  0.7065  0.4851
 3734SOL    HW212644   0.327   5.495   7.642 -1.3560  0.7787 -0.9875
 3735SOL     OW12645   7.277   3.901   5.611 -0.3177 -0.0010 -0.0422
 3735SOL    HW112646   7.327   3.968   5.658 -0.5649 -0.1866  0.5000
 3735SOL    HW212647   7.343   3.839   5.581 -0.3064 -1.0646  1.9924
 3736SOL     OW12648   1.800   4.755   6.047  0.0213  0.7146  0.1281
 3736SOL    HW112649   1.885   4.785   6.077  2.0448 -3.7638 -0.3690
 3736SOL    HW212650   1.791   4.791   5.958  1.2127  1.4391  0.2834
 3737SOL     OW12651   0.562   4.841   5.496  0.4108 -0.1101  0.1138
 3737SOL    HW112652   0.502   4.819   5.425  0.6250  1.4993 -0.6127
 3737SOL    HW212653   0.532   4.788   5.570  0.7540 -2.5177 -1.3908
 3738SOL     OW12654   0.269   5.264   7.825 -0.2966  0.5770 -0.6518
 3738SOL    HW112655   0.335   5.197   7.810 -0.7849  0.2504 -1.3977
 3738SOL    HW212656   0.234   5.245   7.913 -0.1860  0.0699 -0.7170
 3739SOL     OW12657   1.212   2.252   6.216  0.0378  0.1559 -0.6695
 3739SOL    HW112658   1.192   2.182   6.278  0.7206 -2.5184 -3.2438
 3739SOL    HW212659   1.130   2.265   6.168  0.1520  0.5862 -0.7507
 3740SOL     OW12660   7.499   3.920   5.936 -0.0736 -0.6860  0.4544
 3740SOL    HW112661   7.517   3.827   5.918 -0.8585 -0.6853 -0.4137
 3740SOL    HW212662   7.449   3.919   6.017 -3.4966 -1.4101 -1.4773
 3741SOL     OW12663   1.037   2.719   6.178 -0.1216 -0.3551  0.0301
 3741SOL    HW112664   1.089   2.799   6.182  0.3336 -0.6388 -0.1101
 3741SOL    HW212665   1.049   2.678   6.264  1.1735 -1.2053 -0.5233
 3742SOL     OW12666   0.166   5.097   5.868 -0.2934 -0.2053  1.1049
 3742SOL    HW112667   0.243   5.061   5.824 -0.5561 -1.0462  1.3150
 3742SOL    HW212668   0.176   5.070   5.959 -0.8954 -0.4301  1.1088
 3743SOL     OW12669   0.020   4.485   5.841  0.6706  0.0515 -0.3630
 3743SOL    HW112670  -0.048   4.463   5.777 -2.0097  1.5281  1.7832
 3743SOL    HW212671   0.038   4.403   5.887 -0.3369 -0.1820 -0.3747
 3744SOL     OW12672   7.407   3.893   7.019 -0.0991  0.2388  0.7918
 3744SOL    HW112673   7.404   3.839   7.098 -0.6223 -0.2582  0.4338
 3744SOL    HW212674   7.501   3.904   7.001  0.0183 -0.9674  0.5821
 3745SOL     OW12675   0.314   6.365   9.326 -0.0906  0.0094  0.0578
 3745SOL    HW112676   0.327   6.308   9.402  1.6624  0.5169  0.1985
 3745SOL    HW212677   0.378   6.333   9.262 -2.4270 -1.2525 -1.7711
 3746SOL     OW12678   1.514   4.450   9.044 -0.3426 -0.4751  0.2874
 3746SOL    HW112679   1.481   4.467   8.956 -0.2875  0.5463  0.4517
 3746SOL    HW212680   1.456   4.382   9.079 -2.4463  1.3796  0.6272
 3747SOL     OW12681   3.248   5.902   8.718  0.4120  0.2581  0.1324
 3747SOL    HW112682   3.343   5.900   8.729  0.6527  0.3680 -1.7230
 3747SOL    HW212683   3.227   5.994   8.705  0.0252  0.2426  0.5920
 3748SOL     OW12684   2.469   3.734   7.598 -0.0324 -0.3701  0.1088
 3748SOL    HW112685   2.543   3.700   7.548  0.6523 -0.1320  0.9382
 3748SOL    HW212686   2.437   3.808   7.546  0.9381  0.1430  0.2188
 3749SOL     OW12687   0.414   6.254   8.445 -0.2931 -0.6515  0.3488
 3749SOL    HW112688   0.391   6.262   8.352  0.1248 -1.0493  0.2066
 3749SOL    HW212689   0.498   6.209   8.445 -0.0350 -0.1800  0.9038
 3750SOL     OW12690   0.624   4.405   8.622 -0.4809 -0.3563 -0.4494
 3750SOL    HW112691   0.562   4.333   8.609 -1.1113  0.2888 -1.0991
 3750SOL    HW212692   0.573   4.472   8.667 -0.7205  0.7706 -2.2802
 3751SOL     OW12693   1.122   5.182   8.331 -0.2592 -0.0144  0.9154
 3751SOL    HW112694   1.102   5.105   8.277  1.5571  0.1784 -0.1237
 3751SOL    HW212695   1.039   5.203   8.374 -1.1358 -1.7369  0.1861
 3752SOL     OW12696   7.509   4.962   8.056  0.1547 -0.6236 -0.1401
 3752SOL    HW112697   7.502   4.867   8.054  0.5056 -0.6586  0.1807
 3752SOL    HW212698   7.587   4.982   8.005  0.5652 -0.5641  0.5046
 3753SOL     OW12699   6.586   5.399   7.453  0.3616  0.1796  0.6415
 3753SOL    HW112700   6.564   5.491   7.444 -0.3494  0.0555  1.0117
 3753SOL    HW212701   6.529   5.354   7.390  2.6464  0.2035 -1.5938
 3754SOL     OW12702   2.190   7.968   9.715  0.4932 -0.1192  0.5497
 3754SOL    HW112703   2.119   7.915   9.751  0.4266  1.7249  3.4454
 3754SOL    HW212704   2.270   7.923   9.743  0.5039 -0.7623 -0.4437
 3755SOL     OW12705   0.770   5.281   8.612  0.1638  0.2104  0.5961
 3755SOL    HW112706   0.702   5.225   8.574  0.2521 -0.3143  1.1875
 3755SOL    HW212707   0.848   5.226   8.613 -0.0720 -0.1607  2.4396
 3756SOL     OW12708   7.947   4.651   7.235  0.3567  0.1095 -0.0047
 3756SOL    HW112709   8.021   4.615   7.186 -0.5410  1.1982 -2.3211
 3756SOL    HW212710   7.949   4.745   7.215 -0.7850  0.3957  1.1017
 3757SOL     OW12711   0.458   6.717   9.115  0.4925  0.1198  0.0959
 3757SOL    HW112712   0.409   6.731   9.196  0.2226  2.1544 -0.3475
 3757SOL    HW212713   0.391   6.711   9.047  0.7744  1.0048 -0.2768
 3758SOL     OW12714   1.332   4.840  10.435 -0.4936  0.1457 -0.1627
 3758SOL    HW112715   1.351   4.923  10.479  0.5078 -0.0487 -0.1914
 3758SOL    HW212716   1.394   4.838  10.362 -0.8723 -0.3865 -0.4753
 3759SOL     OW12717   1.845   5.479   7.928  0.1622  0.0049 -0.2563
 3759SOL    HW112718   1.750   5.470   7.918  0.1022 -1.4570  1.0949
 3759SOL    HW212719   1.882   5.410   7.873  0.3461 -0.4983  0.4837
 3760SOL     OW12720   1.144   7.619   7.171  0.2069  0.1646 -0.2566
 3760SOL    HW112721   1.072   7.558   7.187  0.8362 -1.0565 -1.8015
 3760SOL    HW212722   1.125   7.657   7.086  1.1503  0.1494 -0.4900
 3761SOL     OW12723   0.100   6.906   8.829 -0.0622 -0.2577 -0.6540
 3761SOL    HW112724   0.026   6.920   8.889  1.7086  1.7959  1.2493
 3761SOL    HW212725   0.153   6.839   8.872  0.8449  0.6951 -0.2435
 3762SOL     OW12726   7.565   5.462   7.604  0.0063 -0.2048  0.4787
 3762SOL    HW112727   7.569   5.557   7.612  1.0309 -0.2430  0.5433
 3762SOL    HW212728   7.473   5.441   7.614 -0.4438  0.9096 -0.9782
 3763SOL     OW12729   1.552   4.477   6.575  0.3393  0.0098  0.1200
 3763SOL    HW112730   1.621   4.464   6.510 -1.6648  0.1237 -2.1795
 3763SOL    HW212731   1.527   4.389   6.602  0.7615 -0.0606  0.2922
 3764SOL     OW12732   7.414   5.260   8.354  0.1261 -0.1113 -0.2442
 3764SOL    HW112733   7.485   5.324   8.344  0.1839  0.0303  1.0143
 3764SOL    HW212734   7.453   5.177   8.326  0.1041  0.3365 -1.7210
 3765SOL     OW12735   1.739   4.890   8.967 -0.0894  0.0676 -0.0589
 3765SOL    HW112736   1.646   4.900   8.987 -0.0567  1.9208 -0.7082
 3765SOL    HW212737   1.741   4.862   8.875 -0.0095 -0.6463  0.1533
 3766SOL     OW12738   1.065   7.507   5.902 -0.4572  0.4304  0.1227
 3766SOL    HW112739   1.034   7.591   5.936 -1.4887 -0.2108  0.8257
 3766SOL    HW212740   1.117   7.470   5.973  0.4935  0.7033 -0.4012
 3767SOL     OW12741   1.170   3.932   7.428 -0.4442  0.4551 -0.5399
 3767SOL    HW112742   1.249   3.926   7.374  0.0334  1.2917  0.0533
 3767SOL    HW212743   1.180   3.862   7.493 -0.5933  0.0311 -0.9642
 3768SOL     OW12744   0.892   5.821   8.426  0.1334  0.6236  0.0744
 3768SOL    HW112745   0.900   5.828   8.331  0.0726 -0.0354  0.0174
 3768SOL    HW212746   0.806   5.780   8.439 -1.0833  3.1267  0.5010
 3769SOL     OW12747   6.525   5.635   8.339  0.1272  0.2570  0.6968
 3769SOL    HW112748   6.553   5.586   8.262  0.8724  1.0253  0.4579
 3769SOL    HW212749   6.464   5.577   8.384 -0.7919  0.0054 -0.7746
 3770SOL     OW12750   2.746   5.990   8.994  0.1464 -0.8481  0.6370
 3770SOL    HW112751   2.664   6.025   8.960 -0.1425 -1.0889  1.0748
 3770SOL    HW212752   2.799   5.972   8.916 -0.3856 -1.0985  0.3288
 3771SOL     OW12753   0.107   5.482   9.808  0.1318  0.0355  0.1848
 3771SOL    HW112754   0.029   5.427   9.812  0.6445 -0.7087  0.0427
 3771SOL    HW212755   0.176   5.431   9.851  0.5946  0.5912  0.1177
 3772SOL     OW12756   1.039   3.519   8.361 -0.0858 -0.5369  0.2002
 3772SOL    HW112757   1.056   3.610   8.335 -0.6738 -0.4480  0.1284
 3772SOL    HW212758   1.082   3.467   8.294 -0.2368 -0.3088 -0.0770
 3773SOL     OW12759   0.407   7.629   7.697 -0.2211 -0.2346 -0.3664
 3773SOL    HW112760   0.407   7.591   7.610 -2.7576  1.0176 -1.0068
 3773SOL    HW212761   0.485   7.684   7.699 -0.2179 -0.1410 -1.9367
 3774SOL     OW12762   0.810   4.572   7.281 -0.4189 -0.0761  0.1049
 3774SOL    HW112763   0.847   4.628   7.212  1.3690  0.2505  1.2668
 3774SOL    HW212764   0.765   4.633   7.339  1.3789  0.2308  1.2740
 3775SOL     OW12765   1.986   5.634  10.072 -0.1348  0.2436 -0.0822
 3775SOL    HW112766   2.010   5.545  10.045  0.2090 -0.2756  1.8167
 3775SOL    HW212767   1.982   5.630  10.167  2.1824  2.8273  0.2355
 3776SOL     OW12768   0.694   6.130   7.509  0.0953 -0.0409 -0.2471
 3776SOL    HW112769   0.784   6.113   7.482  0.2603 -1.0279  0.8397
 3776SOL    HW212770   0.641   6.070   7.457  0.0029  0.8640 -1.2211
 3777SOL     OW12771   2.306   4.929   9.865  0.7017  0.0662  0.3714
 3777SOL    HW112772   2.311   4.880   9.947  0.0639  1.3089  1.1948
 3777SOL    HW212773   2.395   4.928   9.831  0.7977 -1.2123  0.6262
 3778SOL     OW12774   3.020   7.897   7.761 -0.3581 -0.0522 -0.1389
 3778SOL    HW112775   3.101   7.887   7.710 -0.1257  2.8262 -0.4995
 3778SOL    HW212776   2.973   7.968   7.718 -2.5335 -0.8629  0.7859
 3779SOL     OW12777   1.070   6.410   7.660  0.2545  0.2858  0.6931
 3779SOL    HW112778   1.058   6.368   7.745 -1.2381  0.7929  0.7634
 3779SOL    HW212779   1.140   6.359   7.618 -0.0598 -0.9509  1.5998
 3780SOL     OW12780   7.156   3.962   7.059 -0.0193  0.1317 -0.0455
 3780SOL    HW112781   7.160   4.054   7.085 -0.9060  0.3533 -0.6339
 3780SOL    HW212782   7.248   3.936   7.046  0.2115  1.9067 -3.0885
 3781SOL     OW12783   0.543   0.497   8.571 -0.4124 -0.0957 -0.2843
 3781SOL    HW112784   0.630   0.535   8.558  0.5009 -1.9111  0.1778
 3781SOL    HW212785   0.496   0.517   8.490 -0.0307  2.0092 -0.0474
 3782SOL     OW12786   6.489   4.522   8.192  0.5759 -0.0912  0.6818
 3782SOL    HW112787   6.464   4.435   8.160  0.9589  0.6516 -1.8956
 3782SOL    HW212788   6.581   4.514   8.214  0.3069 -0.6319  1.6268
 3783SOL     OW12789   1.569   6.282   8.872 -0.0158  0.0801 -0.4338
 3783SOL    HW112790   1.610   6.335   8.940  0.6085 -1.3526  0.3467
 3783SOL    HW212791   1.642   6.240   8.827 -0.4063  1.1215 -2.1314
 3784SOL     OW12792   0.716   4.089   9.354 -0.1313  0.2056 -0.0814
 3784SOL    HW112793   0.781   4.019   9.355  0.6836  0.9198  2.0481
 3784SOL    HW212794   0.635   4.047   9.381 -0.4975 -0.5901 -2.2656
 3785SOL     OW12795   7.323   2.843   9.190  0.1796  0.0625  0.5205
 3785SOL    HW112796   7.332   2.914   9.127  0.4149 -0.1452  0.3207
 3785SOL    HW212797   7.234   2.809   9.174 -0.5313  1.3065  1.6649
 3786SOL     OW12798   2.267   4.163   7.697  0.0183  0.0708 -0.4744
 3786SOL    HW112799   2.307   4.249   7.704 -0.5623  0.2672  0.6015
 3786SOL    HW212800   2.306   4.111   7.767  1.8028 -1.1731 -2.2867
 3787SOL     OW12801   0.760   4.301   7.337  0.2915  0.5796  0.1788
 3787SOL    HW112802   0.779   4.390   7.308 -0.7067  0.3703 -1.2014
 3787SOL    HW212803   0.717   4.260   7.262  1.0918 -1.2006  0.6430
 3788SOL     OW12804   1.321   0.646  10.935 -0.6619 -0.3276 -0.3208
 3788SOL    HW112805   1.259   0.708  10.897 -0.3089  0.1940 -0.0497
 3788SOL    HW212806   1.407   0.684  10.918 -0.4314 -0.8864 -0.4046
 3789SOL     OW12807   6.254   5.027   7.133  0.0434 -0.1222 -0.2908
 3789SOL    HW112808   6.235   5.120   7.145  0.2218 -0.1346  0.0885
 3789SOL    HW212809   6.307   5.003   7.209 -0.0974 -0.5603 -0.3291
 3790SOL     OW12810   0.548   3.530   9.282  0.5622 -0.0457  0.1427
 3790SOL    HW112811   0.636   3.538   9.318  1.1537  1.5479 -1.5359
 3790SOL    HW212812   0.559   3.533   9.187 -1.2052 -1.0591 -0.1464
 3791SOL     OW12813   1.872   6.665   8.615 -0.1637 -0.3602 -0.2698
 3791SOL    HW112814   1.841   6.582   8.579 -0.1562  0.4407 -2.2262
 3791SOL    HW212815   1.795   6.722   8.614  0.1065  0.0131 -0.0277
 3792SOL     OW12816   7.965   6.158   8.318 -0.2229 -0.3672 -0.0532
 3792SOL    HW112817   7.999   6.179   8.232  0.4793 -2.1795 -0.2589
 3792SOL    HW212818   8.037   6.175   8.378 -0.9245  1.5645  0.3200
 3793SOL     OW12819   1.422   7.164   7.276  0.2816  0.2535  0.2621
 3793SOL    HW112820   1.420   7.107   7.199 -1.4806  0.2701  0.2482
 3793SOL    HW212821   1.358   7.125   7.336  1.3318  0.4681  1.5669
 3794SOL     OW12822   0.779   7.210   7.822  0.3624  0.5187  0.5123
 3794SOL    HW112823   0.857   7.254   7.790 -1.4000  2.3620 -1.5939
 3794SOL    HW212824   0.725   7.280   7.859 -0.1637 -0.7627  2.2983
 3795SOL     OW12825   1.141   3.931   8.805  0.3705  0.5570 -0.7835
 3795SOL    HW112826   1.055   3.971   8.819 -0.1761 -0.9192  0.4134
 3795SOL    HW212827   1.192   3.956   8.882 -0.4319 -2.0128  0.7342
 3796SOL     OW12828   0.188   6.016   9.700  0.1731  0.0321  0.3291
 3796SOL    HW112829   0.280   6.015   9.675  0.5582  0.1833  1.6219
 3796SOL    HW212830   0.170   5.927   9.729  0.0778  0.1276  0.5754
 3797SOL     OW12831   2.112   5.967   7.277  0.5845  0.0155 -0.0616
 3797SOL    HW112832   2.121   6.004   7.190 -0.6299  0.0665 -0.1749
 3797SOL    HW212833   2.033   6.007   7.313  0.4797 -0.7998  0.6545
 3798SOL     OW12834   0.062   4.239   7.864  0.3404 -0.5435 -0.5306
 3798SOL    HW112835  -0.025   4.261   7.896 -0.5517  0.0075 -3.1051
 3798SOL    HW212836   0.066   4.143   7.870 -0.0035 -0.4966  0.6140
 3799SOL     OW12837   0.312   5.619   9.295  0.1881 -0.8200 -0.0304
 3799SOL    HW112838   0.362   5.692   9.258  1.0251 -1.3531  0.0373
 3799SOL    HW212839   0.279   5.652   9.378  2.9293 -1.4147  1.3679
 3800SOL     OW12840   2.478   5.569   8.305  0.6032 -0.2944  0.0992
 3800SOL    HW112841   2.561   5.532   8.274  0.7773  0.6511 -0.6410
 3800SOL    HW212842   2.430   5.589   8.225 -1.0431 -2.2853  0.5254
 3801SOL     OW12843   7.685   4.679   8.243 -0.1698 -0.1380 -0.4165
 3801SOL    HW112844   7.760   4.619   8.240 -0.8382 -0.9992 -0.2189
 3801SOL    HW212845   7.722   4.765   8.223  0.9634 -0.4599  0.2291
 3802SOL     OW12846   2.994   5.107   6.562  0.2337  0.6929 -0.1759
 3802SOL    HW112847   3.069   5.049   6.558  0.1269  0.5658 -0.3451
 3802SOL    HW212848   2.921   5.051   6.587  0.0638  0.6867 -0.6764
 3803SOL     OW12849   0.266   5.655   9.560 -0.1030 -0.0526  0.1079
 3803SOL    HW112850   0.309   5.625   9.641  0.6628  1.0614  0.1326
 3803SOL    HW212851   0.175   5.626   9.570  0.1846 -0.7313  0.9531
 3804SOL     OW12852   3.057   4.687   9.153  0.0226 -0.6910  0.6543
 3804SOL    HW112853   3.009   4.647   9.081  0.7348  1.1179 -0.9419
 3804SOL    HW212854   3.125   4.624   9.175 -0.1437 -1.2360 -0.3513
 3805SOL     OW12855   6.916   5.540   8.335 -0.3156  0.0645  0.5179
 3805SOL    HW112856   7.004   5.576   8.345 -0.3887 -0.2170  2.5821
 3805SOL    HW212857   6.928   5.465   8.276  0.8945 -0.1537  0.9977
 3806SOL     OW12858   2.288   5.515   9.372 -0.6020  0.2194 -0.1154
 3806SOL    HW112859   2.269   5.454   9.301 -1.0391 -0.9813  0.9904
 3806SOL    HW212860   2.267   5.466   9.452 -0.8043  1.7606  0.8178
 3807SOL     OW12861   6.222   4.745   8.694  0.1195  0.5743 -0.1362
 3807SOL    HW112862   6.185   4.831   8.672  0.3824  0.3564 -1.5401
 3807SOL    HW212863   6.151   4.683   8.675  0.1348  0.4271  0.2836
 3808SOL     OW12864   1.943   3.479   6.288 -0.8832 -0.3927  0.2951
 3808SOL    HW112865   1.902   3.564   6.271  1.1397  0.4811 -0.5712
 3808SOL    HW212866   2.034   3.501   6.309 -0.4020 -2.3428  0.3873
 3809SOL     OW12867   0.404   6.554   7.084 -0.3418  0.1597  0.2296
 3809SOL    HW112868   0.310   6.564   7.071 -0.3403  0.3321  0.3405
 3809SOL    HW212869   0.444   6.596   7.008 -0.3332  1.1336  0.7578
 3810SOL     OW12870   1.549   4.881   7.799 -0.0036  0.3603  0.0452
 3810SOL    HW112871   1.565   4.837   7.883 -0.7408 -1.2520 -0.6086
 3810SOL    HW212872   1.464   4.847   7.770 -1.3317  3.2922  0.0963
 3811SOL     OW12873   6.944   7.383  11.011 -0.0711  0.2236  0.5496
 3811SOL    HW112874   6.923   7.465  10.965  0.4035  0.0496  0.0173
 3811SOL    HW212875   6.859   7.341  11.023 -0.2602  0.5354  0.3310
 3812SOL     OW12876   1.351   3.343  10.175 -0.0567  0.5885 -0.2327
 3812SOL    HW112877   1.291   3.358  10.102  0.4602  2.7286 -0.2863
 3812SOL    HW212878   1.434   3.320  10.133 -0.5646 -1.6221 -0.1728
 3813SOL     OW12879   1.655   5.772   7.888 -0.0598  0.5048 -0.0160
 3813SOL    HW112880   1.733   5.751   7.939  0.7020  1.2500 -0.8492
 3813SOL    HW212881   1.677   5.748   7.798 -1.2553 -0.4504 -0.0923
 3814SOL     OW12882   1.123   5.720   6.515  0.4581  0.3091  0.0557
 3814SOL    HW112883   1.159   5.658   6.452 -1.2726 -1.0052  0.3046
 3814SOL    HW212884   1.181   5.714   6.591  1.5375  0.6137 -0.7219
 3815SOL     OW12885   7.811   3.181   7.283  0.4121  0.3172  0.0727
 3815SOL    HW112886   7.785   3.260   7.236  0.4277  0.0769 -0.3512
 3815SOL    HW212887   7.835   3.119   7.214 -0.6442 -0.4222  0.3473
 3816SOL     OW12888   0.600   4.425   7.056  0.4827  0.4531 -0.1314
 3816SOL    HW112889   0.690   4.431   7.025 -0.0750  1.1177 -1.7228
 3816SOL    HW212890   0.575   4.333   7.042  1.0395  0.1542  0.7589
 3817SOL     OW12891   1.356   2.951   8.468  0.0435 -0.3491  0.1630
 3817SOL    HW112892   1.289   2.885   8.483  0.4639 -0.5226  1.3142
 3817SOL    HW212893   1.437   2.902   8.455 -0.3110 -0.2889 -3.4273
 3818SOL     OW12894   0.182   7.083   7.926  0.4061  0.0455  0.2237
 3818SOL    HW112895   0.199   6.998   7.965 -0.5670  0.1993  1.0413
 3818SOL    HW212896   0.110   7.068   7.864 -0.4170  0.4213  1.0624
 3819SOL     OW12897   7.606   3.793   7.932 -0.7187 -0.2632  0.4958
 3819SOL    HW112898   7.607   3.698   7.920 -0.5956 -0.1507 -0.4588
 3819SOL    HW212899   7.515   3.813   7.952 -0.4083 -0.7946  2.7862
 3820SOL     OW12900   0.816   4.756   8.364  0.1558  0.0057  0.4297
 3820SOL    HW112901   0.845   4.674   8.402 -0.7490 -0.4175  0.2480
 3820SOL    HW212902   0.828   4.821   8.434  3.4338  0.3038 -0.2886
 3821SOL     OW12903   0.669   5.855   8.217 -0.2343 -0.0117 -0.3165
 3821SOL    HW112904   0.640   5.872   8.127  0.1084  0.0646 -0.4116
 3821SOL    HW212905   0.684   5.942   8.254 -2.0402  0.0563  0.3732
 3822SOL     OW12906   1.677   7.059   8.052  0.1492 -0.0408 -0.2379
 3822SOL    HW112907   1.744   7.046   8.119 -0.2766  0.9463  0.4065
 3822SOL    HW212908   1.686   6.984   7.994  1.5468 -0.1272  0.0575
 3823SOL     OW12909   0.652   6.085   8.418  0.2148 -0.3337 -0.3600
 3823SOL    HW112910   0.705   6.157   8.451 -0.7915  0.2682 -0.0257
 3823SOL    HW212911   0.639   6.028   8.493  1.4987 -1.1972 -0.7569
 3824SOL     OW12912   7.316   5.753   9.216  0.2141  0.1881  0.0891
 3824SOL    HW112913   7.411   5.743   9.208  0.1195 -1.0575  0.2372
 3824SOL    HW212914   7.281   5.670   9.183 -0.8320  0.6844 -0.0759
 3825SOL     OW12915   0.097   5.834   8.248  0.0821 -0.4863  0.5072
 3825SOL    HW112916   0.052   5.774   8.188  0.8592 -1.3704  0.7964
 3825SOL    HW212917   0.077   5.921   8.214 -0.8820 -0.9089 -0.0473
 3826SOL     OW12918   0.033   3.787   6.287  0.8751 -0.7339 -0.1896
 3826SOL    HW112919   0.016   3.848   6.358  0.1525 -1.3205  0.1568
 3826SOL    HW212920   0.105   3.732   6.320  0.9902 -0.5777 -0.1805
 3827SOL     OW12921   0.685   4.116   8.066  0.1386  0.3207 -0.3586
 3827SOL    HW112922   0.777   4.136   8.050  0.9334 -1.0261  2.0286
 3827SOL    HW212923   0.686   4.038   8.122 -2.3642  1.3022  1.2656
 3828SOL     OW12924   3.736   5.109  10.110  0.1041 -0.2219  0.2600
 3828SOL    HW112925   3.670   5.043  10.089  0.7391 -1.0035  0.6485
 3828SOL    HW212926   3.797   5.106  10.036  0.9818 -1.2027  0.9907
 3829SOL     OW12927   0.581   4.236   9.008 -0.3692  0.6592 -0.1526
 3829SOL    HW112928   0.497   4.220   8.965  0.0926 -0.0706 -0.7937
 3829SOL    HW212929   0.561   4.303   9.074 -1.8373 -0.7732  0.9329
 3830SOL     OW12930   1.837   3.720   6.538  0.3941  0.0521 -0.5602
 3830SOL    HW112931   1.878   3.734   6.453 -0.9586  1.2232 -1.0800
 3830SOL    HW212932   1.872   3.790   6.593 -0.6044  0.8796 -0.9252
 3831SOL     OW12933   7.790   5.282   8.237  0.5475 -0.6585  0.0675
 3831SOL    HW112934   7.805   5.310   8.146  0.1142  1.1599  0.5102
 3831SOL    HW212935   7.720   5.340   8.268  0.0331 -1.8894  1.2888
 3832SOL     OW12936   3.232   5.029   9.019 -0.2964  0.1726 -0.8772
 3832SOL    HW112937   3.259   5.117   9.046 -0.4316 -0.3178  0.9797
 3832SOL    HW212938   3.313   4.979   9.013 -0.1828  0.4772 -2.2871
 3833SOL     OW12939   1.230   4.442   5.595  0.1251 -0.1163  0.5134
 3833SOL    HW112940   1.192   4.524   5.627 -2.3250 -1.2053  0.5733
 3833SOL    HW212941   1.226   4.449   5.500  0.4920  0.0649  0.5082
 3834SOL     OW12942   2.299   4.730   7.471  0.0761  0.1347  0.1174
 3834SOL    HW112943   2.359   4.743   7.544  1.1799 -1.1852 -0.5214
 3834SOL    HW212944   2.324   4.797   7.407  2.2095 -1.5675 -0.9488
 3835SOL     OW12945   7.986   4.663   9.096 -0.7446  0.2090  0.3312
 3835SOL    HW112946   7.965   4.601   9.165  1.0302  0.5968  1.2905
 3835SOL    HW212947   8.025   4.610   9.026 -0.1421  0.1195  0.7315
 3836SOL     OW12948   1.818   5.370   9.154  0.0565  0.0507  0.0649
 3836SOL    HW112949   1.841   5.277   9.149  0.1255 -0.0364  1.5316
 3836SOL    HW212950   1.899   5.416   9.136  0.6384 -0.2277  1.7491
 3837SOL     OW12951   3.209   6.481   8.595  0.1321  0.2957 -0.1360
 3837SOL    HW112952   3.228   6.569   8.629 -0.5783 -0.2796  1.8777
 3837SOL    HW212953   3.115   6.471   8.606  0.2741 -0.8947  0.1130
 3838SOL     OW12954   1.051   5.555   8.265  0.2107 -0.1191 -0.5378
 3838SOL    HW112955   1.138   5.535   8.300  0.0070  0.5862  0.4182
 3838SOL    HW212956   0.992   5.538   8.338 -0.3705  0.1046 -0.9554
 3839SOL     OW12957   2.954   5.076   9.003  0.6314  0.0348  0.2661
 3839SOL    HW112958   2.950   5.162   8.962 -1.5327 -1.2251 -2.5516
 3839SOL    HW212959   3.045   5.049   8.994  0.7041  0.7820 -1.8274
 3840SOL     OW12960   0.284   3.966   7.767  0.8153  0.2377 -0.0710
 3840SOL    HW112961   0.341   3.941   7.840 -0.6802  0.4128  1.2006
 3840SOL    HW212962   0.331   4.039   7.725  1.2276  0.8396  1.3624
 3841SOL     OW12963   1.239   5.422   7.052  0.4182 -0.9626 -0.0129
 3841SOL    HW112964   1.301   5.398   7.121 -1.3644 -2.1157  1.2890
 3841SOL    HW212965   1.244   5.350   6.988  0.5706 -0.9599 -0.0030
 3842SOL     OW12966   0.388   6.500   7.786 -0.0525 -0.0810  0.0623
 3842SOL    HW112967   0.353   6.558   7.719  1.5755  1.6291  0.6088
 3842SOL    HW212968   0.422   6.559   7.853  4.5707 -1.4079 -0.7689
 3843SOL     OW12969   6.719   3.750   8.156  0.1112  0.0037  0.5418
 3843SOL    HW112970   6.646   3.769   8.214  0.3250  1.3746  0.3905
 3843SOL    HW212971   6.783   3.706   8.211 -1.5672 -3.0799  0.2505
 3844SOL     OW12972   1.415   7.167   8.058 -0.0120  0.2048 -0.1083
 3844SOL    HW112973   1.373   7.115   7.990 -1.3631  0.2313  0.6704
 3844SOL    HW212974   1.508   7.155   8.043 -0.2888 -0.8126 -1.1772
 3845SOL     OW12975   0.858   6.533   9.495 -0.2719 -0.0296  0.1360
 3845SOL    HW112976   0.917   6.483   9.438  0.5305 -0.5216  1.3627
 3845SOL    HW212977   0.782   6.552   9.440  0.1084 -1.2130 -0.8443
 3846SOL     OW12978   1.115   4.845   8.808  0.1551  0.5183 -0.0344
 3846SOL    HW112979   1.172   4.769   8.819 -0.4745 -0.1543 -1.2139
 3846SOL    HW212980   1.115   4.861   8.714 -1.7747  0.3418 -0.0979
 3847SOL     OW12981   0.052   6.038   6.697 -0.6171  0.1950 -0.6406
 3847SOL    HW112982   0.120   5.976   6.669 -0.3295  0.0940  0.2551
 3847SOL    HW212983  -0.008   5.984   6.748 -0.3287  0.6669  0.2027
 3848SOL     OW12984   1.218   4.121   8.234  0.1314  0.0910  0.3242
 3848SOL    HW112985   1.190   4.030   8.236 -0.4926  0.2647 -0.4120
 3848SOL    HW212986   1.192   4.155   8.320  0.0743 -0.3299  0.4794
 3849SOL     OW12987   3.393   6.666   8.694 -0.2346  0.3894 -0.2044
 3849SOL    HW112988   3.458   6.726   8.732  1.2623 -0.1793 -1.7063
 3849SOL    HW212989   3.436   6.580   8.697 -0.9374 -0.0102 -1.1964
 3850SOL     OW12990   0.746   4.001   9.080  0.4190 -0.1358 -0.1630
 3850SOL    HW112991   0.716   4.067   9.143 -1.7145 -3.0794  2.2306
 3850SOL    HW212992   0.686   4.010   9.006  0.5364  0.9222 -0.1508
 3851SOL     OW12993   7.559   5.165   9.055  0.0785 -0.1169 -0.2377
 3851SOL    HW112994   7.537   5.215   9.134  1.4559 -1.1808  0.8649
 3851SOL    HW212995   7.476   5.159   9.008 -1.1812 -0.7976  1.9025
 3852SOL     OW12996   7.740   5.044   7.925 -0.0791 -0.1093  0.1425
 3852SOL    HW112997   7.769   5.135   7.932 -0.8343  0.1885 -0.4193
 3852SOL    HW212998   7.797   5.006   7.857 -0.9645  0.4750 -0.9623
 3853SOL     OW12999   0.565   3.018   8.935  0.4864 -0.0581 -0.1123
 3853SOL    HW113000   0.601   2.929   8.943 -1.8013 -1.1298 -1.0403
 3853SOL    HW213001   0.489   3.018   8.993 -0.9037  0.5114 -1.8754
 3854SOL     OW13002   0.980   4.162   6.897 -0.3525  0.1375  0.0800
 3854SOL    HW113003   0.933   4.245   6.905  0.3585  0.4863  0.6694
 3854SOL    HW213004   1.018   4.165   6.809 -0.2414  0.4804  0.1375
 3855SOL     OW13005   7.239   3.355  10.021 -0.6852  0.0512 -0.8468
 3855SOL    HW113006   7.320   3.396  10.051 -1.3998  0.6248  0.3545
 3855SOL    HW213007   7.255   3.261  10.028 -0.5200  0.1727  0.4877
 3856SOL     OW13008   0.918   5.825   7.482 -0.0389  0.1215 -0.0803
 3856SOL    HW113009   0.908   5.920   7.476 -0.5296  0.1557  0.9654
 3856SOL    HW213010   0.990   5.812   7.544  0.8493 -0.1954 -1.1501
 3857SOL     OW13011   1.631   5.157   8.592  0.2305  0.0926 -0.0371
 3857SOL    HW113012   1.712   5.201   8.620  0.7817 -1.0086  0.1611
 3857SOL    HW213013   1.583   5.141   8.673 -0.5124  1.3249 -0.2113
 3858SOL     OW13014   0.268   4.837   6.963  0.3066 -0.0487 -0.3029
 3858SOL    HW113015   0.329   4.854   6.891  0.3256 -1.0816 -0.5446
 3858SOL    HW213016   0.182   4.833   6.921  0.1288  0.8272 -0.0451
 3859SOL     OW13017   6.527   4.607   7.766 -0.4275  0.2507  0.2584
 3859SOL    HW113018   6.482   4.692   7.770  1.5029  1.4311 -1.1231
 3859SOL    HW213019   6.570   4.599   7.850 -0.7065  0.5942  0.4381
 3860SOL     OW13020   0.939   5.317   7.712  0.3137 -0.2248  0.5081
 3860SOL    HW113021   0.930   5.409   7.687  3.5457  0.7561  2.3166
 3860SOL    HW213022   0.936   5.318   7.808  0.9899 -1.8717  0.5765
 3861SOL     OW13023   6.800   5.757   7.784 -0.5640  0.2636  0.3039
 3861SOL    HW113024   6.728   5.752   7.721  0.5007 -2.2059 -0.8466
 3861SOL    HW213025   6.879   5.756   7.730  0.3739 -0.9012  1.6342
 3862SOL     OW13026   1.801   4.622   8.337  0.0615  0.2984 -0.3731
 3862SOL    HW113027   1.845   4.543   8.306 -0.2758  0.1617 -0.5097
 3862SOL    HW213028   1.712   4.614   8.305  0.0235  0.7375 -0.3878
 3863SOL     OW13029   1.543   4.234   6.657 -0.3054  0.3853  0.4606
 3863SOL    HW113030   1.463   4.187   6.633  0.6852 -1.1396 -0.0401
 3863SOL    HW213031   1.561   4.206   6.747  1.1661 -1.6392 -0.3625
 3864SOL     OW13032   3.186   4.052   8.465  0.5730 -0.1372  0.4457
 3864SOL    HW113033   3.280   4.043   8.455  0.3953 -2.0784  0.2436
 3864SOL    HW213034   3.156   3.966   8.494 -1.2526  0.1481 -0.4510
 3865SOL     OW13035   7.889   4.684   7.728  0.3860  0.5613  0.5160
 3865SOL    HW113036   7.897   4.779   7.735  0.9061  0.5416  0.2216
 3865SOL    HW213037   7.979   4.652   7.729  0.1949 -0.0143  1.7391
 3866SOL     OW13038   0.017   6.168   9.922  0.5254 -0.1048  0.2627
 3866SOL    HW113039   0.041   6.113   9.847 -1.0708  0.1270 -0.4493
 3866SOL    HW213040  -0.055   6.222   9.890 -0.5474 -0.3455  2.1171
 3867SOL     OW13041   0.722   4.412  10.731  0.0354  0.2068  0.3874
 3867SOL    HW113042   0.781   4.368  10.792 -2.1905 -1.6053  1.3560
 3867SOL    HW213043   0.731   4.505  10.752  3.1598  0.1694 -0.1764
 3868SOL     OW13044   7.791   6.555   9.384  0.0857  0.2917 -0.0921
 3868SOL    HW113045   7.819   6.593   9.301 -0.1500  2.6379  0.8208
 3868SOL    HW213046   7.863   6.497   9.409  0.6458  0.3769 -1.4190
 3869SOL     OW13047   2.676   4.054   7.875  1.1109  0.5704  0.0450
 3869SOL    HW113048   2.706   4.034   7.963  0.4700  1.1502  0.4080
 3869SOL    HW213049   2.719   3.989   7.819  1.1206 -0.1284  0.8484
 3870SOL     OW13050   0.961   4.996   5.613  0.0949  0.1416 -0.0005
 3870SOL    HW113051   0.920   5.082   5.603 -1.2359 -0.4926 -0.2719
 3870SOL    HW213052   0.922   4.961   5.693  1.3316  0.1441  0.6296
 3871SOL     OW13053   2.409   4.049   7.900  1.1255  0.1485  0.5025
 3871SOL    HW113054   2.500   4.036   7.874  0.7221  0.0042 -0.8960
 3871SOL    HW213055   2.393   3.979   7.964  0.7044 -2.8665 -2.5971
 3872SOL     OW13056   0.210   5.101   8.463  0.2760  0.1909 -0.1779
 3872SOL    HW113057   0.241   5.111   8.553 -0.5781  0.3885  0.1055
 3872SOL    HW213058   0.272   5.040   8.423  2.2432  2.1165 -0.2582
 3873SOL     OW13059   0.881   3.462   6.262 -0.0733 -0.8824  0.2935
 3873SOL    HW113060   0.819   3.438   6.193  0.8986 -2.2684 -0.1604
 3873SOL    HW213061   0.967   3.440   6.225  0.5783 -0.2811  1.4031
 3874SOL     OW13062   1.506   6.382   7.318 -0.1404  0.6167  0.4617
 3874SOL    HW113063   1.433   6.379   7.257 -0.6356  1.3548  1.0108
 3874SOL    HW213064   1.467   6.400   7.403  0.6043  0.2424  0.8969
 3875SOL     OW13065   1.975   4.236   7.882  0.4300  0.2601 -0.1162
 3875SOL    HW113066   1.981   4.155   7.933 -0.9786  0.3647  0.2290
 3875SOL    HW213067   2.032   4.297   7.928  0.2949 -0.0735  0.5073
 3876SOL     OW13068   0.599   5.671   6.417 -0.0374  0.2195 -0.5596
 3876SOL    HW113069   0.683   5.698   6.380  0.4367 -0.2571  0.1562
 3876SOL    HW213070   0.582   5.585   6.379  0.3466 -0.1766  0.1522
 3877SOL     OW13071   1.071   7.496   8.890  0.0771 -0.0278 -0.1961
 3877SOL    HW113072   0.990   7.480   8.843 -1.0407 -2.2731  2.2558
 3877SOL    HW213073   1.140   7.462   8.831 -0.8029  0.8074 -1.7832
 3878SOL     OW13074   1.319   6.381   7.120 -0.2634 -0.1380  0.1208
 3878SOL    HW113075   1.240   6.423   7.086 -0.9375 -2.5260 -1.5761
 3878SOL    HW213076   1.313   6.291   7.088  2.4127 -0.8020  1.2412
 3879SOL     OW13077   1.545   6.938   9.040  0.6199  0.2083  0.5409
 3879SOL    HW113078   1.505   6.851   9.042 -0.1977  0.4917 -1.3534
 3879SOL    HW213079   1.570   6.956   9.131 -2.4772 -0.4787  1.6220
 3880SOL     OW13080   1.625   3.510   9.139 -0.2772 -0.2511  0.1309
 3880SOL    HW113081   1.597   3.512   9.230  0.0528 -1.0410  0.2608
 3880SOL    HW213082   1.559   3.456   9.095 -0.2044 -0.2216 -0.0137
 3881SOL     OW13083   0.505   4.509   9.019 -0.2915 -0.3357  0.1010
 3881SOL    HW113084   0.500   4.567   9.094 -1.3273  0.3313 -0.4541
 3881SOL    HW213085   0.571   4.548   8.962  0.4538 -0.8125  0.6217
 3882SOL     OW13086   2.493   6.064   8.903  0.0114  0.2802 -0.5504
 3882SOL    HW113087   2.477   6.158   8.911  1.3448  0.4064  1.0494
 3882SOL    HW213088   2.477   6.045   8.810 -1.2211  1.8804 -0.7039
 3883SOL     OW13089   1.303   4.380   8.245  0.1491 -0.2333 -0.0005
 3883SOL    HW113090   1.255   4.441   8.189 -0.6338 -0.4818  0.3843
 3883SOL    HW213091   1.235   4.326   8.285  0.8454 -1.8439 -0.8766
 3884SOL     OW13092   1.368   5.720   8.681 -0.0967 -0.0990  0.1471
 3884SOL    HW113093   1.286   5.751   8.643 -0.2507  0.3458  0.8279
 3884SOL    HW213094   1.436   5.758   8.626 -0.3061  0.8762  0.5460
 3885SOL     OW13095   7.894   4.907   9.466  0.1305 -0.4227 -0.0241
 3885SOL    HW113096   7.989   4.916   9.456  0.2463 -0.4147  1.0104
 3885SOL    HW213097   7.883   4.820   9.504 -0.2403 -0.1947  0.3873
 3886SOL     OW13098   0.715   4.513   9.358  0.0716  0.3508  0.2654
 3886SOL    HW113099   0.637   4.458   9.363 -1.3170  2.0498 -1.1750
 3886SOL    HW213100   0.788   4.451   9.359 -1.3392 -1.4128 -0.1181
 3887SOL     OW13101   1.747   5.039   9.709  0.1140  0.1645  0.1080
 3887SOL    HW113102   1.822   5.068   9.762  0.8156  0.0788 -0.8124
 3887SOL    HW213103   1.713   5.119   9.670 -0.7162  0.2930  1.0628
 3888SOL     OW13104   0.981   2.364   8.418  0.3169  0.1406 -0.1813
 3888SOL    HW113105   0.959   2.457   8.425 -0.2892 -0.0037 -0.1063
 3888SOL    HW213106   1.026   2.343   8.500 -0.0367  0.2371  0.0387
 3889SOL     OW13107   6.493   4.804   8.195 -0.7309 -0.0415 -0.6741
 3889SOL    HW113108   6.458   4.718   8.175  0.1334 -0.6185  0.1780
 3889SOL    HW213109   6.564   4.787   8.257 -1.4154  1.3869  0.5770
 3890SOL     OW13110   1.164   6.539   9.833  0.2674  0.2206  0.5744
 3890SOL    HW113111   1.180   6.452   9.796  0.0713  0.2197  0.4917
 3890SOL    HW213112   1.078   6.564   9.799  0.0726  0.2100  1.0496
 3891SOL     OW13113   1.445   6.422   7.792 -0.4571 -0.0627 -0.2948
 3891SOL    HW113114   1.467   6.332   7.766 -0.2960 -0.1708  0.2101
 3891SOL    HW213115   1.529   6.460   7.819 -0.7735 -0.2932  1.0818
 3892SOL     OW13116   0.903   7.785   8.930  0.0208  0.0130 -0.0761
 3892SOL    HW113117   0.876   7.713   8.874 -0.9536  1.5114 -1.6024
 3892SOL    HW213118   0.865   7.764   9.016  0.2966 -1.5710 -0.3129
 3893SOL     OW13119   2.203   6.886   9.181 -0.0777 -0.4843 -0.3439
 3893SOL    HW113120   2.124   6.878   9.235 -0.1018 -1.0184 -0.4503
 3893SOL    HW213121   2.171   6.884   9.091 -0.1278  1.3817 -0.4009
 3894SOL     OW13122   0.674   6.169   7.779 -0.5238 -0.0386 -0.0157
 3894SOL    HW113123   0.652   6.159   7.686  0.8241 -0.0189 -0.3562
 3894SOL    HW213124   0.637   6.090   7.820 -1.1565 -0.0370 -0.5526
 3895SOL     OW13125   1.102   6.846   9.326  1.0385  0.2277  0.7089
 3895SOL    HW113126   1.125   6.865   9.235  1.4704 -0.8233  0.5798
 3895SOL    HW213127   1.018   6.890   9.339  0.0945 -1.0166 -0.7631
 3896SOL     OW13128   0.325   4.006   7.151  0.6946 -0.7250  0.3783
 3896SOL    HW113129   0.295   3.997   7.241  0.0357 -0.3712  0.1924
 3896SOL    HW213130   0.351   4.098   7.142 -0.3536 -0.4703 -0.1317
 3897SOL     OW13131   2.599   5.171   8.854  0.1951  0.2582  0.6770
 3897SOL    HW113132   2.619   5.199   8.944  3.0317 -2.1632  0.9370
 3897SOL    HW213133   2.679   5.190   8.805 -0.4337 -0.6954 -0.7757
 3898SOL     OW13134   1.184   6.154   8.901  0.2152 -0.0294  0.2760
 3898SOL    HW113135   1.148   6.202   8.975  1.5653  1.6011 -0.0836
 3898SOL    HW213136   1.219   6.221   8.843  1.4444 -1.4063 -0.6448
 3899SOL     OW13137   2.150   4.723   9.212  0.2207  0.1965 -0.6839
 3899SOL    HW113138   2.156   4.751   9.303  0.9877  0.7505 -0.8937
 3899SOL    HW213139   2.061   4.690   9.203 -0.3526  1.5089 -0.1158
 3900SOL     OW13140   6.404   6.326   7.576 -0.1299  0.5279 -0.7005
 3900SOL    HW113141   6.434   6.239   7.602 -0.7095  0.9567  1.5877
 3900SOL    HW213142   6.317   6.312   7.539 -0.6144  0.2134  0.5254
 3901SOL     OW13143   1.811   6.132   8.701  0.2061  0.9019 -0.1794
 3901SOL    HW113144   1.843   6.187   8.629  2.0053 -1.4345 -1.2727
 3901SOL    HW213145   1.883   6.130   8.764 -0.4687  1.0618  0.6172
 3902SOL     OW13146   1.186   3.996   9.693 -0.2799  0.0235  0.2707
 3902SOL    HW113147   1.127   3.950   9.753 -0.7670 -1.8565 -1.5452
 3902SOL    HW213148   1.161   3.965   9.606  1.1645  1.7797 -0.8473
 3903SOL     OW13149   2.340   4.257   8.184  0.1169  0.1448 -0.0395
 3903SOL    HW113150   2.387   4.330   8.145 -1.3268  0.3980 -1.3807
 3903SOL    HW213151   2.390   4.180   8.158  0.2211  0.4616 -0.8027
 3904SOL     OW13152   6.561   2.853   7.759  0.6140 -0.3519 -0.6230
 3904SOL    HW113153   6.565   2.895   7.845  0.3550 -0.5872 -0.4901
 3904SOL    HW213154   6.526   2.920   7.701 -0.8757 -0.7013 -0.1822
 3905SOL     OW13155   0.369   0.325   7.398  0.0312  0.0545 -0.3089
 3905SOL    HW113156   0.461   0.321   7.369 -0.6170  0.2356 -2.5344
 3905SOL    HW213157   0.333   0.241   7.373 -1.2884  1.2663 -2.7894
 3906SOL     OW13158   0.488   3.814   9.120 -0.0665  0.1170 -0.2658
 3906SOL    HW113159   0.520   3.727   9.143 -1.7953 -0.0628  1.7917
 3906SOL    HW213160   0.567   3.866   9.107  0.9993 -1.7692 -1.8130
 3907SOL     OW13161   3.690   6.444   7.749  0.3426  0.2228 -0.4283
 3907SOL    HW113162   3.758   6.495   7.705  0.3192 -0.3394 -1.1301
 3907SOL    HW213163   3.736   6.366   7.781  0.1725  0.1952 -0.2518
 3908SOL     OW13164   0.715   4.941   6.448 -0.2793 -0.1389 -0.6170
 3908SOL    HW113165   0.705   4.859   6.400 -0.1516 -0.9943  0.7633
 3908SOL    HW213166   0.645   4.997   6.416 -1.2034 -1.2762 -0.6330
 3909SOL     OW13167   7.871   6.806   8.228  0.3703 -0.0299  0.6078
 3909SOL    HW113168   7.825   6.886   8.205 -0.1329  0.1379  2.1077
 3909SOL    HW213169   7.817   6.736   8.192 -1.7331  0.1001  3.2258
 3910SOL     OW13170   1.508   4.665   8.268 -0.3795 -0.4820  0.0418
 3910SOL    HW113171   1.510   4.731   8.199  0.8219 -0.2625  0.2675
 3910SOL    HW213172   1.454   4.594   8.232  1.0766 -0.8353 -1.5782
 3911SOL     OW13173   1.284   4.738   7.056 -0.3675  0.3094 -0.3645
 3911SOL    HW113174   1.355   4.793   7.088  0.2053  0.3124 -1.5820
 3911SOL    HW213175   1.306   4.650   7.087 -0.3871  0.4826  0.1436
 3912SOL     OW13176   1.044   5.158   6.706  0.0546 -0.0191  0.4577
 3912SOL    HW113177   0.953   5.158   6.736  0.2199 -1.6447  1.0659
 3912SOL    HW213178   1.048   5.230   6.644 -1.0620  1.5801  2.1328
 3913SOL     OW13179   0.822   5.236   9.024  0.1959 -0.5127  0.4294
 3913SOL    HW113180   0.754   5.264   9.085  1.7272 -0.0187  2.0138
 3913SOL    HW213181   0.845   5.148   9.053  1.8536  0.2156  1.5177
 3914SOL     OW13182   0.980   5.835   8.177 -0.7450 -0.4865  0.5936
 3914SOL    HW113183   0.997   5.743   8.199 -0.2584 -0.1088  1.9017
 3914SOL    HW213184   1.048   5.883   8.224 -0.9740  0.5463 -0.1086
 3915SOL     OW13185   0.599   5.447   7.405 -0.1227  0.4210 -0.5035
 3915SOL    HW113186   0.678   5.483   7.444 -0.5946  0.8727  0.0676
 3915SOL    HW213187   0.569   5.380   7.466 -1.3772  1.7718  0.4374
 3916SOL     OW13188   5.823   3.430   9.783 -0.3020  0.0146  0.5099
 3916SOL    HW113189   5.777   3.376   9.718 -2.7456  1.6720  0.7367
 3916SOL    HW213190   5.808   3.385   9.866  1.3343 -1.1686  0.2096
 3917SOL     OW13191   7.481   5.252   6.762 -0.1235  0.0440  0.0764
 3917SOL    HW113192   7.429   5.180   6.797 -0.1328 -0.1549 -0.3452
 3917SOL    HW213193   7.571   5.219   6.762  0.2115  0.8267  1.9855
 3918SOL     OW13194   7.234   5.529   7.212  0.5113  0.1588 -0.5873
 3918SOL    HW113195   7.191   5.477   7.279  1.9726 -0.8360 -0.3622
 3918SOL    HW213196   7.241   5.470   7.137  0.8617  0.5199 -0.8435
 3919SOL     OW13197   1.079   4.589   7.385  0.0301  0.7614 -0.6984
 3919SOL    HW113198   1.145   4.575   7.317  0.6918 -0.4740  0.1527
 3919SOL    HW213199   0.996   4.591   7.337  0.4905  0.0526 -1.5645
 3920SOL     OW13200   7.547   5.440   7.960 -0.2295  0.3089  0.0742
 3920SOL    HW113201   7.497   5.503   8.011  2.0375  2.1624  0.1580
 3920SOL    HW213202   7.605   5.494   7.906 -0.3223 -1.6618 -2.1378
 3921SOL     OW13203   1.525   5.793   7.508 -0.3043 -0.1753  0.3936
 3921SOL    HW113204   1.590   5.780   7.577 -1.2163 -0.3658  1.2394
 3921SOL    HW213205   1.551   5.733   7.438 -0.6238 -1.6520  1.5042
 3922SOL     OW13206   7.908   6.187   7.369  0.6181 -0.0064 -0.0969
 3922SOL    HW113207   7.841   6.126   7.398 -0.6512  1.1480 -0.4782
 3922SOL    HW213208   7.860   6.267   7.347  2.3250  1.5641  1.5174
 3923SOL     OW13209   3.945   6.573   7.159  0.0247  0.0105 -0.7456
 3923SOL    HW113210   3.979   6.517   7.228  3.1368  3.5702  0.9582
 3923SOL    HW213211   3.988   6.542   7.079  0.4393 -0.9510 -0.1610
 3924SOL     OW13212   0.966   4.897   7.685  0.5451 -0.2421  0.2212
 3924SOL    HW113213   0.981   4.909   7.779 -0.5080  2.6007  0.1171
 3924SOL    HW213214   1.022   4.962   7.643 -1.8028  1.2394 -0.8444
 3925SOL     OW13215   2.446   7.694   7.961  0.5907  0.0031  0.1575
 3925SOL    HW113216   2.437   7.766   7.898  2.7207 -1.3872 -1.8674
 3925SOL    HW213217   2.533   7.658   7.945  1.1869 -0.6248  3.7991
 3926SOL     OW13218   7.641   5.548   9.763  0.4543 -0.0697 -0.0470
 3926SOL    HW113219   7.699   5.543   9.839  1.3202  1.0614 -0.6133
 3926SOL    HW213220   7.595   5.632   9.773  0.2832 -0.0947 -0.5687
 3927SOL     OW13221   1.200   4.543   9.053 -0.2990 -0.3858  0.0178
 3927SOL    HW113222   1.217   4.449   9.056 -1.6831 -0.6634 -0.0747
 3927SOL    HW213223   1.214   4.568   8.962 -2.8902 -1.1601 -0.6949
 3928SOL     OW13224   3.407   5.692   7.915  0.2697  0.6954  0.7236
 3928SOL    HW113225   3.448   5.686   8.001 -0.3394 -0.9888  0.9462
 3928SOL    HW213226   3.313   5.688   7.933  0.1076  1.1942  0.0277
 3929SOL     OW13227   0.939   5.562   6.791 -0.0134 -0.1536 -0.4673
 3929SOL    HW113228   0.895   5.636   6.749  0.8000  0.3675 -0.4393
 3929SOL    HW213229   0.999   5.603   6.854  0.1165 -0.8584 -0.1227
 3930SOL     OW13230   1.506   4.259   8.128 -0.2011  0.3408  0.3368
 3930SOL    HW113231   1.572   4.237   8.194 -0.1952  1.8966  0.8900
 3930SOL    HW213232   1.427   4.278   8.179 -1.0200 -1.1479 -0.2994
 3931SOL     OW13233   2.499   6.280   9.800  0.2743  0.3435  0.8701
 3931SOL    HW113234   2.560   6.291   9.727  1.0064  1.1406  1.5754
 3931SOL    HW213235   2.469   6.189   9.793 -2.7238  1.3415 -2.7372
 3932SOL     OW13236   2.391   6.707   7.649 -0.3934  0.0307  0.3774
 3932SOL    HW113237   2.483   6.681   7.644 -0.2172  0.4329  1.2391
 3932SOL    HW213238   2.372   6.709   7.743 -0.4537  2.6702  0.3888
 3933SOL     OW13239   0.802   5.173   7.450  0.3604 -0.9430  0.1324
 3933SOL    HW113240   0.869   5.126   7.499  0.4353 -1.9555 -0.8906
 3933SOL    HW213241   0.851   5.234   7.394  0.5427 -2.2753 -1.2414
 3934SOL     OW13242   1.367   4.955   9.657 -0.1671 -0.1682 -0.2821
 3934SOL    HW113243   1.412   4.872   9.675  0.4942  0.1452 -0.4657
 3934SOL    HW213244   1.350   4.952   9.563  0.4604  0.1945 -0.4113
 3935SOL     OW13245   1.277   4.041   7.012  0.2351 -0.5559  0.0056
 3935SOL    HW113246   1.194   3.997   6.992 -2.4624  2.8634  2.4280
 3935SOL    HW213247   1.305   4.003   7.096  0.7385 -1.1629 -0.4284
 3936SOL     OW13248   2.133   7.976   7.666  0.1981 -0.3901  0.0275
 3936SOL    HW113249   2.117   7.937   7.580  0.8364 -1.6508  0.4445
 3936SOL    HW213250   2.134   7.901   7.726  2.0179  0.1934  0.7980
 3937SOL     OW13251   1.309   5.491   7.620 -0.8761 -0.1220 -0.1287
 3937SOL    HW113252   1.336   5.572   7.664 -0.9878  0.3571 -0.9245
 3937SOL    HW213253   1.366   5.486   7.544 -2.7543  0.7308 -1.6752
 3938SOL     OW13254   7.902   6.206   6.563 -0.0791  0.0568 -0.2963
 3938SOL    HW113255   7.824   6.214   6.619  0.5556 -0.6503  0.7184
 3938SOL    HW213256   7.956   6.141   6.607  1.1885  0.6893 -0.8884
 3939SOL     OW13257   6.061   4.804   8.398  0.2514 -0.1788 -0.0890
 3939SOL    HW113258   5.976   4.779   8.435 -0.0336 -2.0793 -1.8655
 3939SOL    HW213259   6.113   4.724   8.401  0.8884  0.1307 -1.8681
 3940SOL     OW13260   1.867   4.644   7.658 -0.0343  0.1886  0.9416
 3940SOL    HW113261   1.938   4.580   7.649 -1.0767 -1.0987  1.4514
 3940SOL    HW213262   1.858   4.657   7.752  0.8598  1.9517  0.8256
 3941SOL     OW13263   0.426   4.171   8.117  0.0052  0.0632 -0.3488
 3941SOL    HW113264   0.384   4.206   8.039 -0.2776  0.6983  0.0740
 3941SOL    HW213265   0.514   4.148   8.089  0.0556  0.7203 -0.7461
 3942SOL     OW13266   1.462   7.734   6.758  0.8559  0.0511  0.0850
 3942SOL    HW113267   1.482   7.647   6.793 -2.1207 -1.8736 -2.5439
 3942SOL    HW213268   1.432   7.783   6.835  0.2962 -2.0235  1.2880
 3943SOL     OW13269   7.798   4.928   8.200 -0.3516 -0.2702  0.4315
 3943SOL    HW113270   7.869   4.965   8.254  0.2062 -1.9057  0.8637
 3943SOL    HW213271   7.821   4.953   8.111  0.8390 -0.8327  0.5575
 3944SOL     OW13272   0.005   5.579   6.952 -0.1151  0.0559 -0.5158
 3944SOL    HW113273   0.018   5.625   6.869  1.7614 -2.5123 -1.7783
 3944SOL    HW213274  -0.081   5.537   6.943 -0.2029  0.3027 -0.8719
 3945SOL     OW13275   1.432   5.329   7.228 -0.2518 -0.3284 -0.1085
 3945SOL    HW113276   1.482   5.378   7.294 -0.6180 -0.4542  0.2650
 3945SOL    HW213277   1.498   5.274   7.184 -0.3125 -1.8406  1.5785
 3946SOL     OW13278   7.192   5.407   8.248 -0.2452  0.0784 -0.0898
 3946SOL    HW113279   7.252   5.354   8.300 -0.9560 -0.5064  0.1425
 3946SOL    HW213280   7.118   5.350   8.230 -0.2538  0.4449 -1.3047
 3947SOL     OW13281   1.946   6.427   7.576 -0.0341 -0.1786 -0.4532
 3947SOL    HW113282   2.023   6.484   7.586 -0.4965  0.5565 -1.0100
 3947SOL    HW213283   1.950   6.396   7.486 -0.9311  0.6692 -0.7953
 3948SOL     OW13284   1.330   7.317   7.803  0.1775 -0.4984 -0.1980
 3948SOL    HW113285   1.390   7.352   7.737  0.5757  0.0712  0.4381
 3948SOL    HW213286   1.347   7.223   7.804  0.3605 -0.4742 -0.7111
 3949SOL     OW13287   0.384   2.715   7.808  0.0622 -0.0410  0.4809
 3949SOL    HW113288   0.343   2.698   7.723  0.4289 -1.3242  0.5437
 3949SOL    HW213289   0.325   2.777   7.851  0.0184  0.8707 -0.8174
 3950SOL     OW13290   0.996   3.729   6.041 -0.2579  0.0419  0.6226
 3950SOL    HW113291   0.978   3.754   6.131  0.8980  0.6919  0.6956
 3950SOL    HW213292   1.071   3.783   6.016 -1.0798  0.4851 -1.0109
 3951SOL     OW13293   0.080   4.890   8.029 -0.6603  0.0728  0.3223
 3951SOL    HW113294   0.082   4.985   8.015 -0.2479 -0.1219 -1.1148
 3951SOL    HW213295   0.070   4.853   7.941 -1.7371 -1.2064  0.9527
 3952SOL     OW13296   1.459   6.051   7.457  0.8183 -0.0295 -0.0806
 3952SOL    HW113297   1.427   6.071   7.369 -1.4493 -0.4272  0.5943
 3952SOL    HW213298   1.467   5.955   7.458  3.0521  0.1150 -0.5284
 3953SOL     OW13299   1.220   5.786   7.293 -0.2228  1.0615 -0.3718
 3953SOL    HW113300   1.215   5.819   7.383 -0.1975  0.7370 -0.2526
 3953SOL    HW213301   1.215   5.691   7.301  0.5065  0.9946 -0.6616
 3954SOL     OW13302   0.346   4.962   8.232  0.1467 -0.0881  0.4675
 3954SOL    HW113303   0.418   5.026   8.229  1.7224 -1.7019 -3.7884
 3954SOL    HW213304   0.374   4.892   8.174 -4.3572 -1.4850 -0.3944
 3955SOL     OW13305   2.126   3.350   8.607 -0.6509  0.1518  0.6068
 3955SOL    HW113306   2.061   3.392   8.663 -0.2961 -0.3901  1.4462
 3955SOL    HW213307   2.166   3.284   8.663 -0.9563 -1.0787 -0.5780
 3956SOL     OW13308   6.591   5.456   9.983 -0.8256  0.2548 -0.2223
 3956SOL    HW113309   6.605   5.407   9.902  1.8815  0.0074  0.3267
 3956SOL    HW213310   6.641   5.409  10.049  0.9192  3.0368  0.5959
 3957SOL     OW13311   7.859   4.314  11.190 -0.5150 -0.3917 -0.1938
 3957SOL    HW113312   7.897   4.394  11.155  0.9227  0.2737  2.5852
 3957SOL    HW213313   7.862   4.251  11.118  0.5132  1.3692 -1.7470
 3958SOL     OW13314   1.694   7.273   9.250  0.3679  0.2942  0.0510
 3958SOL    HW113315   1.657   7.353   9.287 -0.1428 -0.4277  1.1650
 3958SOL    HW213316   1.781   7.297   9.220 -0.0766  1.4432 -0.3615
 3959SOL     OW13317   2.815   3.895   9.237 -0.3223  0.7631 -0.1296
 3959SOL    HW113318   2.732   3.941   9.232 -0.9926 -0.2221  1.2147
 3959SOL    HW213319   2.853   3.922   9.321  0.1924  0.3505 -0.2187
 3960SOL     OW13320   2.004   3.372   9.552  0.3568  0.2573  0.9882
 3960SOL    HW113321   2.074   3.355   9.616  0.6603 -1.8495  0.1795
 3960SOL    HW213322   2.030   3.453   9.509  1.6517  0.1732  1.5729
 3961SOL     OW13323   7.566   6.375   8.740  0.6221 -0.0814 -0.3919
 3961SOL    HW113324   7.553   6.422   8.823 -1.5930 -1.3230  0.0434
 3961SOL    HW213325   7.606   6.440   8.682 -1.0806  1.9509  0.5757
 3962SOL     OW13326   1.432   4.993  11.265  0.2074 -0.2112 -0.0131
 3962SOL    HW113327   1.399   4.994  11.355  0.7865  1.0055  0.2000
 3962SOL    HW213328   1.354   5.006  11.211 -0.0802 -0.5028  0.3205
 3963SOL     OW13329   7.725   4.478   9.183 -0.2536 -0.6909 -0.2326
 3963SOL    HW113330   7.783   4.477   9.260  0.6282 -0.6409 -0.8760
 3963SOL    HW213331   7.650   4.530   9.210  0.4515  0.0766  0.3164
 3964SOL     OW13332   2.963   3.616  11.528  0.0858  0.1712 -0.0333
 3964SOL    HW113333   2.942   3.684  11.463 -1.5197  0.8923  1.1427
 3964SOL    HW213334   3.051   3.587  11.505  0.7568  2.4962 -0.7539
 3965SOL     OW13335   7.936   6.017  10.809 -0.0027  0.7494 -0.4662
 3965SOL    HW113336   7.949   6.053  10.721  0.1045  0.7890 -0.4347
 3965SOL    HW213337   7.846   6.039  10.830  0.0995  1.1093 -0.3994
 3966SOL     OW13338   0.846   6.917  11.379  0.6654  0.0220  0.3372
 3966SOL    HW113339   0.934   6.926  11.340 -0.3616  0.5203 -2.0499
 3966SOL    HW213340   0.813   6.834  11.344 -1.4839  1.9212 -2.6743
 3967SOL     OW13341   0.785   5.046   9.235  1.1932 -0.1858 -0.5277
 3967SOL    HW113342   0.805   5.074   9.324 -0.7177 -0.6348  0.1038
 3967SOL    HW213343   0.808   4.953   9.233  1.2406 -0.1742 -0.5051
 3968SOL     OW13344   2.685   4.504   9.682 -0.1197  0.1338 -0.0137
 3968SOL    HW113345   2.760   4.450   9.657  0.3792  0.1003  1.4090
 3968SOL    HW213346   2.629   4.506   9.605  1.7715  0.9100 -1.4479
 3969SOL     OW13347   7.756   5.183   9.966 -0.1394 -0.5858  1.0815
 3969SOL    HW113348   7.805   5.118   9.916  0.1122  1.5119 -1.6569
 3969SOL    HW213349   7.820   5.251   9.987 -1.4983  1.9994 -2.1934
 3970SOL     OW13350   2.004   5.406   9.558  1.1204  0.1815 -0.3008
 3970SOL    HW113351   1.979   5.472   9.494 -1.0023 -0.7625 -0.5200
 3970SOL    HW213352   2.006   5.453   9.641  0.0117  0.6315 -0.5136
 3971SOL     OW13353   7.740   7.093  12.175 -0.1307  0.2647 -0.1291
 3971SOL    HW113354   7.665   7.152  12.170 -0.8021 -0.4814  0.7152
 3971SOL    HW213355   7.727   7.030  12.105 -0.3371  0.0965  0.0587
 3972SOL     OW13356   1.051   4.431   8.361 -0.1305  0.1130  0.0358
 3972SOL    HW113357   1.000   4.480   8.426 -0.2554 -0.5568  0.4492
 3972SOL    HW213358   1.087   4.357   8.410 -1.8751 -1.5744 -1.0872
 3973SOL     OW13359   7.995   5.691  10.541 -0.2399 -0.4422  0.3696
 3973SOL    HW113360   8.038   5.683  10.455  1.5375  0.8642  1.0688
 3973SOL    HW213361   7.905   5.661  10.526 -0.3903  1.0554 -2.2933
 3974SOL     OW13362   7.459   4.036   9.956 -0.3714  0.2042 -0.1681
 3974SOL    HW113363   7.410   4.112   9.988  0.1515  0.4368  0.0816
 3974SOL    HW213364   7.547   4.048   9.991 -0.1007 -0.1471 -0.7263
 3975SOL     OW13365   0.350   4.179   8.868 -0.1654 -0.5025  0.2712
 3975SOL    HW113366   0.315   4.095   8.899 -1.1196  0.1769  1.1207
 3975SOL    HW213367   0.302   4.197   8.788 -3.8757  1.6364  2.6986
 3976SOL     OW13368   6.222   5.333  10.582 -0.1094  0.1396  0.1518
 3976SOL    HW113369   6.311   5.349  10.550 -1.3841  0.9223 -3.4771
 3976SOL    HW213370   6.196   5.250  10.540 -0.9958 -0.2551  1.4355
 3977SOL     OW13371   2.008   6.087   8.884 -0.1545 -0.2831  0.0965
 3977SOL    HW113372   2.038   6.000   8.859  0.3638 -0.2356  0.5317
 3977SOL    HW213373   2.070   6.115   8.952 -1.6460 -0.5055  1.6191
 3978SOL     OW13374   6.952   4.919  10.334 -0.6859  0.2094 -0.0439
 3978SOL    HW113375   6.920   4.966  10.411 -2.0920  0.5088 -0.7797
 3978SOL    HW213376   7.027   4.969  10.305 -0.5430  0.4685  0.7491
 3979SOL     OW13377   2.550   3.383   8.704 -1.1230  0.4357 -0.1368
 3979SOL    HW113378   2.614   3.454   8.692  1.0558 -1.0778  1.6286
 3979SOL    HW213379   2.543   3.342   8.618  1.6619 -0.3534 -0.1100
 3980SOL     OW13380   2.424   3.985  11.077 -0.4635  0.2695  0.0011
 3980SOL    HW113381   2.354   3.920  11.087 -0.6375  0.2176 -1.3041
 3980SOL    HW213382   2.500   3.945  11.118 -0.7532 -0.4584 -0.1500
 3981SOL     OW13383   7.866   3.612  11.165  0.3247 -0.1191  0.0910
 3981SOL    HW113384   7.955   3.579  11.152  0.4883  0.4841 -0.3944
 3981SOL    HW213385   7.877   3.693  11.215  0.1942  0.7577 -1.2484
 3982SOL     OW13386   6.158   3.610   9.182 -0.3423  0.7656  0.3014
 3982SOL    HW113387   6.075   3.568   9.161  0.7046 -0.6055 -1.2962
 3982SOL    HW213388   6.209   3.543   9.226  0.7419  0.8373 -0.7951
 3983SOL     OW13389   1.811   5.669   8.685 -0.0291 -0.4530  0.1603
 3983SOL    HW113390   1.890   5.720   8.665  1.8187 -2.4504  1.8077
 3983SOL    HW213391   1.839   5.578   8.677 -2.5743 -1.2511 -0.4330
 3984SOL     OW13392   0.542   3.963   9.996  0.1705  0.0164 -0.2338
 3984SOL    HW113393   0.456   3.926  10.012 -1.2490  1.3857 -3.6986
 3984SOL    HW213394   0.533   4.056  10.017  0.5216  0.3157 -1.3245
 3985SOL     OW13395   1.460   4.743  11.555 -0.1361 -0.1972 -0.3342
 3985SOL    HW113396   1.444   4.665  11.609 -0.6041 -0.4416 -0.8178
 3985SOL    HW213397   1.536   4.720  11.502 -0.4013 -0.4127 -0.6280
 3986SOL     OW13398   2.791   4.238   9.429 -0.1039 -0.2188  0.1839
 3986SOL    HW113399   2.839   4.296   9.488  0.6858 -0.4699 -0.1952
 3986SOL    HW213400   2.833   4.153   9.439 -1.4211 -0.8221  0.9356
 3987SOL     OW13401   2.232   6.451   9.218 -0.0644  0.1325 -0.3281
 3987SOL    HW113402   2.223   6.447   9.123  0.4223  2.3766 -0.5383
 3987SOL    HW213403   2.227   6.360   9.247  0.8871 -0.7173 -2.5869
 3988SOL     OW13404   1.923   2.788  11.219 -0.2329 -0.0179  0.4822
 3988SOL    HW113405   1.883   2.833  11.293  0.4400  1.5919 -0.0965
 3988SOL    HW213406   1.910   2.847  11.145 -1.3651 -1.8207 -0.8385
 3989SOL     OW13407   2.054   6.707   9.946 -0.2658  0.4833 -0.5854
 3989SOL    HW113408   2.083   6.765   9.875 -0.3708 -0.7819 -1.7120
 3989SOL    HW213409   1.962   6.731   9.959  0.1828  1.8382  0.2928
 3990SOL     OW13410   1.957   4.469   9.272 -0.2700  0.1075  0.1108
 3990SOL    HW113411   1.995   4.382   9.262  0.6474  0.5287 -0.1648
 3990SOL    HW213412   1.891   4.475   9.203 -1.2424 -0.8208  0.9210
 3991SOL     OW13413   0.777   3.333   8.904 -0.1142 -0.1324  0.2619
 3991SOL    HW113414   0.774   3.426   8.882  0.3847 -0.5117 -1.5964
 3991SOL    HW213415   0.689   3.312   8.935 -0.5598  0.7313 -0.3850
 3992SOL     OW13416   0.876   5.119   9.473  0.4605 -0.1796 -0.6317
 3992SOL    HW113417   0.918   5.200   9.445 -0.1075 -0.0780 -1.2113
 3992SOL    HW213418   0.947   5.068   9.514  1.5929 -0.7094 -3.0477
 3993SOL     OW13419   1.171   5.118   8.882 -0.6539 -0.2438  0.2337
 3993SOL    HW113420   1.182   5.027   8.909  0.6854 -0.0545  0.4060
 3993SOL    HW213421   1.127   5.160   8.957  1.2509 -0.1588  1.3536
 3994SOL     OW13422   7.239   6.549  11.574 -0.2360 -0.0995  0.4234
 3994SOL    HW113423   7.215   6.556  11.482  1.1275  0.2795  0.0723
 3994SOL    HW213424   7.162   6.511  11.616 -0.5979 -1.0132 -0.9956
 3995SOL     OW13425   1.233   4.025  11.673  0.2761 -0.0442 -0.0399
 3995SOL    HW113426   1.138   4.031  11.663  0.1843 -1.0166  0.1552
 3995SOL    HW213427   1.268   4.062  11.592 -0.2617  0.4497 -0.0535
 3996SOL     OW13428   7.419   3.600  10.399 -0.3434  0.0985 -0.0141
 3996SOL    HW113429   7.375   3.683  10.381 -1.7350 -0.5084  0.4657
 3996SOL    HW213430   7.405   3.586  10.493  1.2976  0.1041  0.2651
 3997SOL     OW13431   7.683   5.284   9.427 -0.0922  0.3810 -0.3060
 3997SOL    HW113432   7.622   5.339   9.378 -1.2969  0.0139  0.7341
 3997SOL    HW213433   7.737   5.241   9.360 -0.6929  1.0288 -1.2207
 3998SOL     OW13434   1.558   5.044   8.368  0.5347  0.2769  0.1196
 3998SOL    HW113435   1.499   5.108   8.328  0.6589 -0.0131 -0.5485
 3998SOL    HW213436   1.585   5.084   8.450 -1.2401  0.0574  0.8389
 3999SOL     OW13437   7.435   2.508   9.271 -0.4288 -0.1957  0.0196
 3999SOL    HW113438   7.340   2.494   9.270 -0.2662 -1.5573 -1.0797
 3999SOL    HW213439   7.452   2.560   9.193 -0.1805 -0.8511 -0.3733
 4000SOL     OW13440   0.449   6.017   9.615  0.2572 -0.9368 -0.1882
 4000SOL    HW113441   0.487   6.088   9.563 -0.5057 -0.0163  0.4820
 4000SOL    HW213442   0.481   5.937   9.572  2.4775 -0.2395  0.0013
 4001SOL     OW13443   7.224   4.286   7.685  0.0010  0.0917 -0.0547
 4001SOL    HW113444   7.186   4.363   7.727 -2.6030 -1.6001  0.9066
 4001SOL    HW213445   7.192   4.289   7.595 -0.0236  0.1572 -0.0436
 4002SOL     OW13446   2.242   2.759  12.408 -0.4719 -0.0343  0.1754
 4002SOL    HW113447   2.254   2.844  12.451  0.5644  0.1799 -0.5041
 4002SOL    HW213448   2.239   2.696  12.480 -1.8070  0.6122  0.7216
 4003SOL     OW13449   1.295   5.458   9.022  0.3342  0.1286 -0.0522
 4003SOL    HW113450   1.385   5.433   9.045  0.2073  0.2896  0.6185
 4003SOL    HW213451   1.240   5.389   9.060  0.1680 -0.0060 -0.5199
 4004SOL     OW13452   0.860   4.539   8.533 -0.2812  0.2556  0.7638
 4004SOL    HW113453   0.881   4.533   8.627  1.1067 -0.1790  0.4486
 4004SOL    HW213454   0.774   4.498   8.525 -0.0440 -0.4750  1.7350
 4005SOL     OW13455   1.852   3.222   9.771  0.2625  0.0185 -0.4787
 4005SOL    HW113456   1.877   3.271   9.693 -0.2433 -2.0865 -2.0733
 4005SOL    HW213457   1.884   3.274   9.844 -1.2127  3.2415 -1.9266
 4006SOL     OW13458   7.076   5.270   8.487  0.3368 -0.4462 -0.5729
 4006SOL    HW113459   7.135   5.196   8.504 -0.4823 -0.2890  3.9659
 4006SOL    HW213460   7.126   5.347   8.515 -0.9173  0.0254  0.4089
 4007SOL     OW13461   3.915   5.942  10.794 -0.4346 -0.1368  0.0478
 4007SOL    HW113462   3.905   5.859  10.749 -0.2175  0.2094 -0.6471
 4007SOL    HW213463   4.008   5.964  10.785 -0.3654 -0.1093  0.7482
 4008SOL     OW13464   0.500   6.422  10.571  0.1262  0.1402 -0.0523
 4008SOL    HW113465   0.547   6.452  10.492  0.1821  1.2487  0.3816
 4008SOL    HW213466   0.429   6.486  10.582  0.2825  0.1591  0.9411
 4009SOL     OW13467   0.395   4.907  10.329 -0.0044 -0.0328 -0.4862
 4009SOL    HW113468   0.427   4.973  10.266 -1.5146  0.7191 -0.5111
 4009SOL    HW213469   0.302   4.899  10.310 -0.4916  0.1470  1.5967
 4010SOL     OW13470   2.191   4.407  10.756 -0.0911 -0.3885 -0.4554
 4010SOL    HW113471   2.229   4.494  10.756 -0.1500 -0.3425  1.0190
 4010SOL    HW213472   2.150   4.399  10.670 -1.4328  1.6442 -0.0741
 4011SOL     OW13473   6.455   5.276  11.581  0.2407 -0.4531  0.0028
 4011SOL    HW113474   6.403   5.357  11.581 -1.4281 -1.4333  2.0762
 4011SOL    HW213475   6.505   5.280  11.499 -1.7615  1.4105 -1.2428
 4012SOL     OW13476   1.118   6.942  10.839  0.0123  0.7898 -0.2729
 4012SOL    HW113477   1.124   7.030  10.875 -1.1300  1.7101 -2.1635
 4012SOL    HW213478   1.024   6.923  10.838  0.2512 -0.5945  0.3729
 4013SOL     OW13479   7.451   3.446  10.174 -0.1848 -0.8461  0.0181
 4013SOL    HW113480   7.449   3.506  10.248  0.2392 -0.4827 -0.2587
 4013SOL    HW213481   7.530   3.470  10.126 -0.5093 -1.0021 -0.6063
 4014SOL     OW13482   2.481   5.478   8.797  0.2686 -0.3980  0.1146
 4014SOL    HW113483   2.560   5.439   8.760  0.0348 -1.0278  0.2477
 4014SOL    HW213484   2.420   5.485   8.723  0.6848  0.7526 -0.1358
 4015SOL     OW13485   0.110   4.155   9.534 -0.4711  0.4532  0.0099
 4015SOL    HW113486   0.029   4.206   9.531  0.1403  1.4684  0.4142
 4015SOL    HW213487   0.084   4.067   9.507 -1.6171  0.8851 -0.3426
 4016SOL     OW13488   2.759   3.952   8.108 -0.1226  0.3821 -0.4071
 4016SOL    HW113489   2.815   3.983   8.179  0.4257  1.2767 -1.2111
 4016SOL    HW213490   2.775   3.857   8.105  1.0667  0.5712 -0.3797
 4017SOL     OW13491   0.426   4.312   9.744 -0.1311 -0.1096 -0.0652
 4017SOL    HW113492   0.513   4.350   9.729  0.0672 -0.4726  0.1542
 4017SOL    HW213493   0.404   4.269   9.662 -1.2358  2.1529 -1.0508
 4018SOL     OW13494   1.777   3.866   9.163  0.2964  0.0559  0.0629
 4018SOL    HW113495   1.791   3.920   9.085  2.7419  1.2029  1.1693
 4018SOL    HW213496   1.782   3.929   9.236 -0.6067 -1.1686  1.2269
 4019SOL     OW13497   0.648   3.391  10.215 -0.1602 -0.4115  0.8946
 4019SOL    HW113498   0.613   3.433  10.136  1.8574  0.9402  0.6285
 4019SOL    HW213499   0.642   3.459  10.282  0.6524 -0.6019  1.1686
 4020SOL     OW13500   1.816   3.205  11.762 -0.1224 -0.2105  0.4504
 4020SOL    HW113501   1.881   3.246  11.706  0.2159 -0.4298  0.6727
 4020SOL    HW213502   1.859   3.199  11.848 -0.5159 -0.1587  0.6557
 4021SOL     OW13503   1.084   3.114   8.287  0.3187  0.1135  0.6486
 4021SOL    HW113504   0.996   3.078   8.280 -0.6947  2.5977 -0.4208
 4021SOL    HW213505   1.104   3.110   8.381 -0.8659 -0.6098  0.8824
 4022SOL     OW13506   0.270   3.879  12.493 -0.2845  0.0124 -0.0857
 4022SOL    HW113507   0.283   3.946  12.426  1.3790  0.0706  0.2594
 4022SOL    HW213508   0.225   3.925  12.564 -0.0423  0.5086 -0.2495
 4023SOL     OW13509   0.873   5.417   9.690 -0.3512 -0.0686 -0.1991
 4023SOL    HW113510   0.839   5.342   9.740 -2.9853  0.3263 -1.2011
 4023SOL    HW213511   0.900   5.379   9.606  3.3631 -0.6120  1.0577
 4024SOL     OW13512   0.928   5.729  11.476  0.3406 -0.2345 -0.1019
 4024SOL    HW113513   0.900   5.778  11.553 -0.6149  1.3425 -1.3890
 4024SOL    HW213514   0.886   5.643  11.486 -1.4680  0.6327  0.1593
 4025SOL     OW13515   1.802   6.795  10.047  0.0811 -0.0067 -0.3947
 4025SOL    HW113516   1.734   6.859  10.027  0.1322 -0.5377 -2.5007
 4025SOL    HW213517   1.754   6.716  10.073 -0.0837 -0.0754 -0.9013
 4026SOL     OW13518   2.267   4.278   9.591  0.7113  0.4844  0.3332
 4026SOL    HW113519   2.252   4.372   9.596  0.6769  0.5706 -1.0305
 4026SOL    HW213520   2.362   4.268   9.598  0.7624  0.6719 -0.0496
 4027SOL     OW13521   7.456   2.785   9.968 -0.1914 -0.2430  0.1734
 4027SOL    HW113522   7.452   2.708   9.912  0.5208 -1.5409  1.8359
 4027SOL    HW213523   7.535   2.773  10.021 -0.1803  1.5202  0.6336
 4028SOL     OW13524   2.789   4.038  10.484 -0.1666  0.1423  0.1998
 4028SOL    HW113525   2.733   4.086  10.545 -0.6377  0.1914 -0.2567
 4028SOL    HW213526   2.728   4.005  10.418  0.4529  0.9433 -0.7941
 4029SOL     OW13527   0.310   3.898   8.042 -0.2083 -0.2112 -0.0272
 4029SOL    HW113528   0.290   3.821   8.095  0.8788  0.0254  0.7672
 4029SOL    HW213529   0.285   3.972   8.097 -0.4473  0.0253 -0.4462
 4030SOL     OW13530   0.394   4.706   8.163  0.1438  0.4214  0.1022
 4030SOL    HW113531   0.308   4.707   8.205 -0.1178  2.0472 -0.3600
 4030SOL    HW213532   0.426   4.617   8.173 -1.4346 -0.1115  0.6233
 4031SOL     OW13533   2.171   4.810   8.869  0.2339  0.3700  0.7433
 4031SOL    HW113534   2.152   4.884   8.927  1.3746 -0.1665  1.8201
 4031SOL    HW213535   2.249   4.769   8.905  0.1530 -0.8381 -0.3622
 4032SOL     OW13536   1.231   5.290   9.854 -0.3111  0.0892 -0.6892
 4032SOL    HW113537   1.194   5.316   9.938 -2.1997 -2.0840 -0.7546
 4032SOL    HW213538   1.322   5.266   9.874 -1.5388 -3.4042  1.4767
 4033SOL     OW13539   7.919   4.481   9.415 -0.0596 -0.8022  0.3749
 4033SOL    HW113540   7.855   4.530   9.467  1.0564  1.1614  0.0321
 4033SOL    HW213541   8.004   4.520   9.440  0.5941 -0.3354 -2.2500
 4034SOL     OW13542   0.941   5.500   8.757  0.0277 -0.0941 -0.2344
 4034SOL    HW113543   0.999   5.463   8.690 -0.2286 -0.5657 -0.1980
 4034SOL    HW213544   0.890   5.425   8.788 -0.4646  0.2868 -0.1281
 4035SOL     OW13545   2.854   4.438   7.546  0.0919 -0.5751  0.6221
 4035SOL    HW113546   2.924   4.373   7.532 -0.9451 -1.8885  1.3664
 4035SOL    HW213547   2.776   4.396   7.509 -0.3904  0.7450  0.0993
 4036SOL     OW13548   0.346   4.183  10.410 -0.1083  0.4736  0.0358
 4036SOL    HW113549   0.256   4.149  10.408 -0.2140  0.7651 -0.1743
 4036SOL    HW213550   0.399   4.109  10.440 -0.0878 -0.4122 -2.0714
 4037SOL     OW13551   0.848   3.866  10.572 -0.3628 -0.5164  0.2410
 4037SOL    HW113552   0.903   3.792  10.599 -3.3428 -2.8110  0.5991
 4037SOL    HW213553   0.852   3.927  10.646  1.2738 -0.8242  0.4354
 4038SOL     OW13554   1.128   3.670  10.098 -0.2364  0.3043 -0.0756
 4038SOL    HW113555   1.190   3.736  10.128  0.1512  0.0757 -0.3664
 4038SOL    HW213556   1.043   3.703  10.125 -0.0953  1.1713 -0.6682
 4039SOL     OW13557   7.772   4.078  11.608 -0.0065  0.5372  0.1196
 4039SOL    HW113558   7.792   4.159  11.655 -4.5555  1.4051  1.0397
 4039SOL    HW213559   7.761   4.107  11.517  3.9794 -0.2886 -0.8181
 4040SOL     OW13560   1.114   5.091  10.278  0.3446  0.1759  0.5406
 4040SOL    HW113561   1.093   5.081  10.371  0.5415 -0.7526  0.5043
 4040SOL    HW213562   1.119   5.001  10.246 -1.7565  0.4929 -0.8532
 4041SOL     OW13563   1.947   4.282  12.140  0.1176  0.0499  0.0212
 4041SOL    HW113564   2.013   4.344  12.107 -1.0695  0.8884 -0.9027
 4041SOL    HW213565   1.886   4.337  12.188 -1.2134 -0.2871 -1.2037
 4042SOL     OW13566   7.362   4.166   6.761 -0.1602  0.1356  0.1462
 4042SOL    HW113567   7.363   4.236   6.696  1.1463 -0.1895 -0.2236
 4042SOL    HW213568   7.276   4.126   6.753 -0.1651  0.3656 -1.1107
 4043SOL     OW13569   2.566   6.434   9.162  0.0013 -0.3038 -0.8140
 4043SOL    HW113570   2.606   6.439   9.075 -1.4734 -0.9780 -1.5729
 4043SOL    HW213571   2.495   6.497   9.160  0.7234  0.5898  0.3720
 4044SOL     OW13572   2.988   5.195   9.627 -0.4462 -0.0506  0.1108
 4044SOL    HW113573   2.908   5.218   9.579 -0.1000  0.6045 -0.1576
 4044SOL    HW213574   2.987   5.099   9.629  0.0479 -0.1823 -2.1549
 4045SOL     OW13575   2.245   3.115   8.738 -0.3666 -0.0062  0.1142
 4045SOL    HW113576   2.309   3.169   8.784  0.7770 -0.5951 -0.7277
 4045SOL    HW213577   2.276   3.025   8.751 -2.1212 -0.4777  1.3101
 4046SOL     OW13578   1.248   2.575   8.547 -0.0844 -0.4802 -0.0419
 4046SOL    HW113579   1.215   2.489   8.571  0.9501 -0.8423  0.1594
 4046SOL    HW213580   1.249   2.624   8.629 -2.4288  0.3751 -0.4613
 4047SOL     OW13581   1.726   6.085   9.968 -0.4406 -0.6583  0.1425
 4047SOL    HW113582   1.810   6.115   9.931  0.1153 -0.1168  1.7766
 4047SOL    HW213583   1.726   5.990   9.953 -0.6323 -0.3884 -1.9457
 4048SOL     OW13584   1.230   5.690   9.808 -0.0082 -1.0733  0.6294
 4048SOL    HW113585   1.152   5.740   9.783  1.2565  0.0507 -1.3565
 4048SOL    HW213586   1.198   5.624   9.869 -2.3957 -0.2466  0.3684
 4049SOL     OW13587   7.123   4.844   9.922 -0.1621  0.3336  0.0625
 4049SOL    HW113588   7.127   4.753   9.892 -1.1361 -0.6389  2.5975
 4049SOL    HW213589   7.042   4.879   9.886 -0.6069 -0.3480  0.3893
 4050SOL     OW13590   1.310   3.628   9.436 -0.1229  0.5340 -0.1999
 4050SOL    HW113591   1.237   3.688   9.430 -0.3202  0.3996  0.7348
 4050SOL    HW213592   1.350   3.646   9.521 -0.1671 -0.6124  0.0933
 4051SOL     OW13593   0.761   7.529   9.317  0.1193  0.0255 -0.0721
 4051SOL    HW113594   0.855   7.524   9.297 -0.2533 -0.5191 -1.7963
 4051SOL    HW213595   0.754   7.489   9.404  1.4574  0.0024  0.0584
 4052SOL     OW13596   1.361   2.222   9.375 -0.1553 -0.5554  0.6048
 4052SOL    HW113597   1.342   2.296   9.432  0.5387  0.6290 -0.6310
 4052SOL    HW213598   1.457   2.218   9.373 -0.1513 -0.3505 -0.6973
 4053SOL     OW13599   0.014   5.432  10.377 -0.1954 -0.3800  0.3541
 4053SOL    HW113600   0.007   5.336  10.375 -0.5951 -0.3418 -0.6651
 4053SOL    HW213601   0.098   5.449  10.420  0.0807 -1.1996  0.1613
 4054SOL     OW13602   6.967   3.906   9.491  0.0978  0.2136 -0.3066
 4054SOL    HW113603   6.985   3.981   9.434 -0.3444  1.1658  0.7587
 4054SOL    HW213604   7.022   3.921   9.568  1.7081 -1.7625 -1.0040
 4055SOL     OW13605   0.276   5.193   9.637  0.3540 -0.0539 -0.5676
 4055SOL    HW113606   0.189   5.155   9.648  1.4521 -2.3326  1.0202
 4055SOL    HW213607   0.285   5.208   9.543 -1.6836  0.1806 -0.7663
 4056SOL     OW13608   3.287   5.587   9.087  1.0409 -0.1758  0.0279
 4056SOL    HW113609   3.243   5.546   9.161  0.7831  1.1098  0.6324
 4056SOL    HW213610   3.216   5.614   9.028  1.0327  1.1157  0.5851
 4057SOL     OW13611   7.709   6.487  11.711  0.3079 -0.3025 -0.4049
 4057SOL    HW113612   7.718   6.446  11.625  2.2336 -0.0842 -0.3516
 4057SOL    HW213613   7.660   6.423  11.763 -0.4786 -0.6301 -1.5246
 4058SOL     OW13614   1.757   5.946   9.024 -0.1045 -0.0511 -0.1134
 4058SOL    HW113615   1.767   6.021   9.082 -0.2977  0.1088 -0.2850
 4058SOL    HW213616   1.845   5.907   9.020  0.0867  0.3865 -0.3188
 4059SOL     OW13617   7.583   3.941   9.655  0.5066 -0.3133 -0.3863
 4059SOL    HW113618   7.509   3.904   9.607  1.2187 -1.9471 -0.2634
 4059SOL    HW213619   7.556   3.936   9.747  0.5090 -0.3038 -0.3852
 4060SOL     OW13620   0.304   4.292   7.887  0.8700  0.2372  0.4796
 4060SOL    HW113621   0.214   4.267   7.868  0.1993  1.8198  1.4172
 4060SOL    HW213622   0.313   4.381   7.854  2.4561 -0.2727 -0.6110
 4061SOL     OW13623   1.735   0.109  10.090 -0.2491 -0.3175  0.5212
 4061SOL    HW113624   1.773   0.050  10.156 -2.2489  0.5436  2.5702
 4061SOL    HW213625   1.641   0.091  10.092 -0.4031 -0.1182 -2.0344
 4062SOL     OW13626   2.802   5.529  11.667 -0.4664  0.2776  0.0403
 4062SOL    HW113627   2.823   5.569  11.582  0.2507 -0.7346 -0.2797
 4062SOL    HW213628   2.887   5.502  11.702 -0.9854 -1.8102 -0.2001
 4063SOL     OW13629   0.012   5.429  11.719 -0.0095  0.1701  0.0755
 4063SOL    HW113630   0.102   5.409  11.692 -0.1041 -1.0668  0.5811
 4063SOL    HW213631   0.016   5.433  11.815 -0.5715 -0.3543  0.1254
 4064SOL     OW13632   6.867   5.833  10.247  0.1626  0.1612 -0.1823
 4064SOL    HW113633   6.909   5.821  10.333  1.5227  0.3858 -0.7859
 4064SOL    HW213634   6.847   5.744  10.218 -2.0119  0.1482  1.1362
 4065SOL     OW13635   0.625   4.459  11.201 -0.0172  0.1388 -0.2743
 4065SOL    HW113636   0.665   4.525  11.257 -0.1324  1.5784 -1.8268
 4065SOL    HW213637   0.558   4.506  11.151  0.5311 -0.9024 -2.1022
 4066SOL     OW13638   7.902   3.643   9.977 -0.2471 -0.1907  0.2212
 4066SOL    HW113639   7.979   3.586   9.968 -0.6118 -0.5562 -0.7678
 4066SOL    HW213640   7.829   3.583   9.988 -0.2369  0.1797  2.9698
 4067SOL     OW13641   7.250   4.375  11.530 -0.5788  0.2847  0.3033
 4067SOL    HW113642   7.227   4.455  11.483 -2.5609 -0.6131 -0.3537
 4067SOL    HW213643   7.291   4.320  11.464  0.3188  0.5211  0.6378
 4068SOL     OW13644   7.802   4.661   9.607  0.1136 -0.0544 -0.2659
 4068SOL    HW113645   7.868   4.636   9.671 -0.7761  0.1506  0.7674
 4068SOL    HW213646   7.738   4.713   9.657 -0.4356  0.3931 -1.3891
 4069SOL     OW13647   0.639   4.323   7.787  0.6511  0.1359 -0.2927
 4069SOL    HW113648   0.659   4.257   7.721 -1.0045 -1.0081  0.3013
 4069SOL    HW213649   0.658   4.281   7.871 -0.1425  0.4954  0.0777
 4070SOL     OW13650   1.964   3.701   8.866  0.2739  0.2302 -0.3032
 4070SOL    HW113651   1.993   3.734   8.951  0.9619  0.7602 -0.7281
 4070SOL    HW213652   1.995   3.767   8.803 -2.3506  1.1407 -0.7624
 4071SOL     OW13653   0.473   4.402  10.808  0.0840  0.0709 -0.0759
 4071SOL    HW113654   0.565   4.412  10.784  0.2330  0.1184  0.4808
 4071SOL    HW213655   0.461   4.308  10.820 -0.3497 -0.1058 -1.6535
 4072SOL     OW13656   0.863   4.830   9.665 -0.3596 -0.1563  0.0119
 4072SOL    HW113657   0.932   4.886   9.701  0.5411 -1.5695  0.5225
 4072SOL    HW213658   0.910   4.765   9.613 -1.4684  0.1783 -1.4923
 4073SOL     OW13659   0.081   3.330   8.394 -0.0351 -0.0290 -0.8074
 4073SOL    HW113660   0.053   3.353   8.482 -0.5571  1.1484 -1.2558
 4073SOL    HW213661   0.010   3.275   8.360  0.7734 -1.5946 -0.0638
 4074SOL     OW13662   1.856   6.822  11.756  0.1191 -0.1641 -0.0170
 4074SOL    HW113663   1.774   6.789  11.717 -0.4004 -0.0562  0.9604
 4074SOL    HW213664   1.834   6.839  11.847  1.2367 -0.1070  0.2563
 4075SOL     OW13665   1.107   4.809   6.878  0.5572  0.5800 -0.1281
 4075SOL    HW113666   1.129   4.780   6.789  2.2157  1.2882  0.0062
 4075SOL    HW213667   1.185   4.790   6.929  0.0835  1.3182  0.9076
 4076SOL     OW13668   2.303   4.021   9.831 -0.2339 -0.1596 -0.0657
 4076SOL    HW113669   2.382   4.056   9.791 -0.0210  2.1952  2.1458
 4076SOL    HW213670   2.333   3.943   9.879  0.6095  0.2684  0.1140
 4077SOL     OW13671   0.645   5.105   9.612 -0.3720 -0.4540  0.0135
 4077SOL    HW113672   0.599   5.049   9.549  0.8049 -0.9153 -0.4711
 4077SOL    HW213673   0.734   5.111   9.578  0.1206 -0.1622  1.2883
 4078SOL     OW13674   0.782   4.772  10.634  0.0701 -0.0580  0.1488
 4078SOL    HW113675   0.718   4.749  10.567 -0.4241  2.1925 -0.2534
 4078SOL    HW213676   0.860   4.799  10.585 -0.0950  1.0415  0.4488
 4079SOL     OW13677   1.803   4.344  10.099 -0.3403  0.0321 -0.2609
 4079SOL    HW113678   1.778   4.431  10.066 -1.2345  0.2143  0.8395
 4079SOL    HW213679   1.843   4.301  10.024 -0.2878  1.2390 -0.9516
 4080SOL     OW13680   0.513   6.610  11.152 -0.4774  0.1325 -0.2666
 4080SOL    HW113681   0.502   6.522  11.190  0.9032 -0.2409 -0.6543
 4080SOL    HW213682   0.446   6.615  11.085 -0.6355 -0.6116 -0.1808
 4081SOL     OW13683   1.659   1.432   8.174 -0.1965  0.2502 -0.0881
 4081SOL    HW113684   1.742   1.471   8.149  0.5003 -1.5829 -0.8365
 4081SOL    HW213685   1.593   1.486   8.133  0.6087  1.6745  0.4207
 4082SOL     OW13686   2.024   4.723   8.126 -0.2651 -0.0802  0.0183
 4082SOL    HW113687   2.087   4.655   8.151 -0.7000 -0.4200  0.1928
 4082SOL    HW213688   2.022   4.782   8.201  0.4339  0.3678 -0.3043
 4083SOL     OW13689   1.796   4.369   9.074  0.0546  0.2979 -0.7643
 4083SOL    HW113690   1.701   4.379   9.081 -0.0415 -1.2665  0.5032
 4083SOL    HW213691   1.821   4.432   9.006 -2.0918 -0.4455 -2.3532
 4084SOL     OW13692   0.288   4.517   9.247 -0.1422  0.1697 -0.1284
 4084SOL    HW113693   0.272   4.495   9.155 -0.6166  0.0436 -0.0209
 4084SOL    HW213694   0.359   4.581   9.244 -0.4596  0.5105 -0.6152
 4085SOL     OW13695   1.484   6.019   9.000  0.3778 -0.2580 -0.4767
 4085SOL    HW113696   1.577   5.995   8.997  0.8319  1.4079 -0.5790
 4085SOL    HW213697   1.482   6.112   8.981 -1.1921  0.0724  1.0113
 4086SOL     OW13698   0.669   4.150  11.079 -0.0546  0.1781  0.2876
 4086SOL    HW113699   0.654   4.135  11.172  0.2018  0.1567  0.3274
 4086SOL    HW213700   0.737   4.217  11.076 -0.9462  1.0992  0.1100
 4087SOL     OW13701   2.788   3.904   9.810  0.0470 -0.0963  0.6160
 4087SOL    HW113702   2.808   3.814   9.786 -0.3564  0.0907 -0.4694
 4087SOL    HW213703   2.868   3.936   9.852  0.5330 -0.6516  0.1227
 4088SOL     OW13704   0.175   6.912   9.149 -0.4451  0.0370  0.0937
 4088SOL    HW113705   0.182   6.817   9.159 -1.1876  0.0033  0.3630
 4088SOL    HW213706   0.111   6.924   9.078  0.3803  0.3304 -0.6121
 4089SOL     OW13707   0.280   5.189   9.357  0.0090  0.0717 -0.1526
 4089SOL    HW113708   0.232   5.272   9.357  0.7338  0.5093 -0.5443
 4089SOL    HW213709   0.295   5.169   9.264  0.2273 -0.2620 -0.0494
 4090SOL     OW13710   7.713   5.282   8.541 -0.3511  0.0109 -0.4997
 4090SOL    HW113711   7.751   5.216   8.599 -1.8047 -1.2060 -0.8690
 4090SOL    HW213712   7.787   5.336   8.514  0.7260 -0.8648  0.5950
 4091SOL     OW13713   1.404   3.985   9.887  0.1763 -0.2740  0.1306
 4091SOL    HW113714   1.466   3.963   9.818  0.8367  0.1503  0.5735
 4091SOL    HW213715   1.318   3.971   9.848  0.5363 -2.0610 -0.1340
 4092SOL     OW13716   0.708   4.559   9.965 -0.2039  0.3204 -0.4122
 4092SOL    HW113717   0.764   4.481   9.968  0.7038  0.9589 -0.4546
 4092SOL    HW213718   0.624   4.529  10.000  0.4387 -0.4387  0.5492
 4093SOL     OW13719   1.239   5.527  10.021  0.3546 -0.0632  0.2043
 4093SOL    HW113720   1.297   5.581  10.074  0.4537 -1.0703  1.1622
 4093SOL    HW213721   1.200   5.465  10.083  1.9665 -2.6288 -1.1420
 4094SOL     OW13722   2.468   5.875   9.348  0.6912 -0.0116 -0.1007
 4094SOL    HW113723   2.439   5.891   9.258 -0.8161  0.7462  0.4793
 4094SOL    HW213724   2.460   5.960   9.391 -0.0496 -0.6842  1.1298
 4095SOL     OW13725   0.504   5.412  10.033 -0.4336 -0.1485  0.6168
 4095SOL    HW113726   0.573   5.478  10.039  0.0840 -0.6853  0.6334
 4095SOL    HW213727   0.442   5.437  10.101  0.3168 -0.3210  1.3864
 4096SOL     OW13728   0.216   4.116  10.099  0.2574  0.4769 -0.1379
 4096SOL    HW113729   0.158   4.107  10.023  0.0660 -1.1893  0.1767
 4096SOL    HW213730   0.300   4.142  10.062  0.3144 -0.8511 -0.9933
 4097SOL     OW13731   0.942   5.139  11.411  0.8894 -0.1096  0.2280
 4097SOL    HW113732   0.964   5.232  11.417 -0.1138  0.0433  2.3465
 4097SOL    HW213733   0.917   5.126  11.320 -0.3002  2.0267  0.1933
 4098SOL     OW13734   1.086   5.297   9.097  0.1318 -0.2907  0.1574
 4098SOL    HW113735   0.994   5.321   9.092  0.2155 -0.0433 -0.2971
 4098SOL    HW213736   1.120   5.345   9.173 -0.3161 -1.0957  0.8763
 4099SOL     OW13737   0.563   5.549  10.425 -0.3910  0.0885  0.2932
 4099SOL    HW113738   0.556   5.615  10.494 -0.2601  0.8033 -0.3562
 4099SOL    HW213739   0.607   5.595  10.353 -3.2756  0.3472 -1.4495
 4100SOL     OW13740   6.905   2.710   8.870  0.4463 -0.1764 -0.1233
 4100SOL    HW113741   6.813   2.700   8.892  0.1891 -0.3268 -1.2014
 4100SOL    HW213742   6.913   2.801   8.841  0.8510  0.1233  0.8882
 4101SOL     OW13743   0.783   2.666   9.939 -0.3798 -0.5844 -0.2051
 4101SOL    HW113744   0.815   2.726  10.006 -0.8556 -0.5577 -0.0032
 4101SOL    HW213745   0.736   2.722   9.877 -1.0602 -0.7888  0.1285
 4102SOL     OW13746   1.028   6.177   9.495  0.4989  1.0616 -0.3290
 4102SOL    HW113747   0.939   6.141   9.498  0.2180  1.5440 -2.0429
 4102SOL    HW213748   1.082   6.111   9.538 -0.9163  1.6381  2.5885
 4103SOL     OW13749   1.073   3.711  10.618  0.0673  0.0760  0.1665
 4103SOL    HW113750   1.089   3.631  10.667 -2.6329 -2.1199 -2.2004
 4103SOL    HW213751   1.156   3.729  10.573  0.7134 -1.4085  0.7119
 4104SOL     OW13752   2.854   7.060   9.388 -0.0041  0.1815  0.0561
 4104SOL    HW113753   2.881   7.073   9.297  0.0242  1.1340  0.1923
 4104SOL    HW213754   2.876   6.969   9.407  0.4518  0.1204 -0.7316
 4105SOL     OW13755   7.066   7.329  10.062 -0.9215 -0.1962  0.4892
 4105SOL    HW113756   7.036   7.374  10.141 -0.9440  1.5366 -0.4592
 4105SOL    HW213757   7.024   7.376   9.990 -1.4174 -2.1325 -0.5773
 4106SOL     OW13758   7.129   5.888  11.439  0.7959  0.0072  0.0278
 4106SOL    HW113759   7.188   5.857  11.370 -0.1151  0.4080 -0.9657
 4106SOL    HW213760   7.079   5.959  11.397 -0.6140 -0.5411  0.7238
 4107SOL     OW13761   2.094   7.759  11.968 -0.1489 -0.2659 -0.3509
 4107SOL    HW113762   2.077   7.728  12.057  0.3651 -0.6904 -0.3957
 4107SOL    HW213763   2.139   7.686  11.926  0.1876  0.1807 -0.7662
 4108SOL     OW13764   0.389   3.096   8.476  0.5860  0.7169 -0.9882
 4108SOL    HW113765   0.463   3.045   8.443  0.3715  0.1193 -0.5685
 4108SOL    HW213766   0.357   3.145   8.400  0.4154 -0.2469 -1.5469
 4109SOL     OW13767   0.925   4.083   8.344 -0.1662  0.7034  0.0134
 4109SOL    HW113768   0.880   3.998   8.337  1.2680  0.0203 -1.7780
 4109SOL    HW213769   0.956   4.087   8.434  0.5784 -1.1534 -0.1237
 4110SOL     OW13770   0.271   5.712  10.291  0.2426  0.3103 -0.4773
 4110SOL    HW113771   0.358   5.707  10.250  0.5377 -1.3628  0.2405
 4110SOL    HW213772   0.289   5.731  10.383 -0.0856 -0.5395 -0.2231
 4111SOL     OW13773   0.450   5.628   8.824 -0.3749 -0.3862 -0.5390
 4111SOL    HW113774   0.529   5.639   8.878  0.2465 -0.5908 -1.3805
 4111SOL    HW213775   0.415   5.716   8.814  0.1661 -0.1876 -0.7542
 4112SOL     OW13776   7.283   5.465  10.779 -0.2669  0.1344 -0.4956
 4112SOL    HW113777   7.280   5.541  10.837  0.8437 -0.6559  0.6445
 4112SOL    HW213778   7.195   5.428  10.784 -1.0375  1.6993 -1.6154
 4113SOL     OW13779   1.416   6.589   8.831 -0.6381 -0.3444 -0.0644
 4113SOL    HW113780   1.355   6.517   8.819 -0.4673 -0.3190 -1.2031
 4113SOL    HW213781   1.431   6.623   8.743 -2.1186  2.2808  0.6138
 4114SOL     OW13782   1.071   0.335   7.351 -0.7801  0.6093 -0.5091
 4114SOL    HW113783   1.086   0.247   7.316  1.2213  0.2415  1.1063
 4114SOL    HW213784   1.017   0.378   7.284 -1.3777 -1.6477 -1.5824
 4115SOL     OW13785   3.019   6.438   9.708  0.0816  0.5315 -0.0939
 4115SOL    HW113786   2.927   6.422   9.729 -0.0152 -1.3260 -1.6536
 4115SOL    HW213787   3.043   6.365   9.650  1.9897  2.0036 -1.2623
 4116SOL     OW13788   0.126   3.375   9.170 -0.0159  0.6412  0.3291
 4116SOL    HW113789   0.138   3.469   9.158 -1.5806  0.6762 -1.4013
 4116SOL    HW213790   0.032   3.361   9.156  0.0539 -1.0767  1.3786
 4117SOL     OW13791   1.275   4.629   8.798  0.6166 -0.2146  0.1830
 4117SOL    HW113792   1.345   4.694   8.789  1.5820 -1.1863  0.4860
 4117SOL    HW213793   1.289   4.568   8.726  0.2205 -0.5479  0.3823
 4118SOL     OW13794   1.656   4.797   9.686  0.5872  0.3576  0.0095
 4118SOL    HW113795   1.702   4.881   9.683 -0.8714  1.2247  0.8736
 4118SOL    HW213796   1.713   4.737   9.638  3.0150  1.1555  1.6771
 4119SOL     OW13797   2.286   4.300   8.448 -0.6517  0.0010  0.3104
 4119SOL    HW113798   2.314   4.299   8.356  1.7572 -0.5056  0.9896
 4119SOL    HW213799   2.340   4.367   8.489 -2.4603  0.9927  1.2087
 4120SOL     OW13800   1.574   5.569   8.370  0.2233  0.3356 -0.5484
 4120SOL    HW113801   1.669   5.575   8.379  0.3441 -2.1595  0.9195
 4120SOL    HW213802   1.556   5.475   8.366 -2.0943  0.7672 -2.5598
 4121SOL     OW13803   0.269   7.653  11.933 -0.3972 -0.5731  0.4045
 4121SOL    HW113804   0.358   7.635  11.903  0.0321 -0.3232  1.4776
 4121SOL    HW213805   0.242   7.575  11.981  0.6797  0.6496  3.2583
 4122SOL     OW13806   1.846   5.324  10.455 -0.3212  0.0330  0.1001
 4122SOL    HW113807   1.922   5.266  10.458 -0.5216 -0.2009  0.7193
 4122SOL    HW213808   1.771   5.265  10.460 -0.5289  0.3363  0.5914
 4123SOL     OW13809   1.539   5.120   8.838 -0.3617 -0.0699 -1.0028
 4123SOL    HW113810   1.461   5.173   8.826  0.4223  2.0050  1.8655
 4123SOL    HW213811   1.514   5.053   8.901 -0.5788 -1.3891 -2.4358
 4124SOL     OW13812   2.068   4.671   8.661 -0.3254 -0.2160 -0.0157
 4124SOL    HW113813   2.138   4.615   8.628  1.0144  1.2481  0.2429
 4124SOL    HW213814   2.100   4.702   8.746 -1.4878  0.1320  0.3119
 4125SOL     OW13815   7.088   4.563   7.984  0.0859  0.3402  0.3082
 4125SOL    HW113816   7.152   4.573   7.914  0.6125  0.3576  0.7882
 4125SOL    HW213817   7.068   4.653   8.010 -2.0210  0.4849 -1.5057
 4126SOL     OW13818   0.611   3.467   9.924 -0.2624  0.4546 -0.7255
 4126SOL    HW113819   0.576   3.474   9.835  0.1096 -0.5651 -0.9568
 4126SOL    HW213820   0.613   3.558   9.956 -0.8371  0.7798 -1.5766
 4127SOL     OW13821   6.788   5.853   9.923 -0.0770  0.4728 -0.1116
 4127SOL    HW113822   6.826   5.937   9.898 -2.3453  1.8720  0.7832
 4127SOL    HW213823   6.699   5.856   9.887  0.5454 -2.7014 -2.3044
 4128SOL     OW13824   0.520   5.924  11.213 -0.0893  0.0855 -0.0746
 4128SOL    HW113825   0.466   5.973  11.275 -1.5154 -1.0997 -0.3333
 4128SOL    HW213826   0.464   5.912  11.137  1.0606  0.0620 -0.9524
 4129SOL     OW13827   0.500   4.682   9.253 -0.0087 -0.4775  0.0763
 4129SOL    HW113828   0.564   4.674   9.323 -1.2694  2.2718  1.6977
 4129SOL    HW213829   0.489   4.776   9.240 -1.9908 -0.8741 -1.7846
 4130SOL     OW13830   7.707   4.851   8.797 -0.2085 -0.1429 -0.5689
 4130SOL    HW113831   7.778   4.812   8.747 -1.0272 -0.4876 -1.4984
 4130SOL    HW213832   7.642   4.781   8.804 -1.4352  0.8392 -1.7184
 4131SOL     OW13833   2.976   3.112   9.964  0.0391  0.3476  0.2880
 4131SOL    HW113834   3.070   3.104   9.945 -0.3334 -0.7267 -1.2291
 4131SOL    HW213835   2.933   3.093   9.881 -1.5528  0.2540  1.1095
 4132SOL     OW13836   7.400   4.436  10.044  0.0177 -0.1276  0.0249
 4132SOL    HW113837   7.361   4.523  10.054 -2.2540 -0.7377 -2.3899
 4132SOL    HW213838   7.466   4.447   9.976 -0.6550 -0.3699 -0.6774
 4133SOL     OW13839   0.297   5.471  10.498 -0.2128  0.3403 -0.0097
 4133SOL    HW113840   0.258   5.480  10.585 -0.9940  1.3908 -0.4491
 4133SOL    HW213841   0.360   5.544  10.492  0.7469 -0.4543  0.1240
 4134SOL     OW13842   1.427   4.579   9.533 -0.1823 -0.2311 -0.0106
 4134SOL    HW113843   1.444   4.494   9.573  0.0874  0.0295  0.4307
 4134SOL    HW213844   1.503   4.594   9.476 -0.1797 -0.2403 -0.0097
 4135SOL     OW13845   7.748   5.945   9.012  0.0912 -0.4379 -0.4245
 4135SOL    HW113846   7.709   5.859   8.996  0.8128 -1.1753  1.4139
 4135SOL    HW213847   7.705   6.003   8.950 -1.8453 -1.7500 -0.3920
 4136SOL     OW13848   0.196   4.628   9.489  0.1229 -0.2947  0.4483
 4136SOL    HW113849   0.216   4.596   9.401  0.4235 -1.7086  0.9944
 4136SOL    HW213850   0.266   4.690   9.509 -1.0558  1.6202 -1.0550
 4137SOL     OW13851   0.605   6.493  10.862 -0.4016 -0.1122 -0.0267
 4137SOL    HW113852   0.694   6.516  10.890  1.0146 -2.2276 -2.4468
 4137SOL    HW213853   0.593   6.542  10.780 -0.4658 -1.6836 -0.9845
 4138SOL     OW13854   7.329   4.941   9.576 -0.4440  0.4537 -0.2636
 4138SOL    HW113855   7.357   4.875   9.640  0.6267  0.9379 -0.2013
 4138SOL    HW213856   7.402   5.003   9.574 -1.0248  1.1179 -1.0273
 4139SOL     OW13857   1.964   3.216   9.301 -0.2988  0.5178 -0.3251
 4139SOL    HW113858   2.006   3.280   9.244  1.1850  0.3656  0.5276
 4139SOL    HW213859   1.942   3.266   9.380 -0.1550  0.2272 -0.0996
 4140SOL     OW13860   0.002   5.115   8.281  0.2329 -0.5492  0.2328
 4140SOL    HW113861  -0.064   5.183   8.284 -1.0068 -1.7408  1.2284
 4140SOL    HW213862   0.056   5.131   8.359  0.9533  0.2238 -0.4029
 4141SOL     OW13863   1.111   4.834   8.510 -0.5625 -0.1766 -0.7310
 4141SOL    HW113864   1.205   4.848   8.513 -0.4168 -1.1769 -0.0107
 4141SOL    HW213865   1.089   4.829   8.417  0.0934  0.0308 -0.8959
 4142SOL     OW13866   2.150   3.138  10.784 -0.2216  0.6133 -0.0517
 4142SOL    HW113867   2.236   3.135  10.826  0.0335 -1.3844 -0.5744
 4142SOL    HW213868   2.157   3.208  10.719  0.4122  1.6226  1.0604
 4143SOL     OW13869   2.376   6.822  11.305 -0.3863 -0.0055  0.3583
 4143SOL    HW113870   2.382   6.874  11.385 -1.2077 -0.0961  0.4875
 4143SOL    HW213871   2.293   6.776  11.313  0.5601 -1.7870  0.5228
 4144SOL     OW13872   1.356   5.448   8.742  0.9497 -0.1970  0.5161
 4144SOL    HW113873   1.378   5.533   8.704  1.0780 -1.1709 -1.7488
 4144SOL    HW213874   1.352   5.464   8.836 -0.8248  2.7290  0.0677
 4145SOL     OW13875   0.565   5.616   9.694 -0.6919  0.2772 -0.3858
 4145SOL    HW113876   0.657   5.593   9.703 -0.7814  0.2874  0.6999
 4145SOL    HW213877   0.525   5.540   9.651 -0.3610 -0.1540  0.0659
 4146SOL     OW13878   1.171   7.034  10.513 -0.0138 -0.0162 -0.0675
 4146SOL    HW113879   1.149   6.973  10.584 -0.3380 -0.7790 -0.8063
 4146SOL    HW213880   1.248   7.080  10.545  0.4399 -1.0506  0.3814
 4147SOL     OW13881   7.553   4.397   9.788  0.0377  0.0759 -0.1053
 4147SOL    HW113882   7.600   4.326   9.745 -1.4574 -2.0819  1.6372
 4147SOL    HW213883   7.556   4.469   9.724  1.9442 -1.3513 -1.7748
 4148SOL     OW13884   2.850   6.171   9.965 -0.0848 -0.7241 -0.1460
 4148SOL    HW113885   2.796   6.099   9.997 -1.9311  0.4488 -0.4219
 4148SOL    HW213886   2.817   6.248  10.012  0.1795  0.3003 -1.5665
 4149SOL     OW13887   7.297   4.191   0.971  0.1258 -0.0772  0.0369
 4149SOL    HW113888   7.267   4.282   0.968 -1.8466 -0.6411  0.8372
 4149SOL    HW213889   7.275   4.161   1.059  0.1668 -1.5119 -0.4140
 4150SOL     OW13890   7.662   3.869   9.283 -0.4345  0.1250 -0.3450
 4150SOL    HW113891   7.718   3.944   9.261 -0.0419 -0.3465 -1.0135
 4150SOL    HW213892   7.573   3.901   9.273 -0.2700  0.2000 -1.7764
 4151SOL     OW13893   7.760   6.017  11.383 -0.1258 -0.3322 -0.2557
 4151SOL    HW113894   7.787   5.961  11.309  2.0383  0.3931 -0.0841
 4151SOL    HW213895   7.831   6.009  11.446 -0.4549  1.4770  0.3997
 4152SOL     OW13896   2.532   3.486   9.458  0.0084  0.9383 -0.7071
 4152SOL    HW113897   2.603   3.550   9.448  1.7757 -0.6881  0.5053
 4152SOL    HW213898   2.506   3.466   9.369  1.9912  0.6988 -1.2936
 4153SOL     OW13899   0.481   4.784   8.915 -0.0333  0.4984 -0.0851
 4153SOL    HW113900   0.548   4.844   8.946  0.0926  0.6668 -0.6706
 4153SOL    HW213901   0.407   4.798   8.975  0.5604  0.0603  0.7789
 4154SOL     OW13902   1.220   5.419   9.319 -0.4033 -0.0873  0.7143
 4154SOL    HW113903   1.273   5.496   9.297 -0.6121 -0.2552 -0.4320
 4154SOL    HW213904   1.274   5.370   9.381  0.8188 -0.2757 -0.4684
 4155SOL     OW13905   0.123   3.943   8.245 -0.3406 -0.3942  0.3116
 4155SOL    HW113906   0.159   3.941   8.334 -0.9836 -0.1591  0.5824
 4155SOL    HW213907   0.070   4.022   8.242 -1.3693 -1.0685  0.1404
 4156SOL     OW13908   1.825   5.838   9.962  0.1936  0.9306 -0.0852
 4156SOL    HW113909   1.882   5.777  10.009 -2.2027  0.6298  2.7836
 4156SOL    HW213910   1.791   5.788   9.888  1.8779  0.4097 -0.5449
 4157SOL     OW13911   2.414   5.797   8.738 -0.3756  0.7439  0.2639
 4157SOL    HW113912   2.425   5.853   8.661 -1.7828  0.4148 -0.2186
 4157SOL    HW213913   2.484   5.732   8.731 -0.1943  1.0117 -0.4831
 4158SOL     OW13914   1.314   3.575  10.774 -0.0137  0.4276  0.1538
 4158SOL    HW113915   1.227   3.541  10.792  0.1857 -0.3892 -0.3467
 4158SOL    HW213916   1.313   3.665  10.807 -1.0353  0.4204  0.1582
 4159SOL     OW13917   1.100   6.349  10.660  0.3605  0.4950 -0.3445
 4159SOL    HW113918   1.146   6.363  10.578 -0.6930  0.2430 -0.9987
 4159SOL    HW213919   1.087   6.254  10.664  0.2633  0.5210  0.0438
 4160SOL     OW13920   2.856   6.617   9.991 -0.5211  0.2232 -0.7608
 4160SOL    HW113921   2.886   6.534  10.027 -0.6790  0.5296  0.1102
 4160SOL    HW213922   2.792   6.649  10.055 -0.5672  0.9449 -1.1535
 4161SOL     OW13923   7.849   5.118  11.062 -0.2670 -0.5185  0.1550
 4161SOL    HW113924   7.792   5.074  11.125 -0.1700 -1.4393 -0.3937
 4161SOL    HW213925   7.938   5.096  11.089 -0.2324 -1.2777 -0.5507
 4162SOL     OW13926   1.452   3.769  11.758  0.1574 -0.5708 -0.5922
 4162SOL    HW113927   1.443   3.862  11.781  2.2775 -0.4603 -0.0757
 4162SOL    HW213928   1.493   3.729  11.834  0.3948 -1.6979 -1.2945
 4163SOL     OW13929   6.186   4.093  11.441  0.3635 -0.3781  0.1765
 4163SOL    HW113930   6.265   4.146  11.437  0.4143 -0.3906  0.8278
 4163SOL    HW213931   6.122   4.141  11.388  1.4077 -1.4806 -2.2286
 4164SOL     OW13932   6.872   5.063   8.396 -0.1566 -0.3118 -0.0445
 4164SOL    HW113933   6.919   5.142   8.423  0.5607 -0.6410 -0.3115
 4164SOL    HW213934   6.910   5.039   8.312 -1.2980 -0.1894 -0.6146
 4165SOL     OW13935   2.125   5.525   9.102 -0.5969 -0.5039  0.9686
 4165SOL    HW113936   2.220   5.536   9.107 -0.5388 -1.3929  2.1175
 4165SOL    HW213937   2.110   5.480   9.019 -0.0611  0.0353  0.5706
 4166SOL     OW13938   0.802   6.059  10.639 -0.2149  0.0379 -0.3344
 4166SOL    HW113939   0.833   6.079  10.551 -0.5513 -1.2492 -0.7753
 4166SOL    HW213940   0.715   6.098  10.643 -0.2464  0.0023 -0.6280
 4167SOL     OW13941   7.511   4.562  11.488  0.5918  0.1768 -0.8575
 4167SOL    HW113942   7.605   4.576  11.479  0.6490  0.2767 -0.1789
 4167SOL    HW213943   7.502   4.467  11.500  0.6958  0.2671  0.0002
 4168SOL     OW13944   7.596   3.564   1.068 -0.4287  0.3020 -0.0531
 4168SOL    HW113945   7.667   3.576   1.132  1.6487 -0.6844 -2.0296
 4168SOL    HW213946   7.592   3.647   1.020  1.5236 -0.5668 -1.8721
 4169SOL     OW13947   1.537   4.688  12.255 -0.0595 -0.5126 -0.3320
 4169SOL    HW113948   1.489   4.770  12.248  1.7450  0.6507  0.0308
 4169SOL    HW213949   1.612   4.700  12.197  1.8338 -0.6388  1.9207
 4170SOL     OW13950   2.176   6.401  10.835 -0.4479  0.0443  0.3357
 4170SOL    HW113951   2.085   6.424  10.857 -1.7262 -1.0181 -3.2360
 4170SOL    HW213952   2.177   6.305  10.835  1.1032  0.0223  1.6133
 4171SOL     OW13953   0.135   5.343   0.360 -0.6597 -0.7841  0.3915
 4171SOL    HW113954   0.135   5.350   0.455 -2.6946  0.1882  0.3767
 4171SOL    HW213955   0.167   5.429   0.330  0.2122 -1.1725  0.1810
 4172SOL     OW13956   7.353   3.874   7.997  1.1428 -0.3822  0.1648
 4172SOL    HW113957   7.294   3.932   7.947  0.9618 -0.2628  0.5165
 4172SOL    HW213958   7.315   3.787   7.987 -0.3970 -0.0292  2.2241
 4173SOL     OW13959   4.896   2.170  11.320  0.7461 -0.9920  0.0163
 4173SOL    HW113960   4.959   2.117  11.369  1.0293 -0.1228  0.5995
 4173SOL    HW213961   4.943   2.195  11.240  1.5732  0.5837  0.9482
 4174SOL     OW13962   1.478   5.382  11.740  0.6455  0.1153  0.6453
 4174SOL    HW113963   1.567   5.400  11.709  0.3398  0.9885  0.2601
 4174SOL    HW213964   1.454   5.461  11.789  0.1420 -0.1894  0.8909
 4175SOL     OW13965   0.384   4.809  11.104 -0.2624  0.0918 -0.0688
 4175SOL    HW113966   0.444   4.749  11.059  0.5635  0.1747  0.8845
 4175SOL    HW213967   0.309   4.755  11.129 -1.3283  0.2891 -2.5696
 4176SOL     OW13968   7.867   4.802  11.024  0.3630  0.2219  0.4212
 4176SOL    HW113969   7.824   4.806  11.109  0.6021 -0.3735  0.5739
 4176SOL    HW213970   7.939   4.864  11.030  0.1359  0.4777  0.5121
 4177SOL     OW13971   0.522   5.409   0.606 -0.0723  0.1675  0.4565
 4177SOL    HW113972   0.556   5.422   0.518 -0.7964  0.1168  0.1602
 4177SOL    HW213973   0.567   5.331   0.638 -2.0640 -1.7301 -1.0723
 4178SOL     OW13974   1.999   6.416  11.097  0.1046  0.3770  0.1598
 4178SOL    HW113975   1.911   6.388  11.071  0.1699 -1.1878  1.5016
 4178SOL    HW213976   2.055   6.342  11.077  1.3577  1.7124 -1.5881
 4179SOL     OW13977   7.386   5.533  11.081 -0.2505 -0.3067 -0.6926
 4179SOL    HW113978   7.441   5.455  11.079  0.6712  0.2062  1.7652
 4179SOL    HW213979   7.419   5.588  11.010  0.4785 -1.2505 -1.1047
 4180SOL     OW13980   7.207   4.251  10.454  1.5178 -0.3674  0.2491
 4180SOL    HW113981   7.184   4.335  10.493  3.2565 -0.7589  2.4039
 4180SOL    HW213982   7.272   4.272  10.387 -1.4996  0.3195 -2.7300
 4181SOL     OW13983   5.175   4.392  11.940 -0.3314  0.6083  0.1350
 4181SOL    HW113984   5.238   4.328  11.906  0.7145  1.4826  0.3756
 4181SOL    HW213985   5.090   4.350  11.929  0.3213 -0.7954  0.2070
 4182SOL     OW13986   2.460   5.832  11.611 -0.1881  0.0092 -0.6733
 4182SOL    HW113987   2.406   5.754  11.597 -0.4110  0.1331 -0.5157
 4182SOL    HW213988   2.544   5.812  11.569 -0.0819 -0.5060 -0.2310
 4183SOL     OW13989   7.831   5.425  12.310 -0.4773  0.1429 -0.1021
 4183SOL    HW113990   7.841   5.330  12.308 -1.1041  0.0835 -1.1834
 4183SOL    HW213991   7.745   5.441  12.271 -0.4666  1.1445  0.2471
 4184SOL     OW13992   2.524   5.349  10.629  0.8730  0.1567 -0.3199
 4184SOL    HW113993   2.522   5.309  10.717  0.9076  1.3888  0.2562
 4184SOL    HW213994   2.487   5.282  10.572 -0.3800 -0.1830  0.8394
 4185SOL     OW13995   0.651   4.970   8.995 -0.2646 -0.3946 -0.3644
 4185SOL    HW113996   0.670   4.995   9.085 -0.1546  0.5453 -0.6389
 4185SOL    HW213997   0.734   4.933   8.963 -0.3750 -0.9655 -0.0163
 4186SOL     OW13998   1.082   4.765  12.377 -0.2383 -0.3762 -0.4422
 4186SOL    HW113999   1.034   4.778  12.295 -0.7901 -0.2496 -0.0986
 4186SOL    HW214000   1.119   4.677  12.369  1.4144  0.3618 -1.6961
 4187SOL     OW14001   1.133   3.811  12.155  0.3137  0.2517 -0.3698
 4187SOL    HW114002   1.136   3.828  12.061  1.7408  0.8038 -0.2418
 4187SOL    HW214003   1.158   3.719  12.163  0.0130  0.1542 -0.5417
 4188SOL     OW14004   0.646   4.835  10.180 -0.1246  0.5876  0.1039
 4188SOL    HW114005   0.705   4.773  10.222  0.1623 -0.4092 -1.6680
 4188SOL    HW214006   0.591   4.782  10.123 -1.0607  1.7810 -0.1597
 4189SOL     OW14007   0.475   5.104  12.098 -0.2114  0.6364 -0.2130
 4189SOL    HW114008   0.388   5.142  12.083 -0.8978 -1.3938 -1.7226
 4189SOL    HW214009   0.533   5.180  12.107 -1.9354  2.0337 -0.3410
 4190SOL     OW14010   1.729   5.786  10.947  0.6199 -0.5800  0.3719
 4190SOL    HW114011   1.757   5.764  10.858 -0.6804  2.2277 -0.8353
 4190SOL    HW214012   1.809   5.817  10.990  1.3174 -2.2372  0.3557
 4191SOL     OW14013   3.237   6.167  10.607  0.3516 -0.0040 -0.2952
 4191SOL    HW114014   3.264   6.257  10.588  1.3945 -0.5345 -1.5154
 4191SOL    HW214015   3.214   6.168  10.700  1.2780  1.3076 -0.0434
 4192SOL     OW14016   1.356   5.300  10.389 -0.2171 -0.4537  0.2896
 4192SOL    HW114017   1.330   5.330  10.302 -1.7529 -0.4884  0.7227
 4192SOL    HW214018   1.335   5.374  10.447 -1.0667 -1.1652  0.9033
 4193SOL     OW14019   7.225   5.305  11.408  0.1648  0.4143 -0.7979
 4193SOL    HW114020   7.270   5.386  11.388 -1.4486  1.2823 -1.1175
 4193SOL    HW214021   7.132   5.330  11.414 -0.2865 -1.2611 -0.1341
 4194SOL     OW14022   3.047   7.403  11.436  0.0371  0.1283 -0.1905
 4194SOL    HW114023   3.119   7.399  11.373 -0.1073  1.7991 -0.5211
 4194SOL    HW214024   3.069   7.476  11.494 -1.0477  0.2325  0.1241
 4195SOL     OW14025   6.990   3.584   0.138  0.5947  0.0936 -0.6120
 4195SOL    HW114026   6.994   3.635   0.057 -0.7639 -0.6943 -1.2207
 4195SOL    HW214027   7.067   3.612   0.188  1.4887  0.5769 -2.1753
 4196SOL     OW14028   1.843   5.966  10.647 -0.3164 -0.1028 -0.6822
 4196SOL    HW114029   1.934   5.965  10.617 -0.6057  1.1240 -1.7162
 4196SOL    HW214030   1.823   5.874  10.665  1.7925 -0.1872  1.8315
 4197SOL     OW14031   0.202   5.223  11.808  0.0469  0.2139  0.4588
 4197SOL    HW114032   0.221   5.222  11.902  1.6376  3.7821  0.3441
 4197SOL    HW214033   0.288   5.211  11.767 -0.5150 -0.4998 -0.5330
 4198SOL     OW14034   6.816   7.566   1.210 -0.3992  0.2219 -0.7806
 4198SOL    HW114035   6.796   7.607   1.126  2.1527  1.5586 -0.8236
 4198SOL    HW214036   6.895   7.610   1.240 -0.2852 -1.3970  1.5354
 4199SOL     OW14037   0.441   5.187  11.373 -0.8600 -0.1497 -0.2182
 4199SOL    HW114038   0.385   5.260  11.349  0.5295  0.6101 -1.2552
 4199SOL    HW214039   0.469   5.149  11.290  0.4672 -0.2683  0.2606
 4200SOL     OW14040   7.921   5.728  10.803  0.3975  0.1352  0.3433
 4200SOL    HW114041   7.949   5.709  10.714  4.0890 -0.2634  1.4055
 4200SOL    HW214042   7.918   5.824  10.808 -0.8504  0.1630 -0.3947
 4201SOL     OW14043   7.172   4.512  10.937  0.5238 -0.4641  0.5266
 4201SOL    HW114044   7.189   4.593  10.985  2.2614 -0.3142 -0.2743
 4201SOL    HW214045   7.219   4.444  10.985  0.9565 -0.5887 -0.0584
 4202SOL     OW14046   2.743   6.231  11.905 -0.6106 -0.0741  0.0011
 4202SOL    HW114047   2.659   6.211  11.946 -0.6673 -1.1502 -0.6211
 4202SOL    HW214048   2.779   6.146  11.880  1.2415  0.2444  1.3479
 4203SOL     OW14049   7.756   4.885   0.636  0.6205 -0.2147  0.3148
 4203SOL    HW114050   7.684   4.828   0.663 -0.6697  1.4250  0.4560
 4203SOL    HW214051   7.791   4.920   0.718  2.5521 -2.0469  0.3603
 4204SOL     OW14052   1.758   3.955  12.250  0.3436 -0.1096  0.6465
 4204SOL    HW114053   1.708   4.035  12.265 -1.1121 -0.7269 -0.6778
 4204SOL    HW214054   1.832   3.962  12.310 -0.5960  1.4764  1.7077
 4205SOL     OW14055   0.945   4.612   9.531  0.4636 -0.0693  0.2117
 4205SOL    HW114056   0.935   4.533   9.583  0.8112 -2.1610 -2.6741
 4205SOL    HW214057   0.984   4.583   9.449 -1.2654  2.7574 -1.8181
 4206SOL     OW14058   2.439   7.112  10.179 -0.4388 -0.1495  0.7543
 4206SOL    HW114059   2.481   7.067  10.106 -1.1316  0.0393  0.2257
 4206SOL    HW214060   2.347   7.118  10.153 -0.4096  1.3543  0.9211
 4207SOL     OW14061   2.266   5.693  10.759 -0.1806 -0.2741 -0.1853
 4207SOL    HW114062   2.243   5.624  10.697  1.3351 -1.1508  0.1828
 4207SOL    HW214063   2.202   5.684  10.830  0.3904 -1.7612  0.1776
 4208SOL     OW14064   1.454   6.213  10.187 -0.2639 -0.3666  0.0391
 4208SOL    HW114065   1.421   6.274  10.121 -0.5123 -0.6519 -0.1028
 4208SOL    HW214066   1.545   6.238  10.199 -0.4840  0.3372  0.3239
 4209SOL     OW14067   0.660   5.006  12.296  0.0188  0.2838 -0.2514
 4209SOL    HW114068   0.611   5.040  12.221  0.8791 -0.4752 -1.1973
 4209SOL    HW214069   0.597   4.953  12.345 -0.5436  0.7504 -0.4607
 4210SOL     OW14070   2.991   4.200  10.759  0.1113 -0.6552  0.1172
 4210SOL    HW114071   3.050   4.275  10.750 -0.0779 -0.6150 -0.8721
 4210SOL    HW214072   3.042   4.126  10.724  0.2098 -0.9524  0.8699
 4211SOL     OW14073   0.446   8.000  12.146  0.9108  0.1846  0.0085
 4211SOL    HW114074   0.496   7.987  12.065 -0.6366 -0.2165 -0.9159
 4211SOL    HW214075   0.458   8.092  12.166  0.9900  0.3882 -0.9084
 4212SOL     OW14076   1.120   6.347  12.088  0.0766 -0.1599  0.2732
 4212SOL    HW114077   1.077   6.393  12.016 -0.6665  1.1058  1.4623
 4212SOL    HW214078   1.171   6.415  12.132  2.0666 -1.2965 -0.1448
 4213SOL     OW14079   7.725   3.891  10.642  0.4338 -0.6493 -0.3754
 4213SOL    HW114080   7.770   3.904  10.559  2.4535 -0.8818  0.6362
 4213SOL    HW214081   7.642   3.850  10.618  0.6343 -0.0323 -2.3158
 4214SOL     OW14082   7.583   3.195  10.501 -0.1856  0.8580  0.2527
 4214SOL    HW114083   7.596   3.254  10.426 -1.3332  0.0981 -0.5849
 4214SOL    HW214084   7.554   3.113  10.462 -0.3496  0.2885  1.5187
 4215SOL     OW14085   3.101   4.608  10.697 -0.4959 -0.1540 -0.2983
 4215SOL    HW114086   3.124   4.622  10.789 -0.1690  0.3101 -0.4491
 4215SOL    HW214087   3.009   4.580  10.700 -0.3567 -0.5879  0.2006
 4216SOL     OW14088   0.628   4.392  12.436  0.3137  0.2709  0.0458
 4216SOL    HW114089   0.539   4.421  12.416  0.8290  1.5233 -0.5451
 4216SOL    HW214090   0.665   4.460  12.492  0.9058 -0.2431  0.3065
 4217SOL     OW14091   7.839   3.909  10.404 -0.5581 -0.3880 -0.6872
 4217SOL    HW114092   7.851   3.914  10.310  4.4810  1.5748 -0.2387
 4217SOL    HW214093   7.888   3.831  10.431  0.1145  0.3913  0.4385
 4218SOL     OW14094   7.349   4.337   9.483 -0.1234 -0.2017 -0.4359
 4218SOL    HW114095   7.430   4.286   9.493  0.0539  0.0837 -0.4103
 4218SOL    HW214096   7.288   4.299   9.546  0.7662  1.1717  1.3107
 4219SOL     OW14097   0.210   3.512   9.534  0.5424 -0.2871 -0.0543
 4219SOL    HW114098   0.243   3.518   9.624  0.2107 -2.7309  0.2970
 4219SOL    HW214099   0.117   3.533   9.542  0.5021 -0.5474  0.1845
 4220SOL     OW14100   7.011   4.325  10.214 -0.7982  0.5390  0.1339
 4220SOL    HW114101   7.031   4.418  10.225 -1.4387  0.5695  1.2259
 4220SOL    HW214102   7.059   4.282  10.285 -0.6166  0.0547 -0.2809
 4221SOL     OW14103   2.435   5.375  11.453  0.0708 -0.0091  0.4740
 4221SOL    HW114104   2.480   5.340  11.530  1.2220  1.6311  0.6074
 4221SOL    HW214105   2.371   5.437  11.489 -1.4938 -1.3879  0.2101
 4222SOL     OW14106   7.474   5.205  10.442  0.2914  0.2444  0.0314
 4222SOL    HW114107   7.432   5.291  10.436  0.7945  0.5185  0.3467
 4222SOL    HW214108   7.504   5.187  10.354  0.1420  0.3671 -0.0466
 4223SOL     OW14109   1.297   5.628  10.763  0.1871  0.1550  0.1755
 4223SOL    HW114110   1.374   5.583  10.796 -0.1282 -0.2708  0.3383
 4223SOL    HW214111   1.240   5.638  10.839  0.1192  0.5490  0.0762
 4224SOL     OW14112   0.907   3.908  10.974  0.4869  0.6842  0.6438
 4224SOL    HW114113   0.955   3.842  11.025  0.2552  0.2166  0.2748
 4224SOL    HW214114   0.826   3.922  11.022 -0.4787 -0.9624 -0.3757
 4225SOL     OW14115   0.029   3.710  11.408  0.4348 -0.3330  0.2007
 4225SOL    HW114116   0.102   3.764  11.380  1.2892 -1.5185  0.0594
 4225SOL    HW214117   0.065   3.621  11.414 -1.0658 -1.0088 -0.1752
 4226SOL     OW14118   0.163   3.364   1.313 -0.5269  0.2457 -0.0475
 4226SOL    HW114119   0.259   3.362   1.309 -0.5724 -1.5383 -3.0612
 4226SOL    HW214120   0.140   3.288   1.366 -0.2174 -1.4692 -2.2219
 4227SOL     OW14121   0.688   4.627  11.403  0.3417  0.1531 -0.2606
 4227SOL    HW114122   0.639   4.709  11.401  1.7142  1.0120 -0.0582
 4227SOL    HW214123   0.632   4.566  11.451 -1.4932  0.4115 -1.9275
 4228SOL     OW14124   3.129   7.306   9.605 -0.1271 -0.7668 -0.3835
 4228SOL    HW114125   3.079   7.227   9.589  2.6734 -2.5961 -0.6998
 4228SOL    HW214126   3.143   7.344   9.519 -1.8088  0.3982 -0.2002
 4229SOL     OW14127   2.150   3.564  11.103  0.4926  0.2110  0.3025
 4229SOL    HW114128   2.165   3.501  11.174 -0.2959 -0.2830  0.0413
 4229SOL    HW214129   2.057   3.558  11.085  0.9061 -0.7628 -1.7626
 4230SOL     OW14130   1.053   5.041  10.533  0.2022 -0.6014 -0.2664
 4230SOL    HW114131   0.962   5.060  10.555  0.3061 -0.2673 -0.1117
 4230SOL    HW214132   1.101   5.119  10.563  0.5689 -0.8877 -0.1032
 4231SOL     OW14133   7.657   5.640  10.704 -0.7936  0.8438 -0.4159
 4231SOL    HW114134   7.743   5.675  10.728  0.7802 -2.8074  0.0280
 4231SOL    HW214135   7.658   5.639  10.608  0.9290 -1.5721 -0.4700
 4232SOL     OW14136   1.979   5.402   0.642 -0.2565 -0.3854 -0.1273
 4232SOL    HW114137   2.060   5.416   0.690 -0.7760 -1.1013  1.0157
 4232SOL    HW214138   1.977   5.308   0.624 -0.6780 -0.3225 -0.4244
 4233SOL     OW14139   7.298   5.438  12.192  0.0683  0.7155  0.5265
 4233SOL    HW114140   7.260   5.413  12.107 -0.8507 -0.6332  1.3018
 4233SOL    HW214141   7.238   5.401  12.257  2.5545 -1.3372  1.8322
 4234SOL     OW14142   0.432   4.246  10.001  0.4884  0.3625 -0.0278
 4234SOL    HW114143   0.449   4.272   9.911  2.0848 -1.1648 -0.2297
 4234SOL    HW214144   0.432   4.328  10.051  2.8701  1.0160 -0.9465
 4235SOL     OW14145   3.402   4.334   1.493 -0.5483 -0.2887  0.0351
 4235SOL    HW114146   3.412   4.369   1.404  1.7037 -0.2162  0.2611
 4235SOL    HW214147   3.358   4.249   1.480  2.3712 -1.7302 -1.5680
 4236SOL     OW14148   3.066   6.469  10.727  0.6551 -0.4988 -0.6555
 4236SOL    HW114149   3.002   6.490  10.659 -0.9111 -1.8673  0.3150
 4236SOL    HW214150   3.058   6.540  10.791 -2.3969 -2.1777  1.0873
 4237SOL     OW14151   6.867   4.996  10.873 -0.5410 -0.2224 -0.3844
 4237SOL    HW114152   6.884   4.921  10.930 -1.1242 -1.0551 -1.2627
 4237SOL    HW214153   6.953   5.033  10.855 -0.1697 -1.1009 -0.4742
 4238SOL     OW14154   1.145   3.558   0.783 -0.3803 -0.1834 -0.1530
 4238SOL    HW114155   1.085   3.633   0.779  0.0521  0.1539 -0.5274
 4238SOL    HW214156   1.181   3.561   0.872  0.8520  1.0518 -0.6472
 4239SOL     OW14157   0.874   1.412  11.832 -0.2559  1.0370  0.3397
 4239SOL    HW114158   0.934   1.341  11.857 -1.9079 -0.1849  1.0538
 4239SOL    HW214159   0.814   1.419  11.906 -0.6307  2.6550 -0.0884
 4240SOL     OW14160   7.963   5.720  12.131  0.0501  0.1890 -0.2802
 4240SOL    HW114161   7.916   5.788  12.084  0.2988  0.1739 -0.5501
 4240SOL    HW214162   7.923   5.719  12.218 -2.6245 -1.9489 -1.4032
 4241SOL     OW14163   0.729   2.838   0.819 -0.4299  0.0518  0.2007
 4241SOL    HW114164   0.655   2.846   0.758  0.9493 -0.7500 -1.6742
 4241SOL    HW214165   0.806   2.831   0.762  0.7417 -2.9922  1.9233
 4242SOL     OW14166   1.838   5.117  10.209  0.8033  0.0208 -0.0947
 4242SOL    HW114167   1.818   5.024  10.201  1.7014 -0.3888  1.8022
 4242SOL    HW214168   1.754   5.161  10.198  0.2247 -1.0773 -0.2051
 4243SOL     OW14169   2.514   4.834  12.276 -0.2418  0.4176  0.4167
 4243SOL    HW114170   2.460   4.880  12.211  2.6488  2.0754 -1.0219
 4243SOL    HW214171   2.477   4.860  12.360 -2.2838  0.6284 -0.4791
 4244SOL     OW14172   2.103   5.204  11.381 -0.0424 -0.2309 -0.2155
 4244SOL    HW114173   2.157   5.257  11.323 -0.3397 -0.4317 -0.6795
 4244SOL    HW214174   2.026   5.181  11.328  0.6797 -2.2304 -0.4733
 4245SOL     OW14175   6.975   5.301   0.776  0.4079  0.4302 -0.4243
 4245SOL    HW114176   7.028   5.249   0.837 -0.2237  0.2271 -0.0433
 4245SOL    HW214177   6.979   5.390   0.810 -0.4565  0.2159  0.2966
 4246SOL     OW14178   7.312   3.480  11.236  0.3946 -0.0972 -0.6200
 4246SOL    HW114179   7.239   3.501  11.295  0.0342  0.4957 -1.2662
 4246SOL    HW214180   7.296   3.533  11.158  1.6372  0.2061 -0.6885
 4247SOL     OW14181   0.310   6.307  11.450 -0.0836 -0.2122  0.1105
 4247SOL    HW114182   0.351   6.325  11.535 -0.5073  0.0210  0.2698
 4247SOL    HW214183   0.250   6.380  11.438 -1.8754 -1.5175  0.7763
 4248SOL     OW14184   1.116   4.688   9.860 -0.0551  0.0927 -0.2603
 4248SOL    HW114185   1.135   4.703   9.768 -0.6213  0.1110 -0.3788
 4248SOL    HW214186   1.164   4.607   9.881  0.6767  0.4873 -0.3646
 4249SOL     OW14187   0.943   4.150  11.388  0.1403 -0.0939 -0.2367
 4249SOL    HW114188   0.987   4.066  11.381 -1.6248 -0.9398 -2.2774
 4249SOL    HW214189   0.852   4.129  11.408  0.1557  1.5218  2.0276
 4250SOL     OW14190   0.746   4.463   0.390 -0.5443 -0.2650 -0.1593
 4250SOL    HW114191   0.777   4.398   0.327  0.6613  0.0030  0.1463
 4250SOL    HW214192   0.748   4.418   0.475 -1.1064 -0.2723 -0.1411
 4251SOL     OW14193   1.161   6.092  10.684 -0.2414  0.6103  0.2357
 4251SOL    HW114194   1.178   6.058  10.772  0.1631  1.0948  0.3508
 4251SOL    HW214195   1.096   6.033  10.648  1.1906 -0.9165  0.0379
 4252SOL     OW14196   7.940   4.303  10.465 -0.2417 -0.1180  0.7140
 4252SOL    HW114197   7.945   4.277  10.373 -0.5625 -0.8540  0.8977
 4252SOL    HW214198   7.940   4.399  10.463 -0.0466 -0.1252 -0.0371
 4253SOL     OW14199   7.276   5.123  12.114  0.2568 -0.5956 -0.0004
 4253SOL    HW114200   7.225   5.072  12.052  0.5617 -0.0705 -0.7033
 4253SOL    HW214201   7.264   5.214  12.086  1.4063 -0.4477 -0.0662
 4254SOL     OW14202   3.083   5.769  10.304 -0.1887 -0.1549 -0.4272
 4254SOL    HW114203   3.120   5.857  10.316 -0.8730  0.0259  0.5374
 4254SOL    HW214204   3.148   5.722  10.252  2.9722 -0.8283  3.6643
 4255SOL     OW14205   1.324   4.980  11.515  0.2411  0.0520 -0.3882
 4255SOL    HW114206   1.339   4.886  11.528 -1.4168 -0.0370  1.1878
 4255SOL    HW214207   1.239   4.997  11.555  0.4679  2.2375 -0.7037
 4256SOL     OW14208   3.543   5.315  10.047 -0.2455  0.1386  0.3251
 4256SOL    HW114209   3.506   5.269  10.122 -1.2551 -1.7124 -1.2309
 4256SOL    HW214210   3.631   5.278  10.038 -0.3249 -0.0311  0.2547
 4257SOL     OW14211   0.733   4.219  11.799 -1.1381 -0.5585  0.7419
 4257SOL    HW114212   0.820   4.241  11.765 -0.4754 -1.6405  1.6918
 4257SOL    HW214213   0.674   4.242  11.728 -0.1800  1.0737  0.4180
 4258SOL     OW14214   7.514   4.272   0.100 -0.2797  0.6877  0.1164
 4258SOL    HW114215   7.514   4.308   0.012  1.0178 -0.0944 -0.2258
 4258SOL    HW214216   7.580   4.203   0.099 -2.0776 -1.1577  0.9933
 4259SOL     OW14217   6.092   4.161  12.356  0.2489 -0.0346 -0.1536
 4259SOL    HW114218   6.045   4.201  12.283 -0.9572  0.5008  0.8762
 4259SOL    HW214219   6.123   4.236  12.408  1.8376 -0.3885 -0.5370
 4260SOL     OW14220   1.585   4.558  10.428 -0.4547 -0.5350 -0.2517
 4260SOL    HW114221   1.551   4.622  10.490  1.0130 -0.8128  0.9018
 4260SOL    HW214222   1.508   4.516  10.391 -1.3875 -0.7306  1.7869
 4261SOL     OW14223   7.305   3.921  11.347 -0.3423 -0.2903 -0.3714
 4261SOL    HW114224   7.252   3.886  11.419  0.2693 -1.4331 -0.4525
 4261SOL    HW214225   7.391   3.938  11.386 -0.0740 -0.7011 -0.7631
 4262SOL     OW14226   7.302   6.289  11.787  0.2907 -0.1958 -0.4549
 4262SOL    HW114227   7.254   6.357  11.739 -0.3565  0.7609  1.4361
 4262SOL    HW214228   7.324   6.224  11.720  1.2723  2.0005 -2.4644
 4263SOL     OW14229   1.628   5.823  11.292 -0.0898 -0.5033 -0.4027
 4263SOL    HW114230   1.630   5.904  11.343  0.3310  2.4699 -4.6627
 4263SOL    HW214231   1.536   5.795  11.296 -1.1417  2.3666 -1.6602
 4264SOL     OW14232   2.151   3.404   0.267  0.1734 -0.0789 -0.2731
 4264SOL    HW114233   2.161   3.309   0.275  1.9266 -0.1082 -2.0321
 4264SOL    HW214234   2.188   3.439   0.348  0.4491 -0.8439 -0.0610
 4265SOL     OW14235   5.748   3.325  11.191  0.2883 -0.0068  0.5832
 4265SOL    HW114236   5.812   3.298  11.257 -0.2094 -0.0959  1.0288
 4265SOL    HW214237   5.749   3.421  11.194  1.7423  0.0572 -0.7024
 4266SOL     OW14238   7.503   3.297  11.113 -0.0358  0.2923  0.5336
 4266SOL    HW114239   7.438   3.356  11.151  0.1724 -0.9418  3.0347
 4266SOL    HW214240   7.584   3.319  11.158  0.9760  0.8015 -1.4704
 4267SOL     OW14241   2.251   3.420  11.323  0.2957  0.2614  0.3014
 4267SOL    HW114242   2.318   3.439  11.388  0.2080  0.5708  0.3042
 4267SOL    HW214243   2.221   3.332  11.343 -0.7603  0.8764  1.5926
 4268SOL     OW14244   6.348   5.377  12.029 -0.3626  0.2012  0.4708
 4268SOL    HW114245   6.343   5.309  11.961 -1.3915  0.9363 -0.2010
 4268SOL    HW214246   6.340   5.328  12.111  1.7135 -0.8007  0.1558
 4269SOL     OW14247   1.147   5.985  12.452 -0.5402  0.4065 -0.1918
 4269SOL    HW114248   1.165   5.952  12.541 -3.5599 -0.8339  0.0692
 4269SOL    HW214249   1.178   5.914  12.395 -3.5114 -1.3762  0.2129
 4270SOL     OW14250   7.488   3.335  10.734 -0.0324  0.2832 -0.1973
 4270SOL    HW114251   7.547   3.282  10.681 -0.2742 -0.1193 -0.0714
 4270SOL    HW214252   7.407   3.341  10.683 -0.8152 -1.3683  0.7228
 4271SOL     OW14253   0.598   4.653   1.498  0.0282 -0.3489  0.6299
 4271SOL    HW114254   0.587   4.562   1.470  1.9001 -0.4057 -0.0421
 4271SOL    HW214255   0.672   4.685   1.447 -0.8790  1.7131  0.5228
 4272SOL     OW14256   2.124   5.217  10.985  0.0512  0.2112 -0.4881
 4272SOL    HW114257   2.207   5.265  10.994 -0.4883  1.1739 -0.4845
 4272SOL    HW214258   2.113   5.207  10.891 -0.4516  1.2451 -0.5582
 4273SOL     OW14259   3.524   4.569  11.456 -0.4303  0.0882 -0.4826
 4273SOL    HW114260   3.546   4.631  11.386 -1.6751  0.8067 -0.2594
 4273SOL    HW214261   3.589   4.499  11.447  1.1610  1.5131 -0.5990
 4274SOL     OW14262   1.502   5.931  10.839 -0.2695 -0.5244 -0.9976
 4274SOL    HW114263   1.560   5.880  10.895  0.1335 -0.6586 -1.5207
 4274SOL    HW214264   1.424   5.946  10.892  0.4582  0.1276 -0.0692
 4275SOL     OW14265   6.975   5.538  12.155  0.0389  0.4973  0.0148
 4275SOL    HW114266   7.019   5.458  12.184  1.8033  1.2946 -0.3558
 4275SOL    HW214267   7.000   5.548  12.063  0.3086  1.7482  0.2013
 4276SOL     OW14268   2.699   4.107  12.169 -0.0308 -0.2185 -0.5754
 4276SOL    HW114269   2.608   4.134  12.179  0.0510 -0.6290  1.8133
 4276SOL    HW214270   2.696   4.038  12.103 -1.0895  1.2757 -2.1781
 4277SOL     OW14271   1.367   4.587  11.226 -0.7704  0.0349  0.3748
 4277SOL    HW114272   1.455   4.603  11.261 -0.9085 -0.4598  0.9689
 4277SOL    HW214273   1.327   4.527  11.289 -1.6915  0.5986  0.3575
 4278SOL     OW14274   0.610   6.505  11.531 -0.3055  0.1186 -0.2465
 4278SOL    HW114275   0.619   6.411  11.520 -0.5131  0.2018 -1.1760
 4278SOL    HW214276   0.537   6.515  11.593  0.5669 -0.3429  0.8991
 4279SOL     OW14277   1.703   3.685  11.173 -0.0398  0.3141 -0.6351
 4279SOL    HW114278   1.718   3.777  11.194  0.3146  0.1672 -0.2326
 4279SOL    HW214279   1.654   3.687  11.091  1.3957  0.8333 -1.5192
 4280SOL     OW14280   2.014   4.216   0.673  0.3857  0.4047 -0.1058
 4280SOL    HW114281   2.022   4.280   0.602  0.4870  1.1685  0.5878
 4280SOL    HW214282   2.076   4.245   0.739  1.5200 -1.2513 -0.3851
 4281SOL     OW14283   2.019   2.865  11.830  0.5990  0.3698 -0.1288
 4281SOL    HW114284   1.976   2.784  11.803  0.6827  0.5776 -0.9062
 4281SOL    HW214285   1.986   2.881  11.918 -1.2087  0.7186 -0.8384
 4282SOL     OW14286   7.925   5.289  10.830  0.1102 -0.1630 -0.1888
 4282SOL    HW114287   7.926   5.233  10.908 -1.7293 -1.1077 -0.7655
 4282SOL    HW214288   7.991   5.251  10.772 -0.5030 -1.2460 -0.2131
 4283SOL     OW14289   7.969   5.545  11.268 -0.3052  0.7995  0.0262
 4283SOL    HW114290   7.986   5.597  11.190  0.9308  0.5211  0.0959
 4283SOL    HW214291   8.004   5.458  11.248 -1.3004  0.3060  0.3432
 4284SOL     OW14292   0.552   4.597   0.280 -0.2040  0.0160  0.0971
 4284SOL    HW114293   0.617   4.553   0.335  1.1094  0.3578 -1.1340
 4284SOL    HW214294   0.525   4.673   0.331  0.6227  0.0612  0.4791
 4285SOL     OW14295   0.207   5.462  10.748 -0.1116 -0.2711  0.1523
 4285SOL    HW114296   0.180   5.497  10.833 -3.0522 -2.3113  0.2076
 4285SOL    HW214297   0.257   5.383  10.770 -0.4556 -0.5269  0.0358
 4286SOL     OW14298   1.938   6.182   9.836  0.1264  0.2068  0.1622
 4286SOL    HW114299   1.961   6.266   9.876 -0.0508  0.3977 -0.1443
 4286SOL    HW214300   1.909   6.203   9.748 -0.3310 -0.1348  0.2285
 4287SOL     OW14301   2.466   5.838  11.230 -0.3319 -0.1598  0.4084
 4287SOL    HW114302   2.512   5.766  11.271 -0.5391  0.1134  1.1330
 4287SOL    HW214303   2.517   5.858  11.151 -2.3097 -3.6001 -2.0229
 4288SOL     OW14304   7.941   4.556  11.089  0.4772 -0.5144 -0.3508
 4288SOL    HW114305   7.980   4.507  11.016  0.6590  0.2180 -0.7572
 4288SOL    HW214306   7.887   4.623  11.046  0.6533 -0.0164  0.1836
 4289SOL     OW14307   2.095   6.130  10.852 -0.6183  0.0521  0.2488
 4289SOL    HW114308   2.103   6.135  10.948 -0.5780 -0.9882  0.3168
 4289SOL    HW214309   2.176   6.087  10.824  0.1257  1.8353 -0.4302
 4290SOL     OW14310   1.701   4.758  10.755 -0.3256 -0.2755  0.0873
 4290SOL    HW114311   1.618   4.722  10.724 -0.8640  0.9737 -0.0039
 4290SOL    HW214312   1.697   4.851  10.731  1.1463 -0.2137 -0.0028
 4291SOL     OW14313   0.680   4.117  11.469 -0.2727  0.7543  0.0407
 4291SOL    HW114314   0.610   4.178  11.491 -0.4392 -0.0856  2.1199
 4291SOL    HW214315   0.639   4.031  11.471  0.2730  0.4444 -1.3586
 4292SOL     OW14316   7.033   2.309  10.683  0.1583  0.1690 -0.0030
 4292SOL    HW114317   7.091   2.378  10.715  0.1430  0.7809 -1.1955
 4292SOL    HW214318   6.945   2.339  10.706  0.2038  0.1941  0.1336
 4293SOL     OW14319   0.562   4.895  11.949 -0.0346  0.1201  0.2783
 4293SOL    HW114320   0.509   4.974  11.955 -0.2138  0.0537 -0.3441
 4293SOL    HW214321   0.650   4.924  11.975 -0.4216  0.1591  1.6058
 4294SOL     OW14322   1.052   7.031   9.842 -0.4316 -0.2662  0.4778
 4294SOL    HW114323   0.984   6.967   9.865 -1.4184  0.5098 -0.1705
 4294SOL    HW214324   1.026   7.063   9.755  0.6651  0.1920  0.3047
 4295SOL     OW14325   7.072   5.339  12.303  0.0380  0.2452  0.2907
 4295SOL    HW114326   7.045   5.249  12.322  1.7919 -0.0691  1.6398
 4295SOL    HW214327   7.053   5.387  12.384 -1.0576  1.1699 -0.4798
 4296SOL     OW14328   2.037   5.493  12.069 -0.0045  0.1069  0.4952
 4296SOL    HW114329   2.104   5.470  12.004  1.0158 -0.4829  1.6989
 4296SOL    HW214330   2.066   5.577  12.104  0.3452 -0.3459  1.3089
 4297SOL     OW14331   1.221   5.930  11.345  0.5613 -0.2091 -0.0313
 4297SOL    HW114332   1.261   6.006  11.302 -0.3329  0.3473  0.1015
 4297SOL    HW214333   1.206   5.960  11.435 -2.6196  0.5827 -0.7057
 4298SOL     OW14334   0.241   3.507   9.833 -0.1431 -0.4943 -0.0932
 4298SOL    HW114335   0.168   3.446   9.841  0.3078 -1.5325 -2.8539
 4298SOL    HW214336   0.319   3.451   9.826  0.8880  0.5693  1.9465
 4299SOL     OW14337   0.499   3.314   0.669  0.4001 -0.4589 -0.4610
 4299SOL    HW114338   0.496   3.349   0.581  0.6736 -0.1784 -0.3609
 4299SOL    HW214339   0.587   3.334   0.700  0.4290 -0.8797 -0.2564
 4300SOL     OW14340   0.602   5.392  12.138  0.1670 -0.7946  0.3108
 4300SOL    HW114341   0.547   5.407  12.215  0.0431 -1.1086  0.2850
 4300SOL    HW214342   0.654   5.472  12.130 -2.0654  0.6307 -1.1471
 4301SOL     OW14343   2.474   6.183   0.556  0.3111 -0.4705  0.3527
 4301SOL    HW114344   2.410   6.205   0.623 -0.5545 -1.7691 -0.0129
 4301SOL    HW214345   2.550   6.238   0.577 -0.5587  0.4004  1.3550
 4302SOL     OW14346   7.259   4.746  11.047 -0.0918  0.1422 -0.4492
 4302SOL    HW114347   7.301   4.791  10.973  0.7205 -1.7174 -1.1767
 4302SOL    HW214348   7.331   4.717  11.102 -0.5756 -0.3617 -0.0656
 4303SOL     OW14349   1.439   4.708  10.659 -0.3470  0.0329  0.1446
 4303SOL    HW114350   1.433   4.784  10.717  1.6156  1.1552 -1.0107
 4303SOL    HW214351   1.385   4.732  10.584 -0.6302 -0.2056  0.2712
 4304SOL     OW14352   2.214   3.639   0.178  0.3490  0.0285 -0.3255
 4304SOL    HW114353   2.182   3.556   0.214 -2.4050  1.1987  0.1574
 4304SOL    HW214354   2.310   3.631   0.181  0.1835 -2.3629  1.4346
 4305SOL     OW14355   7.800   4.237   9.752  0.8426 -0.2548  0.1402
 4305SOL    HW114356   7.807   4.148   9.788 -1.3473 -0.5188  0.1022
 4305SOL    HW214357   7.832   4.229   9.662 -0.5352 -1.3811 -0.3028
 4306SOL     OW14358   2.882   4.245  11.264  0.1744  0.6003 -0.2689
 4306SOL    HW114359   2.935   4.262  11.186  0.1922 -0.1994 -0.4399
 4306SOL    HW214360   2.799   4.289  11.245  0.6489  1.6077 -0.1260
 4307SOL     OW14361   1.218   4.002  10.984  0.1272 -0.2826 -0.2533
 4307SOL    HW114362   1.235   4.087  11.023  0.3356  0.6608 -2.2652
 4307SOL    HW214363   1.126   4.006  10.956 -0.1546 -1.1057  0.5163
 4308SOL     OW14364   2.464   5.204  10.884 -0.2300 -0.1604 -0.1073
 4308SOL    HW114365   2.478   5.183  10.976 -2.1679  0.2123  0.3264
 4308SOL    HW214366   2.392   5.146  10.857 -0.4478  0.5230 -1.0562
 4309SOL     OW14367   1.079   4.149  10.033 -0.2947 -0.4588  0.2265
 4309SOL    HW114368   1.137   4.217  10.067  0.1904 -0.7157 -0.0742
 4309SOL    HW214369   0.999   4.157  10.085 -1.0692  1.7361 -1.1933
 4310SOL     OW14370   0.182   3.420   0.338  0.4870 -0.0069 -0.0949
 4310SOL    HW114371   0.222   3.344   0.297  0.6882  0.3620 -0.5851
 4310SOL    HW214372   0.175   3.396   0.431 -0.9008 -1.2360 -0.4811
 4311SOL     OW14373   7.693   3.241   0.376  0.1441 -0.0653  0.5546
 4311SOL    HW114374   7.778   3.286   0.368 -0.5796  1.1280 -0.9753
 4311SOL    HW214375   7.650   3.284   0.450 -0.1462  1.1357 -0.2851
 4312SOL     OW14376   0.049   5.741  11.090 -0.1624 -0.6453 -0.0145
 4312SOL    HW114377   0.138   5.775  11.081  0.2141 -0.8585  2.1869
 4312SOL    HW214378   0.015   5.736  11.001  1.8218 -0.0113 -0.8511
 4313SOL     OW14379   0.853   5.084  11.178 -0.2617  0.6510 -0.3951
 4313SOL    HW114380   0.763   5.057  11.157 -0.3418 -0.7211  1.4566
 4313SOL    HW214381   0.887   5.118  11.096 -2.0332 -0.0652 -1.4943
 4314SOL     OW14382   0.004   6.773  11.631 -0.2822 -0.1465 -0.3561
 4314SOL    HW114383  -0.017   6.797  11.541  0.5137  2.0483 -0.0205
 4314SOL    HW214384  -0.075   6.796  11.681  0.1006  0.8191 -0.1831
 4315SOL     OW14385   2.204   5.025  10.521 -0.1257  0.4292  0.0067
 4315SOL    HW114386   2.226   5.020  10.614 -0.5818 -1.1024  0.0589
 4315SOL    HW214387   2.216   4.936  10.489 -1.1542  0.6733 -1.1240
 4316SOL     OW14388   0.067   4.369  10.883 -0.1984  0.3406 -0.1615
 4316SOL    HW114389   0.111   4.312  10.819  0.3460  1.5875 -0.9307
 4316SOL    HW214390   0.096   4.457  10.860 -0.7827  0.9106  1.2038
 4317SOL     OW14391   1.226   6.653  10.350  0.2805  0.1998 -0.2699
 4317SOL    HW114392   1.195   6.604  10.275 -0.4151 -0.7019  0.5911
 4317SOL    HW214393   1.277   6.590  10.401  0.6813  0.7770  0.0569
 4318SOL     OW14394   0.655   7.407   0.162 -0.1683  0.4015  0.3721
 4318SOL    HW114395   0.606   7.483   0.130 -1.1246  0.7045  2.4061
 4318SOL    HW214396   0.645   7.410   0.257  2.1597 -0.6863  0.7269
 4319SOL     OW14397   7.031   3.542   0.969  0.6932  0.1744  0.2496
 4319SOL    HW114398   6.935   3.541   0.969  0.6946 -0.8759  0.5056
 4319SOL    HW214399   7.055   3.497   0.888  0.9898  0.8541 -0.0583
 4320SOL     OW14400   0.751   4.658  10.867 -0.5088  0.3090 -0.0360
 4320SOL    HW114401   0.760   4.696  10.780 -2.6726  1.9283  0.3730
 4320SOL    HW214402   0.831   4.685  10.913  0.3978 -0.1111 -1.3154
 4321SOL     OW14403   7.963   4.823   0.981  0.3143  0.0610 -0.1962
 4321SOL    HW114404   8.007   4.749   0.940  0.2212 -0.5534  0.7924
 4321SOL    HW214405   7.958   4.800   1.073 -1.6991  0.3215 -0.2063
 4322SOL     OW14406   3.886   0.180   0.495 -0.4811 -0.4376 -0.0156
 4322SOL    HW114407   3.966   0.133   0.468 -0.6609  0.3136 -1.9849
 4322SOL    HW214408   3.815   0.128   0.459 -0.9073 -0.9039  1.4297
 4323SOL     OW14409   1.492   7.379   2.280 -0.1554 -0.3498 -0.4118
 4323SOL    HW114410   1.582   7.348   2.267 -0.0730 -0.8223  1.1393
 4323SOL    HW214411   1.494   7.470   2.250  0.5340 -0.6818 -1.4688
 4324SOL     OW14412   1.159   4.266   0.667 -0.0582  0.4650  0.3086
 4324SOL    HW114413   1.106   4.343   0.686  0.4878  0.5848  1.4564
 4324SOL    HW214414   1.243   4.301   0.637 -0.9423  0.2795 -2.6660
 4325SOL     OW14415   2.198   7.079  11.861  0.2073 -0.0647  0.1621
 4325SOL    HW114416   2.208   6.986  11.883  0.2802 -0.6529 -2.0731
 4325SOL    HW214417   2.119   7.107  11.908 -0.7997 -1.7470 -0.4307
 4326SOL     OW14418   0.700   5.640   0.853 -0.0385 -0.4428 -0.1197
 4326SOL    HW114419   0.613   5.646   0.893  0.1163 -0.6368  0.2567
 4326SOL    HW214420   0.761   5.641   0.928  0.2780 -0.3485 -0.3777
 4327SOL     OW14421   1.350   6.469  11.312  0.0582  0.2344 -0.1857
 4327SOL    HW114422   1.406   6.479  11.234 -0.3709  0.0175 -0.5239
 4327SOL    HW214423   1.262   6.490  11.281 -0.6477 -2.7557 -0.5324
 4328SOL     OW14424   0.036   5.901   1.014  0.3409  0.2266  0.5696
 4328SOL    HW114425   0.110   5.949   1.051 -0.8895  0.5614  2.8144
 4328SOL    HW214426  -0.039   5.929   1.067 -1.0247 -1.6306 -0.2637
 4329SOL     OW14427   6.839   0.478   1.554  0.0302  0.5632  0.0617
 4329SOL    HW114428   6.885   0.536   1.493 -2.3652  0.5675 -1.9299
 4329SOL    HW214429   6.801   0.537   1.619  1.2946  0.7251  0.6825
 4330SOL     OW14430   1.919   7.086   2.285 -0.1737 -0.1620 -0.0456
 4330SOL    HW114431   1.875   7.004   2.307 -0.6464  0.2992  0.7973
 4330SOL    HW214432   1.993   7.091   2.345 -0.6073  0.3945  0.4623
 4331SOL     OW14433   0.603   5.664   1.810  0.1624 -0.1876  0.5225
 4331SOL    HW114434   0.626   5.741   1.758 -2.6619  0.6770  0.3858
 4331SOL    HW214435   0.626   5.687   1.900  0.1233  0.4624  0.3691
 4332SOL     OW14436   3.040   6.004   1.621 -0.6906 -0.1234  0.7371
 4332SOL    HW114437   2.948   6.021   1.603 -0.1864  0.7451 -1.3063
 4332SOL    HW214438   3.040   5.960   1.707 -2.9154  0.4785  1.1095
 4333SOL     OW14439   7.691   0.405   0.929  0.1087  0.3756 -0.1210
 4333SOL    HW114440   7.683   0.342   1.000  0.6402  1.1201  0.6134
 4333SOL    HW214441   7.749   0.473   0.963 -2.5946  2.7127  0.1410
 4334SOL     OW14442   0.960   5.751   2.170  0.1103  0.5732  0.2946
 4334SOL    HW114443   1.036   5.804   2.193  0.0822  0.8776 -0.2978
 4334SOL    HW214444   0.893   5.814   2.146 -0.2426  0.2958  0.5475
 4335SOL     OW14445   6.867   5.655   0.178  0.2747 -0.8631 -0.2684
 4335SOL    HW114446   6.888   5.748   0.181 -1.0446 -0.4749 -1.7198
 4335SOL    HW214447   6.913   5.617   0.253  0.1466  1.0951  0.8575
 4336SOL     OW14448   0.236   5.746   1.614  0.5140  0.6391 -0.0031
 4336SOL    HW114449   0.151   5.703   1.618  0.5953  0.0861 -2.5778
 4336SOL    HW214450   0.297   5.682   1.651 -0.1583  1.2088  2.2749
 4337SOL     OW14451   7.252   7.174   1.808  0.1527  0.1688 -0.2212
 4337SOL    HW114452   7.259   7.264   1.777  0.5815  0.3015  0.2451
 4337SOL    HW214453   7.233   7.182   1.902  1.6149 -0.2107  0.1304
 4338SOL     OW14454   0.627   5.578  11.145  0.6559  0.6054  0.2319
 4338SOL    HW114455   0.606   5.484  11.140  0.5389  0.7116 -2.1051
 4338SOL    HW214456   0.548   5.617  11.183 -0.1815  0.0043 -0.8261
 4339SOL     OW14457   1.689   4.996   1.267 -0.0528 -0.0349 -0.2582
 4339SOL    HW114458   1.668   5.077   1.221  1.5451  0.5621  0.0067
 4339SOL    HW214459   1.704   4.932   1.197  0.4346  0.3716 -0.5368
 4340SOL     OW14460   7.466   4.653   1.216 -0.1345  0.3450  0.1209
 4340SOL    HW114461   7.372   4.646   1.235 -0.0225  1.8317  1.3891
 4340SOL    HW214462   7.482   4.747   1.210  1.1634  0.0929 -0.8112
 4341SOL     OW14463   7.840   7.426   1.133  0.3428 -0.1840  0.1439
 4341SOL    HW114464   7.798   7.487   1.193  0.2241  0.7313 -0.8331
 4341SOL    HW214465   7.919   7.397   1.179 -0.0062  0.0916  0.9329
 4342SOL     OW14466   7.189   6.828   1.011 -0.2067 -0.0723 -0.0041
 4342SOL    HW114467   7.187   6.884   1.088  2.5241  2.1801 -1.3544
 4342SOL    HW214468   7.152   6.882   0.941 -0.3563 -1.1401 -0.7757
 4343SOL     OW14469   1.193   4.585   1.202 -0.3638 -0.5228  0.0523
 4343SOL    HW114470   1.171   4.556   1.291 -2.2408  0.4048 -0.0510
 4343SOL    HW214471   1.116   4.563   1.150 -0.1777  0.9132 -0.8725
 4344SOL     OW14472   1.139   5.206   0.958 -0.3790  0.3857 -0.1596
 4344SOL    HW114473   1.168   5.119   0.986  0.8656  1.0922  0.8545
 4344SOL    HW214474   1.104   5.246   1.037 -1.1261  0.7428 -0.6628
 4345SOL     OW14475   0.076   4.948   1.287 -0.4729 -0.0885  0.6052
 4345SOL    HW114476   0.116   4.979   1.205 -0.2821 -0.0924  0.6980
 4345SOL    HW214477   0.105   5.010   1.353  1.0896 -1.2612  1.0657
 4346SOL     OW14478   6.909   6.538  12.376  0.1960  0.2855 -0.6830
 4346SOL    HW114479   6.922   6.633  12.378  2.0483  0.0582  0.7011
 4346SOL    HW214480   6.888   6.518  12.285 -1.2218  2.1192 -0.8025
 4347SOL     OW14481   1.195   4.806   2.197  0.2381 -0.4018  0.2541
 4347SOL    HW114482   1.193   4.823   2.103 -0.6629  0.0376  0.3464
 4347SOL    HW214483   1.220   4.890   2.235  0.3937 -0.5247  0.4213
 4348SOL     OW14484   2.121   5.594   0.216 -0.1430 -0.5848  0.7393
 4348SOL    HW114485   2.132   5.550   0.300 -2.0736 -0.1952  1.2340
 4348SOL    HW214486   2.036   5.565   0.184 -0.2696  0.7234 -0.1927
 4349SOL     OW14487   0.799   6.351   0.327  0.3101 -1.0232  0.4321
 4349SOL    HW114488   0.710   6.384   0.335  0.1018 -1.2787 -0.6028
 4349SOL    HW214489   0.796   6.294   0.250  1.6882  0.0871 -0.4956
 4350SOL     OW14490   1.109   7.728   0.711  0.8577 -0.0779  0.6357
 4350SOL    HW114491   1.108   7.799   0.775  2.3020  0.5273  0.0461
 4350SOL    HW214492   1.062   7.764   0.635  1.3026  0.1577  0.4612
 4351SOL     OW14493   1.505   5.271   3.178 -0.1954 -0.4169  0.4654
 4351SOL    HW114494   1.436   5.204   3.182  0.2839 -0.8922  3.2598
 4351SOL    HW214495   1.581   5.225   3.142 -1.1663  0.0455 -2.4022
 4352SOL     OW14496   7.083   5.437   0.080  0.7908  0.6391  0.0466
 4352SOL    HW114497   7.178   5.436   0.072  0.7701  0.4512 -0.1961
 4352SOL    HW214498   7.064   5.515   0.132  1.1037  0.4340  0.4761
 4353SOL     OW14499   1.886   6.516   1.305 -0.2746  0.2312 -0.4762
 4353SOL    HW114500   1.936   6.438   1.279 -1.3775 -1.2245  1.4209
 4353SOL    HW214501   1.806   6.511   1.253 -0.7309 -0.4376  0.2642
 4354SOL     OW14502   7.731   7.621   0.977  0.1842 -0.4378  0.5502
 4354SOL    HW114503   7.726   7.622   1.072 -0.9599 -0.4990  0.4978
 4354SOL    HW214504   7.809   7.568   0.958 -0.1981 -1.3490  1.4266
 4355SOL     OW14505   1.133   7.149  12.251 -0.2258  0.3902  0.2940
 4355SOL    HW114506   1.147   7.108  12.166 -2.8124 -1.3828  0.6112
 4355SOL    HW214507   1.209   7.123  12.303  1.0302  0.9027 -1.1910
 4356SOL     OW14508   1.585   6.508   0.071 -0.0509  0.0437 -0.3621
 4356SOL    HW114509   1.625   6.430   0.107 -1.4598 -0.5529  0.0040
 4356SOL    HW214510   1.595   6.500  -0.023  0.0005 -0.4794 -0.3138
 4357SOL     OW14511   0.982   7.693  11.872 -0.4929 -0.9089  0.5354
 4357SOL    HW114512   1.045   7.623  11.890  0.1460 -0.5852 -0.3470
 4357SOL    HW214513   1.032   7.774  11.883 -0.2110 -0.6806 -1.9254
 4358SOL     OW14514   1.236   6.317  10.432  0.4653  0.1456  0.1728
 4358SOL    HW114515   1.227   6.281  10.344 -0.6919  0.2092  0.2473
 4358SOL    HW214516   1.302   6.263  10.474  0.2512 -0.5608 -0.3924
 4359SOL     OW14517   2.644   4.197   1.173  0.0832 -0.6473 -0.0608
 4359SOL    HW114518   2.694   4.253   1.114 -0.7206  1.0189  0.7505
 4359SOL    HW214519   2.554   4.201   1.140  0.0589 -1.7130 -0.1511
 4360SOL     OW14520   7.844   6.322   1.753  0.4059  0.0123 -0.2092
 4360SOL    HW114521   7.822   6.350   1.664 -0.0346  1.2914  0.2735
 4360SOL    HW214522   7.785   6.374   1.809 -0.7795 -2.2323  0.7380
 4361SOL     OW14523   1.990   5.881   0.467 -0.4352 -0.1230  0.9201
 4361SOL    HW114524   2.029   5.919   0.546 -0.5321  1.7786  0.1130
 4361SOL    HW214525   1.942   5.954   0.427 -3.1625 -1.8287  0.8053
 4362SOL     OW14526   0.343   6.039  11.428  0.0628  0.3650 -0.0315
 4362SOL    HW114527   0.329   6.133  11.424  0.8578  0.5142  0.5323
 4362SOL    HW214528   0.257   6.001  11.410 -0.7556  1.2096  1.8719
 4363SOL     OW14529   0.826   7.396  11.736  0.1976 -0.0060 -0.4365
 4363SOL    HW114530   0.757   7.371  11.675 -0.0721  0.1587 -0.2035
 4363SOL    HW214531   0.906   7.394  11.684 -0.2012  1.4625 -1.1686
 4364SOL     OW14532   1.717   7.303   1.513  0.3387 -0.1526  0.1229
 4364SOL    HW114533   1.781   7.272   1.577  0.5185 -1.7004 -0.7598
 4364SOL    HW214534   1.637   7.317   1.564  0.5712 -1.0442  0.7523
 4365SOL     OW14535   2.211   6.068  11.385  0.0875 -0.2194 -0.0304
 4365SOL    HW114536   2.187   5.976  11.368  0.3611 -1.0381  3.3538
 4365SOL    HW214537   2.302   6.075  11.356  0.1182 -1.0612 -0.1631
 4366SOL     OW14538   2.014   0.751   1.071 -0.3623 -0.1466  1.1350
 4366SOL    HW114539   1.978   0.715   1.152 -1.0006 -0.3548  0.7683
 4366SOL    HW214540   1.940   0.795   1.029 -0.1304 -0.3725  0.4766
 4367SOL     OW14541   2.254   7.770  11.637  0.4390  0.4980 -0.5410
 4367SOL    HW114542   2.239   7.677  11.656  0.6365  0.5327 -0.2103
 4367SOL    HW214543   2.170   7.812  11.652  0.8569  0.7133  1.4076
 4368SOL     OW14544   1.446   3.844   0.645 -0.7203 -0.0866  0.1174
 4368SOL    HW114545   1.404   3.867   0.728  0.8333  1.0749  0.6303
 4368SOL    HW214546   1.538   3.868   0.657 -0.3603 -0.3455 -1.7831
 4369SOL     OW14547   2.370   6.720  10.974  0.5890 -0.4048  0.0650
 4369SOL    HW114548   2.399   6.657  11.040  0.0691  0.5305  1.2243
 4369SOL    HW214549   2.385   6.806  11.014  2.1083  0.2695 -1.8383
 4370SOL     OW14550   0.580   7.803   0.552 -0.0986  0.0831 -0.0069
 4370SOL    HW114551   0.487   7.784   0.542  0.1300 -1.6077  0.7146
 4370SOL    HW214552   0.618   7.783   0.466  0.0513 -2.5267  0.5764
 4371SOL     OW14553   2.128   5.867   0.198  0.1266  0.3901  0.7095
 4371SOL    HW114554   2.048   5.879   0.249 -0.4925  0.8131 -0.3383
 4371SOL    HW214555   2.145   5.773   0.203  0.3944  0.4931  2.1372
 4372SOL     OW14556   1.568   6.240   1.318 -0.4858  0.2186 -0.8116
 4372SOL    HW114557   1.608   6.266   1.401 -0.0398  0.4826 -1.1047
 4372SOL    HW214558   1.517   6.162   1.339 -0.9710  0.7048 -0.1394
 4373SOL     OW14559   7.019   5.573  11.873  0.1342 -0.5315 -0.3217
 4373SOL    HW114560   6.977   5.582  11.787  4.1349 -0.0073 -2.4799
 4373SOL    HW214561   7.077   5.649  11.879  1.4560 -1.6200  1.9287
 4374SOL     OW14562   1.518   5.535  12.093 -0.1966 -0.3730  0.4175
 4374SOL    HW114563   1.511   5.606  12.029 -0.9592 -0.6406  0.1955
 4374SOL    HW214564   1.544   5.580  12.174 -2.3517  0.4583  0.7283
 4375SOL     OW14565   1.593   6.325   0.435  0.6429  0.1913 -0.0989
 4375SOL    HW114566   1.579   6.289   0.522  0.6513  0.7190  0.1208
 4375SOL    HW214567   1.584   6.249   0.377  0.1145 -0.0721  0.3100
 4376SOL     OW14568   0.207   0.029  11.948  0.6921  0.1833  0.4727
 4376SOL    HW114569   0.121   0.056  11.980  0.1059 -0.4222 -0.5308
 4376SOL    HW214570   0.268   0.086  11.994 -0.3507  1.7157  0.0557
 4377SOL     OW14571   0.112   5.440  12.225  0.5885 -0.5291 -0.1356
 4377SOL    HW114572   0.017   5.441  12.234  0.5333 -1.3332 -0.6083
 4377SOL    HW214573   0.145   5.445  12.315  0.1045 -0.3870  0.0340
 4378SOL     OW14574   2.350   6.862  12.198  0.7499 -0.1703  0.0321
 4378SOL    HW114575   2.435   6.901  12.220  0.6554 -1.2003  2.5951
 4378SOL    HW214576   2.354   6.773  12.235 -1.0069 -0.6531 -0.8431
 4379SOL     OW14577   5.755   7.967   1.722  0.2535  0.2052 -0.4966
 4379SOL    HW114578   5.787   7.994   1.636  3.0285 -2.1147 -0.3488
 4379SOL    HW214579   5.815   8.010   1.784  1.6136 -2.1451 -0.0621
 4380SOL     OW14580   3.178   6.299   1.275 -0.4167  0.0410 -0.2963
 4380SOL    HW114581   3.190   6.291   1.369  0.3057  0.6026 -0.3322
 4380SOL    HW214582   3.172   6.208   1.244  0.0488 -0.1630  0.2040
 4381SOL     OW14583   0.949   0.119   1.013  0.4173 -0.1195 -0.4402
 4381SOL    HW114584   0.865   0.130   0.969  0.7752  2.8830 -0.6392
 4381SOL    HW214585   1.005   0.075   0.948 -0.3634 -0.0169 -1.2014
 4382SOL     OW14586   2.607   6.604   1.242  0.0151 -0.2494 -0.1505
 4382SOL    HW114587   2.646   6.575   1.161 -2.1370  1.2131 -1.8398
 4382SOL    HW214588   2.563   6.527   1.277  1.0466 -0.9153 -0.2776
 4383SOL     OW14589   7.900   6.275  12.392  0.4629 -0.2720 -0.2033
 4383SOL    HW114590   7.971   6.274  12.456  0.0843 -0.4893  0.2227
 4383SOL    HW214591   7.886   6.368  12.373  1.2042 -0.2557 -0.6841
 4384SOL     OW14592   0.994   4.495   2.189  0.5829  0.0684 -0.2774
 4384SOL    HW114593   1.008   4.508   2.282  0.5269  1.8750 -0.4954
 4384SOL    HW214594   0.920   4.434   2.184  0.7009 -0.1806  0.8440
 4385SOL     OW14595   1.275   7.323   2.131  0.3159  0.3875  0.1454
 4385SOL    HW114596   1.330   7.304   2.054  0.4482 -1.6119  0.6729
 4385SOL    HW214597   1.337   7.348   2.199  0.1809  2.3824 -0.4237
 4386SOL     OW14598   0.638   6.631   0.774 -0.2806  0.2426 -0.1596
 4386SOL    HW114599   0.666   6.540   0.787 -1.1741  0.0491  0.5427
 4386SOL    HW214600   0.694   6.664   0.703  2.8684  0.4161  2.2001
 4387SOL     OW14601   1.945   6.777   1.214  0.6541 -0.0422  0.0380
 4387SOL    HW114602   1.938   6.736   1.128 -1.3727  1.6091 -0.6760
 4387SOL    HW214603   1.908   6.713   1.275 -2.2265  0.4517 -1.0165
 4388SOL     OW14604   1.996   6.226  11.493  0.6444 -0.2775 -1.1294
 4388SOL    HW114605   2.055   6.155  11.469  0.9256  0.0165 -1.3087
 4388SOL    HW214606   1.951   6.250  11.412 -0.2972 -1.0178 -0.8497
 4389SOL     OW14607   0.781   6.110   0.169  0.1023  0.3936  0.2033
 4389SOL    HW114608   0.752   6.072   0.086 -0.1107  0.9316  0.0266
 4389SOL    HW214609   0.729   6.065   0.235 -0.6094  0.8150 -0.0542
 4390SOL     OW14610   0.805   5.034   1.781  0.1597 -0.0485  0.3128
 4390SOL    HW114611   0.891   4.994   1.791  0.2195  0.2599  1.1456
 4390SOL    HW214612   0.768   4.993   1.704  0.1659 -1.8356  1.2163
 4391SOL     OW14613   1.374   5.658   0.493 -0.0159 -0.7955 -0.0934
 4391SOL    HW114614   1.330   5.703   0.565 -2.3362 -1.0419 -1.2306
 4391SOL    HW214615   1.451   5.618   0.532  1.0204  2.3707  1.3861
 4392SOL     OW14616   3.709   6.181   9.678  0.6730  0.3123  0.2994
 4392SOL    HW114617   3.690   6.267   9.716  0.7510 -0.1198  1.3394
 4392SOL    HW214618   3.770   6.199   9.606  1.4766  1.0195  1.1464
 4393SOL     OW14619   7.098   6.699   1.687  0.1479 -0.6663 -0.0066
 4393SOL    HW114620   7.070   6.790   1.695 -0.6039 -0.9454  0.6354
 4393SOL    HW214621   7.185   6.704   1.647 -0.6112  0.2514 -1.6654
 4394SOL     OW14622   2.346   3.010   0.568  0.3207 -0.2027  0.6430
 4394SOL    HW114623   2.394   3.053   0.639  2.1718 -1.1710  0.0543
 4394SOL    HW214624   2.302   2.936   0.611  0.3796 -0.0438  0.9855
 4395SOL     OW14625   7.474   6.680   1.245 -0.4360  0.2175 -0.6720
 4395SOL    HW114626   7.450   6.773   1.254 -0.3752  0.2131 -0.4621
 4395SOL    HW214627   7.476   6.665   1.150  1.3972  0.9339 -0.8049
 4396SOL     OW14628   1.704   7.949  11.100  0.1602  0.0006  0.1591
 4396SOL    HW114629   1.766   8.007  11.057  0.0088 -0.2546 -0.4135
 4396SOL    HW214630   1.750   7.917  11.178  1.0652 -0.8331 -0.6857
 4397SOL     OW14631   7.575   7.269   0.731 -0.2726 -0.3733  0.4069
 4397SOL    HW114632   7.540   7.211   0.664  0.2510 -1.5494  1.1167
 4397SOL    HW214633   7.660   7.296   0.698 -1.3971  1.8182 -0.9350
 4398SOL     OW14634   0.989   7.409   0.110  0.4729 -0.0590 -0.6346
 4398SOL    HW114635   0.954   7.444   0.192  1.3552  1.8734 -1.0323
 4398SOL    HW214636   0.930   7.442   0.042  1.2247  0.5619 -1.0034
 4399SOL     OW14637   7.072   3.263   0.734  0.1031 -0.3326  0.0948
 4399SOL    HW114638   7.043   3.184   0.779 -0.1655 -0.3387 -0.0871
 4399SOL    HW214639   7.144   3.296   0.787  0.3481 -0.8113  0.0635
 4400SOL     OW14640   0.145   6.322  12.474 -0.2340 -0.1837 -0.3704
 4400SOL    HW114641   0.135   6.400  12.528  1.7729 -0.1547  0.0070
 4400SOL    HW214642   0.157   6.355  12.385  2.2241  0.0774  0.0004
 4401SOL     OW14643   6.701   7.973  11.592  0.3611  0.0809 -0.0309
 4401SOL    HW114644   6.709   8.034  11.519  0.8956  1.2066  0.9349
 4401SOL    HW214645   6.766   7.905  11.574 -0.2954 -0.2918 -1.1562
 4402SOL     OW14646   1.020   5.401  11.431  0.8961  0.7036  0.3881
 4402SOL    HW114647   0.943   5.435  11.475  0.4856  0.7482 -0.3526
 4402SOL    HW214648   1.078   5.373  11.502 -0.3376 -0.5333  0.9489
 4403SOL     OW14649   1.319   5.910  11.965  0.3143  0.1092 -0.4646
 4403SOL    HW114650   1.262   5.986  11.976  0.5386  0.3089 -0.6611
 4403SOL    HW214651   1.277   5.841  12.016  1.0732  0.8686  1.2511
 4404SOL     OW14652   1.626   7.785   1.411  0.4626  0.1417 -0.1711
 4404SOL    HW114653   1.682   7.710   1.392 -0.0232 -0.6338  1.2700
 4404SOL    HW214654   1.625   7.791   1.506 -2.8136 -0.6506 -0.0238
 4405SOL     OW14655   3.100   5.303   2.365  0.1841 -0.5699  0.8127
 4405SOL    HW114656   3.149   5.224   2.344 -1.0033 -0.9145 -0.8888
 4405SOL    HW214657   3.032   5.274   2.426  0.2418 -0.6901  0.8203
 4406SOL     OW14658   2.591   5.356   0.514 -0.1987  0.1079 -0.3176
 4406SOL    HW114659   2.504   5.390   0.535  0.1787  0.7530  0.2284
 4406SOL    HW214660   2.647   5.433   0.514  0.2372 -0.1877 -1.4620
 4407SOL     OW14661   0.225   0.338   0.538  0.0296  0.1583 -0.2947
 4407SOL    HW114662   0.213   0.334   0.633 -1.2309 -0.7021 -0.4597
 4407SOL    HW214663   0.171   0.266   0.504  1.9461 -0.7898 -1.5496
 4408SOL     OW14664   2.407   6.602   2.500  0.5300 -0.1458 -0.5329
 4408SOL    HW114665   2.419   6.522   2.551 -0.2391 -0.2004 -0.4313
 4408SOL    HW214666   2.400   6.672   2.565 -0.9744 -0.2815 -0.5231
 4409SOL     OW14667   7.354   4.585   0.970 -0.1288  0.3003 -0.2817
 4409SOL    HW114668   7.346   4.660   0.910 -0.0133  0.6588  0.1430
 4409SOL    HW214669   7.416   4.614   1.036 -1.5172  0.5541  0.9652
 4410SOL     OW14670   7.887   6.660   0.013  0.1492 -0.0079  0.1891
 4410SOL    HW114671   7.803   6.648   0.057  1.0230 -1.1967  1.5832
 4410SOL    HW214672   7.950   6.609   0.064  1.1465 -1.9628 -2.7136
 4411SOL     OW14673   2.733   6.724   1.562  0.5738  0.2022  0.1260
 4411SOL    HW114674   2.638   6.731   1.562  0.5619  0.1449 -0.7957
 4411SOL    HW214675   2.757   6.721   1.470  1.5315  1.0373  0.3257
 4412SOL     OW14676   1.724   0.467  12.437 -0.1928  0.3881  0.1421
 4412SOL    HW114677   1.805   0.454  12.387  0.0611  0.0584  0.6322
 4412SOL    HW214678   1.721   0.562  12.450  0.3290  0.3661  0.4655
 4413SOL     OW14679   0.622   6.771   0.999  0.4416  0.1233  0.1712
 4413SOL    HW114680   0.631   6.737   0.910  1.4551 -0.9557  0.6659
 4413SOL    HW214681   0.570   6.705   1.045 -0.8728  1.1159  0.1775
 4414SOL     OW14682   0.953   6.274   0.538 -0.0012  0.0119  0.3965
 4414SOL    HW114683   0.898   6.283   0.460 -2.9903  0.6451  2.3944
 4414SOL    HW214684   1.034   6.321   0.516 -0.7734  0.2700 -2.2403
 4415SOL     OW14685   1.052   5.586   1.455 -0.1243  0.2731  0.7240
 4415SOL    HW114686   1.084   5.496   1.448 -0.1970  0.2742  0.3204
 4415SOL    HW214687   1.018   5.593   1.544 -0.5246 -0.2364  0.6163
 4416SOL     OW14688   0.998   5.158   0.333  0.6672  0.7154 -0.1428
 4416SOL    HW114689   0.954   5.223   0.389 -1.3920 -1.8836  1.4806
 4416SOL    HW214690   0.938   5.145   0.260  0.3669 -0.3653  0.2848
 4417SOL     OW14691   1.475   6.651   0.612  0.2380 -0.1134 -0.0083
 4417SOL    HW114692   1.415   6.726   0.613  0.4358  0.0901 -1.2921
 4417SOL    HW214693   1.442   6.595   0.542  1.3956 -0.1129 -0.5723
 4418SOL     OW14694   0.932   6.395  10.877  0.2826 -0.1706  0.3658
 4418SOL    HW114695   1.001   6.384  10.811 -0.0122 -0.8413  0.1651
 4418SOL    HW214696   0.889   6.477  10.852  1.4890  0.6722  0.9465
 4419SOL     OW14697   0.351   4.567   1.196  0.1162 -0.3072  0.3588
 4419SOL    HW114698   0.263   4.550   1.162 -0.0228 -0.4159  0.7754
 4419SOL    HW214699   0.341   4.570   1.291  0.6831 -1.0259  0.4516
 4420SOL     OW14700   1.892   6.003   2.537 -0.6431 -0.1427 -0.2805
 4420SOL    HW114701   1.863   6.054   2.462 -1.4487  1.4576  1.0530
 4420SOL    HW214702   1.978   5.970   2.512 -0.1633  1.7305 -1.2946
 4421SOL     OW14703   1.657   7.582   0.376 -0.3034 -0.7204  0.2595
 4421SOL    HW114704   1.669   7.596   0.470  1.6218  0.4804 -0.0987
 4421SOL    HW214705   1.604   7.656   0.347 -0.2911 -0.6981  0.2928
 4422SOL     OW14706   7.341   7.316   2.312  0.3180  0.0632  0.5563
 4422SOL    HW114707   7.260   7.322   2.363  0.0086 -3.8405  0.7890
 4422SOL    HW214708   7.328   7.376   2.239 -2.2170  0.5133  1.2889
 4423SOL     OW14709   1.166   6.189   1.418 -0.1208 -0.1811 -0.2485
 4423SOL    HW114710   1.236   6.245   1.386 -0.6112  2.0133  2.1667
 4423SOL    HW214711   1.205   6.102   1.424  2.1177  0.7991  0.1732
 4424SOL     OW14712   1.598   0.052   1.310  0.4601 -0.2569 -0.0865
 4424SOL    HW114713   1.619  -0.040   1.325 -1.2571 -0.4112  1.8389
 4424SOL    HW214714   1.564   0.083   1.394  1.5310  2.3226 -0.5128
 4425SOL     OW14715   0.833   7.520   1.293 -0.3292  0.8685 -0.1003
 4425SOL    HW114716   0.826   7.615   1.294  1.0843  1.0176 -0.9452
 4425SOL    HW214717   0.884   7.501   1.215 -0.4856 -0.5802  0.1303
 4426SOL     OW14718   2.286   5.096   1.311 -0.1449 -0.1310  0.1231
 4426SOL    HW114719   2.205   5.136   1.277  0.5276 -0.3063 -1.7842
 4426SOL    HW214720   2.355   5.157   1.286  0.4409 -0.4894  0.8290
 4427SOL     OW14721   2.013   6.164   0.562  0.2279  0.0672 -0.1184
 4427SOL    HW114722   2.068   6.226   0.514  0.3308  0.8765  1.0046
 4427SOL    HW214723   1.974   6.217   0.632 -0.7463 -0.8485  0.0432
 4428SOL     OW14724   1.147   0.032   0.005 -0.4783  0.5316  0.1056
 4428SOL    HW114725   1.170   0.110  -0.044  0.5067 -0.0434 -0.3898
 4428SOL    HW214726   1.151  -0.039  -0.060 -1.9244  0.1375  0.4106
 4429SOL     OW14727   3.641   6.127   2.955 -0.0547  0.1386  0.5474
 4429SOL    HW114728   3.674   6.177   2.881 -0.1258 -0.8509 -0.1667
 4429SOL    HW214729   3.561   6.173   2.982 -2.6593 -1.9404 -2.9016
 4430SOL     OW14730   1.733   5.889   2.110  0.1239  0.5570 -0.0167
 4430SOL    HW114731   1.794   5.961   2.094  0.0888  0.5284 -0.2853
 4430SOL    HW214732   1.648   5.924   2.084  0.2315  0.1359 -0.9634
 4431SOL     OW14733   1.993   5.968   1.051  0.3905  0.2075  0.0219
 4431SOL    HW114734   2.056   5.973   0.979 -1.2816  0.5059 -1.5118
 4431SOL    HW214735   1.960   6.057   1.060 -1.5409 -0.3553 -0.9040
 4432SOL     OW14736   7.715   6.350  11.477 -0.0142  0.1176 -0.0884
 4432SOL    HW114737   7.662   6.273  11.454 -1.7486  1.6147 -1.4622
 4432SOL    HW214738   7.794   6.342  11.424  0.3996 -1.3085  0.7079
 4433SOL     OW14739   2.080   6.311  10.407  0.1283  0.3367 -0.4115
 4433SOL    HW114740   2.055   6.308  10.500 -0.3089  0.6103 -0.5199
 4433SOL    HW214741   2.044   6.230  10.371 -0.1676  0.4927 -0.4614
 4434SOL     OW14742   0.411   5.448   1.430  0.4760 -0.0502 -0.0381
 4434SOL    HW114743   0.358   5.425   1.506  0.2150 -2.5140 -0.8994
 4434SOL    HW214744   0.492   5.484   1.468 -0.6837  1.2706  1.3102
 4435SOL     OW14745   6.087   4.910   1.437 -0.1196 -0.3985 -0.6140
 4435SOL    HW114746   6.027   4.838   1.416  0.2036 -0.3604 -1.7618
 4435SOL    HW214747   6.172   4.880   1.406  0.2319  0.0346 -0.0880
 4436SOL     OW14748   1.020   7.585   1.832  0.4947  0.1298  0.4407
 4436SOL    HW114749   0.984   7.574   1.920 -2.7439  0.4714 -0.7181
 4436SOL    HW214750   1.051   7.498   1.809 -1.2685 -0.6688  0.9036
 4437SOL     OW14751   1.012   6.143   0.809  0.5485  0.4142 -0.1531
 4437SOL    HW114752   0.962   6.202   0.865 -0.7003 -0.2440 -0.5278
 4437SOL    HW214753   1.044   6.198   0.737  0.8897  0.9628  0.4162
 4438SOL     OW14754   2.160   4.400   0.484 -0.0918 -0.5421 -0.8947
 4438SOL    HW114755   2.117   4.445   0.411 -2.2806 -1.4263 -0.2277
 4438SOL    HW214756   2.185   4.471   0.544 -2.1059 -0.0451 -0.5704
 4439SOL     OW14757   6.572   4.478   1.933  0.0596 -0.3501 -0.0900
 4439SOL    HW114758   6.622   4.487   2.015  1.2496 -1.0679 -0.7141
 4439SOL    HW214759   6.592   4.558   1.884  1.3181 -1.0163 -0.7015
 4440SOL     OW14760   2.294   4.296   1.828  0.5484  0.2015 -0.4294
 4440SOL    HW114761   2.255   4.298   1.916  1.2028  0.4378 -0.1363
 4440SOL    HW214762   2.384   4.326   1.841  0.9387 -0.6451 -1.0394
 4441SOL     OW14763   2.214   5.452   0.767  0.3038  0.2040  0.4101
 4441SOL    HW114764   2.260   5.535   0.757 -2.3015  1.7362  0.2528
 4441SOL    HW214765   2.195   5.446   0.860  0.1985 -0.0589  0.3732
 4442SOL     OW14766   1.019   6.607   1.715  0.3460 -0.1515  0.2030
 4442SOL    HW114767   1.013   6.516   1.743  0.6750 -0.0174  0.7060
 4442SOL    HW214768   1.050   6.602   1.625 -1.4243 -0.6147 -0.4307
 4443SOL     OW14769   7.473   6.167   1.812  0.3568 -0.4034  0.5680
 4443SOL    HW114770   7.499   6.182   1.903  1.6206 -0.8077  0.2877
 4443SOL    HW214771   7.451   6.255   1.779  2.5008  0.1660  0.4997
 4444SOL     OW14772   7.682   6.989   1.937  0.0147  0.2231 -0.6975
 4444SOL    HW114773   7.607   6.981   1.877 -0.4286 -0.5024 -0.0643
 4444SOL    HW214774   7.751   7.028   1.884 -1.3937  2.7588 -0.8019
 4445SOL     OW14775   1.749   4.483   0.935  0.2017 -0.2674 -0.2104
 4445SOL    HW114776   1.805   4.461   1.010  0.3584 -2.0665 -0.8092
 4445SOL    HW214777   1.664   4.503   0.974  0.8251  1.0380  0.5902
 4446SOL     OW14778   0.939   3.760  11.669 -0.1182 -0.2487 -0.3002
 4446SOL    HW114779   0.970   3.705  11.741  1.1271 -0.1755 -0.7503
 4446SOL    HW214780   0.866   3.809  11.706  0.0075 -0.7735  0.6847
 4447SOL     OW14781   7.019   6.633   1.079 -0.1383 -0.3554  0.1627
 4447SOL    HW114782   7.076   6.698   1.038 -2.7668  0.4793 -2.5101
 4447SOL    HW214783   7.043   6.550   1.039  1.6069 -0.7043  1.8131
 4448SOL     OW14784   1.295   6.804   0.804 -0.3294  0.0124 -0.0047
 4448SOL    HW114785   1.287   6.892   0.840 -1.4910 -0.7319  1.6912
 4448SOL    HW214786   1.241   6.805   0.725 -1.8260  0.3684  0.9760
 4449SOL     OW14787   6.267   6.094   1.818  0.2935 -0.3900  0.6738
 4449SOL    HW114788   6.351   6.133   1.798 -0.5466  1.6642  0.9138
 4449SOL    HW214789   6.217   6.101   1.737  0.3646 -1.7231  0.4886
 4450SOL     OW14790   1.761   4.635   2.583 -0.0425 -0.1845  0.7751
 4450SOL    HW114791   1.841   4.663   2.628  0.0975 -2.2861  1.9553
 4450SOL    HW214792   1.765   4.540   2.583 -1.9563 -0.3271 -0.2919
 4451SOL     OW14793   0.711   5.537   0.038  0.5560  0.2407 -0.9081
 4451SOL    HW114794   0.774   5.595   0.080 -1.8525  1.8603  0.7456
 4451SOL    HW214795   0.685   5.583  -0.042  0.2148  0.4178 -0.6975
 4452SOL     OW14796   7.437   6.979  12.296 -0.1611  0.0961 -0.1539
 4452SOL    HW114797   7.476   7.049  12.244  1.1883 -0.1605  0.4787
 4452SOL    HW214798   7.505   6.953  12.358 -0.5005 -2.0075 -0.5761
 4453SOL     OW14799   7.996   6.924   1.294  0.8223  0.2424 -0.1447
 4453SOL    HW114800   8.022   6.837   1.324  1.2171 -0.4651 -2.2999
 4453SOL    HW214801   8.038   6.985   1.354  3.8181 -0.9788 -0.8226
 4454SOL     OW14802   0.652   5.889  11.937  0.0533 -0.1154  0.7916
 4454SOL    HW114803   0.581   5.944  11.902 -0.0575 -0.0407  1.1300
 4454SOL    HW214804   0.614   5.847  12.014  0.2635 -0.3614  0.7618
 4455SOL     OW14805   1.944   4.220   0.119 -0.5467 -0.4498 -0.5228
 4455SOL    HW114806   2.019   4.264   0.080  0.1916  0.2388  1.5831
 4455SOL    HW214807   1.948   4.131   0.083  1.4623 -0.5209 -0.2352
 4456SOL     OW14808   1.218   4.304  11.875  0.0632 -0.3792 -0.0781
 4456SOL    HW114809   1.168   4.351  11.942 -0.1045 -0.0550 -0.4294
 4456SOL    HW214810   1.160   4.301  11.800  0.7429  0.4324 -0.6621
 4457SOL     OW14811   7.699   4.720   2.090  0.0251  0.6231 -0.1572
 4457SOL    HW114812   7.791   4.701   2.073 -0.2820 -0.9741 -0.2277
 4457SOL    HW214813   7.685   4.808   2.056  1.4421  0.7577 -0.4364
 4458SOL     OW14814   2.943   7.475   1.122  0.0722  0.1261  0.1998
 4458SOL    HW114815   2.955   7.430   1.205  1.0056 -0.2818 -0.1368
 4458SOL    HW214816   2.865   7.436   1.084  0.4720 -0.7292  0.2304
 4459SOL     OW14817   0.571   4.184   1.084 -0.0461 -0.3592 -0.3809
 4459SOL    HW114818   0.504   4.125   1.050 -1.2338  0.9662 -0.4014
 4459SOL    HW214819   0.545   4.271   1.055  0.6946  0.4175  1.1339
 4460SOL     OW14820   0.919   6.309   1.031 -0.3874 -0.0115  0.0696
 4460SOL    HW114821   0.926   6.402   1.050  0.5076  0.4188 -2.0110
 4460SOL    HW214822   0.912   6.266   1.116  2.3984  1.6935  1.2880
 4461SOL     OW14823   7.327   7.417   1.453  0.0361 -0.4994 -0.1198
 4461SOL    HW114824   7.294   7.419   1.543 -0.1842  0.4551 -0.2175
 4461SOL    HW214825   7.269   7.356   1.408 -0.5561 -0.1129  0.1120
 4462SOL     OW14826   1.462   6.011  11.743  0.5711  0.1480 -0.3589
 4462SOL    HW114827   1.505   6.068  11.806  0.5072 -0.4201  0.2061
 4462SOL    HW214828   1.408   5.952  11.796 -2.4095  2.0126 -1.1298
 4463SOL     OW14829   1.889   7.154   1.684  0.4534  0.1204  0.1327
 4463SOL    HW114830   1.908   7.076   1.632  0.9161 -0.3156  0.9526
 4463SOL    HW214831   1.804   7.135   1.725  0.1183  0.4390 -0.4005
 4464SOL     OW14832   7.209   7.867   0.363  0.7108  0.2308 -0.1499
 4464SOL    HW114833   7.229   7.944   0.310 -1.7825  1.9082  1.1642
 4464SOL    HW214834   7.127   7.833   0.327  0.9193 -0.8372  0.3273
 4465SOL     OW14835   1.223   6.385   0.801  0.5714 -0.7075 -0.1843
 4465SOL    HW114836   1.176   6.427   0.729  2.2894 -0.2958 -1.1106
 4465SOL    HW214837   1.196   6.435   0.879 -0.2237 -0.2556 -0.7267
 4466SOL     OW14838   1.364   7.366   0.412 -0.0049  0.2241  0.1824
 4466SOL    HW114839   1.314   7.390   0.490 -0.2352 -1.0705  0.4434
 4466SOL    HW214840   1.425   7.439   0.400 -1.2767  1.3714  0.4234
 4467SOL     OW14841   7.889   6.316  10.942  0.2311  0.4624 -0.1127
 4467SOL    HW114842   7.972   6.326  10.895 -0.5051  0.6678 -1.4194
 4467SOL    HW214843   7.825   6.361  10.886 -0.9271 -0.5439  0.3788
 4468SOL     OW14844   2.932   6.833   1.026 -0.1529  0.2255  0.2631
 4468SOL    HW114845   2.913   6.903   0.964 -1.8205 -0.5441 -0.1300
 4468SOL    HW214846   2.960   6.759   0.972  0.0440  0.0758  0.5625
 4469SOL     OW14847   7.690   6.848   1.051 -0.4175  0.0456  0.0217
 4469SOL    HW114848   7.632   6.904   1.102  0.3936 -0.1072  1.1468
 4469SOL    HW214849   7.639   6.824   0.974 -0.9837  1.8484 -0.1938
 4470SOL     OW14850   7.282   5.369   1.186  0.4913  0.1205  0.3771
 4470SOL    HW114851   7.235   5.415   1.256 -0.9474 -1.4452  0.5232
 4470SOL    HW214852   7.257   5.415   1.106 -0.4171  0.0178  0.5856
 4471SOL     OW14853   3.709   7.029   2.188  0.6848 -0.1129 -0.7093
 4471SOL    HW114854   3.715   7.018   2.282 -0.0912 -1.4994 -0.7912
 4471SOL    HW214855   3.684   7.121   2.176  0.7695  0.0693  0.4319
 4472SOL     OW14856   5.502   3.833   0.053  0.0970 -0.0651 -0.4725
 4472SOL    HW114857   5.524   3.775  -0.019 -0.0384  0.4898 -0.9779
 4472SOL    HW214858   5.575   3.826   0.114 -0.1443 -1.1199 -0.2907
 4473SOL     OW14859   1.946   5.591  10.391  0.2255  0.2428 -0.5683
 4473SOL    HW114860   2.033   5.614  10.423 -0.6523  0.3091  2.0441
 4473SOL    HW214861   1.930   5.503  10.426 -1.0796  0.5979 -0.2107
 4474SOL     OW14862   1.828   7.457  12.357  0.7151  0.2048  0.0863
 4474SOL    HW114863   1.807   7.363  12.358 -0.7124  0.4707 -1.3192
 4474SOL    HW214864   1.796   7.490  12.440 -2.5675  0.1362 -1.0202
 4475SOL     OW14865   1.118   7.807   1.066  0.2039 -0.6140  0.2667
 4475SOL    HW114866   1.179   7.841   1.132  1.1177  0.6388 -1.1626
 4475SOL    HW214867   1.120   7.872   0.995  0.3944 -2.6242 -1.6694
 4476SOL     OW14868   0.613   5.054   0.129  0.3019 -0.2710  0.1935
 4476SOL    HW114869   0.665   5.009   0.196  1.0241 -0.2902 -0.3594
 4476SOL    HW214870   0.612   4.994   0.055 -2.1523 -1.0983  0.8333
 4477SOL     OW14871   3.623   6.320   0.072 -0.4804  0.3697  0.2049
 4477SOL    HW114872   3.584   6.355  -0.008 -2.7106 -1.1289  0.5328
 4477SOL    HW214873   3.635   6.226   0.054 -0.8990  0.0337  1.5395
 4478SOL     OW14874   0.973   5.894   0.739  0.3232 -0.4406 -0.2516
 4478SOL    HW114875   0.957   5.844   0.819 -1.0472 -0.3326 -0.4224
 4478SOL    HW214876   0.994   5.982   0.769 -1.1078 -0.1597  0.0007
 4479SOL     OW14877   3.643   6.835   0.006  0.2330 -0.5340  0.2868
 4479SOL    HW114878   3.717   6.861  -0.048  0.6579 -2.8529 -0.3183
 4479SOL    HW214879   3.671   6.755   0.049 -1.2265 -0.3986  1.5994
 4480SOL     OW14880   2.646   5.992   0.698 -0.4008  0.5697  0.4575
 4480SOL    HW114881   2.661   5.910   0.651  2.3016  0.9231  0.5794
 4480SOL    HW214882   2.598   6.047   0.635 -1.8599 -0.8886  0.2230
 4481SOL     OW14883   1.026   6.527   0.630 -0.4735  0.5530 -0.6084
 4481SOL    HW114884   1.035   6.622   0.628  0.7022  0.4678 -2.6971
 4481SOL    HW214885   0.993   6.504   0.543  0.9390 -1.0395 -0.7827
 4482SOL     OW14886   1.071   0.513  12.081  0.2807 -0.1989  0.1581
 4482SOL    HW114887   1.054   0.523  12.174 -0.0987 -0.4517  0.1199
 4482SOL    HW214888   1.015   0.579  12.039 -0.0969 -0.5715  0.0698
 4483SOL     OW14889   1.660   6.751   0.162 -0.6648  0.2546 -1.1154
 4483SOL    HW114890   1.678   6.812   0.090  0.1413 -1.3680 -2.3316
 4483SOL    HW214891   1.631   6.671   0.119 -0.5406 -0.6358  0.4054
 4484SOL     OW14892   0.081   6.511   0.162  0.4370  0.0937  0.1713
 4484SOL    HW114893   0.098   6.561   0.242 -0.5446 -0.9717  1.0802
 4484SOL    HW214894   0.001   6.462   0.181  1.9382 -2.6854 -0.2698
 4485SOL     OW14895   1.073   0.085   0.261 -0.7707 -0.4622 -0.0929
 4485SOL    HW114896   1.117   0.054   0.182 -1.2362  0.0968 -0.5696
 4485SOL    HW214897   0.980   0.074   0.243 -0.9683  1.4882 -0.3947
 4486SOL     OW14898   1.307   0.543   1.220  0.1572  0.1811  0.3502
 4486SOL    HW114899   1.320   0.630   1.257  0.8654  0.2796 -0.1189
 4486SOL    HW214900   1.219   0.518   1.249 -0.6034  1.5982 -0.6110
 4487SOL     OW14901   1.950   6.949   1.464  0.1118  0.2408 -0.1116
 4487SOL    HW114902   2.041   6.917   1.460 -0.3812 -1.8478  2.6356
 4487SOL    HW214903   1.897   6.870   1.466 -1.7258  1.4083 -0.3239
 4488SOL     OW14904   1.702   4.856   1.818  0.1149  0.5680 -0.0526
 4488SOL    HW114905   1.723   4.848   1.911  1.5720  0.4392 -0.3604
 4488SOL    HW214906   1.609   4.878   1.815  0.0552  0.5694  1.4284
 4489SOL     OW14907   2.027   5.680   1.665 -0.0527  0.0092  0.8346
 4489SOL    HW114908   1.966   5.651   1.732 -1.0240  0.4389  0.1624
 4489SOL    HW214909   2.049   5.601   1.615  0.0863 -0.1748  1.1840
 4490SOL     OW14910   7.462   6.469   0.188  0.4656  0.0304  0.6065
 4490SOL    HW114911   7.379   6.442   0.227 -0.2046 -1.6892 -1.7656
 4490SOL    HW214912   7.522   6.478   0.263 -1.4436 -0.1279  2.2456
 4491SOL     OW14913   1.492   5.568   0.767 -0.3402 -0.6064  0.2919
 4491SOL    HW114914   1.452   5.655   0.767 -0.0145 -0.4526  0.1253
 4491SOL    HW214915   1.423   5.509   0.795 -0.5590 -0.2875  0.4261
 4492SOL     OW14916   7.291   7.778   0.783  0.6252 -1.0134 -0.4755
 4492SOL    HW114917   7.365   7.730   0.821 -1.2151 -3.4543  0.3397
 4492SOL    HW214918   7.221   7.712   0.777 -1.9502  1.4681  0.1614
 4493SOL     OW14919   0.392   6.991   1.779 -0.2113 -0.2440  0.1029
 4493SOL    HW114920   0.392   6.898   1.799  0.4566  0.1210  2.0229
 4493SOL    HW214921   0.423   7.033   1.859  0.0252  1.6008 -0.8922
 4494SOL     OW14922   7.915   6.695   2.013  0.0961 -0.0163  0.3309
 4494SOL    HW114923   7.986   6.745   1.973  0.5121 -0.0605  1.0151
 4494SOL    HW214924   7.942   6.681   2.103 -0.7971 -0.0007  0.6151
 4495SOL     OW14925   0.193   5.887   0.224  0.2060  0.3604 -0.5733
 4495SOL    HW114926   0.105   5.888   0.186  0.7341 -0.6488 -1.9083
 4495SOL    HW214927   0.232   5.970   0.195 -0.3275  0.8913  0.1640
 4496SOL     OW14928   0.730   6.672  12.389  0.4430 -0.2789 -0.0411
 4496SOL    HW114929   0.655   6.615  12.404 -1.2491  1.8347 -0.0052
 4496SOL    HW214930   0.783   6.664  12.468 -1.8215  1.1197  1.7418
 4497SOL     OW14931   1.660   5.304   1.369 -0.9785  0.0122 -0.3046
 4497SOL    HW114932   1.644   5.340   1.282  0.4190  0.9593 -0.1900
 4497SOL    HW214933   1.575   5.266   1.395 -1.3823 -0.4044 -2.1067
 4498SOL     OW14934   0.855   5.366  10.970  0.3229  0.4455  0.3300
 4498SOL    HW114935   0.842   5.386  10.877  0.1793  0.6338  0.3883
 4498SOL    HW214936   0.774   5.397  11.012 -0.0384 -0.5438  0.3827
 4499SOL     OW14937   6.741   4.835   0.055 -0.4639  0.6000 -0.0351
 4499SOL    HW114938   6.695   4.910   0.094 -1.3035  0.1814 -0.1790
 4499SOL    HW214939   6.673   4.768   0.046  0.6461 -0.8429  1.7781
 4500SOL     OW14940   2.802   5.212   0.899 -0.7003  0.0880  0.2262
 4500SOL    HW114941   2.856   5.257   0.964  0.0727  2.3367 -1.8187
 4500SOL    HW214942   2.742   5.158   0.951  0.2639  1.3027  2.7674
 4501SOL     OW14943   0.866   5.682   1.202 -0.2849  0.1637  0.0380
 4501SOL    HW114944   0.792   5.632   1.235 -0.4332 -0.3455 -1.0292
 4501SOL    HW214945   0.911   5.713   1.281 -0.5570 -1.1079  0.7180
 4502SOL     OW14946   1.542   7.794  12.482  0.3244  0.2812 -0.5228
 4502SOL    HW114947   1.498   7.865  12.436 -0.9774 -1.7771 -2.6783
 4502SOL    HW214948   1.606   7.761  12.420 -0.4343 -1.6417 -0.3425
 4503SOL     OW14949   0.530   7.407   1.662 -0.2110  0.4445 -0.2985
 4503SOL    HW114950   0.478   7.364   1.594  1.4315 -0.1775 -1.2234
 4503SOL    HW214951   0.609   7.354   1.668  1.0763  2.3057 -0.1637
 4504SOL     OW14952   1.700   5.390   1.895 -0.1313 -0.3257  0.0931
 4504SOL    HW114953   1.647   5.371   1.818 -1.9603 -2.5207  1.7513
 4504SOL    HW214954   1.780   5.339   1.882 -0.0492 -0.0086 -0.7026
 4505SOL     OW14955   1.069   5.311  12.212 -0.0666  0.2971 -0.0916
 4505SOL    HW114956   1.008   5.257  12.264  0.5974 -1.1940 -0.8155
 4505SOL    HW214957   1.037   5.401  12.224 -1.3269 -0.2584  0.9905
 4506SOL     OW14958   7.149   5.745   1.401  0.6639 -0.1198 -0.4024
 4506SOL    HW114959   7.233   5.780   1.371  0.5512  0.0228 -0.5580
 4506SOL    HW214960   7.136   5.785   1.487  0.4912  0.3035 -0.6198
 4507SOL     OW14961   2.782   4.639   4.122  0.1103 -0.1822  0.0061
 4507SOL    HW114962   2.799   4.546   4.136 -0.2530 -0.1098  0.9427
 4507SOL    HW214963   2.866   4.675   4.093  0.7221 -0.4656  1.3614
 4508SOL     OW14964   1.498   6.110   2.098  0.4895 -0.5904  0.1095
 4508SOL    HW114965   1.492   6.197   2.060  0.9983  0.3433  2.0037
 4508SOL    HW214966   1.450   6.117   2.181 -0.4341 -2.4538 -0.2092
 4509SOL     OW14967   1.588   7.527  11.681  0.4886  0.2395 -0.2047
 4509SOL    HW114968   1.639   7.515  11.761  0.1670  2.1744  0.3587
 4509SOL    HW214969   1.652   7.521  11.610  1.1631  0.6637  0.3594
 4510SOL     OW14970   1.610   6.221  11.307 -0.2296  0.2609  0.5742
 4510SOL    HW114971   1.698   6.203  11.275  0.5765  1.2045  2.1433
 4510SOL    HW214972   1.605   6.316  11.313 -0.8963  0.1754  1.6873
 4511SOL     OW14973   1.802   4.843   0.070  0.1625 -0.0014  0.6426
 4511SOL    HW114974   1.730   4.781   0.059 -0.1052 -0.0077  2.2649
 4511SOL    HW214975   1.760   4.928   0.082  0.4867  0.2460  0.1100
 4512SOL     OW14976   1.826   5.863  12.243 -0.2701 -0.1990  0.3295
 4512SOL    HW114977   1.752   5.803  12.252 -1.1055  0.9177  1.2295
 4512SOL    HW214978   1.864   5.842  12.158 -2.1138 -0.2881 -0.5192
 4513SOL     OW14979   2.024   5.611  11.211  0.1572  0.1786  0.3819
 4513SOL    HW114980   1.945   5.566  11.239  0.9547 -0.8508  1.0037
 4513SOL    HW214981   2.096   5.551  11.230  1.0652  0.9002 -0.5923
 4514SOL     OW14982   0.621   5.061   0.505  0.7428  0.3155 -0.2810
 4514SOL    HW114983   0.645   5.101   0.588  0.3494  1.0030 -0.4968
 4514SOL    HW214984   0.544   5.108   0.476 -0.0985 -0.9930 -0.2597
 4515SOL     OW14985   5.460   6.015   1.008  0.0276  0.5442  0.0758
 4515SOL    HW114986   5.437   5.922   1.003  1.7759  0.1264 -2.4649
 4515SOL    HW214987   5.503   6.025   1.092  0.7777 -1.2316 -0.0560
 4516SOL     OW14988   1.519   6.831   0.368  0.3589 -0.0852  0.1987
 4516SOL    HW114989   1.572   6.794   0.297  2.1053  0.8721  0.9349
 4516SOL    HW214990   1.560   6.797   0.448  0.7024  1.6830  0.8252
 4517SOL     OW14991   1.260   4.506   0.887  0.4461 -0.3223 -0.2296
 4517SOL    HW114992   1.171   4.501   0.922  0.9337 -0.0351  1.1161
 4517SOL    HW214993   1.257   4.455   0.806 -0.8261 -0.6873  0.0268
 4518SOL     OW14994   0.653   5.588  11.767 -0.3990 -0.3381 -0.3005
 4518SOL    HW114995   0.602   5.508  11.780 -1.8356  0.9914  3.5958
 4518SOL    HW214996   0.590   5.659  11.776  1.5298  1.3219  1.1792
 4519SOL     OW14997   1.919   6.426  12.353  0.1822  0.0132 -0.0865
 4519SOL    HW114998   1.858   6.372  12.402 -0.9895 -1.4365 -2.8996
 4519SOL    HW214999   2.002   6.378  12.356  0.2425  0.1566  0.7691
 4520SOL     OW15000   6.497   4.576  12.281  0.0447  0.2653 -0.2040
 4520SOL    HW115001   6.463   4.487  12.271 -0.1321  0.2547  0.4410
 4520SOL    HW215002   6.494   4.592  12.375  0.9637  0.6096 -0.2277
 4521SOL     OW15003   2.023   5.943   0.736 -0.5635 -0.2931 -0.2336
 4521SOL    HW115004   1.978   6.019   0.698 -0.4288 -0.0521  0.0871
 4521SOL    HW215005   2.101   5.980   0.776 -0.1889 -0.6847 -0.6018
 4522SOL     OW15006   3.297   6.405   2.263  0.4152  0.4590 -0.9984
 4522SOL    HW115007   3.392   6.394   2.265  0.3847 -0.1387 -2.1176
 4522SOL    HW215008   3.276   6.441   2.349  1.6107  0.2686 -0.5979
 4523SOL     OW15009   7.645   4.923   1.159 -0.0382  0.5876 -0.0193
 4523SOL    HW115010   7.583   4.996   1.168  0.2065  0.7178  0.6958
 4523SOL    HW215011   7.684   4.935   1.073 -0.2342  1.1190 -0.0385
 4524SOL     OW15012   1.756   6.933  12.401  0.0346 -0.0171  0.4536
 4524SOL    HW115013   1.838   6.889  12.378 -1.0257 -1.3734 -0.9274
 4524SOL    HW215014   1.756   7.013  12.349  0.0570 -0.5023 -0.3154
 4525SOL     OW15015   1.338   7.248   0.692 -0.7171  0.3806 -0.6279
 4525SOL    HW115016   1.428   7.242   0.661 -0.6656 -0.4758 -0.3506
 4525SOL    HW215017   1.337   7.320   0.754 -0.2486  0.4631 -0.7202
 4526SOL     OW15018   1.917   5.415   0.164 -0.1937 -0.5461  0.8000
 4526SOL    HW115019   1.827   5.421   0.197 -0.6177  0.0662 -0.4107
 4526SOL    HW215020   1.948   5.331   0.195 -0.4100  0.1485  3.0874
 4527SOL     OW15021   2.595   5.852   0.242 -0.2921 -0.4674 -0.3779
 4527SOL    HW115022   2.645   5.868   0.162 -0.6634 -1.2448 -0.7694
 4527SOL    HW215023   2.536   5.781   0.220  1.8976 -3.0876  1.5683
 4528SOL     OW15024   1.925   4.479   1.791 -0.5453  0.0826  0.2425
 4528SOL    HW115025   1.850   4.420   1.781 -2.0307  1.9058  0.1132
 4528SOL    HW215026   1.998   4.431   1.752 -2.0908 -0.9088 -1.5981
 4529SOL     OW15027   0.433   5.093   0.833 -0.3696 -0.4971  0.1398
 4529SOL    HW115028   0.371   5.042   0.885 -0.2052 -0.6253  0.2094
 4529SOL    HW215029   0.430   5.180   0.873  0.8261 -0.9589  1.2913
 4530SOL     OW15030   0.854   0.768   1.800 -0.4477  0.2365 -0.4088
 4530SOL    HW115031   0.898   0.847   1.832 -0.7223 -0.0183  0.6348
 4530SOL    HW215032   0.783   0.753   1.863 -0.1630 -1.0440 -0.3639
 4531SOL     OW15033   0.346   6.390   2.363  0.6519 -0.1161  0.0699
 4531SOL    HW115034   0.435   6.375   2.334  0.7605  0.7138 -0.0455
 4531SOL    HW215035   0.341   6.485   2.379  0.1890 -0.3327  1.3608
 4532SOL     OW15036   2.343   7.490   2.194  0.5270  0.1881 -0.1813
 4532SOL    HW115037   2.380   7.405   2.220 -0.1560 -0.3879 -1.0244
 4532SOL    HW215038   2.418   7.549   2.191  0.8337 -0.0289  1.7401
 4533SOL     OW15039   1.109   6.323   1.641  0.1885 -0.0557 -0.2116
 4533SOL    HW115040   1.143   6.314   1.552 -1.2890  1.9459 -1.0500
 4533SOL    HW215041   1.015   6.313   1.632  0.0033  0.2137  1.1456
 4534SOL     OW15042   3.647   6.184   2.019 -0.6479 -0.2054 -0.0552
 4534SOL    HW115043   3.656   6.208   1.927 -1.2707 -1.6640 -0.5281
 4534SOL    HW215044   3.559   6.146   2.025  0.4313 -2.8469  0.4575
 4535SOL     OW15045   0.514   7.496   0.976  0.2563  0.0252  0.0073
 4535SOL    HW115046   0.437   7.524   0.926  0.0878 -2.0011 -0.9671
 4535SOL    HW215047   0.488   7.507   1.067 -1.2159 -0.5851 -0.2958
 4536SOL     OW15048   2.591   0.074   1.980  0.2600 -0.2426  0.1117
 4536SOL    HW115049   2.520   0.056   2.042  0.1880 -0.0207  0.0946
 4536SOL    HW215050   2.581   0.008   1.912 -0.4647  0.3193 -0.3413
 4537SOL     OW15051   3.254   5.786   1.140 -0.4633  0.4598  0.2258
 4537SOL    HW115052   3.176   5.736   1.162 -0.2718  0.1993  0.3168
 4537SOL    HW215053   3.322   5.720   1.125 -0.3010  0.6773 -0.0146
 4538SOL     OW15054   1.527   5.785   2.537 -0.1768 -0.1096  0.8764
 4538SOL    HW115055   1.512   5.829   2.621 -1.5914  0.1055  0.5286
 4538SOL    HW215056   1.558   5.853   2.479  0.6366 -0.2237  1.1609
 4539SOL     OW15057   2.126   5.613   2.332 -0.2551  0.2124 -0.0118
 4539SOL    HW115058   2.145   5.521   2.353 -2.2519  0.2987  2.7605
 4539SOL    HW215059   2.042   5.610   2.286  0.3369  0.5850 -1.1360
 4540SOL     OW15060   1.542   5.701   1.097  0.1957 -0.5820  0.0761
 4540SOL    HW115061   1.610   5.704   1.030  0.1420  1.2936  0.0583
 4540SOL    HW215062   1.463   5.732   1.053 -0.3004 -1.1785  0.5234
 4541SOL     OW15063   7.389   6.314   2.490 -0.1948  0.1563 -0.0733
 4541SOL    HW115064   7.416   6.398   2.526 -1.4386  0.0136  1.3277
 4541SOL    HW215065   7.444   6.250   2.535  1.0341  0.2212 -1.4392
 4542SOL     OW15066   6.430   6.754   0.793 -0.3399 -0.2220  0.4637
 4542SOL    HW115067   6.413   6.666   0.827 -0.2543  0.2532  1.7736
 4542SOL    HW215068   6.482   6.796   0.861 -1.2126  1.1780  0.3011
 4543SOL     OW15069   2.121   7.097   3.223  0.3869  0.6110 -0.6591
 4543SOL    HW115070   2.163   7.125   3.141  0.1958 -0.2576 -1.0652
 4543SOL    HW215071   2.193   7.072   3.280  0.4850  0.4834 -0.8385
 4544SOL     OW15072   7.514   4.684   2.871 -0.0473 -0.0535  0.3320
 4544SOL    HW115073   7.478   4.768   2.844  0.8519  0.3545  0.3797
 4544SOL    HW215074   7.437   4.631   2.893 -0.8246 -0.0923 -2.0791
 4545SOL     OW15075   1.770   6.457   3.352 -0.4170 -0.2359 -0.4558
 4545SOL    HW115076   1.761   6.526   3.287 -0.0353  0.7813  0.5389
 4545SOL    HW215077   1.859   6.424   3.341 -0.4846 -0.3428 -0.6984
 4546SOL     OW15078   7.381   7.201   2.665 -0.0401  0.2320 -0.0971
 4546SOL    HW115079   7.438   7.136   2.706 -0.4952 -0.6017 -0.7350
 4546SOL    HW215080   7.433   7.235   2.592 -0.2237 -0.2907 -0.4807
 4547SOL     OW15081   0.452   5.180   1.303 -0.2777 -0.1325 -0.6425
 4547SOL    HW115082   0.372   5.167   1.354 -0.6338 -0.2301 -1.2127
 4547SOL    HW215083   0.476   5.271   1.317 -0.5107 -0.0948 -0.4923
 4548SOL     OW15084   0.545   6.561   1.598 -0.1859 -0.2496  0.1730
 4548SOL    HW115085   0.634   6.597   1.591  0.9057 -2.5118  1.2744
 4548SOL    HW215086   0.539   6.499   1.526 -1.2427  0.5393 -0.4378
 4549SOL     OW15087   6.704   7.757   3.026 -0.4175  0.3064 -0.2014
 4549SOL    HW115088   6.696   7.815   3.102 -1.2053  0.1915 -0.1883
 4549SOL    HW215089   6.672   7.809   2.953 -0.2338  0.2088 -0.3510
 4550SOL     OW15090   7.613   6.218   3.704  0.0997 -0.3904 -0.0619
 4550SOL    HW115091   7.539   6.272   3.732  0.9870 -0.1067  1.9349
 4550SOL    HW215092   7.663   6.203   3.784  0.7121 -2.9210 -0.8256
 4551SOL     OW15093   1.673   7.277   1.109 -0.0840 -0.1767  0.6520
 4551SOL    HW115094   1.706   7.210   1.169 -0.1335 -0.6417  0.1701
 4551SOL    HW215095   1.677   7.359   1.159 -1.1229 -0.7137  1.6424
 4552SOL     OW15096   0.384   4.742   4.590 -0.3138 -0.1218  0.3798
 4552SOL    HW115097   0.446   4.745   4.517 -0.4766  0.5815  0.2669
 4552SOL    HW215098   0.305   4.784   4.557  0.3402  2.3245  1.6241
 4553SOL     OW15099   6.589   6.824   1.008 -0.5867 -0.4372  0.0557
 4553SOL    HW115100   6.673   6.782   0.988 -0.6693 -0.0510 -1.1369
 4553SOL    HW215101   6.581   6.816   1.103  0.8212 -0.4392  0.1970
 4554SOL     OW15102   2.641   6.467   1.884  0.8157  0.3352  0.2291
 4554SOL    HW115103   2.606   6.391   1.931  0.7602  1.9194  2.9852
 4554SOL    HW215104   2.712   6.433   1.831 -0.9548 -2.0282 -0.8049
 4555SOL     OW15105   7.909   7.094   2.409 -0.5709 -0.4430 -0.0574
 4555SOL    HW115106   7.856   7.154   2.357 -0.9381 -0.4583  0.2992
 4555SOL    HW215107   7.998   7.130   2.403 -0.9391  0.6842  0.9333
 4556SOL     OW15108   1.966   6.278   3.286  0.3335 -0.3214 -0.1960
 4556SOL    HW115109   1.933   6.234   3.207 -0.6885 -1.1859  0.6941
 4556SOL    HW215110   2.014   6.209   3.333 -0.5156 -0.2630  0.7734
 4557SOL     OW15111   0.274   7.596   2.677 -1.2108  0.0991  0.2417
 4557SOL    HW115112   0.303   7.677   2.635  1.2677  1.0879  3.3798
 4557SOL    HW215113   0.315   7.526   2.626 -1.0382  0.9906 -0.8784
 4558SOL     OW15114   0.244   7.776   3.221 -1.2617 -0.4371 -0.3325
 4558SOL    HW115115   0.197   7.753   3.301 -1.1362  0.7342  0.1000
 4558SOL    HW215116   0.179   7.770   3.152 -1.9782  0.7608  0.2034
 4559SOL     OW15117   6.607   0.103   2.636  0.3470 -0.3305  0.3235
 4559SOL    HW115118   6.674   0.164   2.607 -0.4444  0.6159  0.4547
 4559SOL    HW215119   6.580   0.057   2.557  0.5391 -0.1103  0.1303
 4560SOL     OW15120   0.160   5.701   2.038  0.5553 -0.3380  0.5283
 4560SOL    HW115121   0.240   5.681   2.087  1.6717 -0.5784 -1.3006
 4560SOL    HW215122   0.139   5.620   1.991 -0.3344 -0.0464  0.4058
 4561SOL     OW15123   0.960   6.874   1.386 -0.8305 -0.5750 -0.0579
 4561SOL    HW115124   0.925   6.932   1.453  1.0662  1.7022 -0.8726
 4561SOL    HW215125   0.887   6.859   1.327 -1.6431  0.1913  0.7078
 4562SOL     OW15126   7.140   7.080   2.581 -0.3198  0.1087 -0.6512
 4562SOL    HW115127   7.197   7.142   2.626 -1.8764  1.1742 -0.0380
 4562SOL    HW215128   7.185   7.060   2.499 -0.4632  3.3374 -1.6384
 4563SOL     OW15129   2.216   5.565   2.987 -0.6238 -0.2236  0.4679
 4563SOL    HW115130   2.207   5.596   3.077  1.1759  1.2699  0.1980
 4563SOL    HW215131   2.126   5.554   2.956 -1.3047  1.0210  1.8731
 4564SOL     OW15132   7.769   0.404   4.808 -0.4240  0.0635  0.3714
 4564SOL    HW115133   7.798   0.383   4.719  1.2539  1.0532  0.6264
 4564SOL    HW215134   7.684   0.446   4.797 -1.2746 -1.7974 -0.5571
 4565SOL     OW15135   7.126   7.591   5.136 -0.8077  0.1181  0.3707
 4565SOL    HW115136   7.031   7.582   5.148 -0.6643  0.3416  1.8707
 4565SOL    HW215137   7.140   7.577   5.042 -1.8513 -4.2138  0.6575
 4566SOL     OW15138   2.110   7.535   2.494  0.2818 -0.1276 -0.4558
 4566SOL    HW115139   2.165   7.554   2.418  0.3624 -0.8358 -0.5799
 4566SOL    HW215140   2.134   7.446   2.520  0.0065 -0.0227  0.1869
 4567SOL     OW15141   1.700   7.235   2.526 -0.3035  0.1774  0.3968
 4567SOL    HW115142   1.742   7.264   2.445  0.4416 -1.4182  0.1636
 4567SOL    HW215143   1.674   7.145   2.508 -0.1005 -0.2170  1.9272
 4568SOL     OW15144   1.305   6.653   2.358 -0.1659 -0.2388  0.9678
 4568SOL    HW115145   1.353   6.735   2.368  1.3632 -0.6839 -1.8731
 4568SOL    HW215146   1.217   6.679   2.334  1.2246  0.8268 -4.0284
 4569SOL     OW15147   1.440   6.409  11.932 -0.4329 -0.5941  0.1535
 4569SOL    HW115148   1.507   6.347  11.959 -0.1838 -0.2861  0.2549
 4569SOL    HW215149   1.460   6.428  11.840  0.4276  0.4997  0.5429
 4570SOL     OW15150   2.086   6.318   0.965  0.3777 -0.2919 -0.2094
 4570SOL    HW115151   2.001   6.362   0.958  1.5629  2.2618  0.1365
 4570SOL    HW215152   2.128   6.332   0.881  1.7980  1.6447  0.7471
 4571SOL     OW15153   7.661   5.997   2.046 -0.2277 -0.0324 -0.2114
 4571SOL    HW115154   7.674   5.943   2.124 -1.4604 -0.5245 -0.3356
 4571SOL    HW215155   7.643   6.084   2.080  0.8267  0.1194  0.0050
 4572SOL     OW15156   1.027   6.837   5.565 -0.6662  0.3254  0.3259
 4572SOL    HW115157   1.028   6.879   5.479 -1.3026  1.2569  0.7603
 4572SOL    HW215158   0.935   6.819   5.582 -0.5545  0.2365  0.8569
 4573SOL     OW15159   0.198   7.245   3.763  0.0997  0.0478  0.3061
 4573SOL    HW115160   0.263   7.312   3.784 -1.0339  1.2136  0.2258
 4573SOL    HW215161   0.162   7.273   3.678  0.7557 -1.5871 -0.5628
 4574SOL     OW15162   6.128   6.552   2.479  0.9257 -0.2505 -0.1367
 4574SOL    HW115163   6.190   6.511   2.539  1.0669 -0.0269 -0.1303
 4574SOL    HW215164   6.110   6.484   2.413  2.1873  0.1269 -0.8883
 4575SOL     OW15165   7.314   3.498   4.019  0.8277  0.5302 -1.2240
 4575SOL    HW115166   7.380   3.430   4.034  0.4216  0.4711  0.5158
 4575SOL    HW215167   7.250   3.456   3.962  0.5975 -0.5692 -0.2046
 4576SOL     OW15168   1.205   5.990   0.993 -0.0154  0.5010  0.3422
 4576SOL    HW115169   1.137   5.924   1.008 -0.8966  0.4587 -2.9176
 4576SOL    HW215170   1.159   6.060   0.947  1.5731  1.9475  0.8735
 4577SOL     OW15171   0.781   1.334   4.431  0.2179 -0.4173 -0.2887
 4577SOL    HW115172   0.837   1.291   4.496  1.2624  2.1825  0.6572
 4577SOL    HW215173   0.731   1.398   4.482  0.1345  0.8307 -1.8592
 4578SOL     OW15174   0.262   3.717  12.143  0.0846  0.7003  0.5018
 4578SOL    HW115175   0.319   3.775  12.194 -0.2670  0.3736  1.2743
 4578SOL    HW215176   0.184   3.769  12.127  0.3989  0.9824 -0.1532
 4579SOL     OW15177   0.135   5.778   4.396 -0.4928  0.3727  0.2240
 4579SOL    HW115178   0.198   5.706   4.387 -0.4878  0.3366  0.5146
 4579SOL    HW215179   0.189   5.856   4.408 -0.4077  0.9326 -3.0732
 4580SOL     OW15180   1.777   6.025   1.552 -0.3307 -0.6355  0.2231
 4580SOL    HW115181   1.690   5.991   1.530 -1.2095  0.6184  1.6003
 4580SOL    HW215182   1.834   5.988   1.484 -2.2856  0.2928 -2.1045
 4581SOL     OW15183   0.940   5.081   1.414 -0.2118  0.1486  0.2522
 4581SOL    HW115184   0.877   5.150   1.435 -0.5206  0.2531 -0.9516
 4581SOL    HW215185   0.944   5.028   1.493 -0.1786  1.3809  1.0999
 4582SOL     OW15186   1.738   6.264   0.093  0.0515  0.4666 -0.1805
 4582SOL    HW115187   1.742   6.220   0.009 -0.6256 -0.0918  0.0802
 4582SOL    HW215188   1.664   6.225   0.138 -0.1395  1.3887  0.3275
 4583SOL     OW15189   5.560   0.124   2.565  0.7788 -0.5072 -0.0544
 4583SOL    HW115190   5.635   0.078   2.604  0.6664 -1.3172 -0.7599
 4583SOL    HW215191   5.484   0.079   2.602  0.6700 -1.2201 -1.1107
 4584SOL     OW15192   0.542   5.173   2.442 -0.4545 -0.3636 -0.0304
 4584SOL    HW115193   0.452   5.206   2.450 -0.8216 -0.9473 -1.4895
 4584SOL    HW215194   0.561   5.178   2.349  0.5473 -1.5164  0.0909
 4585SOL     OW15195   0.167   6.476   3.135 -0.0473 -0.6225  0.1366
 4585SOL    HW115196   0.176   6.472   3.231  1.9418  2.1715  0.2089
 4585SOL    HW215197   0.108   6.550   3.120 -0.3752 -1.0670 -0.7925
 4586SOL     OW15198   5.783   5.305   1.646 -0.0297 -0.0443  0.1868
 4586SOL    HW115199   5.702   5.280   1.602 -1.0618  2.6416  0.4313
 4586SOL    HW215200   5.757   5.368   1.713  2.3803  2.2157 -0.8133
 4587SOL     OW15201   3.323   5.159   0.143  0.0015 -0.0668  0.6618
 4587SOL    HW115202   3.363   5.072   0.153 -0.0193 -0.3870 -1.4354
 4587SOL    HW215203   3.233   5.141   0.115  0.1697  0.6028 -0.3713
 4588SOL     OW15204   1.178   7.003   2.797  0.3206  0.7657  0.1283
 4588SOL    HW115205   1.163   7.004   2.703  0.0369 -0.6685  0.1271
 4588SOL    HW215206   1.217   6.917   2.814  1.2936  1.3837  1.1942
 4589SOL     OW15207   2.819   4.382   1.973  0.1945 -0.5933  0.0374
 4589SOL    HW115208   2.813   4.301   1.923 -0.1609 -0.7437  0.3113
 4589SOL    HW215209   2.883   4.364   2.042 -0.2654 -0.8267  0.4169
 4590SOL     OW15210   2.035   0.286   3.693 -0.2077 -0.0810 -0.0804
 4590SOL    HW115211   2.058   0.274   3.601 -0.4022  1.2939 -0.3461
 4590SOL    HW215212   1.949   0.244   3.702 -0.8940  1.0566 -0.9400
 4591SOL     OW15213   2.155   6.685   3.309 -0.0484 -0.0829 -0.6055
 4591SOL    HW115214   2.232   6.739   3.290 -0.0784 -0.1418 -0.9055
 4591SOL    HW215215   2.191   6.598   3.330 -0.0586 -0.3332 -1.5442
 4592SOL     OW15216   6.165   7.281   1.517 -0.0367  0.4472 -0.0154
 4592SOL    HW115217   6.251   7.312   1.487  0.5633  0.1594  1.3245
 4592SOL    HW215218   6.148   7.332   1.596 -1.2912  0.7640 -0.4693
 4593SOL     OW15219   7.345   4.988   2.165  0.1507 -0.2864  0.0469
 4593SOL    HW115220   7.426   4.986   2.215  1.3208 -0.8954 -1.7606
 4593SOL    HW215221   7.307   4.901   2.177  0.1894 -0.2762  0.2392
 4594SOL     OW15222   7.598   7.653   2.426  0.5139  0.3985  0.4560
 4594SOL    HW115223   7.646   7.732   2.451 -1.0445  0.6956  2.7373
 4594SOL    HW215224   7.520   7.654   2.480 -1.3736 -0.8665 -2.0547
 4595SOL     OW15225   1.104   6.206   1.899  0.0946 -0.1605 -0.7800
 4595SOL    HW115226   1.111   6.233   1.807 -0.4514 -1.0089 -1.0885
 4595SOL    HW215227   1.028   6.147   1.901  0.6027 -0.8150  0.0477
 4596SOL     OW15228   7.031   7.864   3.366  0.1670  0.3235 -0.0487
 4596SOL    HW115229   6.946   7.838   3.401  0.1832 -0.6644 -0.6900
 4596SOL    HW215230   7.094   7.808   3.411  0.3881  0.4708 -0.1718
 4597SOL     OW15231   0.732   7.460   3.805 -0.1433 -0.1157 -0.2317
 4597SOL    HW115232   0.677   7.389   3.773  0.1662 -0.4124 -0.1074
 4597SOL    HW215233   0.819   7.441   3.770 -0.1144  0.3469 -0.4190
 4598SOL     OW15234   2.156   6.312   1.481 -0.0953 -0.3018 -0.3944
 4598SOL    HW115235   2.116   6.326   1.395 -0.8327 -2.8156 -0.5581
 4598SOL    HW215236   2.083   6.290   1.538  0.3091  1.9088  1.0958
 4599SOL     OW15237   7.906   6.064   3.540  0.0684  0.2198 -0.3948
 4599SOL    HW115238   7.899   6.072   3.635 -0.1689  0.4058 -0.4276
 4599SOL    HW215239   7.815   6.059   3.510  0.1255 -2.2231 -0.4068
 4600SOL     OW15240   0.305   6.392   1.101 -0.1300  0.3805 -0.2431
 4600SOL    HW115241   0.260   6.477   1.101 -0.2691  0.3066 -0.5242
 4600SOL    HW215242   0.254   6.337   1.041 -0.9405 -0.3780  1.1008
 4601SOL     OW15243   1.073   5.629   5.324 -0.2400  0.1076 -0.5923
 4601SOL    HW115244   1.101   5.707   5.371 -1.8111 -0.6856  1.8823
 4601SOL    HW215245   1.046   5.661   5.238  1.2801  1.8897 -0.4767
 4602SOL     OW15246   2.281   6.927   0.080  0.2028 -0.1223  0.1039
 4602SOL    HW115247   2.215   6.961   0.141 -0.8430 -1.1308 -0.4316
 4602SOL    HW215248   2.365   6.954   0.118 -0.5039  1.1875  0.8084
 4603SOL     OW15249   2.551   6.126   1.412 -0.4839 -0.2642 -0.1521
 4603SOL    HW115250   2.565   6.048   1.360 -1.8518 -0.0496 -0.9133
 4603SOL    HW215251   2.465   6.113   1.453 -2.2213  1.9827 -2.6520
 4604SOL     OW15252   0.808   5.614   2.006 -0.3757  0.0101  0.0848
 4604SOL    HW115253   0.752   5.614   2.084 -1.1128  1.9608 -0.3823
 4604SOL    HW215254   0.895   5.634   2.040 -0.4573 -0.3736  0.5318
 4605SOL     OW15255   0.293   6.978   1.132 -0.2507 -0.0241  0.9097
 4605SOL    HW115256   0.305   6.971   1.227  0.5535  2.5792  1.0956
 4605SOL    HW215257   0.211   7.026   1.122 -0.3659 -0.3478  0.2987
 4606SOL     OW15258   7.775   6.851   1.650  0.1601 -0.1337  0.0841
 4606SOL    HW115259   7.757   6.832   1.558 -1.4816 -2.1470  0.7332
 4606SOL    HW215260   7.822   6.774   1.682 -1.0086 -0.3648  1.3500
 4607SOL     OW15261   6.535   6.032   0.583 -0.1561 -0.1870 -0.0444
 4607SOL    HW115262   6.465   5.990   0.533 -2.0850  0.1780  2.1547
 4607SOL    HW215263   6.547   5.976   0.660  2.0754 -0.2732 -0.4045
 4608SOL     OW15264   7.666   5.128   4.066 -0.3720  0.4688 -0.5473
 4608SOL    HW115265   7.740   5.070   4.044  0.3034  0.6081  1.2318
 4608SOL    HW215266   7.592   5.069   4.079 -0.4072  0.2656 -1.5324
 4609SOL     OW15267   6.775   6.942   2.099 -0.2890  0.1118  0.6207
 4609SOL    HW115268   6.822   6.918   2.179 -0.5659  0.5911  0.9324
 4609SOL    HW215269   6.729   6.862   2.073  1.8299 -0.8180 -0.5154
 4610SOL     OW15270   7.715   6.511   0.997 -0.2432  0.0037  0.0992
 4610SOL    HW115271   7.662   6.454   1.053  0.0525 -1.0393 -0.6419
 4610SOL    HW215272   7.681   6.495   0.909  1.1017 -0.4833 -0.3532
 4611SOL     OW15273   0.539   6.499   1.081 -0.3900  0.0654 -0.4828
 4611SOL    HW115274   0.446   6.475   1.091 -0.3406 -0.0175 -0.1954
 4611SOL    HW215275   0.581   6.419   1.049 -0.2688 -0.1717  0.2347
 4612SOL     OW15276   1.560   5.557   2.058  0.1434  0.3487  0.4131
 4612SOL    HW115277   1.612   5.557   2.138  3.1922  2.4710 -1.3653
 4612SOL    HW215278   1.607   5.497   2.000 -1.0461  0.1399 -0.3678
 4613SOL     OW15279   5.761   6.419   2.250  0.5669  0.3428  0.5482
 4613SOL    HW115280   5.777   6.333   2.289  1.6584  0.6435  0.8138
 4613SOL    HW215281   5.683   6.407   2.196 -0.2920 -0.3752  1.8936
 4614SOL     OW15282   7.959   5.356   2.615 -0.0010 -0.3735  0.0960
 4614SOL    HW115283   7.969   5.315   2.701  0.0953 -0.1862  0.1743
 4614SOL    HW215284   7.870   5.333   2.588  0.5240 -1.8295 -0.4963
 4615SOL     OW15285   6.969   5.189   0.175  0.2590 -0.0282 -0.9263
 4615SOL    HW115286   6.936   5.157   0.092 -1.5699  2.1933 -1.1630
 4615SOL    HW215287   7.000   5.277   0.156 -0.3690  0.6018  0.7442
 4616SOL     OW15288   0.978   5.321   1.954 -0.0455  0.5068 -0.4687
 4616SOL    HW115289   0.920   5.360   2.019 -0.4409  0.3908 -0.7524
 4616SOL    HW215290   1.027   5.395   1.918  1.1419  0.4236  0.9066
 4617SOL     OW15291   6.334   7.160   1.801  0.0191 -0.2494  0.0003
 4617SOL    HW115292   6.241   7.151   1.777 -0.0490 -0.1354  0.2143
 4617SOL    HW215293   6.369   7.223   1.739  0.3396 -1.4648 -1.0947
 4618SOL     OW15294   2.480   7.275   2.458  0.3534 -0.2496  0.9446
 4618SOL    HW115295   2.452   7.365   2.478  0.1889  0.3012 -1.4214
 4618SOL    HW215296   2.505   7.279   2.365  1.5294 -2.3804  1.1346
 4619SOL     OW15297   6.615   4.948   0.574 -0.3960 -0.1812 -0.0351
 4619SOL    HW115298   6.656   5.035   0.574 -0.0109 -0.3500  0.7908
 4619SOL    HW215299   6.640   4.910   0.658  1.5145 -2.0666 -1.3305
 4620SOL     OW15300   1.233   6.250   3.214 -0.3936 -0.0132 -0.0081
 4620SOL    HW115301   1.174   6.233   3.140 -1.8099  1.3731  0.7529
 4620SOL    HW215302   1.177   6.245   3.291  1.0840 -1.5146  1.0230
 4621SOL     OW15303   2.469   5.631   2.323 -0.2330 -0.3383 -0.0774
 4621SOL    HW115304   2.421   5.682   2.258 -0.4366 -0.5886 -0.1260
 4621SOL    HW215305   2.425   5.546   2.323 -0.5355 -0.1918  0.7202
 4622SOL     OW15306   1.846   5.989   0.209  0.1660 -0.8322 -0.4576
 4622SOL    HW115307   1.766   5.955   0.170 -1.2832  1.1139  0.5994
 4622SOL    HW215308   1.867   6.067   0.156 -0.1395  0.1197  0.7650
 4623SOL     OW15309   7.715   6.763   1.371 -0.2260 -0.3009 -0.7874
 4623SOL    HW115310   7.640   6.729   1.322 -1.8439  1.9828 -0.0487
 4623SOL    HW215311   7.774   6.797   1.304  0.4907 -2.5811 -1.4106
 4624SOL     OW15312   1.421   5.957   2.762  0.4614 -0.0985 -0.2715
 4624SOL    HW115313   1.449   6.030   2.818 -1.7318 -0.6084  1.6521
 4624SOL    HW215314   1.402   5.886   2.824 -1.9720 -0.7411 -1.6355
 4625SOL     OW15315   2.086   7.872   1.565 -0.0320  0.1555  0.3415
 4625SOL    HW115316   2.001   7.884   1.608 -0.8424 -0.0500 -1.1451
 4625SOL    HW215317   2.117   7.787   1.596  0.3886  0.8726  2.0663
 4626SOL     OW15318   0.705   7.736   3.790 -0.5282 -0.6003  0.3095
 4626SOL    HW115319   0.769   7.729   3.719  1.2428 -0.5734  1.8542
 4626SOL    HW215320   0.695   7.647   3.823 -2.2517 -0.8177 -0.6758
 4627SOL     OW15321   0.279   6.254   2.057  0.5950 -0.6540 -0.0077
 4627SOL    HW115322   0.308   6.201   2.131  2.2321 -0.2111 -0.3090
 4627SOL    HW215323   0.213   6.313   2.095  0.4894 -1.2755  0.8169
 4628SOL     OW15324   1.804   6.495   1.712 -0.1727 -0.2865  0.1673
 4628SOL    HW115325   1.879   6.475   1.655  1.2371  1.1787  1.4186
 4628SOL    HW215326   1.782   6.411   1.752  2.5123 -0.3416  1.7139
 4629SOL     OW15327   1.515   5.195   2.780 -0.2253  0.2198  0.3157
 4629SOL    HW115328   1.597   5.231   2.749 -0.5703  0.1015 -0.7854
 4629SOL    HW215329   1.448   5.254   2.745 -0.6568 -0.2355  0.3614
 4630SOL     OW15330   6.905   5.258   3.384  0.5291 -0.0652  0.2775
 4630SOL    HW115331   6.828   5.208   3.359  0.3382  0.8563 -1.1298
 4630SOL    HW215332   6.944   5.209   3.456  0.5288 -2.4084 -1.2086
 4631SOL     OW15333   7.366   0.465   0.066 -0.2137  0.2135  0.1561
 4631SOL    HW115334   7.282   0.480   0.111 -0.6148  2.1471 -1.0908
 4631SOL    HW215335   7.370   0.371   0.054 -2.0103  0.0242  0.6609
 4632SOL     OW15336   7.044   6.206   1.678  0.6022 -0.9185  0.3567
 4632SOL    HW115337   7.123   6.179   1.724  0.3209 -0.4928  1.1062
 4632SOL    HW215338   7.076   6.252   1.601  1.0793 -2.3008 -0.3016
 4633SOL     OW15339   3.098   6.747   3.814  0.1293  0.2681 -0.4787
 4633SOL    HW115340   3.056   6.833   3.814  0.7176  0.5609 -0.1667
 4633SOL    HW215341   3.059   6.701   3.739 -1.8912 -0.0352  0.6772
 4634SOL     OW15342   0.057   7.639   3.010  0.2113 -0.3245  0.0614
 4634SOL    HW115343  -0.022   7.627   3.063  0.3504 -1.8836 -0.0281
 4634SOL    HW215344   0.025   7.672   2.926 -0.3837 -1.1497 -0.0510
 4635SOL     OW15345   1.157   6.675   1.423  0.3820  0.1067 -0.1305
 4635SOL    HW115346   1.241   6.720   1.414  0.0871  0.7968  0.5494
 4635SOL    HW215347   1.091   6.742   1.407 -0.0722  0.1172  1.6291
 4636SOL     OW15348   0.877   6.426   2.167  0.0157 -0.2851 -0.2960
 4636SOL    HW115349   0.806   6.454   2.225  0.8600 -1.4175  1.3685
 4636SOL    HW215350   0.836   6.367   2.105 -0.8320  0.6031 -0.6202
 4637SOL     OW15351   2.592   6.120   0.310  0.5452  0.0356  0.0648
 4637SOL    HW115352   2.533   6.134   0.384 -0.4748  0.7503 -0.8516
 4637SOL    HW215353   2.584   6.026   0.291 -0.8660  0.2394 -0.4752
 4638SOL     OW15354   7.916   6.243   2.013  0.4620 -0.3188 -0.1595
 4638SOL    HW115355   7.955   6.162   1.980 -0.2985  0.1690 -2.4178
 4638SOL    HW215356   7.885   6.289   1.934 -0.0561  1.6857  1.1394
 4639SOL     OW15357   0.328   4.434   1.775  0.0873 -0.4665  0.2858
 4639SOL    HW115358   0.316   4.346   1.739  1.1393 -0.3119 -0.4931
 4639SOL    HW215359   0.363   4.419   1.863 -0.4779 -0.8244  0.4578
 4640SOL     OW15360   2.083   7.620   2.960 -0.0794 -0.2283  0.5140
 4640SOL    HW115361   2.157   7.561   2.946 -0.1826 -0.3316  0.4104
 4640SOL    HW215362   2.017   7.567   3.005  0.1706  0.0432  1.2218
 4641SOL     OW15363   6.893   5.333   5.418 -0.1457 -0.3199  0.2599
 4641SOL    HW115364   6.917   5.416   5.459 -0.6015 -0.0678  0.0260
 4641SOL    HW215365   6.803   5.346   5.389 -0.1933 -0.8710  0.1504
 4642SOL     OW15366   1.422   6.590   2.610 -0.1190 -0.2849  0.1032
 4642SOL    HW115367   1.399   6.578   2.518  1.6010 -0.5621 -0.3260
 4642SOL    HW215368   1.342   6.569   2.658 -1.6078  1.6064 -1.3754
 4643SOL     OW15369   0.980   6.295   2.619 -0.8154  0.0387 -0.5697
 4643SOL    HW115370   1.009   6.256   2.537 -1.5941  1.0489 -1.3531
 4643SOL    HW215371   0.946   6.221   2.670  0.9760 -0.8145 -0.5345
 4644SOL     OW15372   0.260   4.225   2.129  0.5255  0.2259 -0.6865
 4644SOL    HW115373   0.283   4.214   2.037 -0.3520 -1.0081 -0.7748
 4644SOL    HW215374   0.192   4.161   2.145 -0.3045  1.3551  0.4974
 4645SOL     OW15375   0.115   5.233   1.379 -0.0808  0.2104  0.2833
 4645SOL    HW115376   0.119   5.242   1.474 -0.2626 -3.0817  0.7292
 4645SOL    HW215377   0.022   5.237   1.359 -0.0900  0.2385  0.3308
 4646SOL     OW15378   0.731   5.262   1.499 -0.7817 -0.0412 -0.3395
 4646SOL    HW115379   0.654   5.215   1.530 -0.1311  0.3956  2.2226
 4646SOL    HW215380   0.729   5.345   1.547 -0.5244  1.4908 -2.8094
 4647SOL     OW15381   2.745   6.290   2.499  0.2633 -0.5607  0.0742
 4647SOL    HW115382   2.765   6.347   2.425 -0.0559  0.0952  0.4827
 4647SOL    HW215383   2.829   6.252   2.523  0.3989 -0.6421 -0.5044
 4648SOL     OW15384   7.732   5.534   3.854 -0.2979  0.2155  0.6065
 4648SOL    HW115385   7.703   5.602   3.793  0.8631  1.8019  1.7155
 4648SOL    HW215386   7.826   5.528   3.839 -0.4192 -1.3797  0.3479
 4649SOL     OW15387   7.651   6.794   3.551 -0.7211  0.3684 -0.1860
 4649SOL    HW115388   7.577   6.823   3.605  0.6048 -1.8152  3.1241
 4649SOL    HW215389   7.637   6.700   3.542  1.2121  0.0622 -0.2197
 4650SOL     OW15390   2.042   5.350   2.574 -0.1234  0.1516 -0.2015
 4650SOL    HW115391   2.004   5.437   2.562 -2.3688 -0.5866  0.9494
 4650SOL    HW215392   1.995   5.295   2.512  0.6419 -0.4254 -0.2852
 4651SOL     OW15393   2.436   5.971   2.425 -0.0177  0.0593 -0.4853
 4651SOL    HW115394   2.351   5.929   2.438 -0.1243  0.4326  0.0415
 4651SOL    HW215395   2.489   5.943   2.499  0.4714 -0.5259 -1.0412
 4652SOL     OW15396   2.243   6.185   2.088 -0.2916 -0.2000  0.0291
 4652SOL    HW115397   2.183   6.117   2.117  0.4109  0.3075  2.9745
 4652SOL    HW215398   2.325   6.139   2.070 -0.8379 -0.5695 -1.7118
 4653SOL     OW15399   0.470   4.741   2.438 -0.0397  0.1240 -0.1767
 4653SOL    HW115400   0.444   4.815   2.493  1.5480  0.6542 -0.0988
 4653SOL    HW215401   0.541   4.698   2.486 -0.2198 -0.8260 -0.7204
 4654SOL     OW15402   1.543   7.028   2.193  0.0467 -0.6343 -0.0258
 4654SOL    HW115403   1.576   7.094   2.131 -0.9785 -0.9207 -0.9094
 4654SOL    HW215404   1.606   7.030   2.265  0.0641  1.2837 -0.0323
 4655SOL     OW15405   1.814   7.687   2.316 -0.0894  0.0536  0.1389
 4655SOL    HW115406   1.827   7.725   2.403  0.5534 -0.7306  0.4011
 4655SOL    HW215407   1.879   7.729   2.261 -1.6681  1.8891 -0.4264
 4656SOL     OW15408   6.662   7.366   4.256 -0.1676  0.3786  0.3325
 4656SOL    HW115409   6.611   7.420   4.316 -0.3206  0.2209  0.3460
 4656SOL    HW215410   6.716   7.311   4.312  0.3296  0.8398  0.3138
 4657SOL     OW15411   7.707   5.784   3.415 -0.4414  0.5635 -0.2616
 4657SOL    HW115412   7.673   5.870   3.437  0.3848  0.6786  0.6491
 4657SOL    HW215413   7.733   5.791   3.323 -0.7471  1.1608 -0.3048
 4658SOL     OW15414   0.412   5.622   0.727 -0.1841  0.2944  0.1713
 4658SOL    HW115415   0.427   5.544   0.674  0.2053  1.0874 -0.9224
 4658SOL    HW215416   0.491   5.631   0.779  0.8607  1.3246 -1.5146
 4659SOL     OW15417   1.800   6.150   0.862  0.0351 -0.2239 -0.2695
 4659SOL    HW115418   1.768   6.069   0.822  1.0468 -0.3790 -0.8054
 4659SOL    HW215419   1.768   6.147   0.952  0.3779 -1.3984 -0.1763
 4660SOL     OW15420   7.928   6.188   0.644  0.2739  0.0879 -0.0834
 4660SOL    HW115421   7.948   6.114   0.586 -0.8857  0.5069 -1.0536
 4660SOL    HW215422   7.985   6.175   0.720 -0.0429 -1.9249 -0.1301
 4661SOL     OW15423   3.170   6.168   2.147  0.5451 -0.4561 -0.1954
 4661SOL    HW115424   3.197   6.259   2.151  1.3378 -0.7077  0.3060
 4661SOL    HW215425   3.074   6.171   2.143  0.4553  0.3465  1.8414
 4662SOL     OW15426   7.649   5.836   2.706  0.4910  0.4313  0.3799
 4662SOL    HW115427   7.701   5.762   2.676 -0.3542  0.3482 -0.9417
 4662SOL    HW215428   7.622   5.812   2.795  1.5605 -0.1144  0.5709
 4663SOL     OW15429   2.264   4.705   4.192  0.1135  0.3164 -0.5436
 4663SOL    HW115430   2.360   4.706   4.186  0.0323  1.8333 -2.6924
 4663SOL    HW215431   2.245   4.729   4.282  1.7092 -3.7765  1.1006
 4664SOL     OW15432   7.686   5.823   2.298  0.1366  0.0288 -0.0663
 4664SOL    HW115433   7.697   5.733   2.268 -1.5224  0.0491 -0.8145
 4664SOL    HW215434   7.596   5.827   2.331 -0.5528  1.9106 -1.9356
 4665SOL     OW15435   7.126   4.979   1.265 -0.4325 -0.4329  0.2290
 4665SOL    HW115436   7.058   4.934   1.214 -1.3015  1.7442 -0.6490
 4665SOL    HW215437   7.088   5.065   1.284  1.7364  0.5279  0.4763
 4666SOL     OW15438   1.333   0.824   2.775 -0.3158 -0.0582  0.3199
 4666SOL    HW115439   1.286   0.754   2.731 -0.1178  0.0696 -0.1042
 4666SOL    HW215440   1.268   0.892   2.790  0.0676  0.8525 -1.8360
 4667SOL     OW15441   7.814   7.936   2.272  0.4067 -0.3364  0.5196
 4667SOL    HW115442   7.875   7.918   2.344  0.5270 -0.8964  0.2851
 4667SOL    HW215443   7.757   8.005   2.306 -0.3359 -1.4385  1.6282
 4668SOL     OW15444   7.094   5.407   2.465 -0.4823 -0.9414 -0.5763
 4668SOL    HW115445   7.113   5.336   2.403 -0.4235 -1.2343 -0.2260
 4668SOL    HW215446   7.071   5.362   2.546 -1.6660 -0.5791 -0.6956
 4669SOL     OW15447   0.237   5.296   4.675 -0.2664 -0.2227  0.8136
 4669SOL    HW115448   0.255   5.338   4.759  1.6405  2.4920 -0.8086
 4669SOL    HW215449   0.151   5.330   4.649  0.2618  0.9770  0.5640
 4670SOL     OW15450   0.875   6.474   3.001 -0.4761  0.0015 -0.3667
 4670SOL    HW115451   0.954   6.528   3.006 -0.3143 -0.1889 -0.7921
 4670SOL    HW215452   0.829   6.507   2.924 -0.3772 -0.4630 -0.6267
 4671SOL     OW15453   1.171   6.902   3.149  0.3156 -0.6758  0.2381
 4671SOL    HW115454   1.189   6.850   3.070  0.6597 -1.0241  0.5451
 4671SOL    HW215455   1.077   6.921   3.143  0.8980  2.1063 -1.9470
 4672SOL     OW15456   0.454   6.032   0.531 -0.3305  0.2789  0.1082
 4672SOL    HW115457   0.513   6.061   0.601 -1.5086 -0.0720  1.2965
 4672SOL    HW215458   0.408   5.957   0.568 -0.8793 -0.0126 -1.1156
 4673SOL     OW15459   1.708   5.442   2.276  0.7888  0.3445 -0.2761
 4673SOL    HW115460   1.747   5.354   2.276  1.3928  0.5890  1.2903
 4673SOL    HW215461   1.665   5.449   2.361  0.6744  1.5415 -0.4202
 4674SOL     OW15462   6.893   7.378   3.803  0.4290  0.1610  0.1027
 4674SOL    HW115463   6.856   7.416   3.882  2.1555  1.5428  0.3111
 4674SOL    HW215464   6.894   7.450   3.740  2.6042  0.1774  0.0895
 4675SOL     OW15465   2.113   6.391   2.320  0.9424  0.4597 -0.3427
 4675SOL    HW115466   2.138   6.349   2.238  3.4550  1.6041 -0.2315
 4675SOL    HW215467   2.183   6.369   2.382 -0.4000  0.4181  1.2576
 4676SOL     OW15468   1.664   0.089   3.296  0.1208  0.4454  0.4126
 4676SOL    HW115469   1.652   0.121   3.206  0.0940 -0.2414  0.1704
 4676SOL    HW215470   1.672  -0.006   3.287  3.0067  0.5768  0.8446
 4677SOL     OW15471   7.503   6.570   2.482 -0.4874  0.0885  0.1397
 4677SOL    HW115472   7.502   6.620   2.563 -1.8176 -0.3599  0.4359
 4677SOL    HW215473   7.452   6.623   2.420  0.5029  0.4201 -0.4082
 4678SOL     OW15474   0.049   6.570   3.833 -0.0268  0.4068  0.7275
 4678SOL    HW115475   0.007   6.487   3.812  0.3368  0.3300  0.3018
 4678SOL    HW215476   0.110   6.586   3.761 -1.8109  2.2361 -0.5039
 4679SOL     OW15477   0.422   5.771   3.265 -0.1671 -0.0807  0.0358
 4679SOL    HW115478   0.425   5.820   3.183  0.9022 -0.3155 -0.0799
 4679SOL    HW215479   0.477   5.821   3.325 -1.4056  0.4089  0.8164
 4680SOL     OW15480   0.797   6.742   0.554 -0.4116  0.0079  0.5267
 4680SOL    HW115481   0.827   6.679   0.489 -3.0626  0.3189 -1.1747
 4680SOL    HW215482   0.848   6.821   0.536 -0.1177 -0.3477 -0.2540
 4681SOL     OW15483   0.356   7.815   3.598  0.1725  0.3908  0.0351
 4681SOL    HW115484   0.296   7.846   3.530 -0.9012  0.3897  0.9468
 4681SOL    HW215485   0.362   7.720   3.583 -0.8882  0.2324  0.5641
 4682SOL     OW15486   0.893   7.169   4.685  0.0114  0.1014 -0.1767
 4682SOL    HW115487   0.882   7.075   4.693  1.4431  0.0635  1.9828
 4682SOL    HW215488   0.916   7.183   4.592  2.6990 -2.0488  0.0390
 4683SOL     OW15489   1.090   7.342   2.379  0.4722 -0.3381 -0.4371
 4683SOL    HW115490   1.075   7.318   2.288 -0.4325  1.3869 -0.7929
 4683SOL    HW215491   1.142   7.271   2.415 -1.6176 -2.5434 -1.4947
 4684SOL     OW15492   0.639   1.117   4.100  0.1653  0.1918  0.0112
 4684SOL    HW115493   0.592   1.184   4.149 -0.5730 -1.0312  1.0414
 4684SOL    HW215494   0.662   1.159   4.017 -0.1253  1.7506  0.6941
 4685SOL     OW15495   3.629   6.126   1.708  0.0869  0.1548 -0.3746
 4685SOL    HW115496   3.705   6.068   1.703 -2.2218 -3.0368 -0.9745
 4685SOL    HW215497   3.626   6.168   1.621  0.7358 -0.2596 -0.6061
 4686SOL     OW15498   0.534   5.895   2.473 -0.1902 -0.5495 -0.7209
 4686SOL    HW115499   0.474   5.822   2.485  1.9793 -2.6246 -1.6355
 4686SOL    HW215500   0.498   5.944   2.400 -1.2444 -1.2104 -0.6632
 4687SOL     OW15501   1.911   7.865   3.130 -0.1021 -0.0409  0.0378
 4687SOL    HW115502   1.979   7.930   3.116 -1.3467  1.4109  0.4248
 4687SOL    HW215503   1.862   7.863   3.047  1.0098 -1.8781 -0.6333
 4688SOL     OW15504   1.643   0.743   1.138 -0.4439 -0.4922  0.3831
 4688SOL    HW115505   1.574   0.808   1.151 -1.5422 -1.7748  1.2990
 4688SOL    HW215506   1.698   0.780   1.070 -1.2729  1.1898  0.5660
 4689SOL     OW15507   7.206   7.031   3.239 -0.4167  0.0047  0.4073
 4689SOL    HW115508   7.202   7.102   3.303  0.1837  1.1602 -0.7912
 4689SOL    HW215509   7.198   7.075   3.154 -0.0834 -1.3710 -0.3632
 4690SOL     OW15510   6.996   6.468   3.180 -0.4534 -0.5587  0.1073
 4690SOL    HW115511   6.984   6.373   3.177  1.9365 -0.8918 -0.9511
 4690SOL    HW215512   7.086   6.482   3.151 -0.9512  2.0962 -0.3990
 4691SOL     OW15513   2.270   6.981   1.660 -0.5409  0.5059 -0.1106
 4691SOL    HW115514   2.235   6.948   1.742 -1.1196  0.4547 -0.3731
 4691SOL    HW215515   2.359   6.946   1.656 -0.2528  1.1022  0.8327
 4692SOL     OW15516   2.653   5.861   3.652 -0.0692 -0.5649  0.6842
 4692SOL    HW115517   2.652   5.766   3.661 -0.5301 -0.5991  0.2988
 4692SOL    HW215518   2.633   5.877   3.560 -0.3350 -0.0862  0.8210
 4693SOL     OW15519   0.793   6.938   3.614 -0.0790 -0.3666  0.2488
 4693SOL    HW115520   0.843   7.013   3.580 -0.4543  0.8647  2.2847
 4693SOL    HW215521   0.850   6.900   3.680 -0.8006 -0.5134  0.7923
 4694SOL     OW15522   0.777   6.705   1.615 -0.2586  0.1056 -0.6792
 4694SOL    HW115523   0.757   6.799   1.623 -1.1587 -0.1882  1.0430
 4694SOL    HW215524   0.861   6.695   1.658 -1.3448 -0.2143  1.5272
 4695SOL     OW15525   1.037   4.483   2.461 -0.4419  0.1888  0.4021
 4695SOL    HW115526   0.971   4.430   2.504 -1.4324  0.9405 -0.1626
 4695SOL    HW215527   1.028   4.570   2.500 -0.0250  0.3866  0.0696
 4696SOL     OW15528   0.277   6.339   1.460  0.2647  0.7404 -0.2042
 4696SOL    HW115529   0.234   6.420   1.434  1.2390  0.8627 -1.5041
 4696SOL    HW215530   0.352   6.331   1.401  0.8956 -0.4771  0.7085
 4697SOL     OW15531   7.790   7.458   2.382 -0.6721  0.0562  0.4282
 4697SOL    HW115532   7.718   7.517   2.404 -1.2680 -0.3409 -0.3995
 4697SOL    HW215533   7.747   7.381   2.344  0.2084  0.1024 -0.7262
 4698SOL     OW15534   7.774   6.679   3.052  0.3607  0.3258 -0.1800
 4698SOL    HW115535   7.771   6.586   3.029  1.0697  0.2186  0.1258
 4698SOL    HW215536   7.799   6.680   3.144  2.9150  0.8555 -0.7982
 4699SOL     OW15537   0.225   5.887   4.694  0.2940 -0.2569 -0.2323
 4699SOL    HW115538   0.143   5.851   4.658  1.3966 -0.9002 -2.3061
 4699SOL    HW215539   0.265   5.933   4.620  1.4582  0.7200  0.9495
 4700SOL     OW15540   0.076   6.589   2.636  0.2682  0.1016  0.1775
 4700SOL    HW115541   0.150   6.576   2.695  1.6435 -0.8898 -1.6592
 4700SOL    HW215542   0.046   6.678   2.655  0.8282 -0.0675  2.1218
 4701SOL     OW15543   0.136   4.815   2.300 -0.0809  0.3461  0.6071
 4701SOL    HW115544   0.126   4.895   2.351  1.0395  0.7862  0.1543
 4701SOL    HW215545   0.165   4.750   2.363 -0.3196  0.4631  0.8404
 4702SOL     OW15546   1.509   6.369   1.593  0.3498 -0.2142  0.0069
 4702SOL    HW115547   1.560   6.447   1.570 -0.9858  0.6143 -0.2505
 4702SOL    HW215548   1.426   6.380   1.547  0.6071 -2.4979 -1.2123
 4703SOL     OW15549   0.433   5.867   2.955  0.0798  0.5169 -0.2162
 4703SOL    HW115550   0.454   5.774   2.968 -0.5480  0.4814  0.6152
 4703SOL    HW215551   0.390   5.870   2.870 -0.5837 -0.0819  0.0877
 4704SOL     OW15552   2.447   6.701   1.570 -0.4577  0.3402 -0.1358
 4704SOL    HW115553   2.435   6.607   1.577 -0.2549  0.4230  2.3743
 4704SOL    HW215554   2.364   6.734   1.537 -0.8238 -0.6534 -0.2280
 4705SOL     OW15555   7.528   7.145   3.922  0.0201  0.2384  0.1942
 4705SOL    HW115556   7.596   7.207   3.947  0.0833  0.2403  0.0240
 4705SOL    HW215557   7.536   7.072   3.984  0.1973  0.2253  0.1554
 4706SOL     OW15558   0.410   5.464   2.722 -0.1124 -0.1883 -0.2941
 4706SOL    HW115559   0.504   5.479   2.728  0.0498 -0.8708 -1.0409
 4706SOL    HW215560   0.373   5.514   2.795  0.8508 -0.1709  0.1888
 4707SOL     OW15561   0.942   5.291   0.564  0.3799 -0.0840  0.1968
 4707SOL    HW115562   1.003   5.358   0.595 -0.7912  0.7069  0.9084
 4707SOL    HW215563   0.937   5.228   0.636 -1.0727  0.8804  1.0072
 4708SOL     OW15564   1.503   6.364   2.831 -0.4409  0.5849  0.1346
 4708SOL    HW115565   1.584   6.334   2.791 -0.4445  1.9158 -0.9234
 4708SOL    HW215566   1.434   6.328   2.775 -0.5012  0.9762 -0.0512
 4709SOL     OW15567   0.953   6.805   3.820  0.3836 -0.1713 -0.1170
 4709SOL    HW115568   0.879   6.744   3.818  0.9232 -0.8572  0.2240
 4709SOL    HW215569   1.026   6.752   3.853  1.1229  0.3901 -0.8198
 4710SOL     OW15570   0.268   6.686   1.116  0.4213  0.2602 -0.5349
 4710SOL    HW115571   0.190   6.706   1.066  0.2296  0.5412 -0.1284
 4710SOL    HW215572   0.307   6.771   1.135  0.2810  0.1820  0.1212
 4711SOL     OW15573   7.294   7.619   3.090 -0.3724  0.0850  0.8266
 4711SOL    HW115574   7.297   7.713   3.107  1.5262  0.1891  0.2176
 4711SOL    HW215575   7.250   7.611   3.006 -1.8376  0.2846  1.5498
 4712SOL     OW15576   1.346   6.401   2.260 -0.2108 -0.1097  0.1386
 4712SOL    HW115577   1.321   6.487   2.294 -0.2072 -0.4251  0.9658
 4712SOL    HW215578   1.272   6.375   2.205  0.1886  0.8142 -0.8588
 4713SOL     OW15579   0.277   7.453   4.289  0.0546 -0.1383  0.0187
 4713SOL    HW115580   0.299   7.399   4.213 -0.8316 -0.7537  0.1997
 4713SOL    HW215581   0.362   7.479   4.325  0.4815 -0.4009 -0.7794
 4714SOL     OW15582   2.242   0.396   2.481 -0.0780 -0.3194  0.6172
 4714SOL    HW115583   2.253   0.409   2.575  1.5788  0.9651  0.2854
 4714SOL    HW215584   2.246   0.301   2.469  2.4271 -0.3939  1.5749
 4715SOL     OW15585   1.159   6.620   0.974  0.1548  0.3798 -0.0805
 4715SOL    HW115586   1.067   6.621   1.000  0.1043  0.8650 -0.2787
 4715SOL    HW215587   1.168   6.694   0.915  0.6913  0.3675 -0.0146
 4716SOL     OW15588   1.569   6.012   2.386  0.4889 -0.4849  0.3412
 4716SOL    HW115589   1.526   6.093   2.415  0.2951 -0.5240  0.1631
 4716SOL    HW215590   1.660   6.039   2.369  0.1289 -0.0177 -0.9382
 4717SOL     OW15591   6.112   4.187   0.549 -0.2375  0.0035  0.0706
 4717SOL    HW115592   6.023   4.151   0.544  0.4263 -1.6605 -0.8614
 4717SOL    HW215593   6.140   4.192   0.457  1.3110 -1.4155  0.4081
 4718SOL     OW15594   7.482   7.141   2.130 -0.0651  0.3530  0.4634
 4718SOL    HW115595   7.447   7.054   2.111 -0.5688  0.4136  1.0790
 4718SOL    HW215596   7.416   7.182   2.185 -0.0528  1.3119 -0.2073
 4719SOL     OW15597   2.274   4.586   2.584 -0.0415  0.1720 -0.3148
 4719SOL    HW115598   2.311   4.630   2.660 -0.2424  0.1132 -0.1804
 4719SOL    HW215599   2.318   4.501   2.581  1.4088  0.9325 -1.4288
 4720SOL     OW15600   3.710   6.473   3.667 -0.3235  0.3151  0.5479
 4720SOL    HW115601   3.623   6.443   3.638 -0.0093 -1.1024  1.0019
 4720SOL    HW215602   3.726   6.425   3.747  1.3917 -0.3268 -0.1530
 4721SOL     OW15603   1.414   5.507   1.380 -0.2393 -0.2052 -0.1272
 4721SOL    HW115604   1.481   5.574   1.392  0.4207 -0.6733 -1.0922
 4721SOL    HW215605   1.450   5.448   1.314 -1.3002 -0.8665 -0.1416
 4722SOL     OW15606   0.242   7.209   1.659 -0.0641 -0.5017  0.1370
 4722SOL    HW115607   0.274   7.126   1.693  0.4930 -0.4826 -0.3130
 4722SOL    HW215608   0.310   7.237   1.597 -0.9884 -0.4672 -0.8811
 4723SOL     OW15609   0.174   7.108   2.395 -0.9243 -0.3646  0.0462
 4723SOL    HW115610   0.184   7.013   2.403 -0.6853 -0.4833 -1.4210
 4723SOL    HW215611   0.186   7.141   2.484 -2.4010 -1.8152  0.8333
 4724SOL     OW15612   2.725   0.263   1.838  0.1054 -0.1321 -0.0744
 4724SOL    HW115613   2.720   0.182   1.888  0.5310 -0.5182 -0.6324
 4724SOL    HW215614   2.817   0.270   1.813 -0.1540 -0.1325 -1.0797
 4725SOL     OW15615   1.824   6.699   1.504 -0.0197  0.0924  0.1083
 4725SOL    HW115616   1.803   6.662   1.590 -0.3251 -1.0706 -0.4486
 4725SOL    HW215617   1.826   6.623   1.445  1.4340  0.7017 -0.6801
 4726SOL     OW15618   1.164   0.021   3.828  0.5410  0.5860 -0.1693
 4726SOL    HW115619   1.077   0.060   3.836  0.3629  0.3143 -0.7353
 4726SOL    HW215620   1.183  -0.013   3.916 -0.2947 -0.1322 -0.2600
 4727SOL     OW15621   0.892   7.320   0.874  0.4585  0.6477  0.3496
 4727SOL    HW115622   0.967   7.373   0.846  0.9286 -1.0191 -1.7958
 4727SOL    HW215623   0.848   7.296   0.793 -0.0931 -1.6917  1.2651
 4728SOL     OW15624   3.037   6.713   1.432  0.2524  0.8055 -0.1178
 4728SOL    HW115625   2.971   6.754   1.377 -0.8994  2.2976  2.2243
 4728SOL    HW215626   2.988   6.665   1.498  1.5851 -0.3017  0.1357
 4729SOL     OW15627   0.266   5.262   2.611  0.4981  0.1940  0.2871
 4729SOL    HW115628   0.222   5.212   2.680 -0.0012 -1.2081 -0.9899
 4729SOL    HW215629   0.320   5.326   2.658 -1.8961  1.1388  1.9083
 4730SOL     OW15630   1.129   5.404   2.240  0.2730 -0.3254 -0.5188
 4730SOL    HW115631   1.037   5.422   2.217 -0.2912 -2.7954 -0.4207
 4730SOL    HW215632   1.176   5.481   2.207 -2.1817  3.0911  2.9753
 4731SOL     OW15633   2.688   5.713   0.581  0.5426  0.0606  0.6011
 4731SOL    HW115634   2.712   5.648   0.514  0.1268 -0.2503  0.7466
 4731SOL    HW215635   2.657   5.660   0.655 -1.0617  0.4363  0.2344
 4732SOL     OW15636   7.865   4.058   3.298 -0.5204  0.0512  0.3993
 4732SOL    HW115637   7.910   4.003   3.234 -1.3668  0.1544 -0.3118
 4732SOL    HW215638   7.860   4.004   3.377 -0.4727 -0.5198  0.0190
 4733SOL     OW15639   0.910   6.668   0.084  0.1353 -0.7819 -0.4044
 4733SOL    HW115640   0.938   6.758   0.072  0.2154 -0.2336  2.9180
 4733SOL    HW215641   0.987   6.615   0.060  0.8638  0.1648 -0.1932
 4734SOL     OW15642   1.847   5.939   1.829 -0.1737  0.5310  0.4036
 4734SOL    HW115643   1.776   5.938   1.893  0.1624 -3.7176  0.9947
 4734SOL    HW215644   1.802   5.943   1.744 -0.8970  1.0668  0.7963
 4735SOL     OW15645   1.939   5.596   2.557 -0.2417 -0.3635 -0.0674
 4735SOL    HW115646   1.990   5.663   2.511  1.0844 -0.5328  1.1137
 4735SOL    HW215647   1.899   5.643   2.630 -0.9123 -0.4759 -0.3486
 4736SOL     OW15648   2.351   4.286   3.057  0.1166 -0.4943 -0.9947
 4736SOL    HW115649   2.301   4.353   3.103  0.1798 -0.8535 -0.3970
 4736SOL    HW215650   2.315   4.203   3.088  1.2992 -0.7675 -0.3042
 4737SOL     OW15651   0.619   5.986   1.458  0.1994  0.5762 -0.0995
 4737SOL    HW115652   0.655   6.049   1.396 -0.0715  0.9820  0.1472
 4737SOL    HW215653   0.530   6.017   1.475 -0.4497 -0.6508 -1.0357
 4738SOL     OW15654   6.880   5.558   2.397  0.2604  0.5617  0.9478
 4738SOL    HW115655   6.968   5.529   2.422  0.4862  0.8319  0.4802
 4738SOL    HW215656   6.821   5.511   2.456  0.5695 -1.2627 -0.1143
 4739SOL     OW15657   0.203   5.031   1.571 -0.1604  0.4605  0.2037
 4739SOL    HW115658   0.237   5.118   1.592 -0.7839  0.3109  1.9898
 4739SOL    HW215659   0.278   4.972   1.583  0.0501  0.6529 -0.1729
 4740SOL     OW15660   0.344   4.504   4.355  0.5355 -0.1578 -0.0819
 4740SOL    HW115661   0.377   4.458   4.277 -1.0014 -1.5517  0.0480
 4740SOL    HW215662   0.422   4.544   4.393  1.4379 -0.0282 -1.9408
 4741SOL     OW15663   0.311   6.241   0.419 -0.4901 -0.0685  0.1654
 4741SOL    HW115664   0.376   6.174   0.440 -0.0109  0.3780  0.1207
 4741SOL    HW215665   0.292   6.283   0.504 -0.6974 -0.1823  0.1743
 4742SOL     OW15666   1.868   0.929   2.704 -0.0045  0.0152  0.4985
 4742SOL    HW115667   1.848   0.849   2.751 -1.1198 -1.1549 -1.8367
 4742SOL    HW215668   1.788   0.982   2.711 -0.7314 -0.7853 -1.1938
 4743SOL     OW15669   7.377   6.541   4.373  0.2634  0.0666  0.9494
 4743SOL    HW115670   7.296   6.533   4.423 -1.4171 -1.3636 -1.7583
 4743SOL    HW215671   7.407   6.450   4.362  0.2877  0.2584 -0.9586
 4744SOL     OW15672   7.795   6.108   5.268  0.6269 -0.2671  0.2153
 4744SOL    HW115673   7.846   6.058   5.205 -0.2805 -1.2059  0.1925
 4744SOL    HW215674   7.857   6.129   5.338  1.0612 -1.3522  0.1761
 4745SOL     OW15675   5.927   4.365   6.163 -0.0270 -0.3431 -0.1957
 4745SOL    HW115676   5.834   4.344   6.165  0.0172 -0.5795  1.5743
 4745SOL    HW215677   5.970   4.279   6.171  0.3523 -0.2152 -0.7846
 4746SOL     OW15678   2.370   6.851   3.594  0.2967  0.0392 -0.1941
 4746SOL    HW115679   2.451   6.888   3.630  0.2199  0.6845 -0.6808
 4746SOL    HW215680   2.395   6.814   3.510  0.4047 -1.1727  0.3600
 4747SOL     OW15681   2.315   5.370   5.926  0.5461  0.0814  0.0651
 4747SOL    HW115682   2.258   5.299   5.896  0.8932  0.6695 -2.1923
 4747SOL    HW215683   2.402   5.330   5.932  0.5510  0.0518 -0.1752
 4748SOL     OW15684   0.647   7.089   4.288  0.0382 -0.4067  0.8731
 4748SOL    HW115685   0.678   7.001   4.311 -2.3976 -1.6939 -0.3731
 4748SOL    HW215686   0.565   7.099   4.336 -1.5830 -0.3746 -1.6671
 4749SOL     OW15687   1.866   6.822   2.362  0.1518  0.1639 -0.3157
 4749SOL    HW115688   1.871   6.727   2.370 -1.5673 -0.0107 -0.8013
 4749SOL    HW215689   1.956   6.852   2.373  0.5027 -1.3609  1.6192
 4750SOL     OW15690   0.317   6.881   5.524 -0.1586 -0.0366 -0.1837
 4750SOL    HW115691   0.328   6.796   5.567  1.5631 -0.3072 -1.0827
 4750SOL    HW215692   0.403   6.923   5.531 -1.1857  2.0645  1.0363
 4751SOL     OW15693   0.716   6.559   2.795  0.1776 -0.5828 -0.2927
 4751SOL    HW115694   0.633   6.531   2.755  0.0499 -0.8448  0.1552
 4751SOL    HW215695   0.779   6.553   2.723 -0.2163 -0.2347 -0.6783
 4752SOL     OW15696   0.585   6.828   3.492  0.1246  0.0566 -0.1518
 4752SOL    HW115697   0.634   6.799   3.415  0.0346 -0.5021 -0.0020
 4752SOL    HW215698   0.653   6.855   3.554  0.2254 -0.2674 -0.1213
 4753SOL     OW15699   1.573   0.112   6.869 -0.0707  0.0330  0.2678
 4753SOL    HW115700   1.496   0.055   6.870  0.4032 -0.7573 -2.1389
 4753SOL    HW215701   1.544   0.192   6.827  0.4115 -0.2967 -0.7222
 4754SOL     OW15702   0.627   6.060   4.978  0.1170  0.4532 -0.7435
 4754SOL    HW115703   0.579   5.981   4.952 -1.2794  0.5196  1.4157
 4754SOL    HW215704   0.645   6.047   5.071 -0.4211  2.8159 -0.2612
 4755SOL     OW15705   1.154   5.958   6.385  0.2363 -0.2737 -0.1214
 4755SOL    HW115706   1.154   5.863   6.373  0.4152 -0.1999 -0.7806
 4755SOL    HW215707   1.139   5.971   6.478  2.3617 -1.0095  0.3962
 4756SOL     OW15708   0.825   6.238   4.731  0.7175 -0.3672  0.4136
 4756SOL    HW115709   0.795   6.329   4.736 -0.0501 -0.6204  0.5464
 4756SOL    HW215710   0.921   6.245   4.728  0.8622  0.3685  3.2329
 4757SOL     OW15711   2.424   6.009   4.851  0.5108 -0.0654  0.8672
 4757SOL    HW115712   2.352   6.073   4.844  0.9201  0.2547 -0.8206
 4757SOL    HW215713   2.485   6.049   4.913 -0.3383  0.0748  1.6347
 4758SOL     OW15714   0.061   7.472   4.656  0.4000  0.0176  0.6297
 4758SOL    HW115715   0.135   7.488   4.715 -0.4866  0.3292  1.6672
 4758SOL    HW215716   0.008   7.407   4.701  0.7180 -1.2307 -0.7301
 4759SOL     OW15717   1.099   6.718   4.604 -0.0877  0.0542 -0.4146
 4759SOL    HW115718   1.185   6.751   4.628  0.0975 -2.1881  2.6029
 4759SOL    HW215719   1.117   6.633   4.563 -0.8068  0.1982 -1.0422
 4760SOL     OW15720   7.956   7.410   3.887 -0.2802  0.7596 -1.0323
 4760SOL    HW115721   7.918   7.370   3.965 -1.3248  0.0378 -1.8802
 4760SOL    HW215722   8.031   7.353   3.865 -1.0832 -0.1094 -1.5847
 4761SOL     OW15723   0.838   6.462   6.033 -0.3618  0.1410  0.3203
 4761SOL    HW115724   0.831   6.366   6.029  0.3300  0.1132 -0.5469
 4761SOL    HW215725   0.792   6.492   5.954  0.7541  0.4352 -0.2261
 4762SOL     OW15726   7.837   6.446   4.997  1.0157  0.1313  0.0249
 4762SOL    HW115727   7.793   6.394   4.929  2.1362 -0.2106 -0.4491
 4762SOL    HW215728   7.790   6.424   5.078  0.5653 -0.5254 -0.4071
 4763SOL     OW15729   0.371   6.353   3.788 -0.9725  0.6746  0.0173
 4763SOL    HW115730   0.391   6.412   3.861  0.6509 -0.4087  0.5129
 4763SOL    HW215731   0.447   6.361   3.730 -1.9626  1.0473 -1.2839
 4764SOL     OW15732   0.163   6.023   5.319 -0.2962  0.7386  0.0208
 4764SOL    HW115733   0.204   6.101   5.356 -2.6115  1.6541  0.8482
 4764SOL    HW215734   0.179   5.954   5.383  2.5828  0.1728 -1.1474
 4765SOL     OW15735   1.793   0.260   3.970 -0.5162 -0.9163 -0.4651
 4765SOL    HW115736   1.816   0.198   3.901 -1.1827 -0.2189 -1.3228
 4765SOL    HW215737   1.698   0.267   3.966 -0.7148 -1.7882  1.3406
 4766SOL     OW15738   7.951   6.739   4.499 -0.3547  0.1315  0.4408
 4766SOL    HW115739   7.901   6.684   4.559 -0.8825 -0.5128 -0.5679
 4766SOL    HW215740   8.006   6.678   4.451  1.0396  0.7764  1.1476
 4767SOL     OW15741   6.392   0.314   4.446  0.0069 -0.2263 -0.2421
 4767SOL    HW115742   6.416   0.311   4.539  3.2345  1.1898 -0.8897
 4767SOL    HW215743   6.460   0.263   4.402 -1.9050 -1.5488 -1.8267
 4768SOL     OW15744   1.026   6.646   3.405 -1.0269 -0.0534 -0.4706
 4768SOL    HW115745   1.116   6.639   3.438 -0.7260 -1.8472 -1.5436
 4768SOL    HW215746   0.972   6.654   3.483  0.0293  0.8613  0.2033
 4769SOL     OW15747   7.699   7.064   3.403  0.1213  0.5654  0.0762
 4769SOL    HW115748   7.664   6.995   3.459 -1.9515  3.2885  2.4076
 4769SOL    HW215749   7.680   7.034   3.314 -0.0780 -2.1019  0.9111
 4770SOL     OW15750   7.802   4.398   6.924  0.2960  0.1626 -0.1137
 4770SOL    HW115751   7.844   4.318   6.956  2.0851  1.5743  1.2529
 4770SOL    HW215752   7.713   4.395   6.961  0.4888 -0.9558  0.2983
 4771SOL     OW15753   7.283   6.782   4.240  0.4731  0.8251 -0.7255
 4771SOL    HW115754   7.326   6.697   4.252  0.1518  0.9448  2.0864
 4771SOL    HW215755   7.196   6.759   4.205 -0.5231 -0.3777  2.1571
 4772SOL     OW15756   2.238   6.173   5.922 -0.1150 -0.1922  0.3496
 4772SOL    HW115757   2.220   6.206   5.834  1.1982 -0.2330  0.0357
 4772SOL    HW215758   2.175   6.103   5.935 -1.5815  1.0434  0.2055
 4773SOL     OW15759   0.831   6.338   1.563 -0.1057 -0.0286  0.3337
 4773SOL    HW115760   0.783   6.313   1.485  0.1931 -1.7159  0.6577
 4773SOL    HW215761   0.764   6.348   1.631 -0.1013 -1.8637  0.6562
 4774SOL     OW15762   1.778   7.888   5.519 -0.2166  0.3738 -0.1559
 4774SOL    HW115763   1.814   7.976   5.511  2.7783 -0.8582 -1.7651
 4774SOL    HW215764   1.734   7.871   5.436 -1.9318  0.7264  0.6275
 4775SOL     OW15765   2.653   6.184   0.911 -0.2014 -0.2938 -0.1971
 4775SOL    HW115766   2.685   6.125   0.842  0.1743 -0.3119 -0.0083
 4775SOL    HW215767   2.695   6.153   0.991 -0.0172  0.2171 -0.0904
 4776SOL     OW15768   7.551   7.639   5.906 -0.0686 -0.4086 -0.5481
 4776SOL    HW115769   7.559   7.564   5.965  0.4079  0.1419  0.1044
 4776SOL    HW215770   7.547   7.715   5.965 -2.6219 -0.0284 -1.0898
 4777SOL     OW15771   0.799   6.202   5.877 -0.0762  0.0105  0.0331
 4777SOL    HW115772   0.864   6.134   5.860  0.4295  0.5104 -0.0305
 4777SOL    HW215773   0.763   6.223   5.791  0.7340  0.7851 -0.1277
 4778SOL     OW15774   2.584   6.851   5.371  0.2896 -0.1446  0.1425
 4778SOL    HW115775   2.592   6.790   5.444 -0.1342 -0.4518 -0.0603
 4778SOL    HW215776   2.669   6.895   5.367 -0.2423  1.1362  1.9091
 4779SOL     OW15777   1.195   7.036   4.741 -0.3328  0.0082  0.0382
 4779SOL    HW115778   1.171   7.077   4.657 -0.3175 -0.3123 -0.1246
 4779SOL    HW215779   1.125   6.973   4.757 -1.1997  1.1737  1.0645
 4780SOL     OW15780   6.351   6.750   3.088  0.4111 -0.4885 -0.0866
 4780SOL    HW115781   6.292   6.679   3.114  1.7200 -1.5482  0.1071
 4780SOL    HW215782   6.392   6.779   3.169 -1.2446  1.6151  0.0722
 4781SOL     OW15783   7.720   5.633   4.166 -0.0110  0.7227 -0.5517
 4781SOL    HW115784   7.802   5.680   4.150  1.0821 -0.9942 -0.2473
 4781SOL    HW215785   7.735   5.545   4.130 -0.5549 -0.6221  2.2518
 4782SOL     OW15786   7.280   7.942   2.503  0.6597 -0.3575 -0.0196
 4782SOL    HW115787   7.354   7.883   2.515  1.5485  0.7086 -0.0464
 4782SOL    HW215788   7.242   7.950   2.590  0.6941 -0.7564  0.0358
 4783SOL     OW15789   0.685   6.270   5.661  0.1866  0.7404  0.2856
 4783SOL    HW115790   0.759   6.304   5.611  0.2420 -0.5783 -0.5697
 4783SOL    HW215791   0.608   6.291   5.608  0.1745  0.0267  0.0082
 4784SOL     OW15792   0.865   5.639   3.555  0.3562  0.3279 -0.0618
 4784SOL    HW115793   0.809   5.702   3.600  0.0095 -0.9349  1.3897
 4784SOL    HW215794   0.946   5.640   3.607 -0.2716 -1.6001  1.0549
 4785SOL     OW15795   1.333   7.243   4.838  0.3398 -0.3400 -0.8619
 4785SOL    HW115796   1.379   7.247   4.754  0.0529 -1.1841 -1.0672
 4785SOL    HW215797   1.273   7.169   4.829 -0.3356  0.1253 -0.2306
 4786SOL     OW15798   0.009   4.057   3.733 -0.4434 -0.1758 -0.7425
 4786SOL    HW115799  -0.045   4.038   3.656 -2.5604  0.1199  0.5888
 4786SOL    HW215800  -0.004   4.150   3.750 -1.8352 -0.6622  1.2273
 4787SOL     OW15801   0.172   4.205   3.393 -0.4680  0.2362  0.3516
 4787SOL    HW115802   0.081   4.234   3.394 -0.9764 -1.2285 -0.3757
 4787SOL    HW215803   0.222   4.282   3.421 -1.7234  1.7808 -1.3783
 4788SOL     OW15804   0.945   7.467   5.255  0.3463 -0.1318 -0.5057
 4788SOL    HW115805   1.019   7.492   5.200  0.3247  1.0834 -0.0162
 4788SOL    HW215806   0.979   7.397   5.311  1.6444  1.4613  0.8015
 4789SOL     OW15807   0.519   7.561   5.385  0.0627  0.3252  0.1878
 4789SOL    HW115808   0.598   7.584   5.337  1.2707 -1.4918  1.1802
 4789SOL    HW215809   0.481   7.487   5.337 -0.5525  0.6102  0.2190
 4790SOL     OW15810   0.299   5.057   2.827  0.9875 -0.1775  0.5177
 4790SOL    HW115811   0.363   5.074   2.896 -1.5073  2.2614  2.4699
 4790SOL    HW215812   0.220   5.031   2.874 -0.4468  0.2991 -1.5242
 4791SOL     OW15813   2.230   6.230   5.075  0.0943  0.3429 -0.3870
 4791SOL    HW115814   2.286   6.253   5.000  1.0952 -1.3927 -0.2298
 4791SOL    HW215815   2.285   6.172   5.128 -1.2178  0.1337  0.7900
 4792SOL     OW15816   2.499   5.989   3.998  0.2683 -0.0143  0.3177
 4792SOL    HW115817   2.453   6.030   4.071  1.2051  1.2113  0.2361
 4792SOL    HW215818   2.552   5.920   4.039 -0.1473 -0.1469  0.6362
 4793SOL     OW15819   0.274   5.021   4.797  0.6819  0.0979 -0.2606
 4793SOL    HW115820   0.293   5.100   4.848  1.1898 -1.0589  1.4358
 4793SOL    HW215821   0.183   5.031   4.768 -0.6963 -0.4650  3.4169
 4794SOL     OW15822   6.664   6.396   2.794 -0.3232  0.0328  0.4353
 4794SOL    HW115823   6.719   6.317   2.791  0.2644  0.4638 -1.1704
 4794SOL    HW215824   6.666   6.422   2.886  1.6526 -0.3429  0.5603
 4795SOL     OW15825   7.145   7.189   2.063  0.4312 -0.5730  0.4468
 4795SOL    HW115826   7.179   7.272   2.098  1.0721 -0.9953  0.8388
 4795SOL    HW215827   7.050   7.203   2.057  0.3195 -0.4194  2.1807
 4796SOL     OW15828   2.124   6.032   4.694  0.2388 -0.1193 -0.3934
 4796SOL    HW115829   2.071   5.970   4.643 -0.6213  0.3376 -0.0812
 4796SOL    HW215830   2.084   6.032   4.781  0.1926  0.8982 -0.4025
 4797SOL     OW15831   1.565   7.990   5.685 -0.2596 -0.1130  0.0712
 4797SOL    HW115832   1.624   7.938   5.629  0.2472  0.0946  0.4050
 4797SOL    HW215833   1.613   7.999   5.767 -0.7526  0.0863  0.3364
 4798SOL     OW15834   7.000   6.755   4.356  0.2554 -0.1731 -0.0469
 4798SOL    HW115835   7.044   6.684   4.401 -2.3302 -1.2399  0.9879
 4798SOL    HW215836   6.967   6.716   4.275 -3.2133 -0.9950  1.5783
 4799SOL     OW15837   1.542   4.750   5.712  0.3730 -0.4057 -0.0366
 4799SOL    HW115838   1.577   4.680   5.767 -1.3639 -2.0287 -0.8556
 4799SOL    HW215839   1.475   4.792   5.767  2.6855  2.0297  1.1650
 4800SOL     OW15840   1.730   6.184   6.547 -0.0933 -0.0944 -0.2058
 4800SOL    HW115841   1.636   6.165   6.546 -0.3372  0.8607 -2.7146
 4800SOL    HW215842   1.736   6.278   6.560  0.6044 -0.2656  0.8954
 4801SOL     OW15843   0.093   7.694   4.203 -0.1408 -0.4082  0.0233
 4801SOL    HW115844   0.114   7.600   4.202  0.3367 -0.3859  2.6109
 4801SOL    HW215845   0.016   7.701   4.258  0.3580  0.7969  0.6028
 4802SOL     OW15846   6.881   5.098   5.711  0.3709 -0.3320  0.1085
 4802SOL    HW115847   6.872   5.031   5.643  3.4479 -0.2761 -0.4952
 4802SOL    HW215848   6.936   5.165   5.671 -0.2979  1.2018  1.6576
 4803SOL     OW15849   6.946   6.882   4.714  0.0915 -0.1096 -0.1114
 4803SOL    HW115850   7.007   6.809   4.702  0.2230  0.1128 -0.8366
 4803SOL    HW215851   6.898   6.860   4.794 -1.7078 -2.3441 -1.6506
 4804SOL     OW15852   7.134   6.951   1.396  0.2596  0.2914 -0.2923
 4804SOL    HW115853   7.094   6.865   1.388 -1.3424  1.1286 -2.2654
 4804SOL    HW215854   7.074   7.001   1.452  0.5888  0.4400 -0.0703
 4805SOL     OW15855   0.750   5.181   3.055 -0.4281  0.0211  0.0992
 4805SOL    HW115856   0.757   5.205   3.148  0.9498  0.1974 -0.0271
 4805SOL    HW215857   0.828   5.128   3.038  0.2761  1.4321 -1.3711
 4806SOL     OW15858   7.057   1.099   5.348  0.4703 -0.5430  0.1231
 4806SOL    HW115859   7.149   1.097   5.323  0.4153 -0.6651 -0.0683
 4806SOL    HW215860   7.055   1.158   5.424  0.4417  1.0085 -1.0202
 4807SOL     OW15861   1.962   6.207   3.709  0.1449 -0.1799  0.1271
 4807SOL    HW115862   2.045   6.204   3.756  0.0513 -0.1191  0.2971
 4807SOL    HW215863   1.935   6.299   3.714  0.4884 -0.0223 -0.6638
 4808SOL     OW15864   7.838   7.291   3.145  0.0088 -0.0566  0.2781
 4808SOL    HW115865   7.789   7.372   3.137 -1.2992 -0.7682  0.7110
 4808SOL    HW215866   7.893   7.303   3.222 -1.3443 -0.1207  1.3034
 4809SOL     OW15867   1.076   5.721   3.366 -0.6663 -0.0480 -0.5427
 4809SOL    HW115868   1.156   5.697   3.412  0.0465  2.7385 -0.1695
 4809SOL    HW215869   1.006   5.675   3.413  0.3767  0.2254  1.3719
 4810SOL     OW15870   0.278   7.388   2.291  0.4909 -0.1849 -0.7358
 4810SOL    HW115871   0.321   7.411   2.373  1.0734 -0.3982 -0.9721
 4810SOL    HW215872   0.219   7.317   2.313 -2.4185  2.3321  0.3047
 4811SOL     OW15873   0.843   6.583   4.233  0.4275  0.2785 -0.1761
 4811SOL    HW115874   0.927   6.586   4.185 -0.6567 -0.9709 -2.3371
 4811SOL    HW215875   0.828   6.489   4.246 -0.6090  0.4971  0.2202
 4812SOL     OW15876   1.096   6.927   7.006  0.2344  0.0822 -0.2603
 4812SOL    HW115877   1.058   6.972   7.081  0.8727  0.2150 -0.0123
 4812SOL    HW215878   1.023   6.919   6.943  0.2760  2.1106 -0.6333
 4813SOL     OW15879   0.956   0.963   3.263  0.1306 -0.1204 -0.1126
 4813SOL    HW115880   0.934   0.952   3.356 -0.6474  1.5347 -0.0564
 4813SOL    HW215881   1.049   0.943   3.258  0.6048  1.4261  1.3894
 4814SOL     OW15882   1.416   7.251   5.840  0.3293 -0.1173  0.5663
 4814SOL    HW115883   1.327   7.234   5.809  1.5311 -2.2417 -2.1204
 4814SOL    HW215884   1.433   7.183   5.905  0.4250 -0.5718  0.0723
 4815SOL     OW15885   1.319   5.704   3.505 -0.0429 -0.2163  0.5611
 4815SOL    HW115886   1.311   5.678   3.597  0.8796 -1.7584  0.2231
 4815SOL    HW215887   1.370   5.635   3.464  1.4412  1.5287 -0.6771
 4816SOL     OW15888   0.106   5.051   3.572  0.1270  0.3739 -0.8146
 4816SOL    HW115889   0.198   5.054   3.599  0.4731 -1.2281 -1.6564
 4816SOL    HW215890   0.072   5.139   3.589  2.4116  1.7115 -2.6171
 4817SOL     OW15891   1.564   0.059   1.599 -0.1662 -0.2593 -0.3419
 4817SOL    HW115892   1.492   0.023   1.650 -0.6486 -0.4711 -1.1508
 4817SOL    HW215893   1.597   0.132   1.651 -0.8569 -0.2681  0.1125
 4818SOL     OW15894   7.838   4.877   4.065  0.0763 -0.1825  0.2802
 4818SOL    HW115895   7.809   4.786   4.061  0.4175 -0.2848 -0.0189
 4818SOL    HW215896   7.923   4.876   4.021 -0.7108  0.6000 -1.3649
 4819SOL     OW15897   1.446   3.164   3.538 -0.4495  1.2768  0.4325
 4819SOL    HW115898   1.523   3.220   3.541  0.7776 -0.2394 -1.1307
 4819SOL    HW215899   1.432   3.147   3.445 -0.9559 -0.7495  0.8307
 4820SOL     OW15900   0.741   6.325   4.298  0.3751  0.6135  0.2040
 4820SOL    HW115901   0.709   6.291   4.382 -0.7005  0.8988 -0.0758
 4820SOL    HW215902   0.680   6.289   4.233  1.0037  0.6639 -0.4302
 4821SOL     OW15903   3.082   7.552   5.132  0.0748 -0.0372  0.0174
 4821SOL    HW115904   3.144   7.594   5.192 -0.1097  1.4270 -0.7725
 4821SOL    HW215905   3.011   7.522   5.189  0.2587  0.6636  0.6401
 4822SOL     OW15906   1.121   6.560   3.142  0.5508 -0.3982 -0.3376
 4822SOL    HW115907   1.136   6.616   3.217 -0.3954  0.4724 -0.7758
 4822SOL    HW215908   1.061   6.492   3.174 -0.5739  0.4873 -0.5148
 4823SOL     OW15909   0.691   6.892   1.950  0.4547  0.6404  0.1395
 4823SOL    HW115910   0.727   6.808   1.979 -1.0112 -0.2903 -0.6250
 4823SOL    HW215911   0.701   6.950   2.025  0.0520 -0.6714  1.2397
 4824SOL     OW15912   1.718   5.366   0.890  0.2562 -0.5196  0.3575
 4824SOL    HW115913   1.666   5.416   0.828 -0.3404 -0.2355  1.0722
 4824SOL    HW215914   1.809   5.392   0.873  0.3813 -2.2879 -2.0576
 4825SOL     OW15915   0.404   6.713   5.730 -0.8514  0.1492 -0.0984
 4825SOL    HW115916   0.339   6.643   5.743 -1.7680  0.7885 -1.0501
 4825SOL    HW215917   0.471   6.696   5.796 -1.7646 -0.7972  0.6222
 4826SOL     OW15918   0.010   5.704   5.845 -0.2020  0.2045  0.1489
 4826SOL    HW115919   0.052   5.682   5.928 -0.4404  0.4913  0.3489
 4826SOL    HW215920  -0.003   5.620   5.801 -1.4045 -0.1115  1.0396
 4827SOL     OW15921   6.814   5.740   6.289  0.1325  0.5145 -0.1618
 4827SOL    HW115922   6.762   5.671   6.248 -1.0028  0.7609  0.8159
 4827SOL    HW215923   6.811   5.813   6.227  0.3845  0.0904 -0.6793
 4828SOL     OW15924   1.963   7.104   2.732  0.1833  0.6247  0.3474
 4828SOL    HW115925   1.915   7.082   2.812 -1.9442 -0.4395 -1.0942
 4828SOL    HW215926   1.948   7.198   2.720 -1.1899  0.4036  0.1865
 4829SOL     OW15927   2.583   6.824   4.022  0.1435 -0.0839  0.1442
 4829SOL    HW115928   2.602   6.753   4.083  1.6701  0.0642 -0.1122
 4829SOL    HW215929   2.570   6.901   4.079 -2.5988 -0.7085  0.4919
 4830SOL     OW15930   0.965   7.163   3.543  0.0070  0.3284 -0.0863
 4830SOL    HW115931   1.059   7.144   3.545 -0.1067 -0.3061 -0.2804
 4830SOL    HW215932   0.952   7.209   3.460 -0.0631 -0.8727 -0.7748
 4831SOL     OW15933   0.831   5.082   4.906  0.0284 -0.3159 -0.4637
 4831SOL    HW115934   0.847   5.102   4.999  2.2018 -2.2847 -0.3047
 4831SOL    HW215935   0.889   5.142   4.859 -0.9542  0.5705 -0.5806
 4832SOL     OW15936   0.056   7.071   3.490  0.0451 -0.2902 -0.3180
 4832SOL    HW115937   0.056   7.166   3.479 -0.7842 -0.3737 -1.2162
 4832SOL    HW215938  -0.004   7.055   3.563 -0.0645 -0.1426 -0.3765
 4833SOL     OW15939   1.154   5.944   4.841 -0.5273 -0.0579 -0.0497
 4833SOL    HW115940   1.093   5.871   4.831  1.0993 -1.2359 -2.2939
 4833SOL    HW215941   1.233   5.905   4.878  0.3471  0.5447 -1.2309
 4834SOL     OW15942   0.008   5.520   3.776 -0.1617  0.0272 -0.0185
 4834SOL    HW115943  -0.001   5.458   3.704 -1.5969 -0.0079  0.1604
 4834SOL    HW215944   0.082   5.488   3.827 -1.2309 -1.9218  0.4108
 4835SOL     OW15945   6.965   6.397   4.194  0.1683 -0.0084  0.2092
 4835SOL    HW115946   6.882   6.396   4.242  0.8167  0.5118  1.3683
 4835SOL    HW215947   6.943   6.435   4.109 -1.3771 -2.5853 -0.6775
 4836SOL     OW15948   1.340   5.055   5.312  0.4183 -0.2046  0.5187
 4836SOL    HW115949   1.261   5.081   5.359 -0.1324  1.3516 -1.1562
 4836SOL    HW215950   1.357   4.965   5.341 -2.5490 -0.9788  0.1389
 4837SOL     OW15951   0.935   0.129   7.004 -0.5275  0.0605 -0.1636
 4837SOL    HW115952   0.909   0.221   6.999 -1.1050 -0.1435 -1.2690
 4837SOL    HW215953   1.029   0.132   7.024 -0.7741  0.8535  1.0186
 4838SOL     OW15954   0.499   6.820   4.960  0.0679 -0.3847 -0.1336
 4838SOL    HW115955   0.520   6.801   4.868 -2.0870 -0.8403 -0.5698
 4838SOL    HW215956   0.575   6.787   5.009  1.3464  0.0526 -1.7322
 4839SOL     OW15957   2.076   5.957   2.860  0.1671  0.8310 -0.1469
 4839SOL    HW115958   2.104   5.897   2.929  0.0836  1.7265  0.6867
 4839SOL    HW215959   2.155   5.974   2.809  0.7583  1.8719  1.0607
 4840SOL     OW15960   1.635   6.922   5.415 -0.2072 -0.0083 -0.0935
 4840SOL    HW115961   1.545   6.890   5.403 -0.4275  0.4791  0.2145
 4840SOL    HW215962   1.641   6.943   5.508  0.1349  0.2372 -0.1699
 4841SOL     OW15963   7.164   7.267   3.094 -0.2744 -0.0432  0.1986
 4841SOL    HW115964   7.163   7.350   3.141 -1.5411 -1.1991  2.3446
 4841SOL    HW215965   7.082   7.267   3.044  0.3797  0.5409 -0.9317
 4842SOL     OW15966   1.660   6.820   4.223 -0.2703 -0.1711 -0.5292
 4842SOL    HW115967   1.664   6.908   4.185  2.8876  0.6852  1.3864
 4842SOL    HW215968   1.750   6.788   4.218 -0.0790 -0.9175  3.8499
 4843SOL     OW15969   0.010   5.276   3.137 -0.2574  0.2608 -0.4798
 4843SOL    HW115970   0.017   5.371   3.133  0.8354  0.1817 -0.5417
 4843SOL    HW215971   0.013   5.255   3.231 -0.8778  0.3057 -0.4447
 4844SOL     OW15972   0.982   5.485   6.267  0.2596  0.0504  0.5699
 4844SOL    HW115973   0.926   5.429   6.321 -0.5847 -0.4499 -0.7515
 4844SOL    HW215974   1.071   5.455   6.285  0.0750  0.4503  2.2569
 4845SOL     OW15975   0.647   7.259   3.323 -0.2449  0.0766 -0.3019
 4845SOL    HW115976   0.670   7.261   3.230  0.0553 -0.0045 -0.2293
 4845SOL    HW215977   0.729   7.277   3.368  0.1014 -2.1780  0.0336
 4846SOL     OW15978   7.964   5.731   4.101 -0.5486  0.0956  0.2281
 4846SOL    HW115979   8.027   5.765   4.165 -2.4928  1.1221  1.6783
 4846SOL    HW215980   8.004   5.751   4.016  2.3814 -1.8280  1.0086
 4847SOL     OW15981   7.265   6.172   2.284 -0.1803  0.1429 -0.7372
 4847SOL    HW115982   7.191   6.232   2.275 -0.5541  0.0824  1.4059
 4847SOL    HW215983   7.319   6.212   2.352  0.3470 -1.1755 -0.3609
 4848SOL     OW15984   7.692   5.585   6.138  0.1180  0.1525 -0.3386
 4848SOL    HW115985   7.640   5.537   6.203  2.2202 -1.9578 -0.0681
 4848SOL    HW215986   7.739   5.650   6.188 -1.1004  1.1170 -0.3841
 4849SOL     OW15987   7.747   6.860   5.483  0.4479 -0.4112  0.8288
 4849SOL    HW115988   7.668   6.898   5.444  0.1504  0.2197  1.9938
 4849SOL    HW215989   7.798   6.829   5.408 -0.6781 -0.3934  0.0225
 4850SOL     OW15990   2.158   7.975   5.601  0.1566  0.1089  0.2451
 4850SOL    HW115991   2.214   7.955   5.677 -1.7974  0.1878  1.7901
 4850SOL    HW215992   2.124   7.890   5.574 -0.5717  0.2806  0.6196
 4851SOL     OW15993   2.005   6.110   4.977  0.4215  0.4138  0.4266
 4851SOL    HW115994   2.078   6.136   5.033  1.5360  2.4997 -1.8464
 4851SOL    HW215995   1.942   6.182   4.983 -0.3017 -0.1944  0.3874
 4852SOL     OW15996   6.890   6.684   5.176 -0.2562  0.2897  0.1061
 4852SOL    HW115997   6.962   6.714   5.233  0.3974  0.9152 -1.0040
 4852SOL    HW215998   6.853   6.765   5.140 -1.2185 -0.0552  0.2943
 4853SOL     OW15999   1.675   7.720   5.800  0.0020 -0.1317  0.2468
 4853SOL    HW116000   1.685   7.665   5.723 -1.3294  0.7300 -0.5819
 4853SOL    HW216001   1.677   7.659   5.874  0.8841 -1.0055 -0.4700
 4854SOL     OW16002   2.167   4.937   4.044  0.2662  0.4088 -0.0692
 4854SOL    HW116003   2.140   4.995   4.115  1.6496  1.1420 -0.0988
 4854SOL    HW216004   2.199   4.858   4.087  0.7304  0.6952  0.1243
 4855SOL     OW16005   0.360   4.206   4.998 -0.2877  0.5404  0.0459
 4855SOL    HW116006   0.322   4.143   4.935  1.7423 -0.7658  0.0345
 4855SOL    HW216007   0.300   4.280   4.996 -2.6040 -1.2089 -0.2466
 4856SOL     OW16008   1.704   7.165   5.218  0.6776 -0.2942 -0.3290
 4856SOL    HW116009   1.665   7.115   5.290 -1.9953  1.0749 -0.6983
 4856SOL    HW216010   1.697   7.256   5.246  0.0797  0.2224 -2.0581
 4857SOL     OW16011   2.685   6.359   7.309 -0.6153 -0.2818  0.0601
 4857SOL    HW116012   2.630   6.375   7.232 -0.6144 -2.3316 -0.4187
 4857SOL    HW216013   2.773   6.350   7.275  0.3291  3.6874  0.8958
 4858SOL     OW16014   0.244   6.288   3.535  0.8088  0.8383  0.2221
 4858SOL    HW116015   0.251   6.319   3.625 -1.9784  0.7823  0.5297
 4858SOL    HW216016   0.296   6.350   3.484 -0.7111  3.2121  1.4091
 4859SOL     OW16017   7.736   7.119   4.974 -0.0881 -0.8522  0.0876
 4859SOL    HW116018   7.815   7.066   4.981 -0.7205 -2.2956 -2.5201
 4859SOL    HW216019   7.697   7.116   5.062  0.8220 -3.2666  0.4744
 4860SOL     OW16020   1.804   1.134   3.990 -0.0533  0.2871 -0.3307
 4860SOL    HW116021   1.859   1.132   4.068  0.5540  1.8496 -0.6899
 4860SOL    HW216022   1.715   1.141   4.023  0.0420 -0.9602  0.2338
 4861SOL     OW16023   7.620   6.611   4.456  0.5501  0.2980  0.0626
 4861SOL    HW116024   7.670   6.673   4.402  0.3623 -0.3454 -0.8648
 4861SOL    HW216025   7.531   6.617   4.423  0.2631  0.4756  0.8452
 4862SOL     OW16026   1.350   6.027   7.186 -0.3199  0.3276 -0.2878
 4862SOL    HW116027   1.287   5.974   7.235  0.1396  1.0379  1.1068
 4862SOL    HW216028   1.355   5.984   7.101 -0.3161 -1.5822  0.6228
 4863SOL     OW16029   0.531   6.254   4.127 -0.3210 -0.1622 -0.6198
 4863SOL    HW116030   0.600   6.253   4.061 -0.2730 -1.2072 -0.5653
 4863SOL    HW216031   0.483   6.173   4.113  0.4548 -1.0436  1.4142
 4864SOL     OW16032   7.578   6.261   2.125  0.2503  0.2063  0.6241
 4864SOL    HW116033   7.642   6.329   2.147 -0.1332  0.8248 -0.1253
 4864SOL    HW216034   7.508   6.272   2.190  0.7681 -0.3099  1.2899
 4865SOL     OW16035   0.699   5.405   4.383  0.0081  0.0727 -0.1864
 4865SOL    HW116036   0.727   5.317   4.409 -0.7844  0.3071  1.6252
 4865SOL    HW216037   0.679   5.398   4.290  2.1738 -1.0675 -0.6272
 4866SOL     OW16038   0.734   5.953   4.545  0.5149  0.1674 -0.3130
 4866SOL    HW116039   0.695   6.041   4.542  2.3606  1.0379  0.0049
 4866SOL    HW216040   0.826   5.967   4.526  0.8982 -1.6954 -0.0052
 4867SOL     OW16041   0.784   6.521   4.667 -0.3836  0.1777  0.5647
 4867SOL    HW116042   0.695   6.529   4.703 -0.8201  2.1221 -0.8115
 4867SOL    HW216043   0.789   6.589   4.600  1.8052 -0.6063 -0.1420
 4868SOL     OW16044   7.407   6.051   6.415 -0.1269 -0.4823  0.7080
 4868SOL    HW116045   7.410   5.955   6.423 -1.1953 -0.5174  0.7799
 4868SOL    HW216046   7.401   6.066   6.321  3.0582 -0.3554  0.4071
 4869SOL     OW16047   1.919   0.132   5.385  0.0369  0.3519 -0.2986
 4869SOL    HW116048   1.998   0.171   5.423 -0.0687  1.7479 -1.4429
 4869SOL    HW216049   1.936   0.131   5.291 -2.3741  3.3593 -0.8992
 4870SOL     OW16050   7.210   5.327   3.547 -0.3707  0.8021 -0.7389
 4870SOL    HW116051   7.115   5.324   3.552 -0.3653  0.0266 -0.9147
 4870SOL    HW216052   7.240   5.278   3.624 -0.1060  1.2402 -0.5558
 4871SOL     OW16053   7.885   7.240   3.659  0.1189  0.0653 -0.3038
 4871SOL    HW116054   7.884   7.306   3.728  1.5915  0.1117 -0.3096
 4871SOL    HW216055   7.839   7.165   3.698 -1.7498  1.1076 -0.3653
 4872SOL     OW16056   1.969   7.126   4.192  0.3062  0.0380  0.0871
 4872SOL    HW116057   2.054   7.166   4.209  0.4612 -0.6316  0.9084
 4872SOL    HW216058   1.934   7.105   4.278 -0.9180  0.7451 -0.2083
 4873SOL     OW16059   0.161   5.643   5.168  0.2988  0.0486 -0.3805
 4873SOL    HW116060   0.115   5.660   5.250  0.4693  0.4090 -0.3588
 4873SOL    HW216061   0.243   5.600   5.194 -0.6693 -2.0112 -0.5014
 4874SOL     OW16062   6.482   4.377   5.131 -0.4555 -0.0939  0.0287
 4874SOL    HW116063   6.548   4.372   5.062  0.0294 -0.5890  0.5175
 4874SOL    HW216064   6.528   4.351   5.211 -1.2883 -0.6500  0.3458
 4875SOL     OW16065   2.230   6.661   4.470 -0.0822 -0.2649  0.2395
 4875SOL    HW116066   2.190   6.658   4.557  1.0708 -1.7364  0.7455
 4875SOL    HW216067   2.312   6.707   4.483  0.2137 -0.7154 -0.0102
 4876SOL     OW16068   0.567   4.745   4.373 -0.2044  0.5578  0.3599
 4876SOL    HW116069   0.605   4.817   4.323  2.3823 -1.5438 -1.0005
 4876SOL    HW216070   0.634   4.724   4.438 -0.5716 -0.9767  0.2839
 4877SOL     OW16071   0.035   5.827   3.488 -0.4485  0.1522  0.4816
 4877SOL    HW116072   0.008   5.914   3.517  1.9285  0.9258  0.5982
 4877SOL    HW216073   0.034   5.831   3.392 -1.0045  0.0619  0.4799
 4878SOL     OW16074   7.719   6.437   5.758  0.0625  0.3892  0.1787
 4878SOL    HW116075   7.789   6.429   5.693 -0.2664  0.9883 -0.2631
 4878SOL    HW216076   7.669   6.356   5.749  0.0878  0.4154 -0.2386
 4879SOL     OW16077   1.482   0.178   5.004  0.1956 -0.4007  0.0222
 4879SOL    HW116078   1.558   0.235   5.013 -1.4867  2.2143 -0.9837
 4879SOL    HW216079   1.435   0.187   5.087 -0.2476  0.0105 -0.2632
 4880SOL     OW16080   0.992   5.487   4.993  0.1486  0.3285  0.2884
 4880SOL    HW116081   1.004   5.579   5.016  1.4925 -0.1036  1.4772
 4880SOL    HW216082   1.080   5.451   4.988 -0.3613 -1.1308  0.9335
 4881SOL     OW16083   0.677   6.046   2.654 -0.2444  0.3736 -0.0615
 4881SOL    HW116084   0.621   5.988   2.602 -0.7193 -0.1611  1.0248
 4881SOL    HW216085   0.618   6.083   2.720  0.4913  0.5077  0.5268
 4882SOL     OW16086   0.961   4.935   4.711 -0.1981 -0.1087  0.1854
 4882SOL    HW116087   0.993   4.858   4.756 -1.2210 -1.3848 -1.1571
 4882SOL    HW216088   0.910   4.983   4.777 -2.4864 -2.4144  0.2722
 4883SOL     OW16089   0.055   6.150   4.247  0.1520 -0.4207 -0.3940
 4883SOL    HW116090  -0.031   6.165   4.287 -0.1531  0.0899 -1.2081
 4883SOL    HW216091   0.049   6.194   4.162  1.0360 -0.8470 -0.6838
 4884SOL     OW16092   1.544   5.661   3.200 -0.1452  0.2596 -0.6134
 4884SOL    HW116093   1.627   5.622   3.172 -1.0046 -2.5401  0.3609
 4884SOL    HW216094   1.570   5.742   3.243  1.7128  1.3659 -3.5094
 4885SOL     OW16095   2.347   6.084   3.605 -0.1072  1.0246  0.1512
 4885SOL    HW116096   2.439   6.106   3.619  0.1953  0.2452 -0.4994
 4885SOL    HW216097   2.306   6.097   3.690  0.8229  0.3966  0.7190
 4886SOL     OW16098   7.190   0.371   5.281 -0.1118  0.0538 -0.2595
 4886SOL    HW116099   7.125   0.305   5.257 -0.0104 -0.3131  0.4575
 4886SOL    HW216100   7.150   0.420   5.353  1.0929 -1.3454  1.4502
 4887SOL     OW16101   1.010   4.839   4.162  0.3359 -0.3416  0.3726
 4887SOL    HW116102   1.000   4.894   4.240 -0.5206  0.5742 -0.3598
 4887SOL    HW216103   1.076   4.775   4.187  0.8575  0.5876  1.4956
 4888SOL     OW16104   0.844   7.534   4.768 -0.1883 -0.1550  0.0016
 4888SOL    HW116105   0.875   7.453   4.729 -1.5829 -0.0734 -1.3233
 4888SOL    HW216106   0.924   7.579   4.796  0.6545 -1.4896 -0.2010
 4889SOL     OW16107   7.901   6.782   3.417 -0.6690  0.2261 -0.4977
 4889SOL    HW116108   7.926   6.799   3.508  0.2726 -2.0091 -0.2727
 4889SOL    HW216109   7.826   6.722   3.424  0.0844 -0.8179 -1.1697
 4890SOL     OW16110   7.598   3.810   4.091 -0.4328 -0.0927  0.0193
 4890SOL    HW116111   7.663   3.777   4.030 -2.0753 -0.9103 -1.3555
 4890SOL    HW216112   7.625   3.900   4.108  2.1949 -0.9780  1.1586
 4891SOL     OW16113   1.898   7.075   2.975  0.4220  0.7177  0.3817
 4891SOL    HW116114   1.815   7.093   3.018  1.5608  0.4220  2.9092
 4891SOL    HW216115   1.935   7.001   3.024  1.5120 -0.1687 -1.6489
 4892SOL     OW16116   1.311   5.932   2.322 -0.0239 -0.5760 -0.6797
 4892SOL    HW116117   1.402   5.958   2.337 -0.0103 -0.5481 -0.8065
 4892SOL    HW216118   1.281   5.900   2.407 -0.2179  0.3700 -0.3829
 4893SOL     OW16119   1.127   7.194   3.156 -1.0039  0.0588 -0.2585
 4893SOL    HW116120   1.094   7.173   3.244 -0.3027 -0.2928 -0.0777
 4893SOL    HW216121   1.152   7.110   3.119  1.5426  0.4899  0.3522
 4894SOL     OW16122   1.460   7.512   5.857  0.2273  0.2890 -0.2782
 4894SOL    HW116123   1.427   7.423   5.841 -1.8361  0.8346  0.6143
 4894SOL    HW216124   1.520   7.501   5.931 -1.9653 -0.0831  1.5524
 4895SOL     OW16125   7.455   6.674   5.157 -0.0902 -0.1573 -0.2717
 4895SOL    HW116126   7.474   6.581   5.173 -0.5773 -0.2497 -0.2150
 4895SOL    HW216127   7.511   6.697   5.082  1.9226  0.1828  1.2464
 4896SOL     OW16128   1.164   7.357   5.034 -0.7847 -0.3514  0.3046
 4896SOL    HW116129   1.204   7.298   4.970 -1.5352 -1.6173  0.9672
 4896SOL    HW216130   1.070   7.348   5.020 -0.9197  0.9069  0.2474
 4897SOL     OW16131   7.567   7.049   2.786 -0.0241  0.8008  0.1903
 4897SOL    HW116132   7.657   7.027   2.809  0.1221  0.4719 -0.6501
 4897SOL    HW216133   7.518   6.967   2.796  0.1041  0.5668 -0.9095
 4898SOL     OW16134   0.024   0.356   3.926 -0.3518  0.0521  0.2552
 4898SOL    HW116135   0.075   0.391   4.000 -0.1093  0.4320 -0.0838
 4898SOL    HW216136   0.090   0.316   3.869 -0.0458  2.6163 -1.3740
 4899SOL     OW16137   0.123   7.962   5.890 -0.5229  0.1421  0.2469
 4899SOL    HW116138   0.149   7.930   5.977  0.6435 -0.4411 -0.2899
 4899SOL    HW216139   0.097   7.882   5.843  2.1810 -0.0922 -1.0342
 4900SOL     OW16140   0.728   6.742   3.290 -0.8069  0.0406 -0.1603
 4900SOL    HW116141   0.696   6.753   3.200 -2.3938 -1.9408  0.0805
 4900SOL    HW216142   0.788   6.668   3.285 -0.7248  0.0711  0.3713
 4901SOL     OW16143   0.968   5.700   4.721  0.0678  0.3065 -0.1296
 4901SOL    HW116144   1.036   5.694   4.654 -0.1457  0.4679 -0.3633
 4901SOL    HW216145   0.902   5.636   4.694 -0.2444  0.7149 -0.3373
 4902SOL     OW16146   5.642   1.074   0.994 -0.2392  0.1898 -0.0531
 4902SOL    HW116147   5.715   1.050   0.937  0.4288  3.3672 -0.7495
 4902SOL    HW216148   5.565   1.034   0.952  0.7971 -1.3401 -0.5612
 4903SOL     OW16149   7.721   0.228   6.148  0.4984  0.6147  0.7888
 4903SOL    HW116150   7.705   0.166   6.218 -0.2923 -0.3678 -0.2368
 4903SOL    HW216151   7.696   0.182   6.068 -0.0802  2.2277 -0.0067
 4904SOL     OW16152   0.632   4.501   4.147  0.3401  0.5580  0.2693
 4904SOL    HW116153   0.558   4.458   4.190 -0.2707  2.0622  0.7988
 4904SOL    HW216154   0.700   4.504   4.215  0.3032  0.6161  0.3042
 4905SOL     OW16155   1.340   6.084   5.808 -0.1682 -0.3547  0.3359
 4905SOL    HW116156   1.394   6.136   5.748  0.6782 -0.2729  1.1495
 4905SOL    HW216157   1.318   6.005   5.758  0.5684 -0.3131 -0.0607
 4906SOL     OW16158   1.907   7.484   4.843 -0.4032  0.0291  0.0582
 4906SOL    HW116159   1.895   7.403   4.892 -0.3768 -0.4481 -0.7088
 4906SOL    HW216160   1.856   7.549   4.891  0.6931 -0.1079  1.4749
 4907SOL     OW16161   7.427   7.360   3.779 -0.0741  0.3777  0.3037
 4907SOL    HW116162   7.495   7.420   3.811 -0.0760 -0.0498  1.1499
 4907SOL    HW216163   7.455   7.274   3.808 -0.2136 -0.0085 -0.6709
 4908SOL     OW16164   1.640   6.663   2.779 -0.7121 -0.1698 -0.6315
 4908SOL    HW116165   1.581   6.624   2.716 -0.9893 -0.3245 -0.2819
 4908SOL    HW216166   1.605   6.636   2.864 -0.1240 -0.2898 -0.4216
 4909SOL     OW16167   1.841   7.363   3.868  0.0535  0.1671  0.1162
 4909SOL    HW116168   1.817   7.284   3.820 -2.0936 -0.1919  1.6560
 4909SOL    HW216169   1.825   7.342   3.960  2.7474  1.2828  0.9429
 4910SOL     OW16170   0.828   7.604   4.437  0.7675 -0.1533  0.2704
 4910SOL    HW116171   0.757   7.653   4.397  2.7827  1.2132 -1.9023
 4910SOL    HW216172   0.788   7.523   4.467 -1.5124  0.1354 -1.7320
 4911SOL     OW16173   7.653   6.013   3.489  0.1406 -0.4206 -0.0787
 4911SOL    HW116174   7.624   6.050   3.573  0.1445 -1.3571  0.3444
 4911SOL    HW216175   7.602   6.060   3.424 -0.2028 -0.0036  0.4778
 4912SOL     OW16176   5.701   0.216   3.134  0.5312 -0.8255 -0.2800
 4912SOL    HW116177   5.670   0.216   3.225  1.9933  2.3719  0.3343
 4912SOL    HW216178   5.621   0.226   3.082 -0.1928 -1.2205  0.7106
 4913SOL     OW16179   2.955   6.749   6.955 -0.1242  0.3130  0.0499
 4913SOL    HW116180   2.991   6.825   6.911 -1.6341  1.1910  0.2270
 4913SOL    HW216181   2.964   6.677   6.893  1.2394  0.6460 -0.1554
 4914SOL     OW16182   7.319   6.657   2.270 -0.2357 -0.4593  0.2145
 4914SOL    HW116183   7.232   6.651   2.309 -0.1638 -0.5863  0.3563
 4914SOL    HW216184   7.321   6.589   2.202 -0.8350  0.6478 -0.9513
 4915SOL     OW16185   1.372   5.627   3.792 -0.0019  0.1284 -0.6860
 4915SOL    HW116186   1.455   5.673   3.788 -0.0731  1.0040  3.5905
 4915SOL    HW216187   1.396   5.534   3.798  0.4321  0.0823 -2.5409
 4916SOL     OW16188   1.415   0.381   4.571 -0.5150  0.1423  0.5542
 4916SOL    HW116189   1.494   0.387   4.625 -0.4567  2.5005  0.2888
 4916SOL    HW216190   1.446   0.348   4.487 -0.0878 -0.3829  0.9034
 4917SOL     OW16191   1.290   6.420   4.093 -0.5062 -0.4098  0.3606
 4917SOL    HW116192   1.351   6.448   4.025 -0.1916 -1.5618  0.1325
 4917SOL    HW216193   1.345   6.404   4.170 -0.7455  0.0911  0.6385
 4918SOL     OW16194   0.774   5.968   2.143 -0.2344 -0.1787 -0.1141
 4918SOL    HW116195   0.681   5.950   2.131 -0.5963  1.4703 -0.0159
 4918SOL    HW216196   0.779   6.023   2.221  0.2601  3.6363 -2.5919
 4919SOL     OW16197   0.509   5.491   4.745  0.5113 -0.2179 -0.1118
 4919SOL    HW116198   0.490   5.585   4.753  0.2651 -0.2589 -0.2357
 4919SOL    HW216199   0.500   5.473   4.652 -0.5144 -0.6020  0.0523
 4920SOL     OW16200   1.341   6.918   2.385  0.2738 -0.5314 -0.1529
 4920SOL    HW116201   1.413   6.929   2.322 -1.9466  0.5512 -2.6790
 4920SOL    HW216202   1.348   6.995   2.442  0.5678  0.0523 -0.9564
 4921SOL     OW16203   7.529   6.431   3.466 -0.1621  0.1763  0.0331
 4921SOL    HW116204   7.512   6.339   3.449 -0.8306  0.2672  0.2022
 4921SOL    HW216205   7.444   6.468   3.490  0.4775  0.2941  2.4242
 4922SOL     OW16206   7.313   7.450   2.783  0.1373 -0.2421 -0.3822
 4922SOL    HW116207   7.336   7.372   2.734  1.7763  1.0195 -1.7299
 4922SOL    HW216208   7.223   7.434   2.812  0.5471 -2.7610 -0.2571
 4923SOL     OW16209   1.078   6.384   6.290 -0.4428 -0.3554  0.3850
 4923SOL    HW116210   1.055   6.309   6.236  1.3950  0.2338 -1.3662
 4923SOL    HW216211   1.149   6.427   6.242 -0.1623  1.4415  2.2545
 4924SOL     OW16212   7.325   7.957   5.627  0.0190  0.2064 -0.0807
 4924SOL    HW116213   7.305   8.050   5.623  3.0595  1.0809  1.5553
 4924SOL    HW216214   7.403   7.947   5.572 -1.3868 -1.8685 -1.8934
 4925SOL     OW16215   2.009   7.800   5.929 -0.4710 -0.8488  0.3204
 4925SOL    HW116216   1.964   7.735   5.875 -0.6764 -0.2157 -0.2955
 4925SOL    HW216217   1.957   7.880   5.918  0.3089 -0.3328  0.2882
 4926SOL     OW16218   1.221   4.262   5.945  0.8090 -0.0971  0.2934
 4926SOL    HW116219   1.211   4.231   6.035 -0.3788 -1.0803 -0.1524
 4926SOL    HW216220   1.199   4.187   5.891  1.9987  0.3426 -0.8426
 4927SOL     OW16221   7.634   0.336   6.567  0.0287 -0.0640 -0.0758
 4927SOL    HW116222   7.551   0.325   6.612  0.1648  0.3126  0.2727
 4927SOL    HW216223   7.613   0.387   6.489  0.0400  0.6349  0.3712
 4928SOL     OW16224   1.448   5.025   4.403  0.3524 -0.4886  0.2855
 4928SOL    HW116225   1.365   5.059   4.369  1.0782  1.7335  0.5866
 4928SOL    HW216226   1.432   4.931   4.414 -1.9047 -0.2367 -0.2576
 4929SOL     OW16227   1.834   5.625   4.151  0.1315 -0.2267 -0.0186
 4929SOL    HW116228   1.865   5.713   4.128  0.6593 -0.3213  0.3126
 4929SOL    HW216229   1.858   5.614   4.243 -0.3084 -0.5599  0.0590
 4930SOL     OW16230   1.377   6.183   3.562  0.1526  0.2088  0.0416
 4930SOL    HW116231   1.320   6.135   3.623 -0.2065  1.3484  0.6372
 4930SOL    HW216232   1.375   6.131   3.481 -2.0154  0.3663 -0.0680
 4931SOL     OW16233   2.380   6.021   4.553 -0.0970 -0.1509 -0.6375
 4931SOL    HW116234   2.297   6.000   4.594  0.3065 -1.8482 -0.6089
 4931SOL    HW216235   2.444   6.017   4.624  0.1998 -0.1843 -0.9056
 4932SOL     OW16236   2.211   5.906   1.702 -0.6595 -0.0371 -0.3366
 4932SOL    HW116237   2.174   5.968   1.765 -0.8066 -0.4271 -0.0341
 4932SOL    HW216238   2.149   5.833   1.702 -0.3006 -0.3419 -0.4225
 4933SOL     OW16239   5.766   7.647   3.427 -0.4179  0.1531  0.6358
 4933SOL    HW116240   5.791   7.739   3.428 -1.5790  0.4906  1.4541
 4933SOL    HW216241   5.782   7.616   3.516  0.1241 -0.5010  0.3262
 4934SOL     OW16242   2.167   6.395   5.746  0.1327  0.3247 -0.0074
 4934SOL    HW116243   2.249   6.396   5.796  0.0598 -1.3313  0.2049
 4934SOL    HW216244   2.153   6.486   5.720  0.3676  1.2020  2.6705
 4935SOL     OW16245   7.917   4.664   3.201  0.0802 -0.0280 -0.2540
 4935SOL    HW116246   7.947   4.753   3.216 -0.7352  0.4262 -1.1659
 4935SOL    HW216247   7.830   4.674   3.161  0.3817 -1.1936 -1.2808
 4936SOL     OW16248   0.605   6.436   3.099  0.5557  0.1491 -0.3035
 4936SOL    HW116249   0.583   6.412   3.009 -1.4533 -2.1004  0.6547
 4936SOL    HW216250   0.697   6.413   3.109  0.1505 -2.0741 -1.1166
 4937SOL     OW16251   2.840   0.130   4.000 -0.0240  0.3478  0.7543
 4937SOL    HW116252   2.767   0.163   4.051 -1.8505 -2.5759  0.2728
 4937SOL    HW216253   2.866   0.049   4.044  1.2444  0.0093 -0.5049
 4938SOL     OW16254   0.562   6.146   2.951 -0.9123  0.0387 -0.5410
 4938SOL    HW116255   0.538   6.054   2.965  0.3475  0.0252  1.9711
 4938SOL    HW216256   0.654   6.152   2.976 -0.8808  1.9559 -0.9268
 4939SOL     OW16257   7.428   6.846   3.681 -0.3074  0.4374  0.2100
 4939SOL    HW116258   7.358   6.874   3.740 -0.9881 -2.1905  0.7778
 4939SOL    HW216259   7.382   6.805   3.607  0.6131  0.3997 -0.3582
 4940SOL     OW16260   3.204   7.100   4.065  0.3826 -0.2007  0.2053
 4940SOL    HW116261   3.214   7.121   3.972 -0.1161  0.3948  0.2792
 4940SOL    HW216262   3.254   7.168   4.111 -1.1307  0.7922  0.4443
 4941SOL     OW16263   1.498   4.771   4.690 -0.1291 -0.2223 -0.0816
 4941SOL    HW116264   1.450   4.834   4.744 -0.8616 -0.3531 -0.5655
 4941SOL    HW216265   1.514   4.697   4.748  0.6157  0.3433  0.4516
 4942SOL     OW16266   0.959   6.140   4.945 -0.1073 -0.0521  0.2148
 4942SOL    HW116267   0.873   6.138   4.903  0.2562 -0.3207 -0.5415
 4942SOL    HW216268   0.998   6.055   4.924  0.1944 -0.0847  0.8765
 4943SOL     OW16269   2.124   7.242   4.559  0.5357 -0.0133  0.4773
 4943SOL    HW116270   2.212   7.230   4.522  0.9774  1.4300  0.9875
 4943SOL    HW216271   2.120   7.181   4.633  0.0587 -2.0993 -1.1620
 4944SOL     OW16272   1.222   6.859   4.273  0.0376  0.4132 -0.1412
 4944SOL    HW116273   1.259   6.945   4.252 -0.7017  0.5680 -0.8873
 4944SOL    HW216274   1.280   6.823   4.339  0.2696  1.5659  0.3091
 4945SOL     OW16275   0.689   6.126   3.646  0.0553 -0.2514  0.5415
 4945SOL    HW116276   0.660   6.211   3.614  0.8358 -0.8695 -2.0102
 4945SOL    HW216277   0.609   6.079   3.665 -0.4220  0.4835  0.3859
 4946SOL     OW16278   1.188   5.890   5.349 -0.0686  0.1040  0.3641
 4946SOL    HW116279   1.157   5.981   5.349 -0.5780 -0.0641  0.1038
 4946SOL    HW216280   1.239   5.882   5.268 -1.2156 -0.2255 -0.3494
 4947SOL     OW16281   0.160   4.428   4.966 -0.1980 -0.2590  0.0276
 4947SOL    HW116282   0.102   4.377   4.910  0.6622  0.9910 -2.1158
 4947SOL    HW216283   0.106   4.451   5.042 -1.3683 -2.0836 -0.1988
 4948SOL     OW16284   7.845   6.155   3.150  0.2650  0.0478 -0.0120
 4948SOL    HW116285   7.837   6.236   3.100  0.4274  0.5825  0.8149
 4948SOL    HW216286   7.897   6.178   3.227 -0.6221 -0.5621  0.8080
 4949SOL     OW16287   2.269   6.624   5.400 -0.3277 -0.2070  0.6827
 4949SOL    HW116288   2.227   6.589   5.322 -1.3681  0.1244  1.0629
 4949SOL    HW216289   2.232   6.573   5.472 -3.4439  2.7265  1.4898
 4950SOL     OW16290   0.046   5.771   3.858  0.2245  0.1521 -0.3319
 4950SOL    HW116291   0.022   5.679   3.852  0.7140  0.0369 -0.6158
 4950SOL    HW216292   0.106   5.785   3.785 -1.0227  1.0852 -1.2171
 4951SOL     OW16293   0.126   6.613   3.373  0.1426  0.2056 -0.3150
 4951SOL    HW116294   0.196   6.677   3.370  0.2678  0.0566 -2.8011
 4951SOL    HW216295   0.045   6.665   3.372  0.2237  0.3395  0.0160
 4952SOL     OW16296   1.121   2.920   4.898  0.9624 -0.1243  0.4131
 4952SOL    HW116297   1.194   2.878   4.852  1.0500 -1.6200  1.8112
 4952SOL    HW216298   1.144   3.013   4.899  3.1062 -0.5954  1.1930
 4953SOL     OW16299   7.303   6.013   3.094 -0.5459  0.2385  0.5800
 4953SOL    HW116300   7.272   6.013   3.185  1.4948  0.2861  1.3179
 4953SOL    HW216301   7.328   6.104   3.077 -0.3184  0.1052  0.1842
 4954SOL     OW16302   0.228   7.013   3.303  0.4846  0.3816 -0.4017
 4954SOL    HW116303   0.156   7.011   3.241  0.1568 -0.4278 -0.0125
 4954SOL    HW216304   0.187   7.031   3.388  0.6856 -0.3882 -0.1266
 4955SOL     OW16305   0.067   7.020   5.638 -0.2040  0.0588 -0.2146
 4955SOL    HW116306   0.115   7.065   5.708  1.8937 -2.8385  0.4204
 4955SOL    HW216307   0.132   6.962   5.599 -2.4789 -1.7647 -1.4961
 4956SOL     OW16308   2.202   6.129   7.769  0.2424 -0.4324  0.1379
 4956SOL    HW116309   2.224   6.123   7.676  1.0171  1.4219  0.1680
 4956SOL    HW216310   2.125   6.072   7.779 -1.4102  1.1982 -2.1637
 4957SOL     OW16311   7.791   5.336   5.572  0.0019  0.0540 -0.2480
 4957SOL    HW116312   7.722   5.272   5.590 -1.0823  1.0297 -0.7815
 4957SOL    HW216313   7.744   5.414   5.543  1.2768  1.2499  0.8040
 4958SOL     OW16314   0.006   5.659   8.059  0.6126  0.2546  0.2672
 4958SOL    HW116315   0.075   5.614   8.011  0.9283  2.0090 -1.0358
 4958SOL    HW216316  -0.075   5.636   8.012  0.0616 -2.4280  2.2444
 4959SOL     OW16317   4.820   6.386   8.343 -0.2383 -0.1468  0.0392
 4959SOL    HW116318   4.902   6.430   8.366 -0.7020 -0.1945  1.8875
 4959SOL    HW216319   4.805   6.412   8.252  1.3767  0.5505 -0.0765
 4960SOL     OW16320   1.387   4.893   6.299  0.9937 -0.1890 -0.4513
 4960SOL    HW116321   1.432   4.844   6.231 -0.3354 -0.8388 -0.9074
 4960SOL    HW216322   1.340   4.827   6.349  1.2943  0.3672  0.5910
 4961SOL     OW16323   2.217   5.823   5.415 -0.0784 -0.0485 -0.5336
 4961SOL    HW116324   2.189   5.864   5.496  1.7343  1.5082 -0.6070
 4961SOL    HW216325   2.248   5.737   5.441 -1.5499 -0.4227  0.0507
 4962SOL     OW16326   2.456   6.059   7.142  0.2542 -0.3244  0.4711
 4962SOL    HW116327   2.429   6.150   7.129 -0.3524 -0.6301 -0.4816
 4962SOL    HW216328   2.492   6.057   7.231  1.1605  1.0456  0.1539
 4963SOL     OW16329   2.666   0.300  10.074 -0.5751 -0.5739  0.0636
 4963SOL    HW116330   2.614   0.287   9.995 -0.2847  3.0018 -0.9167
 4963SOL    HW216331   2.752   0.327  10.041  0.1685 -0.9390  1.6378
 4964SOL     OW16332   0.886   6.644   7.415 -0.1017 -0.0207 -0.5566
 4964SOL    HW116333   0.907   6.555   7.387 -1.0352 -0.0730 -1.1037
 4964SOL    HW216334   0.794   6.641   7.439 -0.3146  0.9492 -1.2065
 4965SOL     OW16335   0.926   7.406   6.572 -0.9950  0.6227  0.4137
 4965SOL    HW116336   0.867   7.345   6.528 -2.5453  0.4469  2.5901
 4965SOL    HW216337   0.999   7.351   6.603 -1.0597  0.3514  0.0860
 4966SOL     OW16338   0.198   5.585   6.683  0.3612 -0.5567  0.2023
 4966SOL    HW116339   0.160   5.510   6.636  2.5868 -0.4564 -1.9659
 4966SOL    HW216340   0.255   5.545   6.750  1.2620 -0.8481 -0.7104
 4967SOL     OW16341   0.997   7.758   5.998  0.4364  0.0859 -0.2163
 4967SOL    HW116342   0.978   7.836   5.947 -0.7655 -1.8932 -3.0485
 4967SOL    HW216343   0.911   7.719   6.014  1.1230 -2.0234 -1.3040
 4968SOL     OW16344   0.622   7.240   7.144 -0.2649  0.4348 -0.1337
 4968SOL    HW116345   0.658   7.293   7.215  1.2825 -2.2439  1.2430
 4968SOL    HW216346   0.532   7.221   7.171  0.4010 -0.8088  1.3320
 4969SOL     OW16347   1.216   5.923   7.817  0.0900 -0.2724 -0.0106
 4969SOL    HW116348   1.121   5.937   7.827  0.1242  0.7179 -0.8410
 4969SOL    HW216349   1.253   5.954   7.900 -0.1414  1.6214 -0.5585
 4970SOL     OW16350   0.828   6.567   3.743 -0.2130  0.1381  0.1552
 4970SOL    HW116351   0.906   6.510   3.746  0.8182  1.5242  0.9443
 4970SOL    HW216352   0.821   6.602   3.832 -1.5592  0.3050 -0.0020
 4971SOL     OW16353   0.822   6.487   6.676  0.2137 -0.3935  0.1561
 4971SOL    HW116354   0.867   6.519   6.598  0.4400  0.4954  0.6383
 4971SOL    HW216355   0.748   6.437   6.643 -0.1960  0.7053 -0.6331
 4972SOL     OW16356   7.579   0.850   6.944  0.5627 -0.4938 -0.5406
 4972SOL    HW116357   7.670   0.879   6.940  0.3071  0.3386 -0.4789
 4972SOL    HW216358   7.527   0.929   6.927 -0.2130 -0.4185  1.8221
 4973SOL     OW16359   0.960   6.057   5.580  0.0300 -0.0304 -0.8939
 4973SOL    HW116360   1.055   6.057   5.585 -0.0218 -0.8982  1.6864
 4973SOL    HW216361   0.938   6.137   5.533  1.9867  0.6864 -0.6752
 4974SOL     OW16362   3.748   7.967   8.120  0.1994 -0.3273  0.1039
 4974SOL    HW116363   3.839   7.952   8.092  0.1623 -2.2142  0.7997
 4974SOL    HW216364   3.755   8.032   8.190  1.3335 -1.9708  1.6222
 4975SOL     OW16365   1.504   7.536   5.588  0.4762 -0.4917 -0.3100
 4975SOL    HW116366   1.491   7.553   5.681  0.3773  0.3677 -0.4687
 4975SOL    HW216367   1.417   7.514   5.555  0.0859  1.3831 -0.6136
 4976SOL     OW16368   2.629   6.085   7.361 -0.1846 -0.2378 -0.1807
 4976SOL    HW116369   2.681   6.151   7.315  0.5376  0.0990  1.0569
 4976SOL    HW216370   2.691   6.044   7.422 -1.3024  0.0596  1.2236
 4977SOL     OW16371   0.968   5.554   5.778  0.4074 -0.5691  0.1608
 4977SOL    HW116372   1.037   5.612   5.811 -0.0641 -0.5848  1.2255
 4977SOL    HW216373   0.949   5.495   5.851 -0.3897 -0.8816 -0.2811
 4978SOL     OW16374   2.214   0.976   5.488  0.3934 -0.0970  0.1885
 4978SOL    HW116375   2.301   1.003   5.460  0.2163 -0.1195 -0.3953
 4978SOL    HW216376   2.227   0.892   5.531  0.6317 -0.2042 -0.0905
 4979SOL     OW16377   7.726   7.418   7.609  0.5539 -0.0099 -0.1449
 4979SOL    HW116378   7.753   7.445   7.697  2.8822 -1.8868 -0.1586
 4979SOL    HW216379   7.776   7.474   7.550  0.8424 -0.3502 -0.2280
 4980SOL     OW16380   1.850   6.897   6.607 -0.3403 -0.2116  0.2184
 4980SOL    HW116381   1.793   6.838   6.656 -0.3809 -0.7873 -0.5028
 4980SOL    HW216382   1.923   6.914   6.666  0.6450 -2.5207 -0.2212
 4981SOL     OW16383   3.050   6.467   5.072 -0.1819 -0.4666 -0.1832
 4981SOL    HW116384   3.136   6.491   5.038 -0.8609 -0.0727 -1.7136
 4981SOL    HW216385   3.018   6.399   5.012 -0.7228 -0.9952  0.6801
 4982SOL     OW16386   3.036   6.087   6.270 -0.5977  0.0558  0.1901
 4982SOL    HW116387   3.000   6.001   6.292 -0.4286  0.0745  0.5466
 4982SOL    HW216388   2.990   6.148   6.328  0.0529  0.0717  0.7027
 4983SOL     OW16389   0.691   6.557   5.680  0.8044 -0.5750  0.1900
 4983SOL    HW116390   0.649   6.585   5.761  1.6988  2.4204 -0.2280
 4983SOL    HW216391   0.770   6.511   5.708 -0.5263 -2.5277  0.9476
 4984SOL     OW16392   1.225   7.622   6.640 -0.2821 -0.3741 -0.1470
 4984SOL    HW116393   1.151   7.679   6.618  0.4913  0.6969 -0.0255
 4984SOL    HW216394   1.302   7.670   6.609  0.5049 -0.6733  1.2898
 4985SOL     OW16395   7.864   3.420   6.225 -0.0376 -0.2526  0.1450
 4985SOL    HW116396   7.838   3.402   6.315 -0.9622  1.6848  0.3171
 4985SOL    HW216397   7.954   3.451   6.232 -0.5082  1.0916  0.5946
 4986SOL     OW16398   1.677   7.507   6.275  0.2576 -0.3121  0.0514
 4986SOL    HW116399   1.738   7.522   6.347  1.7557  1.3043 -1.4571
 4986SOL    HW216400   1.607   7.455   6.313  2.0540 -1.3743  2.1430
 4987SOL     OW16401   1.937   6.876   5.659  0.7554 -0.1789  0.2182
 4987SOL    HW116402   1.867   6.814   5.676  1.5163 -0.7979  1.1840
 4987SOL    HW216403   1.917   6.912   5.572  0.1940 -1.6097 -0.2709
 4988SOL     OW16404   1.789   0.444   9.206 -0.2043 -0.9171 -0.1418
 4988SOL    HW116405   1.701   0.464   9.174  0.1385 -0.3248 -0.7426
 4988SOL    HW216406   1.788   0.471   9.298 -0.8010 -1.3974 -0.0015
 4989SOL     OW16407   7.381   6.663   7.434 -0.7729  0.0371  0.1090
 4989SOL    HW116408   7.431   6.617   7.502  0.0626  1.3902  0.4476
 4989SOL    HW216409   7.448   6.702   7.378 -1.4492  0.9933 -0.0473
 4990SOL     OW16410   4.517   6.994   8.166  0.0790 -0.3056 -0.4343
 4990SOL    HW116411   4.476   7.020   8.084 -0.8244 -1.6281 -0.4336
 4990SOL    HW216412   4.582   6.929   8.141  0.9395  0.4625 -0.2447
 4991SOL     OW16413   1.538   1.739   7.504 -0.2302  0.1021  0.3127
 4991SOL    HW116414   1.609   1.717   7.444  0.1954  2.3370 -0.0892
 4991SOL    HW216415   1.475   1.787   7.450 -1.1248 -0.1694  1.0883
 4992SOL     OW16416   6.771   6.302   6.600  0.1008  0.4759 -0.1300
 4992SOL    HW116417   6.798   6.259   6.519 -0.4737  1.4693 -0.8705
 4992SOL    HW216418   6.682   6.272   6.615 -0.0447  0.8398 -0.2571
 4993SOL     OW16419   0.171   6.479   8.095  0.2384  0.2232  0.4057
 4993SOL    HW116420   0.094   6.495   8.149 -1.4980 -1.6198 -1.3624
 4993SOL    HW216421   0.149   6.402   8.042  1.6494  1.9414 -3.0691
 4994SOL     OW16422   1.956   7.490   7.278 -0.5559  0.2344  0.2812
 4994SOL    HW116423   1.863   7.507   7.292 -0.3631  0.4555  1.3472
 4994SOL    HW216424   1.963   7.395   7.273 -0.6075  0.1094  2.0429
 4995SOL     OW16425   1.626   6.536   5.312  0.5470  0.0928 -0.1106
 4995SOL    HW116426   1.575   6.468   5.269 -0.5303  1.7315 -1.5371
 4995SOL    HW216427   1.628   6.510   5.404 -5.2462  1.2043  0.6832
 4996SOL     OW16428   1.802   5.194   5.589  0.1763 -0.6814 -0.2418
 4996SOL    HW116429   1.731   5.131   5.605 -1.5701  1.3089  0.3494
 4996SOL    HW216430   1.834   5.217   5.676 -0.1012  0.1862 -0.3555
 4997SOL     OW16431   1.758   6.520   7.263  0.1612 -0.5111 -0.4729
 4997SOL    HW116432   1.786   6.598   7.310  0.6740 -0.3474 -1.0305
 4997SOL    HW216433   1.665   6.512   7.282  0.0709  0.3186 -0.5274
 4998SOL     OW16434   2.378   6.844   6.316 -0.5098 -0.2092  0.7533
 4998SOL    HW116435   2.444   6.900   6.357 -0.3349  0.2737 -0.1566
 4998SOL    HW216436   2.410   6.755   6.332  1.9851  0.0014 -2.1210
 4999SOL     OW16437   1.442   6.231   6.819 -0.2879 -0.2182 -0.5063
 4999SOL    HW116438   1.423   6.297   6.886 -0.0198 -0.7042  0.0479
 4999SOL    HW216439   1.413   6.272   6.737 -1.3704  0.0611 -0.0012
 5000SOL     OW16440   1.221   6.209   7.497 -0.1398  0.2815  0.1103
 5000SOL    HW116441   1.280   6.284   7.487 -0.1384  0.2607 -0.0427
 5000SOL    HW216442   1.279   6.135   7.510 -0.1000  0.1401 -0.7986
 5001SOL     OW16443   1.688   0.541   6.932 -0.4491  0.6508 -0.4145
 5001SOL    HW116444   1.704   0.631   6.906  1.2791  0.3410 -0.5809
 5001SOL    HW216445   1.764   0.518   6.986 -1.5158 -0.2903  0.7395
 5002SOL     OW16446   1.535   7.276   6.754 -0.5092  0.5781  0.6495
 5002SOL    HW116447   1.568   7.221   6.684 -0.1592 -0.8948  1.9032
 5002SOL    HW216448   1.467   7.330   6.713  1.1700  1.3564 -1.2671
 5003SOL     OW16449   2.429   7.723   8.665  0.1777 -0.4519 -0.3538
 5003SOL    HW116450   2.431   7.653   8.599  1.7188 -0.2929 -0.5120
 5003SOL    HW216451   2.339   7.756   8.662 -0.5289 -2.2558 -0.4401
 5004SOL     OW16452   0.382   5.368   6.491 -0.4985 -0.0803  0.0713
 5004SOL    HW116453   0.444   5.312   6.538 -0.2439  0.1464  0.0058
 5004SOL    HW216454   0.435   5.411   6.424 -0.5836  0.6638  0.4721
 5005SOL     OW16455   1.268   5.666   6.718  0.1635  0.0996  0.2750
 5005SOL    HW116456   1.225   5.643   6.801  0.3805 -1.8772 -0.1069
 5005SOL    HW216457   1.354   5.625   6.724  0.2670  0.1391 -0.8188
 5006SOL     OW16458   0.502   5.767   4.656 -0.2382  0.5999  0.0112
 5006SOL    HW116459   0.436   5.813   4.709 -0.8541 -0.4520  0.1787
 5006SOL    HW216460   0.583   5.815   4.672 -0.9025  1.7561  0.0148
 5007SOL     OW16461   0.103   7.919   6.892 -0.0041  0.3208  0.0336
 5007SOL    HW116462   0.167   7.941   6.960  1.5790 -1.5507 -0.7597
 5007SOL    HW216463   0.107   7.993   6.830  0.6975  0.6625  0.4755
 5008SOL     OW16464   2.543   6.870   6.795  0.1490 -0.3722 -0.4690
 5008SOL    HW116465   2.574   6.784   6.768 -0.5279 -0.5135 -0.8051
 5008SOL    HW216466   2.586   6.931   6.735  0.1756 -0.5264 -0.6073
 5009SOL     OW16467   1.975   1.011   7.258 -0.0881 -0.1564 -0.8688
 5009SOL    HW116468   1.897   0.958   7.243 -1.0430  1.5869 -2.4572
 5009SOL    HW216469   2.032   0.991   7.185  1.0279 -1.4144  0.2818
 5010SOL     OW16470   7.994   6.669   6.159 -0.2760 -0.3910  0.4992
 5010SOL    HW116471   7.929   6.730   6.192  0.3169  0.5326  0.0077
 5010SOL    HW216472   7.971   6.655   6.068 -1.1206 -1.8877  0.9024
 5011SOL     OW16473   1.787   6.421   3.775 -0.5541  0.2934  0.3214
 5011SOL    HW116474   1.731   6.357   3.730 -0.0169 -0.3814  0.6093
 5011SOL    HW216475   1.754   6.423   3.864 -1.3284  1.3024  0.0320
 5012SOL     OW16476   0.668   6.094   6.203  0.3163  0.4518  0.4799
 5012SOL    HW116477   0.743   6.043   6.172 -0.1242 -0.8724  1.5050
 5012SOL    HW216478   0.624   6.036   6.265 -0.5595  1.8774  1.2269
 5013SOL     OW16479   2.159   6.255   6.631 -0.6702  0.0305  0.3359
 5013SOL    HW116480   2.174   6.164   6.657 -0.6636  0.0955  0.5653
 5013SOL    HW216481   2.095   6.288   6.694  0.1055  0.4909  0.8988
 5014SOL     OW16482   1.118   5.720   5.953 -0.0232 -0.0222 -0.1966
 5014SOL    HW116483   1.055   5.777   5.996 -0.4819 -0.3321 -0.4480
 5014SOL    HW216484   1.204   5.755   5.978 -0.3024  1.0911 -0.7904
 5015SOL     OW16485   2.268   7.373   6.751 -0.5181 -0.1385  0.0373
 5015SOL    HW116486   2.303   7.361   6.662 -0.7580  0.0318 -0.0800
 5015SOL    HW216487   2.321   7.443   6.788  1.2308 -1.8223  0.9032
 5016SOL     OW16488   0.360   7.378   5.283 -0.0997 -0.5630  0.0893
 5016SOL    HW116489   0.281   7.433   5.281  0.1159 -0.2615 -1.6615
 5016SOL    HW216490   0.327   7.290   5.298 -0.6264 -0.2521  0.8825
 5017SOL     OW16491   0.789   4.611   5.171 -0.5439 -0.2906 -0.3262
 5017SOL    HW116492   0.864   4.663   5.143 -0.6263  0.3768  0.6269
 5017SOL    HW216493   0.714   4.669   5.160 -0.7065 -0.3845  0.2179
 5018SOL     OW16494   7.724   0.663   7.122 -0.0088  0.4308  0.1268
 5018SOL    HW116495   7.744   0.615   7.042  0.4891 -1.2429  1.1987
 5018SOL    HW216496   7.798   0.646   7.180 -1.5229 -0.6219  1.8810
 5019SOL     OW16497   1.354   6.824   5.372 -0.4127 -0.0156  0.1936
 5019SOL    HW116498   1.298   6.834   5.296  1.0833  0.3094 -0.9056
 5019SOL    HW216499   1.300   6.854   5.445 -1.7636 -0.0316 -0.7596
 5020SOL     OW16500   0.418   6.881   4.150 -0.1779 -0.3730 -0.7778
 5020SOL    HW116501   0.341   6.832   4.120 -0.2176  0.6332 -2.4214
 5020SOL    HW216502   0.430   6.853   4.241 -1.8708 -1.3049 -0.8025
 5021SOL     OW16503   1.049   4.728   4.862  0.2922  0.1264  0.0392
 5021SOL    HW116504   1.000   4.646   4.851 -0.1942  0.5305 -0.9371
 5021SOL    HW216505   1.056   4.739   4.957 -0.9455 -0.2897  0.1999
 5022SOL     OW16506   0.455   4.610   6.303 -0.0964  0.1835 -0.3255
 5022SOL    HW116507   0.460   4.561   6.385  0.1871  0.1117 -0.3843
 5022SOL    HW216508   0.521   4.678   6.311 -0.6224  0.6867 -0.1655
 5023SOL     OW16509   7.801   5.079   9.262 -0.0567  0.2228  0.1805
 5023SOL    HW116510   7.837   5.026   9.191  1.2317  0.5105  0.6004
 5023SOL    HW216511   7.846   5.048   9.341  0.2196  1.4788  0.5277
 5024SOL     OW16512   1.725   6.133   5.884 -0.3517  0.1884 -0.2391
 5024SOL    HW116513   1.702   6.057   5.937 -2.2453 -0.7306 -2.1903
 5024SOL    HW216514   1.810   6.162   5.917 -0.4164 -1.6871  1.7241
 5025SOL     OW16515   2.210   7.356   8.367  0.0191  0.2767  0.4613
 5025SOL    HW116516   2.205   7.305   8.448  0.4792  1.4094  1.2306
 5025SOL    HW216517   2.302   7.352   8.342 -0.1810 -0.3630 -0.2275
 5026SOL     OW16518   7.222   5.807   6.100 -0.1762 -0.1268 -0.2209
 5026SOL    HW116519   7.200   5.810   6.007  1.6438  0.8656 -0.6695
 5026SOL    HW216520   7.289   5.740   6.107 -0.5956 -0.4921  0.4766
 5027SOL     OW16521   1.564   6.163   5.650  0.1795 -0.0684 -0.5878
 5027SOL    HW116522   1.609   6.148   5.733 -0.1088  1.5280 -0.1175
 5027SOL    HW216523   1.631   6.203   5.594  0.2751 -0.8274 -1.0457
 5028SOL     OW16524   0.077   6.913   6.401 -0.4054  0.0954 -0.0570
 5028SOL    HW116525   0.110   6.823   6.396  0.5903  0.4874 -1.1894
 5028SOL    HW216526  -0.009   6.909   6.359 -0.0840 -0.2251 -0.7030
 5029SOL     OW16527   0.950   6.459   5.736 -0.2035  0.4099 -0.7389
 5029SOL    HW116528   0.999   6.541   5.743  1.3119 -0.5156 -0.2240
 5029SOL    HW216529   1.013   6.391   5.757 -1.9949 -0.7799  1.0918
 5030SOL     OW16530   0.319   4.983   7.184  0.2549 -0.0456  0.1796
 5030SOL    HW116531   0.304   4.963   7.091  0.7032  3.2032 -0.7227
 5030SOL    HW216532   0.413   4.998   7.190  0.4095 -1.3893  1.4645
 5031SOL     OW16533   7.768   4.584   6.200 -0.3650  0.0497 -0.0365
 5031SOL    HW116534   7.682   4.570   6.160  0.1352 -1.7979 -0.5938
 5031SOL    HW216535   7.777   4.512   6.263  0.7392  0.2277  0.0293
 5032SOL     OW16536   2.214   5.895   6.757  0.2732  0.3241 -0.2425
 5032SOL    HW116537   2.290   5.866   6.807  0.6752 -0.9251 -1.5185
 5032SOL    HW216538   2.169   5.814   6.732 -0.6629  0.9810 -0.7437
 5033SOL     OW16539   3.570   6.097   6.744 -0.3722 -0.1407 -0.4400
 5033SOL    HW116540   3.605   6.008   6.752  0.2660  0.0603 -0.8781
 5033SOL    HW216541   3.583   6.119   6.652  1.7261  1.2951  0.1159
 5034SOL     OW16542   0.849   5.875   4.878 -0.1994 -0.1336  0.2034
 5034SOL    HW116543   0.883   5.815   4.812 -1.5859 -0.9639  0.1919
 5034SOL    HW216544   0.777   5.921   4.834  0.4195  1.0904  0.4142
 5035SOL     OW16545   2.835   6.630   4.403 -0.4709  0.0551 -0.3154
 5035SOL    HW116546   2.780   6.619   4.325  0.6260 -1.0732 -0.9705
 5035SOL    HW216547   2.923   6.606   4.373  0.3662  1.6181  0.7464
 5036SOL     OW16548   7.599   7.446   4.898  0.0019 -0.2072  0.5999
 5036SOL    HW116549   7.591   7.430   4.992  1.8594 -0.2378  0.8034
 5036SOL    HW216550   7.687   7.482   4.888 -0.3395  0.2278 -1.0793
 5037SOL     OW16551   6.479   5.140   6.043  0.0944 -0.2308 -0.2044
 5037SOL    HW116552   6.571   5.166   6.036 -0.2110  1.3071  0.9966
 5037SOL    HW216553   6.458   5.152   6.135 -0.5241 -3.4658  0.1957
 5038SOL     OW16554   0.386   5.858   5.851  0.1022 -0.6565 -0.4369
 5038SOL    HW116555   0.461   5.818   5.808  0.4798 -0.4448  0.0186
 5038SOL    HW216556   0.363   5.797   5.921  0.9967  0.1396  0.5848
 5039SOL     OW16557   1.338   6.521   5.674  0.2281 -0.3200 -0.5184
 5039SOL    HW116558   1.264   6.554   5.726  1.0156  1.9483 -0.7414
 5039SOL    HW216559   1.313   6.538   5.583  0.2685 -1.2585 -0.7196
 5040SOL     OW16560   0.464   6.400   5.547 -0.1479  0.4690  0.3840
 5040SOL    HW116561   0.510   6.458   5.608  0.2837  0.3646  0.1644
 5040SOL    HW216562   0.388   6.450   5.518 -0.2082  0.6215  0.8025
 5041SOL     OW16563   2.506   6.361   3.583  0.0011 -0.6956  0.6966
 5041SOL    HW116564   2.439   6.425   3.606  0.0923 -0.4010  0.1562
 5041SOL    HW216565   2.520   6.311   3.664 -0.4476 -0.3797  0.9737
 5042SOL     OW16566   0.141   7.077   4.271  0.3282 -0.8853  0.0350
 5042SOL    HW116567   0.170   7.119   4.190 -0.2180  0.6526  0.5860
 5042SOL    HW216568   0.209   7.098   4.335 -0.4625  0.1382  0.5795
 5043SOL     OW16569   7.985   4.231   4.914 -0.1891  0.0845  0.4962
 5043SOL    HW116570   7.897   4.232   4.875  0.5810  1.6516 -1.3485
 5043SOL    HW216571   8.012   4.139   4.910 -1.2844 -0.2322  0.0025
 5044SOL     OW16572   1.782   0.739   7.756  0.1370  0.3136  0.1032
 5044SOL    HW116573   1.824   0.717   7.672 -0.7858  1.0433 -0.5698
 5044SOL    HW216574   1.698   0.778   7.731 -0.2118  0.4136  1.3814
 5045SOL     OW16575   1.542   6.349   5.978 -0.0977  0.0795 -0.0424
 5045SOL    HW116576   1.589   6.282   5.928 -0.2711  0.9460 -1.4332
 5045SOL    HW216577   1.595   6.362   6.056  0.6590 -0.7052 -0.4049
 5046SOL     OW16578   2.998   5.989   7.729 -0.0263  0.2960  0.2121
 5046SOL    HW116579   3.080   5.951   7.760 -0.1679  0.4353  0.7786
 5046SOL    HW216580   2.977   5.941   7.649 -0.0029 -0.5556  0.7064
 5047SOL     OW16581   0.968   5.299   4.770 -0.5058 -0.0359 -0.3726
 5047SOL    HW116582   0.909   5.360   4.726  0.0027 -0.4240 -1.6568
 5047SOL    HW216583   0.979   5.335   4.858 -0.9999  1.1704 -0.7791
 5048SOL     OW16584   2.245   6.168   6.361  0.3627 -0.6326 -0.1516
 5048SOL    HW116585   2.260   6.236   6.296  1.5581  0.0096  0.7694
 5048SOL    HW216586   2.246   6.214   6.445 -1.2893 -1.4200  0.3542
 5049SOL     OW16587   1.370   6.812   5.925 -0.4316 -0.8699 -0.2292
 5049SOL    HW116588   1.392   6.718   5.922 -1.4886 -1.1232 -0.6525
 5049SOL    HW216589   1.291   6.816   5.979 -0.4452 -0.2318 -0.2929
 5050SOL     OW16590   1.662   6.467   9.447 -0.6154 -0.3436  0.4883
 5050SOL    HW116591   1.653   6.562   9.446 -1.2026 -0.3943 -0.7152
 5050SOL    HW216592   1.749   6.451   9.412 -0.0854 -0.2213  1.7248
 5051SOL     OW16593   1.467   7.259   4.593  0.9726  0.0482  0.2360
 5051SOL    HW116594   1.545   7.310   4.574  1.0329  0.2555  0.9911
 5051SOL    HW216595   1.397   7.301   4.543  1.0972  0.6566  0.5609
 5052SOL     OW16596   7.321   5.003   6.848  0.0968 -0.0383  0.6224
 5052SOL    HW116597   7.245   4.961   6.888  1.1618 -1.9355  0.7764
 5052SOL    HW216598   7.345   4.945   6.775  0.8056  1.0483 -0.0381
 5053SOL     OW16599   0.679   4.778   6.207 -0.2727 -0.2359 -0.7170
 5053SOL    HW116600   0.736   4.709   6.173  0.7083 -0.2754  0.8950
 5053SOL    HW216601   0.712   4.858   6.166  1.0654 -0.2436  0.2841
 5054SOL     OW16602   1.913   0.203   8.831 -0.5935  1.0212  0.0399
 5054SOL    HW116603   1.869   0.278   8.791 -0.6994  0.7260 -0.4075
 5054SOL    HW216604   1.856   0.178   8.903 -0.3555  1.6143  0.4388
 5055SOL     OW16605   0.613   5.267   7.635 -0.1827 -0.0332 -0.4342
 5055SOL    HW116606   0.570   5.195   7.682 -1.0756 -0.5954 -2.0242
 5055SOL    HW216607   0.685   5.225   7.588  1.0579  0.6162  0.8048
 5056SOL     OW16608   7.974   7.165   7.606  0.2118  0.1888 -0.1438
 5056SOL    HW116609   8.012   7.243   7.646  0.4758 -0.0720  0.1295
 5056SOL    HW216610   7.928   7.197   7.529 -0.8248  0.7815  0.6892
 5057SOL     OW16611   1.157   6.831   5.137 -0.6138 -0.5345 -0.3665
 5057SOL    HW116612   1.172   6.739   5.114 -0.1997 -0.1615 -1.6957
 5057SOL    HW216613   1.081   6.857   5.085 -1.5426 -0.4558  0.9844
 5058SOL     OW16614   7.787   6.046   6.115 -0.7628 -0.3611 -0.4962
 5058SOL    HW116615   7.868   6.086   6.147 -1.1207 -0.2370  0.2742
 5058SOL    HW216616   7.805   6.026   6.023  0.1073 -0.2457 -0.3613
 5059SOL     OW16617   7.790   7.457   6.386  0.0872 -0.3785 -0.5992
 5059SOL    HW116618   7.779   7.548   6.360 -3.4349 -0.3487  0.4346
 5059SOL    HW216619   7.701   7.423   6.393  1.1830 -3.3107  1.1183
 5060SOL     OW16620   0.590   5.154   6.311  0.3303  0.5939 -0.1988
 5060SOL    HW116621   0.504   5.112   6.305  0.6208  0.0890 -1.0585
 5060SOL    HW216622   0.627   5.144   6.223  1.7535 -0.2310  0.4661
 5061SOL     OW16623   1.297   6.845   6.710 -0.2985 -0.5873 -0.3264
 5061SOL    HW116624   1.240   6.896   6.769  0.0769 -0.4117 -0.1109
 5061SOL    HW216625   1.236   6.790   6.660 -0.7111  0.0468 -0.5403
 5062SOL     OW16626   2.545   6.224   8.038  0.4619 -0.5511 -0.2418
 5062SOL    HW116627   2.547   6.315   8.065  1.3898 -0.4900 -0.4875
 5062SOL    HW216628   2.630   6.209   7.996  0.1654 -1.4141 -0.5645
 5063SOL     OW16629   7.224   7.313   4.412  0.3479 -0.4398  0.4498
 5063SOL    HW116630   7.312   7.303   4.448  0.1601 -1.0739  0.7352
 5063SOL    HW216631   7.186   7.225   4.416 -0.0024 -0.3348 -0.4430
 5064SOL     OW16632   1.155   7.318   6.130  0.0458  0.9452  0.5624
 5064SOL    HW116633   1.177   7.228   6.153  2.2184  1.1209 -0.6394
 5064SOL    HW216634   1.134   7.359   6.214  0.7014 -0.2533  1.3425
 5065SOL     OW16635   7.787   7.081   9.237  0.0667 -0.2077  0.3382
 5065SOL    HW116636   7.753   7.012   9.294  0.8903 -1.3754 -0.5489
 5065SOL    HW216637   7.739   7.159   9.264 -1.1635 -1.1899  1.1174
 5066SOL     OW16638   1.870   7.510   8.648  0.1590  0.0835  0.1784
 5066SOL    HW116639   1.852   7.420   8.621  0.2219 -0.2734  1.2797
 5066SOL    HW216640   1.784   7.547   8.666  0.1585  0.1161  0.1082
 5067SOL     OW16641   1.584   6.773   8.257 -0.0664  0.1943  0.2457
 5067SOL    HW116642   1.623   6.695   8.295 -1.3213 -0.1382  0.9111
 5067SOL    HW216643   1.537   6.741   8.180  0.0251  0.4108  0.0997
 5068SOL     OW16644   0.659   5.844   5.992  0.2240 -0.1981 -0.4989
 5068SOL    HW116645   0.681   5.876   5.905 -0.5086 -0.9164 -0.9642
 5068SOL    HW216646   0.566   5.865   6.003 -0.1839 -1.7590 -0.6676
 5069SOL     OW16647   0.151   6.037   4.898  0.0921 -0.0940 -0.2867
 5069SOL    HW116648   0.170   5.977   4.826  0.7851 -0.6281  0.3252
 5069SOL    HW216649   0.235   6.047   4.944 -0.5581 -0.6591  1.0993
 5070SOL     OW16650   1.578   6.917   6.225  0.4189  0.4283 -0.6037
 5070SOL    HW116651   1.630   6.918   6.305 -0.7097 -0.0306  0.1656
 5070SOL    HW216652   1.631   6.869   6.162  0.4796 -1.0307  0.4926
 5071SOL     OW16653   0.365   6.110   6.094  0.6192  0.0180 -0.0655
 5071SOL    HW116654   0.413   6.062   6.162 -0.9482 -0.7278  0.5808
 5071SOL    HW216655   0.274   6.108   6.124  0.3122  2.3866 -0.6278
 5072SOL     OW16656   2.628   0.557   8.059 -0.2546 -0.2337 -0.1334
 5072SOL    HW116657   2.672   0.580   7.977  2.9994 -3.6163  0.3695
 5072SOL    HW216658   2.644   0.631   8.117  2.4074 -0.0545 -0.9381
 5073SOL     OW16659   0.960   7.108   7.465 -0.0444 -0.1393  0.1606
 5073SOL    HW116660   0.958   7.038   7.399 -1.4533  0.9173 -0.9728
 5073SOL    HW216661   0.868   7.122   7.487  0.0896  2.1395 -0.5147
 5074SOL     OW16662   0.317   5.679   8.096 -0.0631 -0.3068 -0.1003
 5074SOL    HW116663   0.287   5.647   8.011  0.3854  0.7630 -0.6763
 5074SOL    HW216664   0.260   5.754   8.114  0.3255 -0.0804  0.1927
 5075SOL     OW16665   1.246   5.680   6.279 -0.1314  0.2340 -0.7618
 5075SOL    HW116666   1.336   5.687   6.249  0.2879 -3.7963 -0.9372
 5075SOL    HW216667   1.196   5.661   6.199 -0.2073 -2.6839 -0.1486
 5076SOL     OW16668   0.156   4.712   5.827  0.0008 -0.6109 -0.3710
 5076SOL    HW116669   0.138   4.620   5.843 -0.0651 -0.3543  1.2098
 5076SOL    HW216670   0.247   4.724   5.856  0.5725 -0.4905 -2.0720
 5077SOL     OW16671   1.961   7.643   7.652  0.6503 -0.6526 -0.3326
 5077SOL    HW116672   1.999   7.673   7.735  0.3552 -1.5520  0.1473
 5077SOL    HW216673   1.995   7.703   7.586  1.3615 -0.2813  0.3613
 5078SOL     OW16674   2.638   4.983   6.639  0.9429 -0.3450 -0.1209
 5078SOL    HW116675   2.664   4.992   6.548 -0.2394 -2.3597 -0.7160
 5078SOL    HW216676   2.712   4.939   6.681  0.5813 -1.4723 -0.6436
 5079SOL     OW16677   0.469   7.443   5.046 -0.2268 -0.1993 -0.3062
 5079SOL    HW116678   0.503   7.529   5.071  0.0658  0.0443 -1.4829
 5079SOL    HW216679   0.418   7.414   5.122 -0.4753  1.0917  0.0391
 5080SOL     OW16680   1.980   7.464   4.584 -0.4044 -0.1897  0.0094
 5080SOL    HW116681   2.028   7.382   4.573  1.6502  0.8330  0.8640
 5080SOL    HW216682   1.962   7.469   4.678 -0.7410  0.2424 -0.0735
 5081SOL     OW16683   0.679   7.419   6.929 -0.1928 -0.1362 -0.2376
 5081SOL    HW116684   0.708   7.509   6.939 -0.1080  0.1097 -2.2842
 5081SOL    HW216685   0.676   7.384   7.018  0.5330  1.6384  0.5146
 5082SOL     OW16686   0.835   5.511   5.378  0.2588  0.4345  0.7731
 5082SOL    HW116687   0.775   5.532   5.307  0.6509 -1.5554 -0.2337
 5082SOL    HW216688   0.916   5.557   5.357  0.0662  0.6250  0.4510
 5083SOL     OW16689   0.948   4.568   5.992 -0.0926  0.1378 -0.0520
 5083SOL    HW116690   0.968   4.522   5.910  1.5562 -0.8786  0.8621
 5083SOL    HW216691   0.872   4.520   6.027  0.7019 -1.0178  0.1692
 5084SOL     OW16692   1.883   7.039   5.426  0.6332 -0.4137  0.3612
 5084SOL    HW116693   1.819   6.983   5.382  1.2334 -1.5322  0.8660
 5084SOL    HW216694   1.948   7.058   5.359 -0.2893  0.8775 -0.2054
 5085SOL     OW16695   7.622   5.725   8.899  0.1221 -0.0802  0.2699
 5085SOL    HW116696   7.547   5.744   8.843 -0.9351  1.0171  1.9682
 5085SOL    HW216697   7.659   5.645   8.863 -1.0200  0.1092 -1.4514
 5086SOL     OW16698   0.412   6.618   6.698 -0.2206  0.0745 -0.2751
 5086SOL    HW116699   0.488   6.635   6.755  0.2080  2.2537 -1.4050
 5086SOL    HW216700   0.450   6.594   6.614 -0.8552 -2.3642  0.0554
 5087SOL     OW16701   3.102   6.952   6.854 -0.5164 -0.3057  0.2624
 5087SOL    HW116702   3.163   6.879   6.843 -0.8127 -0.6298  0.7142
 5087SOL    HW216703   3.132   7.018   6.792  0.9963  0.0053  1.2744
 5088SOL     OW16704   0.645   7.730   7.724 -0.3390 -0.2761 -0.0246
 5088SOL    HW116705   0.708   7.778   7.778 -1.3805 -1.6365  2.5614
 5088SOL    HW216706   0.696   7.659   7.686  0.3550  0.5514 -0.6909
 5089SOL     OW16707   7.225   6.257   6.881  0.2381  0.0551 -0.4222
 5089SOL    HW116708   7.169   6.248   6.804  1.8269 -0.2791 -1.6010
 5089SOL    HW216709   7.311   6.281   6.846  1.0422 -0.1920  1.2393
 5090SOL     OW16710   0.898   0.089   6.609 -0.2711 -0.0134  0.5980
 5090SOL    HW116711   0.869   0.160   6.666  1.0429 -0.4431  1.8917
 5090SOL    HW216712   0.930   0.132   6.530 -1.5549  0.6452  0.4173
 5091SOL     OW16713   1.356   6.926   7.070 -0.4558 -0.1957 -0.2779
 5091SOL    HW116714   1.354   6.842   7.115  0.3598 -0.2283 -0.2866
 5091SOL    HW216715   1.265   6.943   7.045 -0.6190 -1.0778 -0.2902
 5092SOL     OW16716   1.334   6.718   7.413 -0.3239 -0.4979  0.4765
 5092SOL    HW116717   1.371   6.696   7.327  0.0212  1.7871 -0.0363
 5092SOL    HW216718   1.407   6.758   7.461 -0.7655 -0.8662  1.4932
 5093SOL     OW16719   2.301   6.346   6.157  0.1422  0.2600 -0.6491
 5093SOL    HW116720   2.390   6.376   6.139  0.7032 -1.0919 -0.2290
 5093SOL    HW216721   2.272   6.306   6.075  0.0939  0.3041 -0.6535
 5094SOL     OW16722   0.485   6.390   7.308  0.6560  0.0099 -0.4075
 5094SOL    HW116723   0.469   6.448   7.233  2.3517  1.0743 -0.0239
 5094SOL    HW216724   0.571   6.352   7.290  1.0577  0.2211  0.9372
 5095SOL     OW16725   1.367   6.597   6.809  0.2209  0.0584  0.1107
 5095SOL    HW116726   1.372   6.692   6.799 -1.4802  0.3369  1.5974
 5095SOL    HW216727   1.293   6.582   6.867  0.2782 -2.2115 -0.3084
 5096SOL     OW16728   1.280   5.212   6.895  0.2358 -0.6540  0.3978
 5096SOL    HW116729   1.236   5.186   6.814  0.7846 -0.2774 -0.0268
 5096SOL    HW216730   1.361   5.162   6.895 -0.1471 -1.2989  1.1491
 5097SOL     OW16731   2.234   4.366   7.197  0.1628 -0.0151  0.3178
 5097SOL    HW116732   2.243   4.299   7.265  2.0448 -1.1012 -0.9138
 5097SOL    HW216733   2.321   4.405   7.190 -0.3420  1.0099 -0.5649
 5098SOL     OW16734   0.299   7.872   5.608  0.2243 -0.4828  0.2606
 5098SOL    HW116735   0.243   7.947   5.586 -0.9380 -0.4899  2.8921
 5098SOL    HW216736   0.310   7.826   5.525 -3.3086 -0.2228 -0.5309
 5099SOL     OW16737   1.974   7.230   6.416  0.3924  0.1213 -0.1501
 5099SOL    HW116738   2.053   7.181   6.393 -0.1058 -0.7945  0.0117
 5099SOL    HW216739   1.995   7.271   6.500  0.8026  0.1325 -0.2564
 5100SOL     OW16740   0.976   6.957   5.324 -0.2064 -0.8993  0.0581
 5100SOL    HW116741   1.014   7.045   5.317 -2.0053 -0.1558 -1.0087
 5100SOL    HW216742   1.020   6.907   5.255  0.1529 -0.5788  0.0492
 5101SOL     OW16743   0.103   6.246   5.693  0.2153 -0.2748 -0.0566
 5101SOL    HW116744   0.132   6.157   5.715  0.5362 -0.7136 -2.0793
 5101SOL    HW216745   0.166   6.303   5.738  1.0585 -1.1107 -0.1555
 5102SOL     OW16746   1.949   7.367   7.586  0.5645  0.2807  0.0793
 5102SOL    HW116747   1.932   7.364   7.492  2.1075 -2.7099 -0.2225
 5102SOL    HW216748   1.961   7.460   7.605  0.2108  0.9818 -2.6532
 5103SOL     OW16749   0.746   7.755   6.142 -0.3980  0.0900  0.6141
 5103SOL    HW116750   0.710   7.689   6.201 -0.5411 -0.9517 -0.5832
 5103SOL    HW216751   0.671   7.786   6.091  0.0469 -0.6075 -0.4959
 5104SOL     OW16752   0.693   5.564   5.721  0.5583 -0.2813  0.2619
 5104SOL    HW116753   0.711   5.633   5.785  0.0767  3.4537 -3.1754
 5104SOL    HW216754   0.778   5.541   5.685  0.4978  1.2279 -0.9581
 5105SOL     OW16755   1.789   0.454   8.305 -0.4442 -0.3681 -0.3527
 5105SOL    HW116756   1.789   0.398   8.382 -0.0164  0.4923  0.2806
 5105SOL    HW216757   1.879   0.484   8.296 -1.0250  1.9144  0.5909
 5106SOL     OW16758   2.521   0.050   7.985  0.5777 -0.5411  0.4403
 5106SOL    HW116759   2.490   0.008   7.904 -1.0897  1.7511 -0.2132
 5106SOL    HW216760   2.459   0.021   8.052  0.7872 -0.9143  0.4711
 5107SOL     OW16761   7.798   0.161   7.722  0.1223  0.3712 -0.2511
 5107SOL    HW116762   7.794   0.197   7.634  0.0574  0.7042 -0.1119
 5107SOL    HW216763   7.746   0.080   7.717 -0.8734  0.9919 -0.2267
 5108SOL     OW16764   0.487   5.947   8.015 -0.6197 -0.2490 -0.1884
 5108SOL    HW116765   0.450   5.959   7.928 -2.0774  0.7964  0.5265
 5108SOL    HW216766   0.497   5.852   8.024  1.2984 -0.2990 -2.1390
 5109SOL     OW16767   7.150   5.123   7.251 -0.2155  0.4316 -0.3450
 5109SOL    HW116768   7.092   5.053   7.281 -0.2354 -0.4493 -2.2997
 5109SOL    HW216769   7.130   5.197   7.308 -1.8426 -0.4456  0.2832
 5110SOL     OW16770   0.332   0.483   5.856  0.2174 -0.5669 -0.0159
 5110SOL    HW116771   0.399   0.437   5.906  2.0037  0.5691 -1.2564
 5110SOL    HW216772   0.380   0.545   5.802 -1.8898  0.6669 -0.5997
 5111SOL     OW16773   1.277   6.640   6.449  0.0318 -0.1474 -0.2279
 5111SOL    HW116774   1.335   6.598   6.386 -2.3447 -0.9012 -2.0601
 5111SOL    HW216775   1.236   6.568   6.497  2.3441  0.4021  2.9164
 5112SOL     OW16776   0.729   6.321   5.174 -0.3275 -0.3696 -0.7774
 5112SOL    HW116777   0.668   6.269   5.227 -0.9443  0.3297 -0.7847
 5112SOL    HW216778   0.796   6.258   5.146 -0.1943 -0.8313  0.5074
 5113SOL     OW16779   7.702   6.397   6.249  0.1888  0.1664  0.2681
 5113SOL    HW116780   7.662   6.441   6.173  1.2924  2.4013  0.9102
 5113SOL    HW216781   7.796   6.400   6.231  0.5259  1.4262  2.0158
 5114SOL     OW16782   1.135   0.905   6.416 -0.4172 -0.1259  0.5170
 5114SOL    HW116783   1.081   0.973   6.457 -0.0209  0.2824  0.3802
 5114SOL    HW216784   1.077   0.862   6.354 -0.4031  0.7839 -0.1538
 5115SOL     OW16785   2.299   0.162   7.367 -0.2925 -0.3734  0.0792
 5115SOL    HW116786   2.328   0.148   7.276  1.8714  0.1659  0.6305
 5115SOL    HW216787   2.235   0.233   7.360 -0.2325 -0.3981 -1.0256
 5116SOL     OW16788   7.757   5.620   7.899 -0.2561 -0.1735 -0.1066
 5116SOL    HW116789   7.787   5.599   7.811 -0.0456 -0.4729  0.0323
 5116SOL    HW216790   7.736   5.713   7.896  0.9064  0.1050 -0.1600
 5117SOL     OW16791   1.196   5.956   8.286  0.2061  0.2352  0.1989
 5117SOL    HW116792   1.259   6.021   8.256 -0.4220  0.0426 -1.6195
 5117SOL    HW216793   1.241   5.872   8.277 -0.4359  0.0511 -1.5693
 5118SOL     OW16794   7.155   6.204   4.084 -0.3228 -0.2632 -0.4195
 5118SOL    HW116795   7.124   6.134   4.141 -0.7839  1.1196  1.0850
 5118SOL    HW216796   7.117   6.283   4.120  0.7575  0.8675 -1.6649
 5119SOL     OW16797   1.601   7.454   8.876 -0.0828 -0.1469  0.1866
 5119SOL    HW116798   1.514   7.453   8.914 -0.0718 -1.0484  0.2097
 5119SOL    HW216799   1.600   7.529   8.815 -2.4501 -2.7122 -3.3507
 5120SOL     OW16800   0.973   4.527   5.417  0.0959  0.4167  0.1146
 5120SOL    HW116801   1.039   4.512   5.349 -0.3416 -0.4745 -0.1256
 5120SOL    HW216802   0.898   4.563   5.369 -0.8002 -1.6748 -0.1803
 5121SOL     OW16803   2.641   6.492   7.042  0.1821  0.1237  0.5860
 5121SOL    HW116804   2.713   6.553   7.056 -0.4733  0.4031  3.1160
 5121SOL    HW216805   2.574   6.543   6.997  0.6056  0.5582  0.4442
 5122SOL     OW16806   0.526   7.193   5.799 -0.6265  0.2033 -0.4011
 5122SOL    HW116807   0.449   7.135   5.796 -0.7606  0.3774 -0.3479
 5122SOL    HW216808   0.518   7.238   5.883 -0.2091 -0.1246 -0.1843
 5123SOL     OW16809   1.616   6.941   5.699  0.2706  0.5073  0.3669
 5123SOL    HW116810   1.660   7.003   5.757  0.8617 -1.3106  1.9854
 5123SOL    HW216811   1.547   6.903   5.753  0.2638 -0.6097 -0.3933
 5124SOL     OW16812   0.754   0.064   4.997  0.4989  0.0889 -0.6096
 5124SOL    HW116813   0.824   0.057   5.062  0.5492  0.7331 -0.5917
 5124SOL    HW216814   0.765   0.150   4.958 -0.6285  0.4428 -0.2074
 5125SOL     OW16815   0.497   5.207   5.206 -0.2909  0.1473  0.0247
 5125SOL    HW116816   0.541   5.182   5.287 -1.0930 -0.8703  0.1672
 5125SOL    HW216817   0.568   5.235   5.148  0.2422  1.4452  1.2507
 5126SOL     OW16818   2.141   7.051   7.527  0.0110 -0.3275 -0.0082
 5126SOL    HW116819   2.232   7.034   7.501 -0.5838 -1.4479 -1.4860
 5126SOL    HW216820   2.117   7.132   7.481  0.1822 -0.1481  0.2144
 5127SOL     OW16821   2.059   4.834   5.808 -0.3691  0.4097 -0.1318
 5127SOL    HW116822   1.968   4.814   5.832  0.2936 -2.2913  0.4190
 5127SOL    HW216823   2.058   4.840   5.713 -1.1864  0.8451 -0.1065
 5128SOL     OW16824   7.964   6.479   4.158  0.5945  0.0040 -0.2631
 5128SOL    HW116825   7.886   6.525   4.190  0.6670 -0.2314  0.2696
 5128SOL    HW216826   8.025   6.482   4.232  0.1073 -2.1218  0.3158
 5129SOL     OW16827   0.929   7.352   8.292 -0.2935  0.5097 -0.0767
 5129SOL    HW116828   1.003   7.352   8.231 -0.2910  0.8485 -0.0764
 5129SOL    HW216829   0.853   7.370   8.236 -0.5129 -0.7978 -0.2313
 5130SOL     OW16830   1.579   5.360   7.938 -0.2038  0.2674 -0.0737
 5130SOL    HW116831   1.483   5.354   7.941 -0.0705 -1.9252  1.1642
 5130SOL    HW216832   1.607   5.283   7.890  1.0405 -0.6112  1.9565
 5131SOL     OW16833   0.118   5.362   7.069 -0.6064  0.2008 -0.1595
 5131SOL    HW116834   0.114   5.453   7.037 -0.9547  0.2520  0.0262
 5131SOL    HW216835   0.078   5.311   6.999  0.3095  0.0915 -0.6173
 5132SOL     OW16836   2.684   7.312   6.375 -0.0349 -0.0750  0.5252
 5132SOL    HW116837   2.701   7.403   6.351  0.4589 -0.0418  0.9936
 5132SOL    HW216838   2.686   7.311   6.470 -1.6305 -0.2747  0.5908
 5133SOL     OW16839   0.336   5.921   2.713 -0.3387  0.3732  0.4792
 5133SOL    HW116840   0.346   5.851   2.648 -0.1499 -0.8116  1.7373
 5133SOL    HW216841   0.268   5.978   2.678 -0.7010 -0.6065 -0.4440
 5134SOL     OW16842   7.945   7.641   5.274  0.0012 -0.2393 -0.0740
 5134SOL    HW116843   7.938   7.573   5.342  1.2339  1.3941  1.7796
 5134SOL    HW216844   7.861   7.686   5.276  0.4971  0.6893  1.4243
 5135SOL     OW16845   2.501   5.576   6.433 -0.5272 -0.6992  0.7272
 5135SOL    HW116846   2.509   5.542   6.344 -2.5777 -1.6066  0.8457
 5135SOL    HW216847   2.586   5.558   6.473 -0.2314 -2.0954 -0.4480
 5136SOL     OW16848   3.727   7.578   7.391 -0.2282 -0.5086  0.0757
 5136SOL    HW116849   3.748   7.542   7.477  1.1312 -0.7080 -0.3000
 5136SOL    HW216850   3.813   7.591   7.350 -0.8620 -1.8431 -1.8170
 5137SOL     OW16851   1.290   5.094   7.974  0.1984  1.1176 -0.0749
 5137SOL    HW116852   1.309   5.035   7.901 -0.3779  1.0160 -0.1458
 5137SOL    HW216853   1.254   5.172   7.933 -2.4847  0.1270  0.2087
 5138SOL     OW16854   2.565   7.588   6.499 -0.2076  0.5389 -0.5217
 5138SOL    HW116855   2.633   7.547   6.552 -1.0187  1.0894  1.0069
 5138SOL    HW216856   2.555   7.676   6.536 -0.4238  1.1539 -1.9577
 5139SOL     OW16857   1.998   6.017   5.285 -0.2859 -0.0473  0.5339
 5139SOL    HW116858   2.036   6.100   5.256 -1.0134 -0.0011 -0.3596
 5139SOL    HW216859   2.060   5.951   5.255  0.1951  0.1587  1.0660
 5140SOL     OW16860   0.347   5.794   7.416  0.8279 -0.3622  0.5170
 5140SOL    HW116861   0.282   5.846   7.368  1.7201 -0.8855 -1.3544
 5140SOL    HW216862   0.334   5.704   7.386  3.2766 -0.2991 -1.0785
 5141SOL     OW16863   1.589   7.499   6.903  0.7299  0.2249 -0.1120
 5141SOL    HW116864   1.525   7.484   6.973  1.2259  0.2870  0.3637
 5141SOL    HW216865   1.584   7.422   6.847  0.7702 -0.1084  0.3428
 5142SOL     OW16866   2.077   6.014   6.007  0.1196 -0.0698 -0.4988
 5142SOL    HW116867   2.051   5.947   5.944 -0.0855  0.1023 -0.5975
 5142SOL    HW216868   2.071   5.970   6.092 -0.4743 -0.0425 -0.5201
 5143SOL     OW16869   2.392   4.690   5.574  0.4027 -0.5101 -0.0639
 5143SOL    HW116870   2.359   4.657   5.491 -1.3031  2.0629 -0.5099
 5143SOL    HW216871   2.483   4.716   5.556  0.0069  0.1593 -1.1870
 5144SOL     OW16872   1.976   6.460   6.326 -0.0585  0.0042 -0.0154
 5144SOL    HW116873   2.071   6.467   6.335 -0.2895  2.0008  1.8292
 5144SOL    HW216874   1.956   6.372   6.358  1.2010 -0.8027 -1.3036
 5145SOL     OW16875   0.511   7.354   6.019 -0.1813 -0.3747 -0.4863
 5145SOL    HW116876   0.539   7.435   6.061 -0.1842  0.1788 -1.5010
 5145SOL    HW216877   0.449   7.314   6.080  1.1415 -0.5145  0.8045
 5146SOL     OW16878   1.699   6.746   6.042 -0.1718 -0.3389  0.5954
 5146SOL    HW116879   1.616   6.704   6.020  0.2750 -0.5637 -0.7251
 5146SOL    HW216880   1.748   6.747   5.960  0.8608  0.4181  1.2012
 5147SOL     OW16881   0.886   6.667   6.179  0.0351  0.0318  0.0610
 5147SOL    HW116882   0.873   6.749   6.132 -1.0808 -0.2257 -0.1069
 5147SOL    HW216883   0.899   6.601   6.110  1.2388  0.0964  0.1997
 5148SOL     OW16884   1.271   0.102   5.722 -0.1526  0.1221  0.3954
 5148SOL    HW116885   1.260   0.189   5.683  0.6871  0.9508  1.8784
 5148SOL    HW216886   1.361   0.078   5.701 -0.4698 -0.5273 -0.2451
 5149SOL     OW16887   0.064   0.417   8.476  0.1107  0.2056  0.1921
 5149SOL    HW116888   0.063   0.472   8.555  1.4759  0.8977 -0.2326
 5149SOL    HW216889   0.008   0.464   8.414 -1.1812 -0.4777  0.8146
 5150SOL     OW16890   7.992   5.035   6.400 -0.0905 -0.5978  0.1592
 5150SOL    HW116891   8.010   5.001   6.313 -0.2692  0.9541 -0.5215
 5150SOL    HW216892   8.068   5.090   6.420 -0.7049  0.2017  0.3493
 5151SOL     OW16893   0.873   7.626   6.787 -0.5742  0.7751  0.0567
 5151SOL    HW116894   0.890   7.541   6.746  2.7924  0.4514  1.7080
 5151SOL    HW216895   0.916   7.689   6.729  0.8788  0.7467  1.0456
 5152SOL     OW16896   0.733   5.141   5.781 -0.2432 -0.3518  0.4842
 5152SOL    HW116897   0.763   5.172   5.696  2.8619 -0.7418  1.3277
 5152SOL    HW216898   0.764   5.207   5.843 -1.4475 -0.6622  1.4673
 5153SOL     OW16899   7.857   4.653   6.817 -0.3728  0.6259  0.0151
 5153SOL    HW116900   7.781   4.648   6.758 -1.5890  1.9015  1.3781
 5153SOL    HW216901   7.838   4.587   6.884 -1.3297  2.2781  1.4439
 5154SOL     OW16902   3.190   6.076   5.261 -0.3368 -0.3453  0.3033
 5154SOL    HW116903   3.217   6.154   5.309  1.4505 -1.2309  0.8310
 5154SOL    HW216904   3.179   6.106   5.171 -0.3553  0.6462  0.6246
 5155SOL     OW16905   2.055   6.132   8.132 -0.1986 -0.0383  0.0394
 5155SOL    HW116906   2.026   6.103   8.045  1.0796  1.2730 -0.8791
 5155SOL    HW216907   2.147   6.154   8.120 -0.1823  0.8398  1.5693
 5156SOL     OW16908   7.921   7.146   5.241  0.7842 -0.5725  0.7456
 5156SOL    HW116909   7.961   7.199   5.173 -3.3029  1.8301 -0.1679
 5156SOL    HW216910   7.967   7.170   5.321  2.3559  0.4956 -0.4361
 5157SOL     OW16911   3.431   5.290   7.390  0.0532  0.0840 -0.0928
 5157SOL    HW116912   3.445   5.334   7.473  1.1567 -2.1902  1.0406
 5157SOL    HW216913   3.518   5.291   7.348 -0.6651  1.9503 -1.6858
 5158SOL     OW16914   3.100   6.323   7.078  0.2574 -0.3460  1.0624
 5158SOL    HW116915   3.059   6.280   7.003  0.0318 -0.7351  1.4033
 5158SOL    HW216916   3.033   6.383   7.111  0.7249  0.6057  0.3215
 5159SOL     OW16917   0.482   0.015   5.770 -0.0774  0.3698  0.5515
 5159SOL    HW116918   0.437  -0.065   5.745 -0.7986  1.1274 -0.6257
 5159SOL    HW216919   0.572  -0.013   5.787  0.3466 -0.3012 -2.3758
 5160SOL     OW16920   7.916   5.374   6.229 -0.6201 -0.7575  0.3405
 5160SOL    HW116921   7.956   5.405   6.310  1.8270 -0.2750 -0.9765
 5160SOL    HW216922   7.849   5.440   6.209  0.5057  0.5294  0.6661
 5161SOL     OW16923   1.301   5.132   3.657  0.0587 -0.2004 -0.1161
 5161SOL    HW116924   1.348   5.151   3.576  1.1670  0.6490  0.6851
 5161SOL    HW216925   1.347   5.058   3.695  0.6809  0.5267  0.5891
 5162SOL     OW16926   1.859   7.746   6.863 -0.1085 -0.5309  0.1230
 5162SOL    HW116927   1.878   7.672   6.921  1.9945  0.9338  1.4509
 5162SOL    HW216928   1.936   7.754   6.807  0.7997  1.9171  1.5278
 5163SOL     OW16929   0.990   7.052   5.991 -0.0168  0.3342  0.1178
 5163SOL    HW116930   1.054   7.119   5.967 -0.5171  0.6282 -0.3982
 5163SOL    HW216931   0.918   7.100   6.030  0.1254 -0.0122  0.8216
 5164SOL     OW16932   6.997   0.675   5.042 -0.4611  0.4716 -0.0240
 5164SOL    HW116933   6.902   0.691   5.040 -0.4263  0.7294 -1.7294
 5164SOL    HW216934   7.024   0.686   4.950  0.8110 -2.0820 -0.0372
 5165SOL     OW16935   1.404   6.128   5.429  0.1591 -0.1799 -0.3292
 5165SOL    HW116936   1.459   6.057   5.397 -1.3352 -1.0696 -1.0412
 5165SOL    HW216937   1.439   6.148   5.516  0.9728 -1.3847 -0.3511
 5166SOL     OW16938   1.594   7.725   7.144 -0.2177  0.4419 -0.3394
 5166SOL    HW116939   1.569   7.690   7.058 -3.7502  1.6035  0.0582
 5166SOL    HW216940   1.598   7.648   7.201  0.2001 -0.1319 -1.1267
 5167SOL     OW16941   0.839   6.564   7.128  0.0872  0.0481 -0.6703
 5167SOL    HW116942   0.779   6.504   7.083  0.5257 -1.5332  0.7541
 5167SOL    HW216943   0.811   6.563   7.219  0.1071  2.0793 -0.5791
 5168SOL     OW16944   2.805   6.605   9.212  0.3022 -0.1172 -0.3152
 5168SOL    HW116945   2.728   6.550   9.230 -1.1013  2.1844  1.3837
 5168SOL    HW216946   2.845   6.619   9.298  1.4948  0.3009 -0.9146
 5169SOL     OW16947   6.890   0.049  10.063 -0.1077 -0.7745  0.3986
 5169SOL    HW116948   6.886  -0.013  10.135  0.0118 -0.4056  0.7296
 5169SOL    HW216949   6.861  -0.000   9.987  1.8834 -1.8191  0.2521
 5170SOL     OW16950   3.819   0.918   8.459  0.3163 -0.1952  0.3684
 5170SOL    HW116951   3.787   0.831   8.482 -1.0190 -0.1096 -0.9701
 5170SOL    HW216952   3.775   0.977   8.519  2.5817 -0.4879  2.5103
 5171SOL     OW16953   2.280   6.626   7.903  0.6373  0.1722 -0.1083
 5171SOL    HW116954   2.283   6.653   7.995 -2.7431 -1.1896  0.5127
 5171SOL    HW216955   2.289   6.531   7.905 -0.1115  0.0706 -1.1347
 5172SOL     OW16956   0.705   6.584   8.117 -0.9674 -0.0362  0.0791
 5172SOL    HW116957   0.697   6.647   8.045 -3.2585 -0.5248 -0.1869
 5172SOL    HW216958   0.687   6.499   8.076 -0.0218 -0.6173  0.8285
 5173SOL     OW16959   0.906   7.686   8.186 -0.2699 -0.2885 -0.1378
 5173SOL    HW116960   0.815   7.654   8.189 -0.4096  0.1494  0.4448
 5173SOL    HW216961   0.938   7.656   8.101 -0.6525 -1.2798  0.0415
 5174SOL     OW16962   0.926   7.140   8.461  0.6175  0.0077  0.2027
 5174SOL    HW116963   0.927   7.211   8.397 -0.6173 -0.0122  0.1330
 5174SOL    HW216964   0.885   7.178   8.539 -1.3049 -0.9538 -0.2833
 5175SOL     OW16965   2.270   6.426   8.931  0.3322  0.1379  0.5277
 5175SOL    HW116966   2.341   6.394   8.876 -1.3213 -0.9101 -1.1385
 5175SOL    HW216967   2.244   6.510   8.891  0.5252  0.4454  1.0375
 5176SOL     OW16968   0.241   7.737   9.711  0.4693 -0.0776  0.1574
 5176SOL    HW116969   0.264   7.751   9.619  0.6700  0.1445  0.2368
 5176SOL    HW216970   0.189   7.658   9.712 -0.1633  0.3279 -0.2434
 5177SOL     OW16971   2.330   7.742   7.069  0.3089 -0.1885 -0.2062
 5177SOL    HW116972   2.235   7.747   7.083  0.0483  2.1928 -2.1409
 5177SOL    HW216973   2.368   7.770   7.152 -0.7705  1.2088 -0.1421
 5178SOL     OW16974   3.173   7.441  10.718 -0.0413  1.0937  0.9140
 5178SOL    HW116975   3.103   7.476  10.662 -0.3038 -2.1580 -1.0501
 5178SOL    HW216976   3.252   7.448  10.665  0.0709 -0.2721  0.8730
 5179SOL     OW16977   2.571   0.323   9.132 -0.2051 -0.0306  0.3108
 5179SOL    HW116978   2.497   0.315   9.192 -0.3035 -0.9955  0.0781
 5179SOL    HW216979   2.536   0.296   9.047  0.1275  0.5997 -0.0356
 5180SOL     OW16980   1.188   6.970   5.741 -0.3252  0.1310  0.0190
 5180SOL    HW116981   1.125   6.928   5.683 -0.1160 -0.6059  0.3185
 5180SOL    HW216982   1.213   6.902   5.803  3.2370 -0.6999 -2.0113
 5181SOL     OW16983   0.330   6.990   4.733 -0.1845  0.1338  0.0906
 5181SOL    HW116984   0.279   6.919   4.693 -1.5908  0.6328  0.9394
 5181SOL    HW216985   0.421   6.968   4.712 -0.7680  0.5319 -3.6696
 5182SOL     OW16986   0.958   7.950   8.705 -0.2196  0.7597  0.4008
 5182SOL    HW116987   0.957   7.901   8.787 -2.4366  1.5217  0.9096
 5182SOL    HW216988   0.866   7.960   8.682  0.3366  0.6261 -2.1826
 5183SOL     OW16989   0.863   6.504   8.411  0.0506 -0.0724 -1.0036
 5183SOL    HW116990   0.878   6.554   8.331  0.8055  1.9544  0.3032
 5183SOL    HW216991   0.941   6.521   8.465 -1.6135  1.0257  1.2667
 5184SOL     OW16992   7.897   6.674   9.153 -0.3216 -1.1085 -0.3103
 5184SOL    HW116993   7.915   6.750   9.209  0.9336 -1.5064 -0.1473
 5184SOL    HW216994   7.891   6.710   9.065 -2.9017 -0.3843  0.0716
 5185SOL     OW16995   7.739   7.506  10.624  0.0543  0.4406  0.0976
 5185SOL    HW116996   7.700   7.453  10.555 -0.9957 -0.7973  1.5692
 5185SOL    HW216997   7.735   7.595  10.591 -0.8277 -0.0584 -1.2310
 5186SOL     OW16998   1.519   6.480   8.368 -0.3761 -0.5296  0.0581
 5186SOL    HW116999   1.543   6.481   8.275 -0.3226  2.1313  0.0202
 5186SOL    HW217000   1.438   6.428   8.371 -0.3477 -0.7232 -1.4690
 5187SOL     OW17001   2.212   5.930   9.190 -0.4659  0.1377 -0.7587
 5187SOL    HW117002   2.131   5.884   9.168 -1.7111  2.2731 -0.9116
 5187SOL    HW217003   2.280   5.882   9.142 -1.6957 -1.3355 -1.1287
 5188SOL     OW17004   1.100   7.024   6.523  0.1425 -0.4375  0.2253
 5188SOL    HW117005   1.039   7.031   6.449  0.0052  0.8517  0.4329
 5188SOL    HW217006   1.167   6.963   6.493 -1.4342 -2.2273  0.1458
 5189SOL     OW17007   1.536   6.120   6.278  0.2645 -0.0411  0.0714
 5189SOL    HW117008   1.478   6.118   6.354  0.0418  1.5259 -0.0410
 5189SOL    HW217009   1.478   6.130   6.203  0.6330  1.6452 -0.0364
 5190SOL     OW17010   7.039   5.125   6.675  0.1220 -0.1209  0.1921
 5190SOL    HW117011   7.015   5.102   6.765 -0.3052 -1.4115 -0.2251
 5190SOL    HW217012   7.117   5.179   6.684  0.8355 -1.2757  1.2874
 5191SOL     OW17013   2.655   0.172   8.180 -0.0062  0.4586  0.2356
 5191SOL    HW117014   2.613   0.135   8.102  1.1737  0.1709 -0.3025
 5191SOL    HW217015   2.729   0.113   8.196  0.4088  1.1485  0.9083
 5192SOL     OW17016   1.704   6.520   7.845  0.3880 -0.4585  0.0452
 5192SOL    HW117017   1.715   6.442   7.789 -0.2979 -0.2268 -0.4280
 5192SOL    HW217018   1.755   6.588   7.801  1.4943 -0.7860  0.7888
 5193SOL     OW17019   1.204   6.047   8.568  0.4919 -0.0731  0.7444
 5193SOL    HW117020   1.297   6.067   8.558  1.0023 -2.1293  1.0241
 5193SOL    HW217021   1.174   6.030   8.479  0.5079  0.0644  0.7127
 5194SOL     OW17022   7.649   7.626   8.798  0.1380 -0.3225  0.4915
 5194SOL    HW117023   7.662   7.708   8.752 -1.4279  0.4182  1.2932
 5194SOL    HW217024   7.725   7.618   8.856 -0.5122  1.4773  1.6735
 5195SOL     OW17025   1.631   5.600   8.886  0.5780  0.0697 -0.1787
 5195SOL    HW117026   1.565   5.599   8.816  0.2882 -2.8389  0.0192
 5195SOL    HW217027   1.713   5.621   8.842  0.0192  0.8084 -0.9170
 5196SOL     OW17028   1.791   7.506   8.144  0.0830 -0.3792  0.3576
 5196SOL    HW117029   1.886   7.503   8.160  0.1774 -0.3712 -0.1881
 5196SOL    HW217030   1.760   7.576   8.201  0.4158 -0.3327  0.4863
 5197SOL     OW17031   7.349   5.744   7.929  0.1535 -0.3022  0.1269
 5197SOL    HW117032   7.370   5.836   7.943 -0.7351 -0.2101  1.0224
 5197SOL    HW217033   7.360   5.704   8.015 -3.0017 -0.2636  0.6581
 5198SOL     OW17034   2.731   7.194   8.332  0.0321  0.3673  0.0476
 5198SOL    HW117035   2.640   7.176   8.356 -0.0786 -0.8712 -1.1454
 5198SOL    HW217036   2.725   7.263   8.266  0.1294  1.6809  1.3637
 5199SOL     OW17037   7.794   0.423  10.291 -0.4969 -0.1770  0.2802
 5199SOL    HW117038   7.829   0.497  10.341  0.8112 -0.0033 -0.8349
 5199SOL    HW217039   7.763   0.462  10.209 -0.7457 -0.7323  0.1059
 5200SOL     OW17040   1.140   7.324   9.671 -0.2102 -0.4414 -0.1963
 5200SOL    HW117041   1.086   7.401   9.690  1.8006  1.7254 -2.5679
 5200SOL    HW217042   1.077   7.252   9.665 -2.4195  1.3166  0.3770
 5201SOL     OW17043   3.380   6.895   7.411 -0.3794  0.0570  0.0290
 5201SOL    HW117044   3.350   6.811   7.378 -0.5256  0.3412 -0.5661
 5201SOL    HW217045   3.321   6.915   7.484 -1.3941  0.4108 -0.8664
 5202SOL     OW17046   2.917   7.768   9.055 -0.2559  0.3543  0.2645
 5202SOL    HW117047   2.973   7.773   8.978  0.1423  0.4554  0.5559
 5202SOL    HW217048   2.854   7.699   9.035 -1.3139  1.5684 -0.9112
 5203SOL     OW17049   0.503   0.824   8.261  0.0133  0.5888 -0.2948
 5203SOL    HW117050   0.581   0.773   8.283  0.1563  0.2700 -1.4818
 5203SOL    HW217051   0.500   0.824   8.165 -1.3998  0.6580 -0.2737
 5204SOL     OW17052   3.426   1.733   7.751  0.3938 -0.5524  0.6610
 5204SOL    HW117053   3.382   1.803   7.799  0.9992 -0.5659  1.2563
 5204SOL    HW217054   3.359   1.696   7.694 -0.3336 -0.5115  1.4768
 5205SOL     OW17055   1.726   1.112   7.832 -0.1051  0.7341 -0.1035
 5205SOL    HW117056   1.731   1.172   7.907  1.0176  0.8777 -0.2770
 5205SOL    HW217057   1.704   1.168   7.758 -0.2371  0.7470 -0.0544
 5206SOL     OW17058   7.057   7.744   9.087  0.0409 -0.4111  0.0002
 5206SOL    HW117059   6.973   7.717   9.125 -0.1416  0.2251  0.0577
 5206SOL    HW217060   7.103   7.786   9.160 -0.1864  0.5434 -0.3961
 5207SOL     OW17061   2.364   6.297   8.416  0.3903 -0.0912  0.7217
 5207SOL    HW117062   2.341   6.383   8.381  2.4652  1.3989  2.6885
 5207SOL    HW217063   2.285   6.267   8.459 -0.8630  0.0234 -1.3546
 5208SOL     OW17064   1.200   6.659   8.012 -0.0005 -0.2640  0.2618
 5208SOL    HW117065   1.158   6.666   8.098  2.0602  3.1412  1.1873
 5208SOL    HW217066   1.145   6.711   7.954  1.0337  1.4461  0.7271
 5209SOL     OW17067   1.354   7.643   9.494 -0.1259 -0.4768  0.5252
 5209SOL    HW117068   1.262   7.659   9.474 -0.0003  0.2705  0.5016
 5209SOL    HW217069   1.388   7.597   9.417 -0.1408  0.5319 -0.0957
 5210SOL     OW17070   7.330   5.009   5.508 -0.5742 -0.1856 -0.2852
 5210SOL    HW117071   7.244   5.049   5.493  0.3373  1.6976 -0.8284
 5210SOL    HW217072   7.335   4.997   5.603 -1.7362 -1.0714 -0.3191
 5211SOL     OW17073   1.225   6.237   8.113 -0.0244  0.0749  0.2432
 5211SOL    HW117074   1.307   6.193   8.089 -0.3475 -0.1712 -0.4416
 5211SOL    HW217075   1.204   6.290   8.037 -0.7731 -0.2685  0.2052
 5212SOL     OW17076   0.578   7.978   9.588 -0.1269  0.5831  0.5058
 5212SOL    HW117077   0.607   8.036   9.659  2.2126 -0.2091  0.2800
 5212SOL    HW217078   0.612   8.018   9.508 -0.2722 -0.0339  0.1270
 5213SOL     OW17079   0.177   5.265   6.764 -0.0486 -0.4152  0.0802
 5213SOL    HW117080   0.192   5.227   6.677 -0.4029 -0.4588  0.0381
 5213SOL    HW217081   0.107   5.213   6.802  0.1512 -0.4375  0.4215
 5214SOL     OW17082   2.844   6.389   8.594  0.2185  0.1203  0.5450
 5214SOL    HW117083   2.907   6.418   8.528  0.0446  0.2010  0.4147
 5214SOL    HW217084   2.800   6.314   8.555 -0.6135  0.8067  0.1503
 5215SOL     OW17085   1.387   7.359   8.984 -1.0213  0.2534  0.6360
 5215SOL    HW117086   1.307   7.326   9.024 -1.0142 -0.5487  0.0142
 5215SOL    HW217087   1.421   7.285   8.933 -0.2764  0.8088  0.3034
 5216SOL     OW17088   1.670   6.371   6.268  0.3945  0.2633 -0.2642
 5216SOL    HW117089   1.761   6.400   6.263  0.7357 -0.8879 -1.1156
 5216SOL    HW217090   1.675   6.278   6.291 -0.5799  0.2724  0.0237
 5217SOL     OW17091   0.301   6.716   7.310  0.5844 -0.7057 -0.0766
 5217SOL    HW117092   0.212   6.693   7.284  0.6881 -0.5236 -0.6029
 5217SOL    HW217093   0.350   6.720   7.228  0.6509  1.0091 -0.0050
 5218SOL     OW17094   0.658   4.811   9.860  0.2445 -0.4505 -0.0679
 5218SOL    HW117095   0.738   4.813   9.806  0.8526  0.4532  0.8450
 5218SOL    HW217096   0.670   4.734   9.916 -0.6603 -1.7537 -1.5621
 5219SOL     OW17097   2.698   6.199   7.727 -0.4109 -0.0033 -0.0529
 5219SOL    HW117098   2.613   6.154   7.727 -0.2169 -0.3752 -0.7701
 5219SOL    HW217099   2.758   6.138   7.770 -0.2750 -0.1851 -0.5005
 5220SOL     OW17100   2.190   6.943   9.823  0.7872 -0.5377 -0.2949
 5220SOL    HW117101   2.134   6.942   9.745  0.4546  0.6323 -0.0893
 5220SOL    HW217102   2.259   6.879   9.804  0.3479 -0.7369 -1.2756
 5221SOL     OW17103   0.281   5.815   6.558 -0.0411 -0.1653  0.1668
 5221SOL    HW117104   0.262   5.790   6.468 -1.2136 -1.3223  0.6910
 5221SOL    HW217105   0.250   5.741   6.610  1.4833  0.0382  1.4735
 5222SOL     OW17106   1.010   5.281   5.838 -0.1914 -0.0813 -0.0159
 5222SOL    HW117107   1.046   5.192   5.844 -2.4504 -1.1365 -1.1666
 5222SOL    HW217108   1.038   5.312   5.752 -0.0996  0.0243  0.0510
 5223SOL     OW17109   1.359   7.626   9.073 -0.5754 -0.2682  0.8347
 5223SOL    HW117110   1.341   7.547   9.022  0.9947  0.5394 -1.0972
 5223SOL    HW217111   1.299   7.692   9.037  0.0906  0.1355  0.4408
 5224SOL     OW17112   7.767   0.025   8.322  0.0869  0.1182  0.0795
 5224SOL    HW117113   7.839  -0.039   8.331 -1.4379 -1.4914  1.6732
 5224SOL    HW217114   7.776   0.058   8.233  1.6767 -1.4606 -0.4182
 5225SOL     OW17115   0.573   5.502   7.766  0.3905 -0.1233 -0.3100
 5225SOL    HW117116   0.556   5.418   7.725  0.5645 -0.5013  0.3778
 5225SOL    HW217117   0.575   5.564   7.694 -0.5038 -0.5888 -0.7517
 5226SOL     OW17118   1.053   7.845   9.233 -0.0072 -0.1765  0.2807
 5226SOL    HW117119   1.059   7.753   9.210 -0.0237 -0.5500  1.7044
 5226SOL    HW217120   1.117   7.888   9.177  0.4166 -1.1339  0.0196
 5227SOL     OW17121   1.890   5.503   7.570  0.2979  0.4563  0.2290
 5227SOL    HW117122   1.834   5.426   7.562 -0.9455  1.3821 -0.3363
 5227SOL    HW217123   1.968   5.471   7.616 -0.0535 -1.1867 -0.2415
 5228SOL     OW17124   0.607   6.883   7.591 -0.0712  0.5471  0.8170
 5228SOL    HW117125   0.549   6.877   7.667  0.5964  0.5152  1.3396
 5228SOL    HW217126   0.631   6.793   7.571 -1.6050  0.3967 -0.5363
 5229SOL     OW17127   1.478   0.965   9.559  0.7313  0.6799  0.5596
 5229SOL    HW117128   1.548   0.905   9.534  1.7964  0.8320  2.8354
 5229SOL    HW217129   1.412   0.909   9.601  0.0504  0.6872 -0.4850
 5230SOL     OW17130   1.599   7.038   6.986  0.5144  0.9009  0.2787
 5230SOL    HW117131   1.571   7.086   6.908  2.2475 -0.9047 -1.6146
 5230SOL    HW217132   1.523   6.983   7.008  0.0737  1.2567 -0.3020
 5231SOL     OW17133   1.851   7.259   8.545  0.4779 -0.4287  0.2644
 5231SOL    HW117134   1.799   7.242   8.467  0.9575 -1.5676  0.1892
 5231SOL    HW217135   1.792   7.237   8.618  0.9773 -2.1749  0.1744
 5232SOL     OW17136   2.121   5.221   8.178 -0.5348 -0.1194 -0.0025
 5232SOL    HW117137   2.217   5.223   8.169 -0.0944  2.5047  3.2251
 5232SOL    HW217138   2.106   5.167   8.255 -1.6413 -0.2087 -0.2736
 5233SOL     OW17139   0.153   6.194   8.531  1.0327 -0.5280 -0.1561
 5233SOL    HW117140   0.124   6.124   8.589 -0.5608  0.9999  0.9710
 5233SOL    HW217141   0.235   6.161   8.493  0.4207 -2.9062  0.4424
 5234SOL     OW17142   1.622   6.881   7.830  0.0077 -0.3032  0.8236
 5234SOL    HW117143   1.565   6.826   7.884  0.4962 -0.2986  1.3546
 5234SOL    HW217144   1.687   6.820   7.794 -0.6256 -0.3984 -0.2074
 5235SOL     OW17145   1.779   0.270   9.506  0.8052  0.0303 -0.6453
 5235SOL    HW117146   1.824   0.187   9.520  2.5302  0.6527 -2.1708
 5235SOL    HW217147   1.811   0.328   9.575  0.2593 -0.2916 -0.1094
 5236SOL     OW17148   0.824   5.566   7.519 -0.2208 -0.0493 -0.0979
 5236SOL    HW117149   0.830   5.662   7.522  0.6735 -0.1155  2.8206
 5236SOL    HW217150   0.906   5.538   7.479 -0.8176  0.3599 -1.7064
 5237SOL     OW17151   0.964   5.942   7.895  0.1356 -0.7144 -0.3383
 5237SOL    HW117152   0.885   5.903   7.857 -0.5877 -0.2686  0.6449
 5237SOL    HW217153   0.970   5.902   7.982  0.7217 -0.3739 -0.2170
 5238SOL     OW17154   0.180   5.134  10.435  0.1060 -0.1772  0.1695
 5238SOL    HW117155   0.239   5.143  10.360  1.3601  1.1173  1.2699
 5238SOL    HW217156   0.095   5.111  10.395 -0.3929  4.4914 -2.1409
 5239SOL     OW17157   1.600   5.733   9.103  0.3440  0.3669  0.0003
 5239SOL    HW117158   1.604   5.673   9.028 -0.0258 -0.1041  0.3518
 5239SOL    HW217159   1.681   5.783   9.098  0.4262  0.1868 -0.5886
 5240SOL     OW17160   2.459   0.044   7.566  0.6882  0.1227  0.0393
 5240SOL    HW117161   2.531   0.031   7.504 -0.0077 -1.5694 -0.4530
 5240SOL    HW217162   2.392   0.089   7.514 -0.1084 -1.7708 -0.6580
 5241SOL     OW17163   0.100   5.702   6.367 -0.2791 -0.4633 -0.0517
 5241SOL    HW117164   0.044   5.742   6.434  2.6001  1.8464  1.2111
 5241SOL    HW217165   0.128   5.619   6.405 -0.6008 -0.2957  0.5622
 5242SOL     OW17166   0.128   5.387   8.387 -0.0859 -0.4261  0.2438
 5242SOL    HW117167   0.205   5.441   8.406 -0.7555  0.7448 -0.2901
 5242SOL    HW217168   0.153   5.300   8.417  1.2496  0.0393  0.5757
 5243SOL     OW17169   2.914   5.922   8.779  0.1106  0.0429  0.5916
 5243SOL    HW117170   2.874   5.837   8.794  3.2954 -1.5145  1.0705
 5243SOL    HW217171   2.920   5.929   8.684  0.3775 -0.5726  0.5573
 5244SOL     OW17172   1.679   7.476   7.274 -0.5929 -0.1705  0.0357
 5244SOL    HW117173   1.683   7.402   7.214 -0.2167 -1.1189  1.1781
 5244SOL    HW217174   1.593   7.469   7.315 -0.7042  0.2450 -0.1304
 5245SOL     OW17175   0.958   7.327   5.645  0.0359  0.1404 -0.7726
 5245SOL    HW117176   0.964   7.238   5.679 -0.7346  0.0660 -0.8193
 5245SOL    HW217177   1.022   7.376   5.696  0.4698 -0.4405 -0.7518
 5246SOL     OW17178   1.544   7.004   9.496  0.8441 -0.5818  0.0285
 5246SOL    HW117179   1.531   7.059   9.573 -1.3800 -0.9584 -0.0296
 5246SOL    HW217180   1.488   7.043   9.428 -0.6690 -2.7586 -0.0606
 5247SOL     OW17181   2.603   6.005   8.231  0.8203 -0.1120 -0.0461
 5247SOL    HW117182   2.689   5.967   8.210  1.0532  1.3930 -2.0757
 5247SOL    HW217183   2.552   5.994   8.151 -0.3666  0.4206  0.6153
 5248SOL     OW17184   0.922   6.007   8.605 -0.0006  0.2357  0.2870
 5248SOL    HW117185   0.923   5.935   8.541  1.5064  0.8029 -0.3790
 5248SOL    HW217186   0.927   6.086   8.552  0.0257  0.7756  1.0808
 5249SOL     OW17187   1.716   7.287   8.292 -0.3384 -0.0629  0.6154
 5249SOL    HW117188   1.634   7.270   8.248 -0.0145  1.5261 -0.7212
 5249SOL    HW217189   1.770   7.332   8.227  1.9075 -1.7318  1.1794
 5250SOL     OW17190   3.532   5.183   7.833 -0.2982 -0.4078  0.2573
 5250SOL    HW117191   3.575   5.097   7.835  0.0269 -0.2843 -0.8516
 5250SOL    HW217192   3.457   5.170   7.774 -0.6598 -0.1088  0.6493
 5251SOL     OW17193   0.936   6.208   7.828  0.1954 -0.1486 -0.1369
 5251SOL    HW117194   0.961   6.118   7.851 -1.7864 -0.6102  0.4219
 5251SOL    HW217195   0.845   6.200   7.798  0.1568  1.6148 -0.5673
 5252SOL     OW17196   2.319   0.371   8.890  0.2569 -0.3906 -0.1772
 5252SOL    HW117197   2.301   0.280   8.913 -3.0037 -0.4259 -2.2788
 5252SOL    HW217198   2.357   0.366   8.802 -0.8505  0.2907 -0.7086
 5253SOL     OW17199   2.417   7.893   9.902  0.0056 -0.4015 -0.0396
 5253SOL    HW117200   2.444   7.843   9.979 -0.5824 -0.5149  0.0957
 5253SOL    HW217201   2.488   7.956   9.888  1.1293 -1.7318 -0.6476
 5254SOL     OW17202   4.406   5.511   7.046 -0.8161 -0.4534 -0.0475
 5254SOL    HW117203   4.423   5.604   7.031 -2.2465  0.0782  1.3372
 5254SOL    HW217204   4.478   5.466   7.001 -0.1962  1.2929 -0.9095
 5255SOL     OW17205   2.352   6.310   7.091 -0.1161 -0.0990 -0.1394
 5255SOL    HW117206   2.392   6.376   7.147  1.0594 -1.0282  0.1602
 5255SOL    HW217207   2.380   6.334   7.002 -0.4073  0.2734 -0.1383
 5256SOL     OW17208   3.108   0.581   8.523  0.3399  0.4708 -0.4648
 5256SOL    HW117209   3.164   0.546   8.592  0.5583  2.9376  0.7348
 5256SOL    HW217210   3.109   0.676   8.537 -1.8115  0.8385 -2.2071
 5257SOL     OW17211   1.977   5.981   7.858 -0.2406  0.1778 -0.3651
 5257SOL    HW117212   1.945   5.969   7.769  1.2140  0.7852 -0.9939
 5257SOL    HW217213   1.951   5.900   7.904  0.4531 -0.9001 -1.7857
 5258SOL     OW17214   0.670   4.856   7.655 -0.1045  0.5802  0.1140
 5258SOL    HW117215   0.683   4.770   7.697 -0.7095  1.0094  1.2343
 5258SOL    HW217216   0.759   4.886   7.635  0.0442 -1.5282 -2.9812
 5259SOL     OW17217   2.584   6.865   9.247  0.0677 -0.4939 -0.8152
 5259SOL    HW117218   2.584   6.919   9.168  0.8245 -2.1926 -2.0470
 5259SOL    HW217219   2.537   6.785   9.222 -2.8725  0.2896  1.5592
 5260SOL     OW17220   2.644   7.950  10.226  0.5219 -0.3584 -0.6670
 5260SOL    HW117221   2.721   7.956  10.168  0.6111  0.0227 -0.5078
 5260SOL    HW217222   2.582   8.014  10.191  0.8272  0.3314  0.0393
 5261SOL     OW17223   2.394   5.495   9.052  0.3554 -0.0667 -0.2920
 5261SOL    HW117224   2.433   5.478   8.967  0.2406 -0.4119 -0.2773
 5261SOL    HW217225   2.461   5.544   9.100  0.0601  0.9871 -0.9088
 5262SOL     OW17226   2.143   6.683   8.766 -0.3106 -0.0083 -0.1238
 5262SOL    HW117227   2.197   6.721   8.697 -0.9472 -1.4144 -1.4646
 5262SOL    HW217228   2.057   6.672   8.726 -0.5330 -1.4525  0.6790
 5263SOL     OW17229   4.076   6.833   9.407 -0.4120  0.2534 -0.1561
 5263SOL    HW117230   4.013   6.764   9.388  0.4802 -0.3197 -1.1007
 5263SOL    HW217231   4.027   6.914   9.395 -1.2711 -0.1935  0.2437
 5264SOL     OW17232   0.252   5.686   8.565 -0.1010  0.2806 -0.2715
 5264SOL    HW117233   0.282   5.635   8.490 -1.9624  0.3188 -1.0739
 5264SOL    HW217234   0.313   5.661   8.635  0.9900 -0.5976 -1.4750
 5265SOL     OW17235   1.104   5.518   7.429  0.6438 -0.0749 -0.7864
 5265SOL    HW117236   1.081   5.430   7.400 -0.8305  0.1073 -0.2493
 5265SOL    HW217237   1.157   5.504   7.508 -1.5553 -0.5236  0.7080
 5266SOL     OW17238   2.400   6.678   9.185 -0.0290  0.2204  0.3953
 5266SOL    HW117239   2.341   6.750   9.164 -0.7079 -0.8357 -1.5595
 5266SOL    HW217240   2.342   6.606   9.212  0.4900 -0.2602  0.2508
 5267SOL     OW17241   0.814   0.298   8.687  0.3916 -0.5695  0.2916
 5267SOL    HW117242   0.805   0.286   8.592  0.4170 -0.9484  0.3390
 5267SOL    HW217243   0.903   0.270   8.706  1.1235  1.4252  0.1180
 5268SOL     OW17244   1.880   0.589   9.780  0.1162  0.0770  0.3884
 5268SOL    HW117245   1.785   0.589   9.770  0.1243 -0.9468  0.2772
 5268SOL    HW217246   1.895   0.596   9.874 -0.0394  1.4047  0.3399
 5269SOL     OW17247   5.789   5.736   8.574 -0.0623  0.3711 -0.0600
 5269SOL    HW117248   5.754   5.661   8.527  0.7451 -1.1141  1.5871
 5269SOL    HW217249   5.713   5.792   8.590 -0.8105 -0.4631 -0.6474
 5270SOL     OW17250   7.823   0.052   5.735  0.2060  0.3652 -0.0204
 5270SOL    HW117251   7.825  -0.016   5.668 -0.1669 -0.0510  0.3907
 5270SOL    HW217252   7.732   0.055   5.764  0.1000  1.4224 -0.4264
 5271SOL     OW17253   2.303   0.756   8.674  0.3848 -0.4934 -0.5690
 5271SOL    HW117254   2.232   0.745   8.737 -0.4842  1.3778 -1.1253
 5271SOL    HW217255   2.285   0.692   8.605 -1.3492  0.5380 -1.1439
 5272SOL     OW17256   7.582   0.007  10.060 -0.1189 -0.3663 -0.9947
 5272SOL    HW117257   7.569  -0.087  10.046 -1.4658 -0.0573 -2.0044
 5272SOL    HW217258   7.546   0.024  10.147 -0.2313 -0.7167 -0.9740
 5273SOL     OW17259   3.663   1.330   8.058  0.2370  0.0489 -0.5096
 5273SOL    HW117260   3.602   1.383   8.007  0.0204  0.1372 -0.1620
 5273SOL    HW217261   3.747   1.341   8.014 -0.2184 -1.0183 -1.6943
 5274SOL     OW17262   7.536   5.092   6.475  1.1780 -0.2101 -0.0020
 5274SOL    HW117263   7.520   5.050   6.390  0.9625 -0.9840  0.4077
 5274SOL    HW217264   7.586   5.026   6.524 -1.5016 -1.1881  1.6527
 5275SOL     OW17265   2.464   7.351   8.234 -0.3630  0.0539 -0.2354
 5275SOL    HW117266   2.452   7.349   8.139 -1.1542  1.7751 -0.2046
 5275SOL    HW217267   2.540   7.407   8.248 -0.4474  0.0734  0.1562
 5276SOL     OW17268   1.583   7.081   8.467 -0.5678  0.3639 -0.3824
 5276SOL    HW117269   1.533   7.055   8.389  1.9791  0.9670 -2.3570
 5276SOL    HW217270   1.521   7.130   8.520 -2.8028 -1.3122 -1.2835
 5277SOL     OW17271   3.081   6.866  10.664 -0.2513  0.3759 -0.0706
 5277SOL    HW117272   3.142   6.801  10.629  0.8686  0.8944  0.8420
 5277SOL    HW217273   3.039   6.904  10.587 -0.9337 -1.4121 -0.6178
 5278SOL     OW17274   0.314   7.475   9.084 -0.5026  0.0934 -0.5579
 5278SOL    HW117275   0.405   7.498   9.102 -0.3544  0.0917 -1.2608
 5278SOL    HW217276   0.316   7.435   8.997 -1.1405 -0.1333 -0.4763
 5279SOL     OW17277   1.700   7.450  10.510  0.3160 -0.0207  0.0294
 5279SOL    HW117278   1.752   7.409  10.579  1.9916  0.4816 -0.8904
 5279SOL    HW217279   1.664   7.529  10.552 -0.4613 -0.8221  0.9258
 5280SOL     OW17280   0.972   5.331   7.305  0.0142 -0.1688  0.0756
 5280SOL    HW117281   0.994   5.281   7.226 -1.4215 -1.2697  0.3215
 5280SOL    HW217282   0.905   5.393   7.277  1.4768  1.3903 -0.1287
 5281SOL     OW17283   2.674   5.157   7.055  0.2573 -0.1515  0.3872
 5281SOL    HW117284   2.694   5.066   7.032 -1.2891 -0.3339 -0.3612
 5281SOL    HW217285   2.712   5.208   6.984 -0.9492 -0.4081 -0.4579
 5282SOL     OW17286   2.331   4.938   8.498 -0.2028 -0.2351 -0.3733
 5282SOL    HW117287   2.288   4.991   8.565  0.3803  1.8942 -1.5932
 5282SOL    HW217288   2.365   4.862   8.545 -1.5970  0.1421  1.3399
 5283SOL     OW17289   2.352   7.526   7.450  0.0780 -0.0258 -0.2404
 5283SOL    HW117290   2.320   7.469   7.519  1.6879  0.2913  0.8378
 5283SOL    HW217291   2.355   7.471   7.371  2.0798 -1.6657  0.8685
 5284SOL     OW17292   0.395   7.064   9.291  0.2717  0.1904  0.2173
 5284SOL    HW117293   0.333   7.039   9.222  1.1269 -0.9134 -0.1867
 5284SOL    HW217294   0.451   7.130   9.249 -0.1900  0.6955  0.3754
 5285SOL     OW17295   1.195   6.396   7.910  0.6045 -0.3682 -0.9287
 5285SOL    HW117296   1.279   6.402   7.864  1.1188 -1.3833 -0.1655
 5285SOL    HW217297   1.176   6.486   7.937  1.3241 -0.0883 -1.3232
 5286SOL     OW17298   2.171   5.335   8.655  0.0619 -0.6739 -0.5729
 5286SOL    HW117299   2.244   5.274   8.667  1.1885  0.7049 -0.2351
 5286SOL    HW217300   2.200   5.395   8.587 -0.0624  0.8848  0.6807
 5287SOL     OW17301   7.580   5.864   7.052  0.0923  0.1443 -0.0167
 5287SOL    HW117302   7.641   5.836   7.120 -0.7883 -0.1543  0.6753
 5287SOL    HW217303   7.600   5.806   6.977  1.0728  0.4847 -0.0355
 5288SOL     OW17304   3.066   6.672   8.128  0.2797  0.0980 -0.0150
 5288SOL    HW117305   3.070   6.601   8.065 -1.6996  0.0193 -0.1202
 5288SOL    HW217306   3.155   6.678   8.163  0.2882 -3.1929  0.8625
 5289SOL     OW17307   2.388   4.329   9.242  0.4099  0.4689 -0.0664
 5289SOL    HW117308   2.482   4.317   9.256  0.1266 -0.5212  1.1226
 5289SOL    HW217309   2.380   4.417   9.205  1.9352 -0.0027 -1.6528
 5290SOL     OW17310   0.440   7.032  11.077 -0.3663 -0.3371  0.1808
 5290SOL    HW117311   0.402   7.015  11.163  0.5581 -0.2088  0.6311
 5290SOL    HW217312   0.434   7.127  11.067 -0.6943 -0.3776 -0.0013
 5291SOL     OW17313   1.675   6.204   7.463  0.3619  0.2364 -0.4765
 5291SOL    HW117314   1.604   6.141   7.454  0.0960  0.4525  0.0322
 5291SOL    HW217315   1.643   6.283   7.420 -0.3400  0.8185  1.0340
 5292SOL     OW17316   2.123   5.826   8.765 -0.0639  0.1198 -0.7683
 5292SOL    HW117317   2.217   5.811   8.761 -0.3522 -2.4327 -0.1929
 5292SOL    HW217318   2.089   5.786   8.685 -0.8478 -1.5317  0.3290
 5293SOL     OW17319   1.725   5.050   7.341  0.1466 -0.0362  0.0902
 5293SOL    HW117320   1.742   4.966   7.383  0.9260  1.1579  2.2950
 5293SOL    HW217321   1.811   5.091   7.334 -0.0926  0.2338 -1.8511
 5294SOL     OW17322   2.620   6.855   7.922  0.3360  0.2290  0.2784
 5294SOL    HW117323   2.611   6.810   8.006  0.6456 -0.3797 -0.0081
 5294SOL    HW217324   2.648   6.787   7.861  1.8540  1.0106  0.0543
 5295SOL     OW17325   1.948   7.386   9.191  0.7674  0.1855 -0.4561
 5295SOL    HW117326   1.994   7.310   9.228 -1.1787 -1.1206 -0.5747
 5295SOL    HW217327   2.015   7.433   9.142  1.8509 -2.0347 -1.2471
 5296SOL     OW17328   7.814   7.323   8.530  0.0456  0.5485 -0.6930
 5296SOL    HW117329   7.733   7.346   8.576  0.8238  2.2376 -0.0857
 5296SOL    HW217330   7.785   7.271   8.455 -1.8509  2.8269 -1.6820
 5297SOL     OW17331   1.668   6.430   9.062  0.1694 -0.6054  0.0975
 5297SOL    HW117332   1.730   6.495   9.097 -0.9206  0.1442  0.7010
 5297SOL    HW217333   1.584   6.455   9.100 -0.9050 -0.3363 -2.3262
 5298SOL     OW17334   1.550   3.360   8.385  0.7550 -0.1550 -0.1642
 5298SOL    HW117335   1.506   3.444   8.385  2.7364  0.9590 -1.1490
 5298SOL    HW217336   1.554   3.334   8.477 -0.2950  0.5578  0.0995
 5299SOL     OW17337   0.286   5.432   8.903  0.0030 -0.0637 -0.6605
 5299SOL    HW117338   0.228   5.428   8.827  0.0022 -0.4912 -0.6363
 5299SOL    HW217339   0.349   5.501   8.881 -1.6186  1.7590  0.0924
 5300SOL     OW17340   7.322   6.631   8.680 -0.0457 -0.1245  0.6380
 5300SOL    HW117341   7.354   6.614   8.768  0.0238 -1.0876  0.4384
 5300SOL    HW217342   7.389   6.687   8.641  0.4231 -0.5133  0.8730
 5301SOL     OW17343   0.250   7.076   8.355 -0.6662  0.0469 -0.4527
 5301SOL    HW117344   0.343   7.070   8.335 -0.3501  1.4158  0.4860
 5301SOL    HW217345   0.216   6.989   8.336  1.0225 -0.8157  0.2320
 5302SOL     OW17346   1.419   7.000   8.273  0.0795  0.0036  0.1724
 5302SOL    HW117347   1.405   7.063   8.202 -1.1435  0.5094  0.8259
 5302SOL    HW217348   1.469   6.929   8.233  2.0648  1.6469 -0.4425
 5303SOL     OW17349   1.680   7.544  10.021 -0.3309  0.8177  0.3168
 5303SOL    HW117350   1.634   7.463   9.998 -0.1422  0.1128  2.2755
 5303SOL    HW217351   1.771   7.529   9.995 -0.1549  0.0987  1.2881
 5304SOL     OW17352   1.286   6.903   8.783 -0.2783 -0.4393  0.1474
 5304SOL    HW117353   1.358   6.840   8.775  0.6164  0.6472 -0.9031
 5304SOL    HW217354   1.207   6.850   8.782  0.4653 -1.5767 -0.2859
 5305SOL     OW17355   0.565   6.545   9.445  0.3981 -0.3761 -0.2553
 5305SOL    HW117356   0.549   6.494   9.524  1.5308 -1.2575 -0.5633
 5305SOL    HW217357   0.477   6.568   9.413 -0.1251 -1.6335  0.2214
 5306SOL     OW17358   2.702   6.809   8.425 -0.1324 -0.0368 -0.0847
 5306SOL    HW117359   2.714   6.786   8.333  0.0551  0.5302 -0.2089
 5306SOL    HW217360   2.645   6.740   8.460 -0.7331  0.0839 -0.7844
 5307SOL     OW17361   0.415   5.719   6.107  0.2149  0.2046  0.1612
 5307SOL    HW117362   0.446   5.774   6.178 -0.2333 -0.3654  0.8027
 5307SOL    HW217363   0.487   5.657   6.092 -0.3526 -0.7502  1.2626
 5308SOL     OW17364   4.465   6.396   7.109 -0.2139  0.3155  0.0875
 5308SOL    HW117365   4.548   6.373   7.152 -0.1409  1.2854  0.5019
 5308SOL    HW217366   4.433   6.471   7.160 -1.7289 -0.5153  0.4092
 5309SOL     OW17367   7.425   5.937  10.296 -0.1729 -0.0900  0.1380
 5309SOL    HW117368   7.441   5.894  10.380 -2.5835 -0.5628  0.4298
 5309SOL    HW217369   7.454   5.875  10.230  1.0892 -0.0025  0.5847
 5310SOL     OW17370   1.839   6.744   7.404 -0.3137 -0.4913  0.0010
 5310SOL    HW117371   1.795   6.829   7.398 -1.1213 -0.9420 -0.5620
 5310SOL    HW217372   1.926   6.765   7.439 -1.2884  0.3165  2.1363
 5311SOL     OW17373   7.383   5.598   8.164 -0.0649 -0.0650 -0.2965
 5311SOL    HW117374   7.299   5.570   8.203 -0.7009  2.0458 -0.0111
 5311SOL    HW217375   7.449   5.566   8.226 -0.8855  0.8276  1.1119
 5312SOL     OW17376   7.560   5.674   9.159 -0.1629  0.3323  0.2495
 5312SOL    HW117377   7.572   5.713   9.072  0.5173  2.0521  1.0640
 5312SOL    HW217378   7.646   5.640   9.183 -0.4197 -0.4157  0.1501
 5313SOL     OW17379   0.521   0.804   7.999  0.2917  0.2537  0.4549
 5313SOL    HW117380   0.563   0.890   7.993  0.9375 -0.1528 -1.1589
 5313SOL    HW217381   0.447   0.809   7.940 -0.0895 -0.0814  0.8963
 5314SOL     OW17382   2.680   7.579   7.923  1.0611  0.2606  1.1096
 5314SOL    HW117383   2.657   7.487   7.936 -1.8097  1.1622  3.6368
 5314SOL    HW217384   2.765   7.588   7.966  1.5486 -1.2361  0.5217
 5315SOL     OW17385   0.344   7.871   9.937  0.1407 -0.0591  0.1105
 5315SOL    HW117386   0.273   7.829   9.987 -1.8787  1.6470 -1.1518
 5315SOL    HW217387   0.329   7.842   9.847 -1.4455  3.2517 -0.8578
 5316SOL     OW17388   0.149   5.241   6.216  0.0770 -0.8926 -0.0633
 5316SOL    HW117389   0.060   5.276   6.206  0.2612 -0.8572 -1.7901
 5316SOL    HW217390   0.167   5.251   6.310 -1.9482 -1.4519  0.4531
 5317SOL     OW17391   2.361   0.099   8.417  0.1675 -0.1829  0.4000
 5317SOL    HW117392   2.373   0.065   8.328 -1.4802  0.5923 -0.1471
 5317SOL    HW217393   2.362   0.194   8.407 -0.4533 -0.0873  1.1508
 5318SOL     OW17394   0.975   6.792   7.886 -0.7124 -0.6292  0.2105
 5318SOL    HW117395   0.880   6.791   7.891 -0.8368  0.8353 -1.3279
 5318SOL    HW217396   0.995   6.753   7.801 -0.0925  1.3770 -0.6207
 5319SOL     OW17397   7.640   6.161   9.441 -0.4731  0.0600 -0.4426
 5319SOL    HW117398   7.701   6.135   9.372  0.7713 -0.7385  0.9138
 5319SOL    HW217399   7.590   6.082   9.460 -1.0853  0.3824 -0.6726
 5320SOL     OW17400   3.156   6.675   7.659 -0.0003 -0.4629  0.0938
 5320SOL    HW117401   3.168   6.585   7.629  1.1544 -0.6285  1.0093
 5320SOL    HW217402   3.242   6.716   7.650  0.2235 -0.3075  2.4373
 5321SOL     OW17403   2.668   7.390   9.727 -0.1383  0.5498  0.4404
 5321SOL    HW117404   2.664   7.346   9.642 -0.9190 -1.6482  1.5374
 5321SOL    HW217405   2.744   7.351   9.771 -0.8352  0.2997  1.4479
 5322SOL     OW17406   0.190   7.377   9.944 -0.2819 -0.0271 -0.0909
 5322SOL    HW117407   0.118   7.403   9.887  0.2670  0.4438 -0.5949
 5322SOL    HW217408   0.237   7.310   9.895 -1.1136 -1.2808  0.7868
 5323SOL     OW17409   2.153   7.502   9.009  0.1426  0.0326 -0.0942
 5323SOL    HW117410   2.158   7.595   9.028 -1.0082 -0.0768  0.8415
 5323SOL    HW217411   2.153   7.497   8.914 -0.9427  1.0828 -0.1766
 5324SOL     OW17412   1.431   0.457   8.867 -0.0206  0.1849 -0.5616
 5324SOL    HW117413   1.370   0.469   8.794  1.0584  1.2838 -1.3144
 5324SOL    HW217414   1.481   0.379   8.843 -1.1827 -0.8236  0.1387
 5325SOL     OW17415   0.618   7.675   8.196 -0.7795  1.0632  0.4008
 5325SOL    HW117416   0.592   7.713   8.281 -0.5056  2.0192  0.0721
 5325SOL    HW217417   0.561   7.717   8.132 -0.3132  1.0958 -0.0022
 5326SOL     OW17418   2.606   0.814   9.766 -0.3553  0.7221 -0.2328
 5326SOL    HW117419   2.529   0.790   9.715 -0.6545  0.0446  0.5211
 5326SOL    HW217420   2.573   0.873   9.833 -0.2580  0.2872  0.2052
 5327SOL     OW17421   1.850   7.947   8.385  0.5790 -0.1587  0.2501
 5327SOL    HW117422   1.907   7.887   8.433  0.9217 -0.1664 -0.1599
 5327SOL    HW217423   1.889   8.033   8.401 -1.1415  0.2879  2.6538
 5328SOL     OW17424   2.652   7.290   7.688  0.0932  0.0121  0.1659
 5328SOL    HW117425   2.599   7.366   7.664  1.5854  0.6379 -1.3267
 5328SOL    HW217426   2.643   7.230   7.614  1.5865  0.2116 -0.2080
 5329SOL     OW17427   4.349   7.497   9.257 -0.1551 -0.1028 -0.4184
 5329SOL    HW117428   4.372   7.410   9.223  0.1744 -0.3646  0.4206
 5329SOL    HW217429   4.280   7.528   9.200 -0.0985 -0.8140 -0.8926
 5330SOL     OW17430   3.390   6.868   7.919  0.3522 -0.2227 -0.3226
 5330SOL    HW117431   3.383   6.773   7.917  2.0388 -0.4100  1.0189
 5330SOL    HW217432   3.472   6.886   7.964 -0.3381  1.8930  0.2185
 5331SOL     OW17433   1.820   7.985   9.857 -0.6663  0.0728  0.1347
 5331SOL    HW117434   1.755   8.005   9.924 -0.1396  0.6318  0.4836
 5331SOL    HW217435   1.891   8.047   9.872  0.0358 -0.6456 -0.1281
 5332SOL     OW17436   2.084   7.824   8.149  0.4466  0.1876 -0.3605
 5332SOL    HW117437   2.097   7.731   8.171  1.5438  0.2181 -0.8209
 5332SOL    HW217438   1.992   7.830   8.125  0.4850 -0.9017 -0.8329
 5333SOL     OW17439   1.125   0.279  10.047 -0.0926  0.0626 -0.0456
 5333SOL    HW117440   1.173   0.196  10.040  0.5483  0.4083  0.0906
 5333SOL    HW217441   1.046   0.266   9.995  0.1565 -0.5250 -0.2886
 5334SOL     OW17442   2.037   6.947   8.188  0.1291  0.2029 -0.4073
 5334SOL    HW117443   2.014   6.905   8.105 -0.0203 -2.7520  0.9983
 5334SOL    HW217444   1.962   6.932   8.245  1.3737 -0.5278  1.1362
 5335SOL     OW17445   0.437   6.264   8.728  0.6512  0.2931  0.4139
 5335SOL    HW117446   0.531   6.277   8.713  1.1169 -1.0387  1.9080
 5335SOL    HW217447   0.399   6.257   8.641  2.1129 -0.1885 -0.2111
 5336SOL     OW17448   3.026   4.191   7.286 -0.1266  0.1953 -0.6851
 5336SOL    HW117449   2.993   4.212   7.373 -0.8173 -0.0628 -0.8731
 5336SOL    HW217450   3.112   4.232   7.282 -0.5035  1.0688 -0.2345
 5337SOL     OW17451   0.847   6.565   9.782  0.0925 -0.2825  0.4914
 5337SOL    HW117452   0.821   6.530   9.697  0.3957 -0.2597  0.3889
 5337SOL    HW217453   0.867   6.488   9.835 -2.5219 -0.4609  1.3617
 5338SOL     OW17454   4.732   6.515   7.935 -0.2657 -0.7846  0.4973
 5338SOL    HW117455   4.757   6.556   7.852 -2.0961 -1.6107 -0.5202
 5338SOL    HW217456   4.639   6.496   7.925 -1.3105  1.6235  3.8252
 5339SOL     OW17457   0.371   6.605   7.535  0.6328  0.0354 -0.0285
 5339SOL    HW117458   0.347   6.645   7.452  0.0067 -0.0367  0.1158
 5339SOL    HW217459   0.427   6.531   7.511  0.7446  0.2270 -0.3623
 5340SOL     OW17460   7.519   5.012   8.594 -0.1210 -0.5301 -0.3767
 5340SOL    HW117461   7.556   5.033   8.508 -0.6509  0.8023 -0.3008
 5340SOL    HW217462   7.585   4.955   8.635  0.5182 -0.5051 -1.3284
 5341SOL     OW17463   0.592   6.212   9.458 -0.6005 -0.4793 -0.0804
 5341SOL    HW117464   0.638   6.246   9.534 -2.3121  1.1983  0.2725
 5341SOL    HW217465   0.646   6.239   9.383 -1.5467  2.6367  0.2261
 5342SOL     OW17466   1.930   6.682   7.092 -0.2312 -0.0673  0.3269
 5342SOL    HW117467   1.919   6.605   7.148 -2.6968  0.0770  0.1662
 5342SOL    HW217468   1.969   6.648   7.011 -0.4685 -0.9913  0.5945
 5343SOL     OW17469   1.898   6.082   7.377  1.0112  0.1037 -0.1727
 5343SOL    HW117470   1.837   6.143   7.419  1.3501 -0.0890  0.6166
 5343SOL    HW217471   1.843   6.031   7.317  0.0728 -1.0511  1.5686
 5344SOL     OW17472   1.802   6.313   7.117 -0.3225  0.1662  0.1670
 5344SOL    HW117473   1.898   6.315   7.116 -0.2773  1.6917 -3.1627
 5344SOL    HW217474   1.777   6.391   7.167  0.1654  0.3823  0.0755
 5345SOL     OW17475   2.068   5.954   6.328  0.0403 -0.0141  0.0682
 5345SOL    HW117476   2.082   5.876   6.381 -1.2796  1.1591  2.3069
 5345SOL    HW217477   2.139   6.014   6.352  0.3718 -0.0626 -0.7471
 5346SOL     OW17478   1.526   0.237   8.745 -0.3164 -0.1155  0.0404
 5346SOL    HW117479   1.557   0.150   8.769 -0.9575 -0.5637 -0.6999
 5346SOL    HW217480   1.516   0.234   8.650 -0.3015  0.7827  0.0006
 5347SOL     OW17481   2.306   1.289   8.416  0.1857  0.3707  0.5974
 5347SOL    HW117482   2.244   1.289   8.343  0.7420 -0.2607  0.1095
 5347SOL    HW217483   2.322   1.196   8.434  2.3761  0.4806 -0.5047
 5348SOL     OW17484   0.819   6.199   9.275  0.0301  0.2934  0.6506
 5348SOL    HW117485   0.795   6.115   9.314  1.1693 -0.4417 -0.1716
 5348SOL    HW217486   0.906   6.185   9.239 -0.1915  1.5149 -0.4378
 5349SOL     OW17487   1.734   7.004   7.455  0.3018  0.5376  0.2022
 5349SOL    HW117488   1.688   7.059   7.391  0.9613 -0.1744 -0.9276
 5349SOL    HW217489   1.775   7.066   7.515  0.0613  1.2450 -0.3473
 5350SOL     OW17490   7.498   7.275   9.095 -0.2041 -0.2885  0.0069
 5350SOL    HW117491   7.511   7.354   9.043  1.3246 -0.8868 -0.5808
 5350SOL    HW217492   7.488   7.307   9.185 -1.8495  0.6841 -0.4761
 5351SOL     OW17493   0.670   6.812   9.429 -0.0279 -0.1176  0.1744
 5351SOL    HW117494   0.635   6.733   9.469 -2.6293  1.3694  1.0458
 5351SOL    HW217495   0.628   6.815   9.343 -1.2113  1.0797  0.7656
 5352SOL     OW17496   3.931   5.941   7.133 -0.6165  1.3484 -0.2550
 5352SOL    HW117497   3.870   5.997   7.086 -0.8496  2.3594  1.1802
 5352SOL    HW217498   3.887   5.921   7.216 -0.4990 -0.9181 -0.6864
 5353SOL     OW17499   7.909   6.928   9.030 -0.6498  0.2501  0.0102
 5353SOL    HW117500   7.851   6.928   8.954 -1.4702  0.4525  0.6222
 5353SOL    HW217501   7.867   6.986   9.092 -0.7194 -0.9771  1.1661
 5354SOL     OW17502   1.228   6.355   9.617 -0.0925  0.3859  0.5710
 5354SOL    HW117503   1.148   6.340   9.566 -0.0861  1.8221  0.0942
 5354SOL    HW217504   1.297   6.361   9.551  0.2274  0.3390  0.9031
 5355SOL     OW17505   2.746   5.696   8.554 -0.4806  0.3709  0.8097
 5355SOL    HW117506   2.739   5.664   8.644 -0.9260  1.1967  1.0765
 5355SOL    HW217507   2.837   5.678   8.529 -0.6189 -0.7517  1.0703
 5356SOL     OW17508   4.373   7.046   7.638 -0.0116 -0.2222 -0.4698
 5356SOL    HW117509   4.398   6.954   7.647  0.8052  0.1135  1.0670
 5356SOL    HW217510   4.280   7.043   7.614 -0.6947 -1.4637  1.9685
 5357SOL     OW17511   7.375   6.777   9.110  0.0645 -0.7591  0.3440
 5357SOL    HW117512   7.422   6.754   9.190  0.4844 -0.2496  0.2446
 5357SOL    HW217513   7.366   6.872   9.113  0.8513 -0.6359 -0.6245
 5358SOL     OW17514   2.425   6.353   6.806  0.8290 -0.1562 -0.1063
 5358SOL    HW117515   2.414   6.435   6.758  2.9330 -0.1421 -0.6529
 5358SOL    HW217516   2.392   6.286   6.747  1.4007  0.0757 -0.7021
 5359SOL     OW17517   0.844   7.909   7.829  0.2762 -0.0689 -0.3294
 5359SOL    HW117518   0.935   7.883   7.815  0.2826  1.0967 -3.1267
 5359SOL    HW217519   0.848   8.001   7.855 -0.1020 -0.1152 -0.0873
 5360SOL     OW17520   1.589   0.052   7.749 -0.1803  0.5740 -0.6197
 5360SOL    HW117521   1.577  -0.016   7.682  0.8155 -0.1891 -0.0670
 5360SOL    HW217522   1.679   0.082   7.736 -0.2768  1.0583 -0.1983
 5361SOL     OW17523   0.485   7.152   8.944 -0.2052 -0.6272  0.1945
 5361SOL    HW117524   0.394   7.165   8.968 -0.2607 -1.2327  0.3309
 5361SOL    HW217525   0.483   7.087   8.874  0.1167 -0.6811  0.2284
 5362SOL     OW17526   1.534   5.873   5.386 -0.0441  0.5392 -0.1157
 5362SOL    HW117527   1.452   5.840   5.349 -0.9555  2.1187  0.4019
 5362SOL    HW217528   1.548   5.820   5.464  0.4197 -0.9495 -1.1601
 5363SOL     OW17529   0.984   7.763   7.430 -0.0355  0.0294  0.4033
 5363SOL    HW117530   1.013   7.850   7.456  0.0689 -0.5456  2.4026
 5363SOL    HW217531   0.889   7.767   7.437  0.0102 -0.2230  1.2833
 5364SOL     OW17532   2.632   6.242   8.476 -0.5985 -0.1358 -0.1081
 5364SOL    HW117533   2.666   6.235   8.387  0.2151 -0.2722  0.2024
 5364SOL    HW217534   2.548   6.286   8.466 -0.2191  0.4540 -0.8804
 5365SOL     OW17535   0.322   5.457   6.891  0.2445 -0.0342  0.5281
 5365SOL    HW117536   0.276   5.380   6.857 -0.9831  1.0866 -0.4738
 5365SOL    HW217537   0.371   5.424   6.966 -0.9014 -1.6211  0.6412
 5366SOL     OW17538   2.685   0.205   7.785  0.1300  0.3417 -0.5438
 5366SOL    HW117539   2.733   0.149   7.725  0.6773 -0.2468  0.4196
 5366SOL    HW217540   2.631   0.145   7.836 -1.6761  0.9832 -1.6045
 5367SOL     OW17541   2.473   6.320   8.774  0.5586  0.0730  0.0050
 5367SOL    HW117542   2.478   6.261   8.698 -0.3556 -0.7420  0.5481
 5367SOL    HW217543   2.519   6.399   8.746  2.1869 -1.0448 -0.5961
 5368SOL     OW17544   2.324   4.534   5.789 -0.3719  0.0725 -0.0034
 5368SOL    HW117545   2.410   4.524   5.831 -0.0428 -1.9728 -1.0157
 5368SOL    HW217546   2.342   4.583   5.709 -0.0939 -0.5250 -0.3146
 5369SOL     OW17547   1.813   4.925   8.424 -0.3119 -0.1838  0.1420
 5369SOL    HW117548   1.787   4.851   8.370 -1.1013 -1.6614  2.4355
 5369SOL    HW217549   1.736   4.982   8.425 -0.8715 -0.9349  0.9597
 5370SOL     OW17550   1.274   7.666   7.656  0.4491 -0.1740  0.2248
 5370SOL    HW117551   1.278   7.705   7.569 -1.5475 -0.2687  0.0407
 5370SOL    HW217552   1.239   7.578   7.641  0.0861 -0.1895  1.1021
 5371SOL     OW17553   3.219   0.692   9.125 -0.1320 -0.6085 -0.0189
 5371SOL    HW117554   3.215   0.649   9.211  1.4955 -1.2655 -0.2354
 5371SOL    HW217555   3.234   0.784   9.145 -0.5213 -0.6401  0.4195
 5372SOL     OW17556   3.721   4.122   7.249 -0.6070  0.3745  0.3208
 5372SOL    HW117557   3.807   4.162   7.237 -0.4276  0.2420  1.1153
 5372SOL    HW217558   3.668   4.157   7.177 -0.0415  0.8800  0.1426
 5373SOL     OW17559   1.311   6.312   8.380 -0.1480 -0.4137 -0.2796
 5373SOL    HW117560   1.357   6.233   8.409  0.5356 -0.4329 -1.3391
 5373SOL    HW217561   1.269   6.286   8.298 -1.0374 -0.0438  0.0492
 5374SOL     OW17562   0.232   6.183   7.824 -0.2994  0.7714  0.2666
 5374SOL    HW117563   0.269   6.166   7.738 -1.5951 -0.9026 -0.0016
 5374SOL    HW217564   0.287   6.253   7.860  1.5556  0.0765 -1.0615
 5375SOL     OW17565   0.103   7.689   5.535 -0.3322  0.3458 -0.5072
 5375SOL    HW117566   0.164   7.712   5.465 -1.4397  1.2836 -1.1871
 5375SOL    HW217567   0.035   7.637   5.492  0.3818 -1.4310  0.3964
 5376SOL     OW17568   7.312   7.908   5.197 -0.2340  0.4248 -0.2490
 5376SOL    HW117569   7.344   7.986   5.153 -0.4305  0.3389 -0.5495
 5376SOL    HW217570   7.351   7.911   5.285 -0.4528  0.9916 -0.1698
 5377SOL     OW17571   7.212   6.909  10.298 -0.0389  0.2313  0.5626
 5377SOL    HW117572   7.213   7.005  10.289  1.2620  0.2584  0.8780
 5377SOL    HW217573   7.191   6.877  10.210 -2.7185  0.8252  0.8931
 5378SOL     OW17574   7.319   5.363   9.752 -1.3065  0.2042 -0.0373
 5378SOL    HW117575   7.402   5.323   9.780 -0.9952  0.9188  0.0680
 5378SOL    HW217576   7.309   5.335   9.661 -1.5155 -0.8006  0.2722
 5379SOL     OW17577   2.006   5.669   9.734  0.1413 -0.2119  0.2392
 5379SOL    HW117578   2.027   5.691   9.825 -0.0243  0.2888  0.1556
 5379SOL    HW217579   1.912   5.686   9.725 -0.1928 -1.8209  0.4225
 5380SOL     OW17580   0.977   6.506  11.894 -0.2030 -0.7110  0.3379
 5380SOL    HW117581   0.885   6.484  11.904 -0.6706  1.3332  0.9841
 5380SOL    HW217582   0.978   6.590  11.849  1.3566 -0.7136  0.2821
 5381SOL     OW17583   0.949   7.405  10.589  0.0287 -0.0603  0.6259
 5381SOL    HW117584   0.925   7.340  10.655 -1.3594  0.3074  0.5190
 5381SOL    HW217585   0.965   7.486  10.639 -0.6727  0.1295  0.5458
 5382SOL     OW17586   0.831   5.528   9.245 -0.7030  0.3966 -0.0702
 5382SOL    HW117587   0.773   5.451   9.246  0.8727 -0.8544  0.2008
 5382SOL    HW217588   0.828   5.558   9.154 -1.6647  0.2899 -0.0874
 5383SOL     OW17589   3.139   0.032   9.780  0.4653  0.6582 -0.1530
 5383SOL    HW117590   3.160   0.026   9.873 -1.2668  0.8500  0.2889
 5383SOL    HW217591   3.159   0.123   9.757  0.8408  0.6253  0.0313
 5384SOL     OW17592   0.612   0.369  11.374  0.5392 -0.5258 -0.2071
 5384SOL    HW117593   0.540   0.312  11.401  1.4455 -1.7061 -0.2194
 5384SOL    HW217594   0.570   0.453  11.355 -0.6273 -0.7563  1.2031
 5385SOL     OW17595   0.266   6.299   9.709  0.0738 -0.0451  0.7761
 5385SOL    HW117596   0.285   6.208   9.732 -0.3096 -0.1076  0.8511
 5385SOL    HW217597   0.229   6.293   9.621  4.5134  0.4441 -1.4175
 5386SOL     OW17598   0.230   6.974  10.203  0.3869  0.0331 -0.0647
 5386SOL    HW117599   0.278   7.042  10.249 -1.3966  0.6282  1.0461
 5386SOL    HW217600   0.219   6.905  10.268 -0.4770  0.0396 -0.1890
 5387SOL     OW17601   0.306   7.694   0.117  0.1913  0.1640  0.6929
 5387SOL    HW117602   0.399   7.690   0.096  0.0091  0.4618 -0.1772
 5387SOL    HW217603   0.297   7.641   0.196  1.0098 -0.2999  0.4759
 5388SOL     OW17604   0.194   7.455   9.546 -0.8153 -0.7741  0.1672
 5388SOL    HW117605   0.236   7.369   9.536  0.4467 -0.2816  0.9622
 5388SOL    HW217606   0.200   7.495   9.459  1.1806 -0.3905  0.4333
 5389SOL     OW17607   4.340   7.961   9.407  0.5931 -0.0648 -0.0543
 5389SOL    HW117608   4.419   8.013   9.422  0.2743  0.2054  0.7240
 5389SOL    HW217609   4.297   8.004   9.334  0.2515  0.8728  0.6875
 5390SOL     OW17610   0.510   5.737  10.167 -0.4651  0.0868 -0.4264
 5390SOL    HW117611   0.507   5.749  10.072 -0.4372 -0.1743 -0.4636
 5390SOL    HW217612   0.596   5.771  10.192  0.6497 -2.1678 -0.8644
 5391SOL     OW17613   0.528   6.419   9.693  0.0867  0.0101  0.2229
 5391SOL    HW117614   0.441   6.388   9.719  0.7206 -2.5266 -0.4254
 5391SOL    HW217615   0.584   6.401   9.769  0.2025  1.0161  0.3920
 5392SOL     OW17616   0.857   6.636  10.781 -0.1965  0.6553  0.2357
 5392SOL    HW117617   0.931   6.630  10.720  0.2262 -1.7509  0.8878
 5392SOL    HW217618   0.780   6.642  10.724  0.1812 -1.6226 -0.6058
 5393SOL     OW17619   1.110   5.432  11.976 -0.5137  0.6442  0.3145
 5393SOL    HW117620   1.112   5.358  12.036 -1.2730 -0.3648 -0.8531
 5393SOL    HW217621   1.017   5.453  11.968 -0.3770  1.0897 -0.1154
 5394SOL     OW17622   0.750   1.137  10.656 -0.1628 -0.2162  0.0724
 5394SOL    HW117623   0.826   1.144  10.714  0.2707 -0.6766 -0.4276
 5394SOL    HW217624   0.783   1.161  10.569 -0.6662 -0.1063 -0.0921
 5395SOL     OW17625   7.903   0.616  11.588 -0.1816  0.2518 -0.3781
 5395SOL    HW117626   7.829   0.676  11.581 -1.1365 -0.8053  0.3489
 5395SOL    HW217627   7.962   0.643  11.517 -2.3770 -0.4165 -2.6064
 5396SOL     OW17628   7.908   1.463  11.012 -0.0344 -0.3365  0.5530
 5396SOL    HW117629   7.833   1.522  11.015  0.2258  0.0972 -0.8258
 5396SOL    HW217630   7.883   1.396  10.948  0.5587 -0.4711  0.4582
 5397SOL     OW17631   1.660   6.028  10.419  0.2417  0.4903 -0.3119
 5397SOL    HW117632   1.709   5.978  10.484 -0.0830 -1.3520 -1.4115
 5397SOL    HW217633   1.710   6.018  10.338 -0.6901  0.5961 -0.9145
 5398SOL     OW17634   1.198   5.471  10.555  0.5451 -0.2982 -0.0976
 5398SOL    HW117635   1.225   5.536  10.619  1.2271  0.6698 -1.3119
 5398SOL    HW217636   1.184   5.521  10.474 -4.0331 -0.8086  0.1059
 5399SOL     OW17637   0.194   6.620   9.548  0.2196  0.1600 -0.0063
 5399SOL    HW117638   0.145   6.689   9.593  1.7413  1.2842  0.0279
 5399SOL    HW217639   0.251   6.667   9.487  3.0554 -0.8266  1.6979
 5400SOL     OW17640   4.197   5.975  10.034  0.4360  0.2805  0.5557
 5400SOL    HW117641   4.239   6.046   9.986 -0.2141 -0.3632 -1.0291
 5400SOL    HW217642   4.143   6.020  10.100 -1.5322  1.4439 -1.6797
 5401SOL     OW17643   7.957   7.234   8.742 -0.1174  0.2309 -0.3494
 5401SOL    HW117644   7.927   7.252   8.831  0.3113  1.2235 -0.3907
 5401SOL    HW217645   7.890   7.273   8.685 -1.7782 -2.6559 -0.5462
 5402SOL     OW17646   1.467   7.448   9.304  0.0608  0.3125  0.2981
 5402SOL    HW117647   1.443   7.417   9.217  3.1512 -2.6424  0.2999
 5402SOL    HW217648   1.525   7.523   9.288  0.7156 -0.2930 -0.2492
 5403SOL     OW17649   1.255   6.680  10.673  0.0531 -0.5368  0.1517
 5403SOL    HW117650   1.344   6.670  10.641 -0.7655 -1.5864 -1.9382
 5403SOL    HW217651   1.247   6.615  10.743  1.1903  0.2724  1.0904
 5404SOL     OW17652   7.553   4.490   1.410  0.5042  0.7333 -0.1999
 5404SOL    HW117653   7.513   4.554   1.351 -0.3735  0.3486 -0.0280
 5404SOL    HW217654   7.550   4.532   1.496  0.1828  0.5797 -0.1348
 5405SOL     OW17655   0.488   7.640   8.722 -0.2306 -0.1258 -0.3601
 5405SOL    HW117656   0.569   7.589   8.718  0.4188  0.5388  2.3918
 5405SOL    HW217657   0.426   7.583   8.769 -1.3458 -0.5137 -2.1886
 5406SOL     OW17658   2.642   7.602  10.368 -0.2229 -0.1960  0.2545
 5406SOL    HW117659   2.650   7.636  10.279  0.7606  1.1325  0.8201
 5406SOL    HW217660   2.687   7.518  10.365  0.4641  0.1801 -0.3397
 5407SOL     OW17661   1.190   6.367  11.106 -0.0897 -0.0724 -0.4414
 5407SOL    HW117662   1.176   6.459  11.129 -1.8787 -0.4865  0.3335
 5407SOL    HW217663   1.105   6.325  11.121  1.0043 -2.1306  0.5481
 5408SOL     OW17664   6.785   6.823  10.198  0.1959 -0.1072 -0.2182
 5408SOL    HW117665   6.744   6.742  10.166  1.0149 -1.1520  1.2411
 5408SOL    HW217666   6.859   6.792  10.250  0.5800  1.6149  0.2941
 5409SOL     OW17667   2.993   7.833   8.391 -0.4614 -0.1557  0.3795
 5409SOL    HW117668   3.026   7.856   8.304 -2.3365  0.4815 -0.2151
 5409SOL    HW217669   3.070   7.799   8.437  0.8648  0.6811 -1.0879
 5410SOL     OW17670   2.391   7.852   9.345 -0.0399 -0.2542 -0.0292
 5410SOL    HW117671   2.341   7.808   9.415  0.1001  0.5636  0.6002
 5410SOL    HW217672   2.330   7.915   9.308  0.2916  0.2224  0.2319
 5411SOL     OW17673   1.257   6.468  10.867  0.4382 -0.1339 -0.0823
 5411SOL    HW117674   1.265   6.441  10.958  0.1159  0.8617  0.2559
 5411SOL    HW217675   1.187   6.413  10.831 -0.1707  0.2041  0.5692
 5412SOL     OW17676   1.593   6.808  10.696 -0.5764  0.1921 -0.6207
 5412SOL    HW117677   1.662   6.846  10.641  0.0312  1.8953  1.2008
 5412SOL    HW217678   1.544   6.884  10.728 -0.1958 -0.5934  2.0663
 5413SOL     OW17679   3.711   0.601   9.126 -0.1403  0.2874  0.1634
 5413SOL    HW117680   3.757   0.557   9.055  0.3560 -0.6569  1.0366
 5413SOL    HW217681   3.780   0.650   9.172 -0.7249  2.2547 -0.9521
 5414SOL     OW17682   1.514   5.150   9.226 -0.0862 -0.2248 -0.1294
 5414SOL    HW117683   1.519   5.212   9.154  1.1557 -1.2393 -0.9459
 5414SOL    HW217684   1.539   5.201   9.303 -0.3155  0.5854 -0.5828
 5415SOL     OW17685   7.895   7.187   9.613  0.5178  0.4049  0.1417
 5415SOL    HW117686   7.873   7.229   9.530  2.1524  1.0953  0.0142
 5415SOL    HW217687   7.859   7.245   9.680 -0.9343 -0.2294 -0.0655
 5416SOL     OW17688   1.090   7.947  10.200  0.1823 -0.3377  0.5856
 5416SOL    HW117689   1.079   7.852  10.203 -1.3735 -0.1674  0.8609
 5416SOL    HW217690   1.016   7.982  10.249  0.0462  1.0512 -0.5221
 5417SOL     OW17691   1.893   7.175  10.005 -0.4771  0.2269  0.8581
 5417SOL    HW117692   1.916   7.265   9.981  2.5027 -1.0935 -2.1202
 5417SOL    HW217693   1.844   7.142   9.930 -0.9102 -0.8665  1.5971
 5418SOL     OW17694   2.964   6.425  11.186  0.4432 -0.0619  0.2809
 5418SOL    HW117695   2.975   6.336  11.153 -1.5612 -0.6653  1.0442
 5418SOL    HW217696   2.983   6.481  11.111 -0.1020 -1.2217 -0.7653
 5419SOL     OW17697   1.083   7.828  12.306  0.2078 -0.3595 -0.2561
 5419SOL    HW117698   1.124   7.755  12.258 -0.8423 -2.0763  1.3355
 5419SOL    HW217699   1.058   7.791  12.390 -0.8212  1.7464  0.4460
 5420SOL     OW17700   2.613   6.836   9.516  0.1248 -0.6469 -0.5575
 5420SOL    HW117701   2.689   6.781   9.536  0.2771  0.2317  1.5103
 5420SOL    HW217702   2.627   6.863   9.425  2.7365  0.1179 -0.0357
 5421SOL     OW17703   0.867   7.244   8.902 -0.1479  0.1390  0.0418
 5421SOL    HW117704   0.855   7.263   8.809 -0.8374 -0.1725  0.0631
 5421SOL    HW217705   0.865   7.149   8.907 -0.6093  0.1704  0.4447
 5422SOL     OW17706   7.169   6.253   9.898 -0.9349  0.2481  0.5258
 5422SOL    HW117707   7.130   6.340   9.900 -0.8637  0.3248 -0.6138
 5422SOL    HW217708   7.107   6.198   9.946 -1.8211  0.6247 -0.1393
 5423SOL     OW17709   7.352   6.776  11.375 -0.3625 -0.8254  0.4197
 5423SOL    HW117710   7.384   6.852  11.423 -4.3570 -0.3242  2.6983
 5423SOL    HW217711   7.400   6.702  11.411 -1.8008 -0.2018  3.9762
 5424SOL     OW17712   0.557   0.245   8.502 -0.2210 -0.3680  0.0449
 5424SOL    HW117713   0.541   0.329   8.546  0.8337  0.6507 -1.4022
 5424SOL    HW217714   0.479   0.193   8.519 -0.7129  0.7515  1.3529
 5425SOL     OW17715   2.487   6.129  11.355  0.4103 -0.4117 -0.5307
 5425SOL    HW117716   2.472   6.196  11.288 -0.4576 -0.9053 -0.8508
 5425SOL    HW217717   2.524   6.055  11.306 -0.2909 -0.7977 -0.4897
 5426SOL     OW17718   0.700   0.702  10.120 -0.0164  0.5379  0.8867
 5426SOL    HW117719   0.664   0.789  10.133 -2.5516 -0.3773  0.5821
 5426SOL    HW217720   0.720   0.671  10.208 -1.9052  0.3666  1.2970
 5427SOL     OW17721   1.626   3.773   8.083  0.2326 -0.1870 -0.3278
 5427SOL    HW117722   1.669   3.856   8.066 -0.7602  0.2752 -0.6937
 5427SOL    HW217723   1.657   3.715   8.013  0.6539 -0.0249 -0.2776
 5428SOL     OW17724   1.927   0.433  10.547  0.2981  0.0861 -0.2771
 5428SOL    HW117725   1.959   0.344  10.534  0.2195 -0.2846  1.7111
 5428SOL    HW217726   1.833   0.428  10.532  0.4944  0.1824 -1.6350
 5429SOL     OW17727   0.277   7.860  10.532 -0.1247 -0.2685  0.1389
 5429SOL    HW117728   0.369   7.836  10.542 -0.7149 -2.9142  0.1112
 5429SOL    HW217729   0.271   7.896  10.443  0.9966  0.7692  0.4614
 5430SOL     OW17730   4.636   5.543  11.406 -0.0343  0.1184  0.7296
 5430SOL    HW117731   4.563   5.506  11.357  1.0471  0.3571 -1.1194
 5430SOL    HW217732   4.709   5.545  11.345  1.1047  1.3852  2.0390
 5431SOL     OW17733   0.647   5.111  10.408  0.0616  0.3616  0.0834
 5431SOL    HW117734   0.635   5.061  10.327 -0.2971  1.9308 -0.8686
 5431SOL    HW217735   0.559   5.135  10.435  0.2430  0.7910  0.3081
 5432SOL     OW17736   7.834   1.660  10.448 -0.3979 -0.1185  0.2825
 5432SOL    HW117737   7.838   1.753  10.424 -1.6370 -0.0621  0.2297
 5432SOL    HW217738   7.922   1.627  10.430 -0.0530  0.9505 -0.0870
 5433SOL     OW17739   2.230   6.831  10.202  0.1502 -0.1423  0.3420
 5433SOL    HW117740   2.220   6.906  10.144 -0.1205 -0.3473  0.1241
 5433SOL    HW217741   2.153   6.778  10.186 -0.2813  0.1495  1.4082
 5434SOL     OW17742   7.436   6.981  11.117 -0.0058  0.1393  0.1573
 5434SOL    HW117743   7.454   6.911  11.180 -0.9907  1.1550  1.6492
 5434SOL    HW217744   7.516   7.035  11.117  0.5458 -0.6594 -0.5867
 5435SOL     OW17745   2.239   0.800  10.217 -0.5409  0.1032  0.2509
 5435SOL    HW117746   2.183   0.756  10.281 -2.3296  1.0583 -0.5617
 5435SOL    HW217747   2.328   0.779  10.244 -1.2072  0.4455  3.0455
 5436SOL     OW17748   0.441   5.272  10.776  0.4045  0.1785  0.2843
 5436SOL    HW117749   0.518   5.322  10.749  1.3896 -1.5930 -0.3114
 5436SOL    HW217750   0.437   5.198  10.716 -2.3583  0.6958 -0.3398
 5437SOL     OW17751   1.437   0.069   9.427 -0.1719  0.0958 -0.2801
 5437SOL    HW117752   1.480  -0.014   9.446  0.6627  0.1267 -1.8508
 5437SOL    HW217753   1.350   0.061   9.468  0.2436 -1.1465  0.4144
 5438SOL     OW17754   0.026   6.948   8.569 -0.1203  0.3486  0.2563
 5438SOL    HW117755   0.044   6.950   8.663 -2.4427  0.2739  0.7701
 5438SOL    HW217756  -0.051   7.004   8.558 -1.6370 -1.8166 -1.1162
 5439SOL     OW17757   1.277   5.860   8.893  0.3749 -0.0883  0.1437
 5439SOL    HW117758   1.321   5.806   8.828  0.5299 -0.4581  0.5548
 5439SOL    HW217759   1.347   5.911   8.933  0.4433 -0.6926  0.8139
 5440SOL     OW17760   0.808   1.121  10.980 -0.3307 -0.1736  0.5485
 5440SOL    HW117761   0.813   1.030  11.009  1.8194  0.1635  1.4437
 5440SOL    HW217762   0.878   1.130  10.916 -1.8922  0.3667 -1.1813
 5441SOL     OW17763   6.988   0.286  10.689  0.2778 -0.3579  0.1514
 5441SOL    HW117764   6.974   0.339  10.611  0.0037  0.0176  0.4536
 5441SOL    HW217765   7.075   0.311  10.720  0.6516 -0.9502 -0.3656
 5442SOL     OW17766   1.754   5.751   7.657 -0.2587 -0.2956 -0.2159
 5442SOL    HW117767   1.812   5.826   7.659 -0.2178 -0.3052 -0.8275
 5442SOL    HW217768   1.812   5.675   7.651 -0.2388 -0.4888  1.7581
 5443SOL     OW17769   2.293   4.993  10.777  0.0283  0.0193  0.3188
 5443SOL    HW117770   2.372   4.943  10.794  0.7191  0.6279 -0.9685
 5443SOL    HW217771   2.222   4.940  10.814  0.7596 -1.7407 -0.7013
 5444SOL     OW17772   1.258   6.907   9.596  0.1854 -0.4398 -0.0622
 5444SOL    HW117773   1.320   6.838   9.570  0.8549 -0.7999  2.2629
 5444SOL    HW217774   1.180   6.859   9.625 -0.3194 -0.0885 -0.8223
 5445SOL     OW17775   0.391   7.449  10.813 -0.6643 -0.1672  0.3274
 5445SOL    HW117776   0.479   7.484  10.827 -0.1739 -1.6120  0.9882
 5445SOL    HW217777   0.404   7.369  10.762 -1.5533 -0.5844  0.7226
 5446SOL     OW17778   0.921   7.485   9.951 -0.6895  0.2058 -0.1019
 5446SOL    HW117779   0.848   7.501  10.011  0.3404  0.4168  1.1312
 5446SOL    HW217780   0.969   7.413   9.991 -0.0881  0.2131 -0.7958
 5447SOL     OW17781   2.090   7.075  11.145  0.1222 -0.3833  0.0486
 5447SOL    HW117782   2.173   7.028  11.135  0.7019  0.1427  1.9336
 5447SOL    HW217783   2.046   7.030  11.217 -0.6240  0.1731 -0.0524
 5448SOL     OW17784   1.677   7.337  11.282 -0.2101 -0.1366  0.2496
 5448SOL    HW117785   1.709   7.298  11.363 -0.1279  0.9480  0.7540
 5448SOL    HW217786   1.754   7.338  11.224 -0.0582 -0.1666  0.4490
 5449SOL     OW17787   7.722   7.448  12.135  0.6601 -0.5176  0.1063
 5449SOL    HW117788   7.670   7.473  12.211  0.6073 -0.7539  0.1484
 5449SOL    HW217789   7.718   7.525  12.078 -1.2269 -1.1405 -0.6939
 5450SOL     OW17790   2.710   6.622  11.710  0.6182  0.7410  0.2771
 5450SOL    HW117791   2.649   6.687  11.676 -2.2829 -1.3876  0.9894
 5450SOL    HW217792   2.713   6.555  11.641  1.8698  0.6146  0.4397
 5451SOL     OW17793   3.378   7.934   8.113 -0.2545 -0.4256  0.0951
 5451SOL    HW117794   3.376   7.940   8.018 -0.5446  0.6447  0.1477
 5451SOL    HW217795   3.422   8.015   8.141 -1.4431 -0.0255  0.9116
 5452SOL     OW17796   2.945   5.111   8.286  0.2919  0.4541 -0.2519
 5452SOL    HW117797   2.932   5.065   8.369 -1.1753 -0.3333 -0.8698
 5452SOL    HW217798   2.986   5.046   8.229  2.8608  1.4911  0.2762
 5453SOL     OW17799   0.979   7.549   9.705  0.0191  0.1004 -0.0965
 5453SOL    HW117800   0.895   7.561   9.662  0.5835 -0.5720 -1.4447
 5453SOL    HW217801   0.957   7.518   9.793 -1.1334 -0.5869 -0.6109
 5454SOL     OW17802   7.986   6.590   8.866  0.2762 -0.3017  0.1670
 5454SOL    HW117803   8.075   6.619   8.885  0.7370 -0.6349 -1.3122
 5454SOL    HW217804   7.996   6.497   8.844 -0.6500 -0.6953  1.2868
 5455SOL     OW17805   0.116   7.836  10.100  0.3648 -0.0861 -0.2519
 5455SOL    HW117806   0.065   7.857  10.022  0.7733 -0.4144 -0.6107
 5455SOL    HW217807   0.058   7.781  10.153  0.0431  0.2398 -0.2674
 5456SOL     OW17808   0.434   6.887  10.542  0.8820  0.2292 -0.2725
 5456SOL    HW117809   0.480   6.921  10.465  1.0716 -0.5772 -0.5244
 5456SOL    HW217810   0.348   6.861  10.509  0.5447  0.9564  0.0264
 5457SOL     OW17811   1.081   7.289  10.400 -0.2324 -0.0607  0.3941
 5457SOL    HW117812   1.120   7.206  10.426 -1.3339 -0.6946  0.0705
 5457SOL    HW217813   1.034   7.319  10.477  1.7957  1.3105  1.1908
 5458SOL     OW17814   7.817   5.680   8.711  0.6763  0.9387 -0.0334
 5458SOL    HW117815   7.881   5.618   8.746  0.4126  0.6789 -0.0089
 5458SOL    HW217816   7.847   5.765   8.741  0.6011  0.7435  0.6009
 5459SOL     OW17817   0.779   5.100  10.644  0.6147 -0.7047 -0.0879
 5459SOL    HW117818   0.751   5.090  10.553  2.1074 -0.9522 -0.5531
 5459SOL    HW217819   0.764   5.192  10.665 -0.5785 -0.8475 -0.2750
 5460SOL     OW17820   1.524   7.683  10.545  0.1392  0.1343  0.4061
 5460SOL    HW117821   1.508   7.766  10.501 -0.1435  0.8419  1.8103
 5460SOL    HW217822   1.477   7.689  10.628 -1.1426 -2.0275 -0.0840
 5461SOL     OW17823   0.637   0.016  10.900  0.4374 -0.0201  0.2193
 5461SOL    HW117824   0.627   0.011  10.995  0.0716  0.2605  0.1968
 5461SOL    HW217825   0.588  -0.059  10.867  1.3440 -0.6654  0.2963
 5462SOL     OW17826   7.824   5.473  11.500  0.5027  0.7974  0.4021
 5462SOL    HW117827   7.878   5.491  11.422  0.9722 -1.0254  0.2769
 5462SOL    HW217828   7.887   5.472  11.572  0.5657 -0.5879  0.3563
 5463SOL     OW17829   0.402   7.391  10.432 -0.2764  0.6367 -0.6947
 5463SOL    HW117830   0.367   7.470  10.391 -0.4733  0.6596 -0.4837
 5463SOL    HW217831   0.496   7.408  10.440 -0.4363  1.2231  0.1591
 5464SOL     OW17832   0.365   7.638  10.324 -0.0510 -0.3313 -0.0195
 5464SOL    HW117833   0.326   7.725  10.334  0.7332 -0.0152  0.3805
 5464SOL    HW217834   0.388   7.632  10.232  0.9145  0.3490  0.1532
 5465SOL     OW17835   1.000   6.650  10.540 -0.0643 -0.2362 -0.2724
 5465SOL    HW117836   1.023   6.642  10.447 -0.5004 -0.3494 -0.3727
 5465SOL    HW217837   1.084   6.657  10.585  0.1633 -0.5820 -0.6365
 5466SOL     OW17838   7.168   7.285   9.728 -0.5873 -0.1324  0.3732
 5466SOL    HW117839   7.147   7.205   9.680 -0.2049  0.5534 -0.9568
 5466SOL    HW217840   7.095   7.296   9.789 -1.0921 -1.0033 -0.0496
 5467SOL     OW17841   3.026   7.345  10.317 -1.0822  0.4325 -0.1532
 5467SOL    HW117842   3.017   7.426  10.367  1.0006  2.0620 -2.2495
 5467SOL    HW217843   3.103   7.302  10.355 -0.4076  0.9313 -0.9236
 5468SOL     OW17844   3.633   6.935   7.503  0.0696 -0.2909 -0.5999
 5468SOL    HW117845   3.546   6.909   7.473 -0.1648  2.1134 -2.3424
 5468SOL    HW217846   3.618   6.979   7.587 -0.2952 -0.4805 -0.5662
 5469SOL     OW17847   0.512   5.433   7.145  0.0090 -0.7235 -0.2031
 5469SOL    HW117848   0.592   5.453   7.098 -0.2261 -1.7768 -1.0729
 5469SOL    HW217849   0.532   5.453   7.237  0.6246  0.8654 -0.6566
 5470SOL     OW17850   1.429   0.109  10.840 -0.1013  0.5625 -0.5667
 5470SOL    HW117851   1.367   0.108  10.767  0.9293  0.9919 -1.4776
 5470SOL    HW217852   1.374   0.117  10.918 -1.1418  2.3115 -1.4155
 5471SOL     OW17853   2.674   7.486  11.080 -0.1768 -0.1339  0.1412
 5471SOL    HW117854   2.602   7.447  11.031  0.8742 -0.5581 -1.1296
 5471SOL    HW217855   2.689   7.426  11.153 -1.6296  0.3998  0.9110
 5472SOL     OW17856   2.927   7.490   8.859 -0.5221  0.1126  0.1462
 5472SOL    HW117857   2.992   7.442   8.911 -1.7679 -0.7714  0.9423
 5472SOL    HW217858   2.864   7.522   8.924 -0.1617  2.1911 -0.4596
 5473SOL     OW17859   2.748   7.340  10.370  0.1120 -0.4105 -0.6222
 5473SOL    HW117860   2.760   7.317  10.462  0.1596 -2.1542 -1.0257
 5473SOL    HW217861   2.837   7.350  10.336  0.1263 -0.7995 -0.7061
 5474SOL     OW17862   1.123   6.221   9.870  0.3305 -0.2218  0.1418
 5474SOL    HW117863   1.196   6.226   9.808 -0.7484  1.0175 -1.1058
 5474SOL    HW217864   1.135   6.138   9.915  1.7900 -0.6298 -0.9352
 5475SOL     OW17865   7.687   4.495  10.540  0.2638 -0.2588  0.7327
 5475SOL    HW117866   7.711   4.404  10.562 -1.3790 -1.2068 -1.1324
 5475SOL    HW217867   7.695   4.542  10.623  2.0091 -1.8926  1.5804
 5476SOL     OW17868   7.065   0.324  10.383  0.0331  0.6141 -0.3613
 5476SOL    HW117869   7.015   0.397  10.347 -0.1987 -0.0713 -1.4578
 5476SOL    HW217870   7.154   0.358  10.393 -0.1257  1.1135 -0.6550
 5477SOL     OW17871   0.418   7.484   9.772 -0.0639  1.2277  0.8645
 5477SOL    HW117872   0.435   7.573   9.743  0.3442 -0.0016 -3.4713
 5477SOL    HW217873   0.335   7.460   9.729  0.1652 -0.6358  1.3573
 5478SOL     OW17874   5.848   6.567  10.127  0.4011  0.3018 -0.2965
 5478SOL    HW117875   5.823   6.537  10.214  0.1294  1.5079  0.0700
 5478SOL    HW217876   5.773   6.621  10.099 -0.1548 -1.2194 -1.8825
 5479SOL     OW17877   1.015   6.920   0.260  0.4176 -0.3925 -0.0562
 5479SOL    HW117878   1.097   6.871   0.264  0.6372 -0.0978 -0.7388
 5479SOL    HW217879   1.017   6.962   0.174 -0.6518 -0.7293 -0.2598
 5480SOL     OW17880   0.898   6.681  11.086 -0.4077 -0.2314 -0.6866
 5480SOL    HW117881   0.823   6.726  11.125 -0.3791 -0.1740 -0.6976
 5480SOL    HW217882   0.887   6.693  10.992  0.3278  0.9352 -0.6511
 5481SOL     OW17883   0.926   7.912   9.693  0.9404  0.4826 -0.5535
 5481SOL    HW117884   0.871   7.862   9.632 -2.0479  0.6476  1.7608
 5481SOL    HW217885   0.913   8.003   9.667  1.2741  0.4386 -0.8795
 5482SOL     OW17886   7.455   5.688  10.882 -0.0961  0.1600  0.5113
 5482SOL    HW117887   7.461   5.781  10.858  0.4866  0.5713  2.1590
 5482SOL    HW217888   7.520   5.645  10.826 -0.3334  0.7262 -0.2273
 5483SOL     OW17889   0.405   7.142  10.328 -0.0418 -0.1380  0.6505
 5483SOL    HW117890   0.456   7.143  10.247 -1.5089  0.3511 -0.3083
 5483SOL    HW217891   0.411   7.231  10.361 -1.0248  0.1746  0.0235
 5484SOL     OW17892   7.348   0.194  12.468  0.4029  0.0975 -0.0435
 5484SOL    HW117893   7.418   0.148  12.422 -0.6311 -1.7390  0.1408
 5484SOL    HW217894   7.282   0.211  12.401  0.0028 -0.3022  0.2431
 5485SOL     OW17895   0.957   5.958   8.965 -0.3316  0.1011 -0.1383
 5485SOL    HW117896   0.875   5.984   8.924 -0.1649 -0.7461 -1.0359
 5485SOL    HW217897   0.944   5.976   9.059 -1.6249 -0.2558 -0.2394
 5486SOL     OW17898   1.168   0.993  11.709  0.3196  0.3958  0.0836
 5486SOL    HW117899   1.242   0.948  11.668 -0.6663 -0.0817 -1.2516
 5486SOL    HW217900   1.096   0.982  11.647 -0.5396  1.9605  0.7446
 5487SOL     OW17901   0.732   0.311  12.053 -0.1481  0.2054  0.3426
 5487SOL    HW117902   0.795   0.322  11.981  0.0117  1.8689  0.6889
 5487SOL    HW217903   0.689   0.228  12.035 -2.0297  1.7218 -3.2014
 5488SOL     OW17904   1.733   6.313  11.005 -0.2883 -0.1685  0.3239
 5488SOL    HW117905   1.638   6.317  10.991 -0.5605 -1.8778  1.3289
 5488SOL    HW217906   1.754   6.220  10.992  1.4641  0.3624 -0.9863
 5489SOL     OW17907   1.474   5.069  10.528  0.3028 -0.1617 -0.2910
 5489SOL    HW117908   1.429   5.055  10.611 -1.1706  0.0713 -1.0026
 5489SOL    HW217909   1.444   5.156  10.499  2.1883  0.5456 -0.2288
 5490SOL     OW17910   6.609   5.823   9.328 -0.1771  0.3045  0.4096
 5490SOL    HW117911   6.596   5.756   9.260  0.0522  1.3625 -0.6977
 5490SOL    HW217912   6.703   5.841   9.326 -0.5231  2.2307 -0.8642
 5491SOL     OW17913   7.883   5.360   9.678  0.5601 -0.0831 -0.0558
 5491SOL    HW117914   7.796   5.375   9.643  1.3641  0.9659 -1.7278
 5491SOL    HW217915   7.902   5.268   9.658  1.0248  0.4916 -2.6071
 5492SOL     OW17916   2.346   6.810   8.589  0.2544 -0.2832 -0.2723
 5492SOL    HW117917   2.282   6.864   8.542  0.6565 -1.5268 -2.4014
 5492SOL    HW217918   2.420   6.869   8.603  0.6164 -0.1385 -2.3836
 5493SOL     OW17919   1.027   6.686   7.644  0.6430  0.2020 -0.4405
 5493SOL    HW117920   0.994   6.692   7.555  3.5154  0.5830 -1.6033
 5493SOL    HW217921   1.040   6.593   7.659  1.0350  0.1923 -0.8114
 5494SOL     OW17922   0.055   7.695  11.194  0.1397  0.4099 -0.3066
 5494SOL    HW117923   0.098   7.615  11.223  1.1353  0.5614 -1.2782
 5494SOL    HW217924  -0.028   7.665  11.156 -1.7015  0.3018  3.4240
 5495SOL     OW17925   6.508   6.523  10.361  0.6205  0.4092 -0.4172
 5495SOL    HW117926   6.442   6.455  10.376  1.3407 -0.4504 -1.0950
 5495SOL    HW217927   6.520   6.562  10.448 -1.4818  1.2790 -0.4399
 5496SOL     OW17928   1.960   6.602  10.367  0.0250 -0.4052 -0.4002
 5496SOL    HW117929   1.891   6.563  10.313  0.5351  0.9194 -2.0970
 5496SOL    HW217930   2.038   6.601  10.311  1.0878 -0.7305  1.0258
 5497SOL     OW17931   3.091   6.780  11.163 -0.3134 -0.1743 -0.1254
 5497SOL    HW117932   3.156   6.849  11.150  0.9755 -1.1237  0.9501
 5497SOL    HW217933   3.020   6.822  11.212  0.1240  0.5672 -0.1166
 5498SOL     OW17934   1.246   6.871  11.710 -0.1638 -0.2404 -0.3480
 5498SOL    HW117935   1.247   6.807  11.639 -1.7220 -0.3092 -0.3461
 5498SOL    HW217936   1.212   6.823  11.786 -2.1928  0.7216 -0.5647
 5499SOL     OW17937   2.001   7.719   9.961 -0.7168  0.1846  0.4002
 5499SOL    HW117938   1.947   7.777   9.907  2.0184  1.0022 -1.6589
 5499SOL    HW217939   2.065   7.777  10.002  0.6505 -1.0814  0.1303
 5500SOL     OW17940   2.171   7.342   9.789  0.3229  0.2197 -0.2540
 5500SOL    HW117941   2.234   7.374   9.853  0.7310 -1.0702  0.0165
 5500SOL    HW217942   2.132   7.422   9.752  0.1171  0.9937  1.5331
 5501SOL     OW17943   1.557   6.584  10.851 -0.2437  0.4586  0.2832
 5501SOL    HW117944   1.530   6.548  10.766 -0.1707 -0.7647  0.7630
 5501SOL    HW217945   1.579   6.675  10.832 -1.1900  0.4896 -0.8209
 5502SOL     OW17946   0.681   6.941  11.734  0.5776  0.7977 -0.6455
 5502SOL    HW117947   0.588   6.961  11.724  0.4401  0.4999 -0.0102
 5502SOL    HW217948   0.683   6.855  11.776  1.1451  0.5513 -1.1663
 5503SOL     OW17949   4.946   4.694  11.877 -0.4288  0.4183  0.2993
 5503SOL    HW117950   5.029   4.663  11.841 -0.3205 -0.6503  1.4082
 5503SOL    HW217951   4.879   4.662  11.816 -0.0470  1.3422 -0.6321
 5504SOL     OW17952   0.999   6.212   8.398  0.0288  0.2166 -0.4308
 5504SOL    HW117953   0.938   6.258   8.339 -1.7371 -1.6316 -0.1810
 5504SOL    HW217954   1.034   6.141   8.345 -0.0376 -0.2786  0.1810
 5505SOL     OW17955   1.431   6.696   8.588 -0.1980 -0.4746 -0.5197
 5505SOL    HW117956   1.489   6.648   8.529  0.6734  0.3065 -0.3371
 5505SOL    HW217957   1.415   6.779   8.544  3.3686  1.6702  1.7300
 5506SOL     OW17958   1.658   0.854  10.838 -0.3367 -0.0613 -0.2783
 5506SOL    HW117959   1.591   0.844  10.771 -2.0823 -1.3747  1.5586
 5506SOL    HW217960   1.741   0.839  10.791 -1.1603  2.1916 -2.7248
 5507SOL     OW17961   1.415   0.540  12.391  0.3050  0.6221 -0.1414
 5507SOL    HW117962   1.370   0.598  12.329  0.2574  1.0916  0.3297
 5507SOL    HW217963   1.504   0.534  12.357  0.1487  0.4716 -0.5357
 5508SOL     OW17964   2.312   0.013  10.247 -0.0236  0.4794 -0.0743
 5508SOL    HW117965   2.279  -0.022  10.330  1.7497 -0.4440  0.2771
 5508SOL    HW217966   2.340   0.102  10.268  1.5696 -0.1671  0.6549
 5509SOL     OW17967   0.107   4.847  10.268 -0.4656 -0.5961 -0.2621
 5509SOL    HW117968   0.100   4.844  10.364 -0.6809 -1.6643 -0.3043
 5509SOL    HW217969   0.065   4.767  10.238  1.8927 -1.6055 -1.1232
 5510SOL     OW17970   1.389   7.317  10.899 -0.4755  0.1534 -0.0101
 5510SOL    HW117971   1.391   7.330  10.805 -1.7248 -0.7900 -0.1946
 5510SOL    HW217972   1.479   7.331  10.928  0.0336 -0.1191 -1.4187
 5511SOL     OW17973   0.164   7.596  10.727  0.1547 -0.0257 -0.1771
 5511SOL    HW117974   0.215   7.537  10.781 -1.2433 -0.1861  1.0482
 5511SOL    HW217975   0.215   7.607  10.647  1.1707 -1.6438  0.2142
 5512SOL     OW17976   7.808   0.025  10.864  0.4816  0.1053  0.3303
 5512SOL    HW117977   7.830  -0.058  10.821 -2.3902 -0.0084 -1.1680
 5512SOL    HW217978   7.823   0.091  10.797 -0.3632  0.3760  0.3909
 5513SOL     OW17979   1.397   6.173  10.549 -0.1520 -0.2834  0.0988
 5513SOL    HW117980   1.322   6.168  10.608  1.4038 -1.4379  2.1208
 5513SOL    HW217981   1.445   6.091  10.565  0.8642 -0.1677 -2.0812
 5514SOL     OW17982   1.144   6.287  11.753 -0.5624  0.3113 -0.9409
 5514SOL    HW117983   1.080   6.357  11.768 -0.2967  0.0063  2.2679
 5514SOL    HW217984   1.218   6.331  11.711 -2.3033  0.8988 -3.5917
 5515SOL     OW17985   0.798   6.775  10.056  0.1256 -0.3810 -0.7629
 5515SOL    HW117986   0.849   6.816  10.126 -1.5355  1.1677 -0.3961
 5515SOL    HW217987   0.847   6.793   9.977  1.1161 -0.6099 -0.2232
 5516SOL     OW17988   3.295   6.766  11.361  0.1023 -0.1316  0.1407
 5516SOL    HW117989   3.215   6.747  11.311  1.3578 -1.6794 -1.3823
 5516SOL    HW217990   3.292   6.706  11.435  0.0262 -0.4399 -0.1110
 5517SOL     OW17991   0.881   5.630   8.987  0.3963  0.6223 -0.2346
 5517SOL    HW117992   0.962   5.651   9.033  0.6885 -0.5666 -0.1585
 5517SOL    HW217993   0.910   5.606   8.899  0.2199 -0.5159  0.0051
 5518SOL     OW17994   2.159   7.513   8.721 -0.5558 -0.5069 -0.8325
 5518SOL    HW117995   2.068   7.489   8.701 -0.7001  0.6773 -1.7329
 5518SOL    HW217996   2.195   7.541   8.637  0.4476 -0.3444 -0.3573
 5519SOL     OW17997   2.581   7.941  11.980  0.0819 -0.5679  0.0810
 5519SOL    HW117998   2.517   7.900  12.038 -1.9538  1.3565 -0.6540
 5519SOL    HW217999   2.533   7.954  11.898  0.6163  3.0043  0.2043
 5520SOL     OW18000   1.098   5.064   9.688 -0.1046 -0.3595  0.3769
 5520SOL    HW118001   1.098   5.141   9.744 -1.5377 -0.7492  0.9601
 5520SOL    HW218002   1.180   5.020   9.709  0.1077  0.3109  1.0278
 5521SOL     OW18003   3.293   6.165   8.533 -0.2677  0.1916  0.4728
 5521SOL    HW118004   3.275   6.226   8.605 -0.8152 -0.2808  0.7487
 5521SOL    HW218005   3.218   6.106   8.533  0.0190 -0.1792 -0.1093
 5522SOL     OW18006   7.216   4.682   8.364 -0.1837  0.3912 -0.3630
 5522SOL    HW118007   7.248   4.763   8.325  0.2167 -0.6783 -2.3740
 5522SOL    HW218008   7.284   4.617   8.346 -1.1300 -0.7325 -0.0569
 5523SOL     OW18009   0.311   7.373  12.411  0.4220 -0.2135 -0.7455
 5523SOL    HW118010   0.313   7.299  12.351 -0.6523  0.8245 -2.1395
 5523SOL    HW218011   0.271   7.338  12.491 -0.1038 -1.1302 -1.3964
 5524SOL     OW18012   1.643   7.640   9.244 -0.0743 -0.0446  0.3296
 5524SOL    HW118013   1.721   7.637   9.190 -0.1332 -0.3542  0.2561
 5524SOL    HW218014   1.603   7.725   9.225  0.1734  0.0582  0.2693
 5525SOL     OW18015   7.858   7.377   8.982  0.0556 -0.4259 -0.5536
 5525SOL    HW118016   7.939   7.363   9.030  0.5059 -0.8556 -1.4181
 5525SOL    HW218017   7.825   7.461   9.014  0.1740 -0.8423  0.7201
 5526SOL     OW18018   0.610   7.766  11.086  0.0323 -0.2457  0.1882
 5526SOL    HW118019   0.543   7.772  11.153 -0.2008  0.2948 -0.0885
 5526SOL    HW218020   0.562   7.774  11.003  0.3055 -0.9712 -0.0481
 5527SOL     OW18021   1.568   2.570  10.538 -0.1592  0.1101  0.0457
 5527SOL    HW118022   1.633   2.527  10.593  0.2160  0.4109 -0.1575
 5527SOL    HW218023   1.568   2.521  10.456 -0.4818 -0.1382  0.1951
 5528SOL     OW18024   7.895   5.805   9.443 -0.0307  0.3128  0.0994
 5528SOL    HW118025   7.864   5.768   9.361 -3.1061  0.6683  0.9513
 5528SOL    HW218026   7.958   5.741   9.476 -1.7403 -1.9195 -0.6650
 5529SOL     OW18027   6.878   6.693   0.478  0.1468 -0.1551  0.0927
 5529SOL    HW118028   6.952   6.753   0.475  0.5344 -0.6322 -0.0277
 5529SOL    HW218029   6.884   6.652   0.564  0.2185 -0.4330 -0.0433
 5530SOL     OW18030   2.626   6.202   9.338 -0.6590  0.1053 -1.0615
 5530SOL    HW118031   2.718   6.182   9.321 -0.4003  0.0922  0.2007
 5530SOL    HW218032   2.599   6.257   9.265  0.7633  1.2818 -0.7577
 5531SOL     OW18033   7.224   6.455   8.927 -0.6996  0.6512  0.0143
 5531SOL    HW118034   7.292   6.403   8.969  0.4774  1.9140 -0.2654
 5531SOL    HW218035   7.218   6.419   8.839 -2.4580 -1.3309  0.8525
 5532SOL     OW18036   7.781   0.434  12.490  0.0525  0.5869 -0.5029
 5532SOL    HW118037   7.738   0.382  12.558  1.4786  0.8490  0.6625
 5532SOL    HW218038   7.723   0.509  12.477 -0.2614  0.5246  0.4311
 5533SOL     OW18039   1.967   6.817   9.321 -0.0735  0.2537  0.1174
 5533SOL    HW118040   1.919   6.736   9.339  0.6577 -0.1394  0.3457
 5533SOL    HW218041   1.901   6.886   9.326 -0.9491 -0.4467 -1.3370
 5534SOL     OW18042   1.742   5.418  11.770 -0.1247  0.0104 -0.4982
 5534SOL    HW118043   1.754   5.371  11.853  0.2171 -0.6516 -0.9113
 5534SOL    HW218044   1.770   5.507  11.788  1.2518 -0.4534 -0.2667
 5535SOL     OW18045   1.036   0.514   8.415  0.1282 -0.3847 -0.4621
 5535SOL    HW118046   1.068   0.437   8.462  1.1470  0.6766  0.6551
 5535SOL    HW218047   1.097   0.584   8.438 -2.2672  1.4795  0.7743
 5536SOL     OW18048   0.709   0.013  12.039  0.4796 -0.0774  0.6185
 5536SOL    HW118049   0.795   0.032  12.075  0.7981  0.9722 -0.6185
 5536SOL    HW218050   0.721  -0.064  11.984  0.1759 -1.1451  1.9864
 5537SOL     OW18051   1.851   5.953  10.226  0.0915  0.3018 -0.1590
 5537SOL    HW118052   1.845   5.920  10.136 -0.4469 -0.5025  0.1615
 5537SOL    HW218053   1.941   5.935  10.252 -0.0514 -0.4595 -0.1699
 5538SOL     OW18054   1.066   6.580   9.265 -0.1331  0.1327  0.0959
 5538SOL    HW118055   1.003   6.603   9.197 -1.1095 -0.2326  0.8353
 5538SOL    HW218056   1.097   6.664   9.298 -0.3945  0.3239 -0.1395
 5539SOL     OW18057   2.919   6.897   8.142 -0.3466 -0.5086 -0.3145
 5539SOL    HW118058   2.981   6.825   8.136  0.1414 -0.0021 -1.6948
 5539SOL    HW218059   2.974   6.976   8.140 -0.9945 -0.0622 -0.9764
 5540SOL     OW18060   0.401   6.284  12.292  0.0533 -0.0785  0.3562
 5540SOL    HW118061   0.426   6.293  12.384  0.9433  2.0891 -0.0184
 5540SOL    HW218062   0.481   6.255  12.247  0.0742  0.4049  0.0679
 5541SOL     OW18063   2.107   6.666   8.403  0.3371  0.2412  0.5220
 5541SOL    HW118064   2.151   6.750   8.418 -0.4069  0.9364 -1.0100
 5541SOL    HW218065   2.038   6.663   8.469 -1.6177  2.3244 -1.2722
 5542SOL     OW18066   1.350   6.471   7.519  0.7816 -0.4950 -0.2226
 5542SOL    HW118067   1.299   6.548   7.493  2.1747  0.1284 -1.2084
 5542SOL    HW218068   1.369   6.485   7.612 -0.1074 -0.3394 -0.0472
 5543SOL     OW18069   7.529   6.142  11.418  0.4910 -1.0417 -0.3619
 5543SOL    HW118070   7.477   6.125  11.496  2.1684  0.0833  1.0776
 5543SOL    HW218071   7.608   6.090  11.430  1.1763 -0.1511 -0.8413
 5544SOL     OW18072   2.487   7.116   9.350  0.0184 -0.0466 -0.1390
 5544SOL    HW118073   2.412   7.098   9.293  0.1250 -0.9892  0.0152
 5544SOL    HW218074   2.550   7.047   9.330  0.6362  0.4327  0.1152
 5545SOL     OW18075   6.836   6.603   9.812 -0.2193  0.0534 -0.2832
 5545SOL    HW118076   6.855   6.694   9.837 -0.2418 -0.3460  1.2666
 5545SOL    HW218077   6.755   6.582   9.859 -0.5058 -0.6165 -1.0556
 5546SOL     OW18078   1.574   3.548   9.882 -0.2168  0.2355  0.5222
 5546SOL    HW118079   1.564   3.462   9.924 -0.4625 -0.0440 -0.1001
 5546SOL    HW218080   1.598   3.607   9.954 -1.0404 -0.1508  1.1247
 5547SOL     OW18081   0.868   0.431  10.837 -0.1400 -0.1003 -0.6133
 5547SOL    HW118082   0.784   0.424  10.881 -0.6520  2.9079 -0.8800
 5547SOL    HW218083   0.926   0.469  10.904 -0.6867  3.6198 -2.0071
 5548SOL     OW18084   1.905   7.134   9.580 -0.0296  0.4410  0.6381
 5548SOL    HW118085   1.931   7.042   9.573 -0.6377  0.2694  0.5597
 5548SOL    HW218086   1.973   7.182   9.532 -0.5600 -0.1178 -0.7179
 5549SOL     OW18087   1.412   5.984  10.300  0.4011 -0.2121 -1.3556
 5549SOL    HW118088   1.398   6.070  10.263 -0.2367  0.0716 -0.5042
 5549SOL    HW218089   1.495   5.991  10.347 -0.9816  0.8775  1.1666
 5550SOL     OW18090   1.247   5.663  11.596  0.5187 -0.2123 -0.0075
 5550SOL    HW118091   1.178   5.727  11.579  1.3085  0.4697 -0.7707
 5550SOL    HW218092   1.230   5.593  11.533  0.4364 -0.1247 -0.0830
 5551SOL     OW18093   6.475   5.028  11.341 -0.4063  0.6822 -0.0516
 5551SOL    HW118094   6.476   4.934  11.358  1.2217  0.6340 -0.2663
 5551SOL    HW218095   6.501   5.036  11.249 -0.6343  1.3439 -0.0665
 5552SOL     OW18096   0.723   6.135   9.809 -0.5081 -0.1901 -0.1810
 5552SOL    HW118097   0.747   6.072   9.877 -1.8303  0.3733  0.8523
 5552SOL    HW218098   0.638   6.105   9.778  0.6163 -1.1855 -2.5776
 5553SOL     OW18099   1.270   0.215   9.800  0.3065  0.2388  0.1307
 5553SOL    HW118100   1.364   0.206   9.784 -0.0047 -1.0954 -1.1600
 5553SOL    HW218101   1.244   0.132   9.840 -0.3791  0.4778  0.1873
 5554SOL     OW18102   1.794   4.621   9.923 -0.3970 -0.1276  0.3253
 5554SOL    HW118103   1.817   4.550   9.863 -1.2707  0.6107 -0.9177
 5554SOL    HW218104   1.738   4.679   9.872 -0.0012  1.2787  1.4199
 5555SOL     OW18105   1.827   0.086   9.182 -0.0920  0.3499  0.5811
 5555SOL    HW118106   1.733   0.105   9.179 -0.2814 -0.1948  1.9815
 5555SOL    HW218107   1.836   0.005   9.131 -0.5412 -0.0662  1.1346
 5556SOL     OW18108   6.803   5.282  11.892 -0.1174  0.3325 -0.7165
 5556SOL    HW118109   6.805   5.263  11.798  1.0148 -0.0356 -0.6412
 5556SOL    HW218110   6.892   5.262  11.922 -0.7414 -0.5856  0.6398
 5557SOL     OW18111   7.748   7.414  11.713  0.7000 -0.0827  0.5846
 5557SOL    HW118112   7.722   7.474  11.783 -1.0918  1.0568 -0.9429
 5557SOL    HW218113   7.677   7.421  11.649  2.2613 -1.0521 -1.3400
 5558SOL     OW18114   1.545   6.566  10.582  0.1302  0.0789  0.0012
 5558SOL    HW118115   1.613   6.526  10.528  0.8381 -0.9557  1.5872
 5558SOL    HW218116   1.573   6.657  10.593  1.3933 -0.3822  0.7988
 5559SOL     OW18117   1.787   7.611   8.991  0.6112  0.2665  0.1330
 5559SOL    HW118118   1.723   7.578   8.928 -0.0333  0.5403  0.6303
 5559SOL    HW218119   1.836   7.534   9.019 -0.6936 -0.2420  1.0744
 5560SOL     OW18120   0.209   7.399  12.043  0.6947  0.0634  0.0447
 5560SOL    HW118121   0.268   7.330  12.011 -0.3350  0.2785 -2.6231
 5560SOL    HW218122   0.122   7.369  12.017  0.1932  2.1657 -0.8638
 5561SOL     OW18123   0.226   0.326   8.803 -0.9845 -0.3598 -0.1435
 5561SOL    HW118124   0.184   0.402   8.763 -0.4103 -0.0214 -0.1019
 5561SOL    HW218125   0.254   0.357   8.889  2.4354  0.4902 -1.3947
 5562SOL     OW18126   0.090   6.016   9.330  0.2426  0.5523 -0.0354
 5562SOL    HW118127   0.063   5.928   9.356 -0.0526  0.6528  0.0030
 5562SOL    HW218128   0.011   6.055   9.292  0.7898  0.2150 -1.6208
 5563SOL     OW18129   0.913   6.445  11.594 -0.7167 -0.1202  0.1217
 5563SOL    HW118130   0.896   6.414  11.505  0.0661 -1.8716  0.5478
 5563SOL    HW218131   0.828   6.477  11.625 -1.4993 -1.5480 -0.4826
 5564SOL     OW18132   1.829   7.977   9.447  0.0726  0.1733  1.0691
 5564SOL    HW118133   1.833   8.031   9.368  0.6356 -1.2881  0.0630
 5564SOL    HW218134   1.905   7.920   9.441  0.0193 -0.0970  2.5895
 5565SOL     OW18135   7.935   0.675   9.779  0.4101  0.0669  0.5971
 5565SOL    HW118136   7.879   0.738   9.824 -1.4482  0.6783 -2.3118
 5565SOL    HW218137   7.953   0.607   9.844 -2.6353  0.5421  2.0634
 5566SOL     OW18138   0.672   7.197   9.162  0.7360  0.1654 -0.4450
 5566SOL    HW118139   0.750   7.235   9.121  1.6223 -2.1751 -1.0515
 5566SOL    HW218140   0.617   7.169   9.089 -0.4537  1.2420 -0.0160
 5567SOL     OW18141   7.843   6.108  10.260  0.2720 -0.3527 -0.4933
 5567SOL    HW118142   7.813   6.089  10.349  0.3576 -0.1795 -0.4255
 5567SOL    HW218143   7.762   6.127  10.211  0.3515  2.2462  0.1935
 5568SOL     OW18144   0.857   5.971  10.037  0.0740 -0.0292 -0.0350
 5568SOL    HW118145   0.809   6.045  10.075 -1.1112 -0.2372 -1.0550
 5568SOL    HW218146   0.832   5.896  10.091  1.1435  0.2586  0.8958
 5569SOL     OW18147   2.598   7.810   9.193  0.1110  0.1276 -0.3014
 5569SOL    HW118148   2.529   7.823   9.257 -0.6601 -1.3093 -0.8073
 5569SOL    HW218149   2.553   7.783   9.113  1.2279 -0.7202 -0.6833
 5570SOL     OW18150   6.951   7.714  10.403 -0.1624 -0.6482 -0.3303
 5570SOL    HW118151   6.910   7.793  10.368  1.5254 -0.1336 -1.2674
 5570SOL    HW218152   6.906   7.698  10.486 -1.3149  0.6227 -0.6757
 5571SOL     OW18153   7.159   7.530  10.667  0.5172 -0.5072 -0.8389
 5571SOL    HW118154   7.245   7.570  10.677  0.2393 -0.3104  1.1930
 5571SOL    HW218155   7.165   7.448  10.715 -0.9189  0.3451  0.9257
 5572SOL     OW18156   2.718   7.354  10.735  0.2259  0.0397  0.5205
 5572SOL    HW118157   2.656   7.287  10.764 -0.3542 -0.1814 -1.0852
 5572SOL    HW218158   2.662   7.424  10.701  0.8468  0.6666  0.7775
 5573SOL     OW18159   2.604   6.218  10.772  0.7216  0.1997  0.2240
 5573SOL    HW118160   2.699   6.211  10.761  0.5283 -1.7198 -0.6610
 5573SOL    HW218161   2.582   6.306  10.740  2.2012  0.7297  0.5993
 5574SOL     OW18162   1.617   5.944   9.316 -0.6692 -0.5512  0.3052
 5574SOL    HW118163   1.675   5.989   9.255 -0.2834 -1.7464 -0.2254
 5574SOL    HW218164   1.592   5.864   9.271  0.3263 -1.8971  2.0405
 5575SOL     OW18165   3.340   6.366  11.345 -0.0655 -0.0457  0.3682
 5575SOL    HW118166   3.247   6.374  11.363 -0.2115 -0.3214 -0.2697
 5575SOL    HW218167   3.346   6.315  11.264  0.5463  2.0762 -0.9999
 5576SOL     OW18168   7.936   7.053  11.901  0.2937 -0.8136 -0.4072
 5576SOL    HW118169   7.853   7.006  11.908 -1.2798  2.0010  3.0068
 5576SOL    HW218170   8.001   6.991  11.936 -1.1876 -1.5879  1.1381
 5577SOL     OW18171   7.972   6.679  10.170 -0.1005  0.0321  0.3416
 5577SOL    HW118172   8.057   6.636  10.156 -0.2340 -1.0988  2.6504
 5577SOL    HW218173   7.909   6.607  10.176 -1.2260  0.8479 -0.9782
 5578SOL     OW18174   0.908   5.675   9.646 -0.0158  0.4106 -0.1712
 5578SOL    HW118175   0.886   5.591   9.685  1.2568 -0.2069 -0.7265
 5578SOL    HW218176   0.940   5.654   9.559 -0.7892  1.5835 -0.7670
 5579SOL     OW18177   1.958   7.126  10.474  0.4848 -0.1440  0.3539
 5579SOL    HW118178   1.946   7.033  10.492  1.2974 -1.1435 -3.3945
 5579SOL    HW218179   2.049   7.143  10.498 -0.0059  0.0914  2.2130
 5580SOL     OW18180   1.260   5.766   9.468  0.2740 -0.0497 -0.0287
 5580SOL    HW118181   1.251   5.813   9.385 -3.0952 -0.1275  0.1594
 5580SOL    HW218182   1.329   5.703   9.452  0.6519  0.8276 -2.3303
 5581SOL     OW18183   7.695   6.848  10.904  0.0759 -0.2518  0.0461
 5581SOL    HW118184   7.631   6.831  10.835 -0.5090 -1.8100  0.9198
 5581SOL    HW218185   7.746   6.767  10.909  1.2139  0.4686  0.3060
 5582SOL     OW18186   0.120   5.638   7.653 -0.9733 -0.4707  0.0672
 5582SOL    HW118187   0.077   5.721   7.638  0.5436 -0.1241 -3.3568
 5582SOL    HW218188   0.056   5.572   7.627 -1.4036 -0.2785  0.6279
 5583SOL     OW18189   1.122   5.669   9.063 -0.1879 -0.0560  0.6325
 5583SOL    HW118190   1.197   5.610   9.057 -1.9114 -2.2175 -1.5671
 5583SOL    HW218191   1.147   5.745   9.011  0.2243 -1.0976 -0.7423
 5584SOL     OW18192   2.300   6.526   9.569  0.1758 -0.3635  0.7087
 5584SOL    HW118193   2.272   6.610   9.531  1.5454 -0.1298  0.1375
 5584SOL    HW218194   2.360   6.551   9.640 -1.8916 -0.8150  2.7144
 5585SOL     OW18195   0.771   7.811   9.463 -0.0249  0.3998 -0.4653
 5585SOL    HW118196   0.695   7.863   9.491 -0.1902 -0.0281 -0.1171
 5585SOL    HW218197   0.734   7.729   9.432  0.2595  0.3861 -0.7720
 5586SOL     OW18198   0.256   0.800  10.800  0.4061  0.0607  0.1292
 5586SOL    HW118199   0.220   0.848  10.875  0.2409  0.3842 -0.1582
 5586SOL    HW218200   0.185   0.797  10.737  0.4796 -0.3954  0.0630
 5587SOL     OW18201   7.386   6.753  10.882  0.2898  0.2023 -0.1651
 5587SOL    HW118202   7.409   6.666  10.917  0.6727  0.3067 -0.1474
 5587SOL    HW218203   7.379   6.808  10.959 -0.7883  0.0105 -0.1060
 5588SOL     OW18204   7.958   6.134  11.590  0.8152  0.0378  0.0152
 5588SOL    HW118205   7.916   6.220  11.591 -0.3334 -0.5086  0.5073
 5588SOL    HW218206   8.012   6.133  11.669  1.4597  0.5889 -0.4053
 5589SOL     OW18207   6.700   5.937  11.894 -0.3835 -0.3724  0.2674
 5589SOL    HW118208   6.794   5.936  11.913 -0.5620 -0.9027  1.1339
 5589SOL    HW218209   6.666   5.858  11.934 -1.2268 -0.1330  0.0449
 5590SOL     OW18210   0.430   7.084  12.475  0.6456  0.3805 -0.1144
 5590SOL    HW118211   0.392   7.087  12.387  0.2774  0.8301  0.0572
 5590SOL    HW218212   0.519   7.051  12.461  0.6088  0.4973 -0.6606
 5591SOL     OW18213   0.414   7.029   0.894 -0.1147  0.0795  0.2957
 5591SOL    HW118214   0.503   7.025   0.930  0.3563 -0.4986 -0.8769
 5591SOL    HW218215   0.358   6.995   0.964  0.4926  1.1285  1.3084
 5592SOL     OW18216   0.394   6.996  11.739  0.4512  0.1217 -1.1158
 5592SOL    HW118217   0.363   7.075  11.695 -0.4389  0.4477  0.0725
 5592SOL    HW218218   0.362   6.924  11.684  0.8773  0.5575 -1.9517
 5593SOL     OW18219   2.130   5.972   9.851  0.1989 -0.1364 -0.4027
 5593SOL    HW118220   2.079   6.053   9.852  1.4501  0.6888 -0.7660
 5593SOL    HW218221   2.188   5.982   9.775  1.9700 -0.3435  0.8626
 5594SOL     OW18222   0.213   6.456  12.202 -0.5040  0.2586  0.0375
 5594SOL    HW118223   0.283   6.390  12.210  0.3733  1.1579 -0.1013
 5594SOL    HW218224   0.258   6.536  12.176 -1.6154  0.8263 -0.1959
 5595SOL     OW18225   6.000   7.078  11.338  0.0870  0.6079 -0.1058
 5595SOL    HW118226   6.028   7.151  11.394 -0.4268  0.8533 -0.1564
 5595SOL    HW218227   5.946   7.119  11.271 -1.4173  0.0384  0.6936
 5596SOL     OW18228   7.276   1.013   2.310 -0.1453  0.1449  0.0763
 5596SOL    HW118229   7.222   1.086   2.341 -0.2021  1.2778 -2.4538
 5596SOL    HW218230   7.318   1.046   2.231 -0.0818 -2.5081 -1.1098
 5597SOL     OW18231   0.961   5.469  10.736 -0.1957 -0.2126 -0.7313
 5597SOL    HW118232   1.046   5.425  10.729  1.6610  3.3407 -4.0902
 5597SOL    HW218233   0.981   5.556  10.768 -3.1270 -0.1661  1.3944
 5598SOL     OW18234   0.204   6.304  11.956  0.1272  0.3672 -0.1400
 5598SOL    HW118235   0.144   6.342  12.020 -0.0326  1.1146 -0.7083
 5598SOL    HW218236   0.148   6.252  11.898 -0.2414  2.1478 -1.4890
 5599SOL     OW18237   1.111   6.512  12.490 -0.0249  0.4535  0.2645
 5599SOL    HW118238   1.066   6.428  12.495 -0.2492  0.5839  0.4578
 5599SOL    HW218239   1.100   6.539  12.399 -0.6267  0.6386  0.3867
 5600SOL     OW18240   7.853   6.447   0.276  0.0537 -0.2168  0.3968
 5600SOL    HW118241   7.769   6.482   0.305  0.7286  0.8961  1.0586
 5600SOL    HW218242   7.904   6.437   0.357  1.3940  1.3992 -0.1895
 5601SOL     OW18243   6.589   6.435  12.298 -0.0444 -0.2269 -0.5232
 5601SOL    HW118244   6.555   6.392  12.377  0.8403  1.7326  1.0168
 5601SOL    HW218245   6.515   6.487  12.266  0.2940  0.9266  0.5081
 5602SOL     OW18246   7.637   7.168  11.071  0.1856  0.4858  0.1025
 5602SOL    HW118247   7.678   7.151  10.986  2.1106  1.0643  0.8455
 5602SOL    HW218248   7.599   7.256  11.062 -0.3202  0.2264 -0.3842
 5603SOL     OW18249   3.562   6.014   0.103 -0.8037 -0.0323 -0.1834
 5603SOL    HW118250   3.650   5.979   0.093 -0.3256  1.4365 -1.5754
 5603SOL    HW218251   3.520   5.956   0.166  0.5242 -1.9162 -0.9329
 5604SOL     OW18252   7.407   0.307  11.468 -0.2155  0.2013 -0.7262
 5604SOL    HW118253   7.366   0.365  11.532  0.4907  2.4454 -2.2129
 5604SOL    HW218254   7.334   0.279  11.412 -0.1617  2.1653 -1.8433
 5605SOL     OW18255   3.194   6.026  10.364 -0.1833  0.6738 -0.1340
 5605SOL    HW118256   3.161   6.074  10.441  0.5293  0.8417  0.0754
 5605SOL    HW218257   3.240   6.093  10.312  1.2757  0.1495  0.4221
 5606SOL     OW18258   0.032   7.100   1.096  0.1214 -0.0872 -0.0607
 5606SOL    HW118259  -0.051   7.118   1.053 -0.2063  4.8307  1.8967
 5606SOL    HW218260   0.008   7.062   1.181  0.2011 -1.9348 -0.8315
 5607SOL     OW18261   2.117   5.016   0.367  1.0389  0.5137 -0.2501
 5607SOL    HW118262   2.056   5.066   0.421 -0.4455  1.8753 -2.9380
 5607SOL    HW218263   2.196   5.007   0.420  0.0807  2.6552  1.6904
 5608SOL     OW18264   1.319   6.584  12.135 -0.8792 -0.7475  1.1125
 5608SOL    HW118265   1.388   6.643  12.165 -1.5041  0.4021  0.3680
 5608SOL    HW218266   1.357   6.538  12.060 -2.0495  2.8280 -2.0213
 5609SOL     OW18267   0.914   6.276  11.110  0.1771 -0.5753 -0.7116
 5609SOL    HW118268   0.886   6.185  11.106 -1.3433 -0.1199 -1.2374
 5609SOL    HW218269   0.910   6.307  11.020 -0.8841  0.4268 -0.3442
 5610SOL     OW18270   7.486   5.176   0.574  0.0052 -0.2142  0.0959
 5610SOL    HW118271   7.531   5.207   0.496 -1.3885  0.4356 -0.4841
 5610SOL    HW218272   7.439   5.098   0.546  0.8079 -0.9297  0.7107
 5611SOL     OW18273   1.668   5.765  11.762 -0.0245 -0.0118 -0.6587
 5611SOL    HW118274   1.645   5.773  11.670 -0.0385  0.1719 -0.6389
 5611SOL    HW218275   1.600   5.710  11.800 -0.5829  0.7416 -0.5440
 5612SOL     OW18276   0.357   6.645  10.944  0.1945  0.3683  0.7054
 5612SOL    HW118277   0.368   6.725  10.893  0.3003  0.4929  0.9181
 5612SOL    HW218278   0.407   6.578  10.897  0.2613  0.4727  0.6294
 5613SOL     OW18279   1.849   7.760  11.327 -0.1504 -0.6048  0.0561
 5613SOL    HW118280   1.916   7.705  11.366 -0.1558  0.0128  0.9693
 5613SOL    HW218281   1.829   7.826  11.394 -3.3759 -2.1479  0.8332
 5614SOL     OW18282   1.428   8.000  11.927  0.2310  0.4725 -0.1621
 5614SOL    HW118283   1.507   8.006  11.980  0.4517 -0.0160 -0.4294
 5614SOL    HW218284   1.372   7.939  11.975 -0.5606  1.8537  0.7361
 5615SOL     OW18285   2.060   4.883  11.677  0.0832 -0.3721  0.3228
 5615SOL    HW118286   1.972   4.916  11.698  0.0685 -0.6055  0.6288
 5615SOL    HW218287   2.050   4.788  11.677  0.7698 -0.4773  2.2990
 5616SOL     OW18288   0.508   5.984  12.375 -0.0019  0.1031 -0.4827
 5616SOL    HW118289   0.479   5.893  12.364 -0.1184  0.2700 -1.6575
 5616SOL    HW218290   0.451   6.034  12.317  1.1848  0.7103 -1.1485
 5617SOL     OW18291   1.699   5.681  10.307  0.1146 -0.3028 -0.1298
 5617SOL    HW118292   1.739   5.754  10.260  0.2240  0.3611  0.9666
 5617SOL    HW218293   1.774   5.631  10.340  0.1403  1.0655  2.1221
 5618SOL     OW18294   7.556   0.014  12.095  0.6491 -0.8743  0.4399
 5618SOL    HW118295   7.467  -0.016  12.111 -0.0158  0.0585 -1.2168
 5618SOL    HW218296   7.551   0.110  12.099  1.4841 -0.7977  0.0052
 5619SOL     OW18297   0.086   5.445   0.893 -0.0720  0.2784  0.2569
 5619SOL    HW118298   0.127   5.403   0.969  2.3219  0.2333 -0.9728
 5619SOL    HW218299   0.119   5.535   0.895 -1.0855  0.6748 -0.0051
 5620SOL     OW18300   0.671   1.038   1.830  0.0928  0.0206  0.6226
 5620SOL    HW118301   0.766   1.042   1.823  0.0757 -1.2537 -1.1089
 5620SOL    HW218302   0.647   1.118   1.875  2.1378 -0.7805  3.4315
 5621SOL     OW18303   2.690   7.996  12.395 -0.4646 -0.2038 -0.2394
 5621SOL    HW118304   2.754   7.972  12.462  0.4890 -2.1892 -1.7983
 5621SOL    HW218305   2.609   7.953  12.423 -0.8495  1.2407  1.0332
 5622SOL     OW18306   2.140   6.705  10.738 -0.2159 -0.5495 -0.3159
 5622SOL    HW118307   2.193   6.643  10.790  0.7222  1.7667  1.6850
 5622SOL    HW218308   2.060   6.657  10.719  0.3098 -2.2896  1.4627
 5623SOL     OW18309   7.565   5.758  12.148 -0.3954 -0.1804  0.3608
 5623SOL    HW118310   7.636   5.820  12.133 -1.1575  0.4117 -1.0873
 5623SOL    HW218311   7.590   5.680  12.099 -0.6900  0.0029 -0.0915
 5624SOL     OW18312   7.339   6.000   0.125 -0.1411  0.3235 -0.0042
 5624SOL    HW118313   7.267   6.062   0.128  0.6572  1.2485  0.7249
 5624SOL    HW218314   7.370   6.003   0.035 -1.0567 -0.1459 -0.3423
 5625SOL     OW18315   1.400   7.279  11.710  0.1970 -0.0018  0.6686
 5625SOL    HW118316   1.470   7.342  11.724 -0.1806  0.5649  0.0899
 5625SOL    HW218317   1.323   7.333  11.692 -0.2069 -0.6279  0.4868
 5626SOL     OW18318   1.129   5.581  10.967 -0.0391 -0.0910  0.4068
 5626SOL    HW118319   1.104   5.526  11.041 -0.8139 -0.7913 -0.3489
 5626SOL    HW218320   1.070   5.657  10.972 -1.1571 -0.8774 -0.3440
 5627SOL     OW18321   7.684   6.938  12.424  0.0380 -0.3785  0.4262
 5627SOL    HW118322   7.707   6.851  12.455  3.5080  0.5751  0.9070
 5627SOL    HW218323   7.728   6.947  12.339  2.0693  1.7180  1.5684
 5628SOL     OW18324   0.582   5.735   1.262 -0.1955  0.3475 -0.5126
 5628SOL    HW118325   0.603   5.801   1.328  0.1481 -0.0383 -0.2281
 5628SOL    HW218326   0.576   5.653   1.311 -0.8999  0.2142 -0.8222
 5629SOL     OW18327   3.019   0.152  12.445  0.5531 -0.0474 -0.3516
 5629SOL    HW118328   2.992   0.143  12.354  0.6953 -1.5806 -0.2733
 5629SOL    HW218329   2.991   0.070  12.486  1.5444  0.1232  0.7146
 5630SOL     OW18330   7.766   6.011  11.769 -0.1608  0.3578 -0.6364
 5630SOL    HW118331   7.841   6.057  11.731  0.7207  0.3437  1.0012
 5630SOL    HW218332   7.774   5.921  11.738 -0.4192  0.6981 -1.7403
 5631SOL     OW18333   7.202   7.707  11.432  0.2508  0.2035 -0.1186
 5631SOL    HW118334   7.148   7.663  11.498  0.5012  1.1404  0.7411
 5631SOL    HW218335   7.278   7.740  11.481  2.4328 -2.3116 -1.5050
 5632SOL     OW18336   0.719   5.505   0.421  0.0987 -0.0860 -0.3090
 5632SOL    HW118337   0.747   5.536   0.507 -1.8396 -2.1575  1.1966
 5632SOL    HW218338   0.792   5.453   0.389  0.3233 -0.4716  0.7775
 5633SOL     OW18339   7.678   7.627  11.911 -0.4469 -0.0774  0.1150
 5633SOL    HW118340   7.595   7.646  11.868  0.0354 -0.2885 -0.9195
 5633SOL    HW218341   7.708   7.713  11.942 -0.5089  0.1675 -0.4894
 5634SOL     OW18342   0.410   0.007   1.960  0.0307  0.2736 -0.5025
 5634SOL    HW118343   0.463   0.070   1.911  1.5334 -0.6712 -0.1583
 5634SOL    HW218344   0.322   0.043   1.957  0.2807  0.8444 -2.9038
 5635SOL     OW18345   7.439   6.835   0.136  0.0501  0.3543  0.2957
 5635SOL    HW118346   7.501   6.869   0.201  0.5657  2.6961 -1.3121
 5635SOL    HW218347   7.492   6.779   0.080  0.4857  1.3801 -0.3461
 5636SOL     OW18348   7.622   6.803  11.208  0.7020  0.5349  0.3789
 5636SOL    HW118349   7.627   6.835  11.118 -0.7680 -0.7212 -0.1965
 5636SOL    HW218350   7.686   6.732  11.212 -1.5614 -1.7233 -0.7783
 5637SOL     OW18351   0.864   0.089  11.378 -0.5832  0.3216  0.1741
 5637SOL    HW118352   0.907   0.117  11.297  0.7919 -1.8893  0.0298
 5637SOL    HW218353   0.937   0.074  11.439 -1.1244 -2.4970  0.2870
 5638SOL     OW18354   1.008   5.650   1.735 -0.0159 -0.1879  0.6501
 5638SOL    HW118355   1.089   5.603   1.754  0.0891 -0.7830 -1.1104
 5638SOL    HW218356   0.943   5.609   1.792  0.7192 -0.3214  1.4100
 5639SOL     OW18357   0.396   7.197  11.958  0.2124 -0.1369  0.1593
 5639SOL    HW118358   0.485   7.214  11.990 -0.0831  2.7877 -0.3009
 5639SOL    HW218359   0.406   7.122  11.900  2.1308 -0.6945  1.1127
 5640SOL     OW18360   2.325   4.745  11.593 -0.2166 -0.0497 -0.0293
 5640SOL    HW118361   2.276   4.672  11.631 -1.3955  1.2044  0.9615
 5640SOL    HW218362   2.263   4.787  11.533  0.6748 -0.2311 -1.1204
 5641SOL     OW18363   2.157   5.943  10.599  0.5287 -0.1366 -0.2475
 5641SOL    HW118364   2.225   5.897  10.649 -1.2830 -1.0077  1.5665
 5641SOL    HW218365   2.138   5.886  10.525  1.1691 -0.2936 -0.2956
 5642SOL     OW18366   3.066   6.414  11.447 -0.4060  0.2702 -0.0880
 5642SOL    HW118367   3.070   6.509  11.452 -0.3646  0.7234 -4.7099
 5642SOL    HW218368   3.027   6.396  11.361  1.4178 -3.8554 -0.2836
 5643SOL     OW18369   1.324   6.540   0.153  0.2310  0.0883  0.4247
 5643SOL    HW118370   1.255   6.520   0.090  1.3094  0.0836 -0.8101
 5643SOL    HW218371   1.405   6.513   0.108  1.1788  1.5698  1.1615
 5644SOL     OW18372   5.722   5.595   0.607  0.1020 -0.0158 -0.7820
 5644SOL    HW118373   5.781   5.525   0.633  0.8998  0.7765 -0.4125
 5644SOL    HW218374   5.664   5.554   0.543  1.7746 -0.5361 -2.0411
 5645SOL     OW18375   1.374   7.429   0.910  0.0189  0.0627  0.5253
 5645SOL    HW118376   1.368   7.500   0.975  1.7572  0.8882 -0.1266
 5645SOL    HW218377   1.398   7.352   0.961 -3.0987 -0.4367  1.4152
 5646SOL     OW18378   0.935   6.746  11.755 -0.7415  0.0661  0.5252
 5646SOL    HW118379   0.979   6.715  11.676  0.2900 -0.2853  1.2176
 5646SOL    HW218380   0.932   6.841  11.746  0.6592  0.1435  0.7017
 5647SOL     OW18381   7.721   4.186   0.716  0.2313  0.0857 -0.3321
 5647SOL    HW118382   7.768   4.259   0.757  0.0990  0.1802 -0.3474
 5647SOL    HW218383   7.670   4.146   0.787  0.6711 -0.2872 -0.2247
 5648SOL     OW18384   7.167   5.358  11.947  0.7006 -0.2355  0.4009
 5648SOL    HW118385   7.116   5.425  11.902  0.0155 -0.7056  0.4564
 5648SOL    HW218386   7.222   5.320  11.878  3.7095  2.6803  0.9830
 5649SOL     OW18387   7.864   5.505  10.986  0.2093  0.0499 -0.1949
 5649SOL    HW118388   7.895   5.573  10.926  0.5636  1.3957  1.4705
 5649SOL    HW218389   7.895   5.423  10.946 -1.0847  0.6861 -2.7719
 5650SOL     OW18390   2.308   5.709   0.777 -0.5129  0.0237  0.6653
 5650SOL    HW118391   2.280   5.765   0.705 -0.4266  0.5686  1.0473
 5650SOL    HW218392   2.341   5.770   0.844  1.4068 -0.5507  0.3285
 5651SOL     OW18393   0.096   7.021   0.403  0.2902  0.1903  0.0821
 5651SOL    HW118394   0.170   7.037   0.345 -0.0738  0.0744 -0.4159
 5651SOL    HW218395   0.097   6.927   0.419  0.1943  0.1775  0.0081
 5652SOL     OW18396   2.712   6.446  11.481  0.4108 -0.0799 -0.1587
 5652SOL    HW118397   2.694   6.442  11.387  2.4037  1.0870 -0.6513
 5652SOL    HW218398   2.662   6.373  11.518  0.4090 -1.2222 -2.2525
 5653SOL     OW18399   0.364   6.868  10.801 -0.4295  0.1457  0.5944
 5653SOL    HW118400   0.395   6.879  10.711 -1.0719 -0.3821  0.2974
 5653SOL    HW218401   0.390   6.948  10.846 -1.9869  1.3830 -0.6135
 5654SOL     OW18402   1.597   5.613  11.486 -0.3330  0.2623 -0.6730
 5654SOL    HW118403   1.522   5.564  11.452  2.2341 -3.0322 -2.1495
 5654SOL    HW218404   1.645   5.642  11.408 -0.2851  2.9208  0.2235
 5655SOL     OW18405   0.242   6.568  10.103  0.3235 -0.2639  0.2000
 5655SOL    HW118406   0.238   6.616  10.020 -0.8774 -1.1006 -0.2540
 5655SOL    HW218407   0.232   6.476  10.078 -1.7728 -0.4209  1.3887
 5656SOL     OW18408   0.203   6.096  12.301  0.5162  0.1651 -0.0902
 5656SOL    HW118409   0.272   6.162  12.294  0.1589  0.5052 -0.3961
 5656SOL    HW218410   0.154   6.121  12.379  1.3228 -0.6407  0.7088
 5657SOL     OW18411   1.900   0.940  11.111  0.1711  0.6940  0.0449
 5657SOL    HW118412   1.918   0.960  11.203 -0.9368 -0.2340  0.4752
 5657SOL    HW218413   1.939   0.854  11.097 -0.6613  0.3136 -0.0146
 5658SOL     OW18414   1.933   7.117  12.028  0.0243  0.0405  0.2160
 5658SOL    HW118415   1.864   7.052  12.010  0.6574 -0.8977  1.0340
 5658SOL    HW218416   1.985   7.077  12.097 -0.1879  1.9082  1.5290
 5659SOL     OW18417   6.365   7.313  11.383  1.0210  0.5513 -0.3346
 5659SOL    HW118418   6.284   7.316  11.333  0.9049 -1.8532 -0.3971
 5659SOL    HW218419   6.337   7.312  11.475  1.0483  0.9369 -0.3204
 5660SOL     OW18420   0.949   6.572   0.364 -0.3545 -0.3675  0.0225
 5660SOL    HW118421   0.956   6.606   0.275 -0.2179 -1.0238 -0.2250
 5660SOL    HW218422   0.890   6.497   0.356  0.5657 -1.1318  0.2820
 5661SOL     OW18423   2.568   5.577  10.491 -0.1619 -0.3623  0.2720
 5661SOL    HW118424   2.486   5.603  10.449 -0.0474 -3.3225 -2.1739
 5661SOL    HW218425   2.549   5.491  10.529  1.9961 -1.6891 -1.4131
 5662SOL     OW18426   7.972   4.814  12.472 -0.3494 -0.2568  0.4400
 5662SOL    HW118427   7.895   4.757  12.469 -0.1757 -0.6124  2.0060
 5662SOL    HW218428   7.937   4.900  12.493 -0.4647 -0.0698 -0.4772
 5663SOL     OW18429   1.174   3.930  10.178  0.5984  0.6295 -0.0688
 5663SOL    HW118430   1.140   3.970  10.258  1.7819  0.7945  0.3718
 5663SOL    HW218431   1.155   3.993  10.109  1.7930  1.6467  0.5032
 5664SOL     OW18432   0.323   5.376  11.178  0.1918 -0.1880  0.3432
 5664SOL    HW118433   0.296   5.464  11.203 -1.0880 -0.3914 -0.1999
 5664SOL    HW218434   0.243   5.324  11.186  0.8276 -1.2042  0.2305
 5665SOL     OW18435   1.595   0.467   0.632 -0.5203 -0.4862 -0.0237
 5665SOL    HW118436   1.562   0.526   0.564  1.5896 -0.2824 -0.9718
 5665SOL    HW218437   1.560   0.381   0.610  0.3293 -0.4629 -1.5426
 5666SOL     OW18438   1.890   5.859  11.265  0.3944 -0.3244 -0.2698
 5666SOL    HW118439   1.924   5.790  11.207 -0.5449 -0.7244 -0.3580
 5666SOL    HW218440   1.795   5.850  11.260  0.2484  1.0527 -0.3512
 5667SOL     OW18441   1.981   7.743  12.275 -0.2785 -0.0612 -0.0958
 5667SOL    HW118442   1.982   7.657  12.234 -1.1006 -0.1935  0.1353
 5667SOL    HW218443   2.028   7.732  12.357 -1.0716 -0.4975  0.3097
 5668SOL     OW18444   1.066   6.624  12.253  0.5910 -0.1424 -0.0349
 5668SOL    HW118445   1.006   6.626  12.178 -0.0635  1.3818  0.4795
 5668SOL    HW218446   1.152   6.640  12.216  0.4861 -0.8788 -0.6198
 5669SOL     OW18447   0.748   5.712  12.251 -0.2388  0.1516  0.8131
 5669SOL    HW118448   0.785   5.800  12.261  0.9035 -0.2368  0.1479
 5669SOL    HW218449   0.663   5.726  12.210 -0.1232  0.9528  0.8375
 5670SOL     OW18450   0.457   5.788   9.913 -0.0673 -0.1327  0.4567
 5670SOL    HW118451   0.474   5.732   9.838 -0.5622 -0.6936  0.7514
 5670SOL    HW218452   0.362   5.794   9.918 -0.0963 -1.0759  1.7209
 5671SOL     OW18453   0.120   3.903   1.058 -0.1940  0.6875  0.3282
 5671SOL    HW118454   0.155   3.814   1.055  1.6573  1.3886 -0.4204
 5671SOL    HW218455   0.032   3.895   1.021  0.5062 -0.6313 -1.2059
 5672SOL     OW18456   0.415   6.822   0.105 -0.3774  0.0021 -0.7594
 5672SOL    HW118457   0.416   6.914   0.132 -1.2279 -0.3970  0.7245
 5672SOL    HW218458   0.358   6.821   0.028 -0.6907  0.6552 -0.5467
 5673SOL     OW18459   0.449   6.620  12.200  0.1062  0.2110  0.0084
 5673SOL    HW118460   0.543   6.613  12.187  0.0495  0.2047 -0.4121
 5673SOL    HW218461   0.438   6.627  12.295  0.7073  2.4417 -0.0096
 5674SOL     OW18462   7.114   5.469   1.418 -0.0731  0.1129 -0.1113
 5674SOL    HW118463   7.110   5.437   1.508 -0.8055 -0.1981 -0.2543
 5674SOL    HW218464   7.123   5.564   1.426 -0.3242  0.1006  0.2854
 5675SOL     OW18465   2.012   7.559  11.370 -0.4109  0.3221  0.5845
 5675SOL    HW118466   2.005   7.526  11.460 -1.0317 -1.1832  0.0128
 5675SOL    HW218467   1.991   7.484  11.315 -0.7987  1.4107 -0.8200
 5676SOL     OW18468   0.868   7.063  11.603  0.3242 -0.0305 -0.4022
 5676SOL    HW118469   0.849   7.025  11.518 -0.9722  1.7936 -1.0002
 5676SOL    HW218470   0.799   7.029  11.661  0.4373 -0.2707 -0.4113
 5677SOL     OW18471   1.462   7.223  10.196  0.0158 -0.1728  0.0950
 5677SOL    HW118472   1.439   7.304  10.242 -1.9596 -1.6047  1.8097
 5677SOL    HW218473   1.394   7.212  10.131 -0.0156 -0.7134  0.2164
 5678SOL     OW18474   1.616   6.040  11.514  0.0339 -0.0747 -0.7961
 5678SOL    HW118475   1.587   6.125  11.481 -0.0954 -0.1851 -0.9710
 5678SOL    HW218476   1.560   6.023  11.589  1.3540  0.8983  0.4723
 5679SOL     OW18477   7.028   6.841   0.036 -0.3058  0.4097 -0.3756
 5679SOL    HW118478   6.937   6.868   0.035 -0.9204 -1.5302 -0.4447
 5679SOL    HW218479   7.030   6.764   0.093  1.4499  0.9152  0.3172
 5680SOL     OW18480   1.885   6.151  11.227 -0.2101  0.6473  0.0498
 5680SOL    HW118481   1.898   6.062  11.257 -1.5406  0.3193 -0.2828
 5680SOL    HW218482   1.915   6.150  11.135  3.0158  1.4359  0.9531
 5681SOL     OW18483   0.626   5.256   1.056 -0.9625 -0.3101 -0.2011
 5681SOL    HW118484   0.551   5.282   1.002 -0.3805  0.2544 -0.7636
 5681SOL    HW218485   0.614   5.162   1.071 -1.8793 -0.1812 -0.1205
 5682SOL     OW18486   2.120   6.067   0.024  0.5028  0.3258  0.0205
 5682SOL    HW118487   2.119   5.981   0.066 -0.6236  0.1068 -0.4111
 5682SOL    HW218488   2.191   6.061  -0.040 -1.0107 -1.1378 -1.6360
 5683SOL     OW18489   0.384   1.247  11.355 -0.3731  0.3681 -0.3668
 5683SOL    HW118490   0.331   1.167  11.355 -1.7034  1.2239  0.2275
 5683SOL    HW218491   0.444   1.235  11.282  1.5173 -2.4735  1.4498
 5684SOL     OW18492   6.306   0.081  11.955 -0.6071  0.4987  0.3002
 5684SOL    HW118493   6.359   0.108  11.881 -0.9012  2.6466  0.7968
 5684SOL    HW218494   6.316  -0.014  11.959  2.4353  0.7035 -0.1725
 5685SOL     OW18495   0.232   1.131   0.041 -0.1364  0.0518 -0.2316
 5685SOL    HW118496   0.217   1.037   0.052  0.2408 -0.1000 -0.9639
 5685SOL    HW218497   0.168   1.157  -0.025  0.4776  0.0940 -0.8152
 5686SOL     OW18498   1.326   6.161  11.227 -0.4257 -0.0124 -0.2917
 5686SOL    HW118499   1.415   6.192  11.244 -0.5873  0.0611  0.4443
 5686SOL    HW218500   1.280   6.239  11.195 -0.8147  0.5402  1.4959
 5687SOL     OW18501   7.947   4.698   1.218 -0.3917 -0.2731 -0.2608
 5687SOL    HW118502   7.961   4.779   1.265  0.0465 -0.2867 -0.3664
 5687SOL    HW218503   7.979   4.629   1.276 -2.1308 -0.5171  0.4644
 5688SOL     OW18504   7.193   5.656   0.697  0.2043  1.0337  0.0756
 5688SOL    HW118505   7.151   5.707   0.628 -0.7535  1.0782  0.6785
 5688SOL    HW218506   7.287   5.664   0.679  0.0144  1.9230 -0.5904
 5689SOL     OW18507   2.773   7.519  12.361 -0.2749 -0.0465  0.1575
 5689SOL    HW118508   2.798   7.552  12.448 -0.3224 -0.2095  0.2334
 5689SOL    HW218509   2.836   7.560  12.301  0.3004 -0.5970  0.3692
 5690SOL     OW18510   1.927   5.171  11.168 -0.4285  0.1376 -0.0842
 5690SOL    HW118511   1.857   5.231  11.142 -1.1612 -0.7423 -0.1528
 5690SOL    HW218512   1.995   5.185  11.102 -0.1566  1.6100  0.4591
 5691SOL     OW18513   1.876   7.285   0.252 -0.1500 -0.0601  0.0900
 5691SOL    HW118514   1.867   7.288   0.347 -0.4308  0.8915  0.0479
 5691SOL    HW218515   1.873   7.192   0.230 -2.6441 -0.2196  0.7949
 5692SOL     OW18516   1.082   4.441  11.187  0.0419 -0.1704  0.4572
 5692SOL    HW118517   1.117   4.477  11.105 -1.4142  0.6597  0.1623
 5692SOL    HW218518   1.156   4.396  11.227  0.9208 -0.1538 -1.0696
 5693SOL     OW18519   2.417   7.723  12.276  0.5631  0.0461 -0.4587
 5693SOL    HW118520   2.477   7.768  12.336  1.0075 -2.0757  0.7957
 5693SOL    HW218521   2.340   7.705  12.330  0.4889 -0.8740 -0.8717
 5694SOL     OW18522   1.678   4.853  11.182 -0.0931 -0.1285  0.0790
 5694SOL    HW118523   1.587   4.875  11.199 -0.1065 -0.0960 -0.0301
 5694SOL    HW218524   1.722   4.863  11.266 -0.0594  0.5280 -0.0113
 5695SOL     OW18525   1.623   5.772   0.320 -0.1260 -0.1089 -0.3242
 5695SOL    HW118526   1.679   5.778   0.397 -0.7545  3.0387  0.0041
 5695SOL    HW218527   1.542   5.732   0.352  0.3318 -0.6570  0.1682
 5696SOL     OW18528   0.608   6.331   1.751 -0.2523 -0.1380  0.2700
 5696SOL    HW118529   0.570   6.419   1.754  0.0129  0.0714 -1.2723
 5696SOL    HW218530   0.547   6.281   1.697  1.2366  0.0255 -1.6710
 5697SOL     OW18531   6.724   5.716   0.804  0.2330 -0.1750  0.9043
 5697SOL    HW118532   6.640   5.718   0.850 -1.1784  0.1168 -1.5327
 5697SOL    HW218533   6.708   5.763   0.722  2.6031 -0.6893  0.0671
 5698SOL     OW18534   0.889   5.425  10.010  0.0309 -0.1601  0.2310
 5698SOL    HW118535   0.814   5.365  10.009  2.4730 -3.4449 -0.3163
 5698SOL    HW218536   0.911   5.438   9.918  0.7411 -0.0227  0.4129
 5699SOL     OW18537   2.611   6.865  10.389  0.0193 -0.3841 -0.2641
 5699SOL    HW118538   2.580   6.838  10.302 -1.6245  0.7465 -0.0960
 5699SOL    HW218539   2.686   6.922  10.371 -0.0043 -0.5540 -0.9320
 5700SOL     OW18540   0.705   5.244  11.812  0.1951 -0.0980  0.1636
 5700SOL    HW118541   0.749   5.173  11.858 -0.5623 -0.3563  0.4994
 5700SOL    HW218542   0.689   5.210  11.724 -0.9838 -0.7073  0.5856
 5701SOL     OW18543   7.245   0.542  12.078  0.6561 -0.1531  0.3702
 5701SOL    HW118544   7.169   0.517  12.026  0.1302 -1.3033  1.6422
 5701SOL    HW218545   7.256   0.472  12.142  1.9251  0.6896  1.1437
 5702SOL     OW18546   2.588   7.078   0.414 -0.4296  0.0096 -0.3661
 5702SOL    HW118547   2.603   7.172   0.415 -1.8989  0.2683  0.4186
 5702SOL    HW218548   2.493   7.069   0.411 -0.3006 -1.4529 -0.6695
 5703SOL     OW18549   1.235   7.245   0.127 -0.2187 -0.0623 -0.4090
 5703SOL    HW118550   1.150   7.287   0.116  0.3301  0.8211 -1.4327
 5703SOL    HW218551   1.297   7.317   0.133  0.0550 -0.2482  6.4058
 5704SOL     OW18552   0.611   7.100   1.287  0.1025 -0.2487  0.2299
 5704SOL    HW118553   0.627   7.134   1.199  1.8555 -0.3625  0.4727
 5704SOL    HW218554   0.666   7.022   1.293  0.1817 -0.1136  1.5021
 5705SOL     OW18555   1.720   7.457   0.105 -0.1075 -0.3237 -0.2863
 5705SOL    HW118556   1.762   7.403   0.172 -1.2580 -1.3184 -0.3193
 5705SOL    HW218557   1.641   7.490   0.148  0.1458  0.6383 -0.5504
 5706SOL     OW18558   1.298   0.237  11.992  0.1461 -0.6213  0.1008
 5706SOL    HW118559   1.339   0.161  11.951  1.5609 -0.8340  1.8370
 5706SOL    HW218560   1.249   0.202  12.066 -2.5187 -0.2533 -1.3608
 5707SOL     OW18561   7.476   7.007   1.771  0.1490 -0.0471  0.5826
 5707SOL    HW118562   7.414   7.080   1.768  0.1440 -0.0780 -0.9538
 5707SOL    HW218563   7.426   6.934   1.808  0.0333  0.5928  1.7418
 5708SOL     OW18564   2.295   5.422  10.971  0.4393  0.5310 -0.4229
 5708SOL    HW118565   2.255   5.455  10.890 -0.0400 -0.6182 -0.6733
 5708SOL    HW218566   2.385   5.403  10.947  0.1621 -0.3064 -0.8530
 5709SOL     OW18567   0.817   6.394   0.740 -0.1330  0.3651 -0.0963
 5709SOL    HW118568   0.899   6.439   0.720 -0.2933  0.0593 -1.5107
 5709SOL    HW218569   0.812   6.322   0.678 -0.8487 -0.4323  0.8429
 5710SOL     OW18570   1.008   6.262   0.037  0.3269 -0.0853 -0.2929
 5710SOL    HW118571   0.946   6.217   0.096 -1.8865  1.4724 -1.2788
 5710SOL    HW218572   0.995   6.219  -0.047  1.5002 -0.5134 -0.2674
 5711SOL     OW18573   7.602   6.982   0.302 -0.0078  0.2711  0.2189
 5711SOL    HW118574   7.602   6.931   0.383  1.0686 -2.2315 -1.2404
 5711SOL    HW218575   7.691   7.015   0.295  0.0200  0.1216 -0.1461
 5712SOL     OW18576   3.013   4.728  11.015  0.0113 -0.0610  0.0411
 5712SOL    HW118577   3.001   4.744  11.109  2.1664 -2.2692  0.7926
 5712SOL    HW218578   3.000   4.634  11.005  1.3959 -0.1160 -1.5772
 5713SOL     OW18579   0.142   6.168  10.927  0.3039 -0.6697 -0.2328
 5713SOL    HW118580   0.133   6.171  11.022 -0.3778  1.3766 -0.3251
 5713SOL    HW218581   0.053   6.153  10.895  0.5455 -1.4614 -0.5658
 5714SOL     OW18582   7.739   5.925   9.943 -0.5597  0.7010 -0.2527
 5714SOL    HW118583   7.795   5.951  10.016  0.1762  2.2296 -1.3030
 5714SOL    HW218584   7.797   5.924   9.867 -1.9669  2.6617 -1.4415
 5715SOL     OW18585   1.399   5.702  11.275  0.0079  0.2038 -0.0116
 5715SOL    HW118586   1.322   5.757  11.293  1.0076  1.3503  0.8958
 5715SOL    HW218587   1.372   5.614  11.301 -1.9021  0.0269 -2.2197
 5716SOL     OW18588   1.240   0.247  11.362  0.1100  0.0561 -0.2368
 5716SOL    HW118589   1.307   0.201  11.312 -0.0513 -0.2610 -0.1618
 5716SOL    HW218590   1.278   0.261  11.448 -0.4849 -1.5001  0.3080
 5717SOL     OW18591   3.546   7.296  10.915 -0.1672  0.1624  0.1020
 5717SOL    HW118592   3.609   7.250  10.860  0.3412  1.0442 -0.0623
 5717SOL    HW218593   3.461   7.261  10.888  0.2956 -1.8766  1.1197
 5718SOL     OW18594   2.638   4.659  12.486 -1.1434  0.2282 -0.2005
 5718SOL    HW118595   2.572   4.679  12.553  0.0338  1.0939  0.7255
 5718SOL    HW218596   2.608   4.576  12.448 -1.9626 -0.1820  1.2479
 5719SOL     OW18597   1.298   7.081  11.183 -0.1261 -0.3631  0.2707
 5719SOL    HW118598   1.381   7.129  11.176  0.2784 -0.9104  1.1971
 5719SOL    HW218599   1.324   6.989  11.191 -0.8788 -0.6979 -0.8310
 5720SOL     OW18600   6.181   6.699  11.182 -0.4351  0.1119 -0.0092
 5720SOL    HW118601   6.182   6.681  11.088 -0.5936 -2.0045  0.3573
 5720SOL    HW218602   6.193   6.614  11.223  0.6861  1.1275  1.9066
 5721SOL     OW18603   2.535   6.964   0.187 -0.0702 -0.5998 -0.0385
 5721SOL    HW118604   2.610   6.937   0.135 -1.3745  0.8829 -2.9208
 5721SOL    HW218605   2.572   7.018   0.257  1.6057 -0.7888 -0.7484
 5722SOL     OW18606   0.029   6.814   0.684  0.1289  0.3358  0.2530
 5722SOL    HW118607   0.079   6.777   0.757 -4.2141 -0.5410  3.1597
 5722SOL    HW218608   0.039   6.909   0.695 -0.2740  0.2158  1.9335
 5723SOL     OW18609   0.484   7.886  11.844  0.8275  0.2914 -0.0674
 5723SOL    HW118610   0.396   7.888  11.882  0.5755  0.4015 -0.6571
 5723SOL    HW218611   0.522   7.804  11.876  1.0499  0.9190  1.3797
 5724SOL     OW18612   1.159   6.298   0.308  0.0788 -0.1987  0.3416
 5724SOL    HW118613   1.124   6.329   0.224 -1.5990 -0.4065  0.9244
 5724SOL    HW218614   1.226   6.363   0.331 -0.2675  0.5194 -0.5724
 5725SOL     OW18615   7.728   7.896  11.124  0.4511  0.3190  0.6499
 5725SOL    HW118616   7.734   7.946  11.206  0.0768 -0.5776  1.2360
 5725SOL    HW218617   7.780   7.947  11.062  0.4980  1.1744  1.3617
 5726SOL     OW18618   3.099   7.147   0.513  0.3565  0.6679  0.2069
 5726SOL    HW118619   3.028   7.096   0.550 -0.4584  1.3809 -0.3214
 5726SOL    HW218620   3.166   7.083   0.490 -0.3278 -0.0687  0.2438
 5727SOL     OW18621   0.687   6.449  11.850  0.5872 -0.0718 -0.1043
 5727SOL    HW118622   0.620   6.410  11.905 -0.6365 -0.5296 -1.8492
 5727SOL    HW218623   0.682   6.402  11.767  2.8374  0.1239 -0.4370
 5728SOL     OW18624   2.850   5.735   0.124 -0.3241 -0.7211 -0.5305
 5728SOL    HW118625   2.837   5.830   0.114  0.5799 -0.5038  0.2996
 5728SOL    HW218626   2.879   5.706   0.037 -1.3382 -0.3819 -1.0056
 5729SOL     OW18627   7.286   7.597  11.969  0.0381 -0.5296 -0.3099
 5729SOL    HW118628   7.377   7.619  11.953  0.3345 -0.5924  1.1847
 5729SOL    HW218629   7.287   7.506  11.998 -0.5840 -0.7522 -0.9511
 5730SOL     OW18630   1.420   7.979  12.304 -0.2523 -0.2838 -0.2984
 5730SOL    HW118631   1.504   8.024  12.298  0.5880 -1.7384  0.2452
 5730SOL    HW218632   1.355   8.049  12.291  0.9850  1.1701  0.9693
 5731SOL     OW18633   2.203   7.666  12.454  0.4105  0.2708 -0.0493
 5731SOL    HW118634   2.178   7.574  12.459  0.4326  0.1240 -1.9648
 5731SOL    HW218635   2.217   7.692  12.545 -1.1258 -1.1775  0.6637
 5732SOL     OW18636   0.020   4.555  10.511 -0.1702  0.5946 -0.3946
 5732SOL    HW118637  -0.006   4.643  10.486  0.9092  1.0262 -0.0934
 5732SOL    HW218638   0.115   4.562  10.527 -0.1099 -0.5619 -0.1392
 5733SOL     OW18639   1.347   5.786   0.888 -0.2293 -0.1257  0.0918
 5733SOL    HW118640   1.324   5.879   0.895 -0.0185  0.0401 -1.1266
 5733SOL    HW218641   1.264   5.740   0.901 -0.2784  0.2014  1.0415
 5734SOL     OW18642   0.136   6.611  11.794 -0.1249 -0.5455 -0.2666
 5734SOL    HW118643   0.197   6.670  11.838  2.3334 -1.6116 -1.9930
 5734SOL    HW218644   0.077   6.668  11.745  1.2115  0.5461 -0.6610
 5735SOL     OW18645   1.022   5.841  10.985  0.4273  0.5044  0.3081
 5735SOL    HW118646   1.000   5.837  11.078 -0.6954 -1.1708  0.0155
 5735SOL    HW218647   0.938   5.834  10.940  1.0222  0.4299 -0.8331
 5736SOL     OW18648   0.885   6.171  11.646 -0.1900  0.2147  0.7778
 5736SOL    HW118649   0.943   6.246  11.660 -1.2166  0.7569  2.3788
 5736SOL    HW218650   0.827   6.199  11.575  0.9728 -0.0602 -0.3359
 5737SOL     OW18651   2.315   5.060   0.591  0.1510 -0.2740  0.0768
 5737SOL    HW118652   2.284   5.012   0.668  0.5097 -2.0714 -0.8483
 5737SOL    HW218653   2.280   5.148   0.603 -0.6503 -0.7671  1.7876
 5738SOL     OW18654   0.296   7.112  12.251  0.6345 -0.6740 -0.1777
 5738SOL    HW118655   0.202   7.095  12.260  0.7159 -0.7758  0.5082
 5738SOL    HW218656   0.309   7.124  12.157 -0.2453  0.3530 -0.1936
 5739SOL     OW18657   2.416   6.425  10.715  0.2166  0.3467  0.0976
 5739SOL    HW118658   2.465   6.465  10.786 -1.1628 -1.0649  1.9336
 5739SOL    HW218659   2.328   6.413  10.750 -0.5381 -0.3114 -1.8905
 5740SOL     OW18660   1.839   6.458   0.881 -1.0625  0.1288 -0.5608
 5740SOL    HW118661   1.756   6.505   0.878 -1.1829 -0.0231  0.1983
 5740SOL    HW218662   1.817   6.369   0.851 -1.5644 -0.4351  1.3591
 5741SOL     OW18663   0.620   7.377  12.347  0.6218 -0.0651 -0.0666
 5741SOL    HW118664   0.532   7.407  12.369  0.8179  1.3688 -1.0702
 5741SOL    HW218665   0.658   7.350  12.431 -0.3872  0.3505  0.5461
 5742SOL     OW18666   1.454   7.566  12.090 -0.0387  0.1454  0.0618
 5742SOL    HW118667   1.398   7.642  12.107 -1.5128 -0.6853 -0.9379
 5742SOL    HW218668   1.394   7.493  12.078  1.3724 -1.4363  1.9302
 5743SOL     OW18669   1.596   6.838   1.871  0.0585 -0.2894 -0.5642
 5743SOL    HW118670   1.655   6.766   1.892 -0.0076 -0.2427 -0.2177
 5743SOL    HW218671   1.531   6.838   1.941 -0.2067 -0.1814 -0.8086
 5744SOL     OW18672   7.799   0.379   2.036  0.0895 -0.1207  0.1944
 5744SOL    HW118673   7.708   0.357   2.018  0.1111 -0.5126  0.5252
 5744SOL    HW218674   7.841   0.294   2.055  0.4757  0.0743  0.2324
 5745SOL     OW18675   2.623   4.915   1.288 -0.4631 -0.2018  0.2676
 5745SOL    HW118676   2.716   4.937   1.283 -0.5841  0.2279 -0.1180
 5745SOL    HW218677   2.622   4.823   1.317  0.0830 -0.2967 -0.0005
 5746SOL     OW18678   1.602   7.521   0.772 -0.6168 -0.2172  0.0846
 5746SOL    HW118679   1.611   7.431   0.742  0.1169 -0.3362  0.6210
 5746SOL    HW218680   1.511   7.528   0.801 -0.8527 -0.5909 -0.5598
 5747SOL     OW18681   0.296   6.371   0.668  0.4172 -0.2918  0.2771
 5747SOL    HW118682   0.321   6.455   0.706  0.1020 -0.1067  0.0776
 5747SOL    HW218683   0.289   6.311   0.743 -0.4957  0.1410  0.5554
 5748SOL     OW18684   7.789   0.038   1.511  0.2071  0.1299 -0.5388
 5748SOL    HW118685   7.849  -0.026   1.548 -1.4866 -0.1977  1.8885
 5748SOL    HW218686   7.828   0.123   1.533  0.5783 -0.0693 -0.4254
 5749SOL     OW18687   0.702   0.196   0.886 -0.1599 -0.4188 -0.1619
 5749SOL    HW118688   0.676   0.283   0.855 -0.6398 -0.8019 -0.8477
 5749SOL    HW218689   0.631   0.138   0.860  0.2497 -1.0600  0.1092
 5750SOL     OW18690   1.347   0.800   1.334  0.5264  0.3399 -0.0201
 5750SOL    HW118691   1.371   0.884   1.295 -0.9938  0.4792 -0.7161
 5750SOL    HW218692   1.372   0.808   1.426  1.7560  0.9848 -0.3958
 5751SOL     OW18693   2.144   0.025   2.821 -0.1037  0.7175  0.1354
 5751SOL    HW118694   2.178  -0.054   2.778  0.5839  1.2845 -0.3861
 5751SOL    HW218695   2.057   0.037   2.783 -1.2547 -1.1006  1.9312
 5752SOL     OW18696   1.743   0.287   1.235  0.1456 -0.3179  0.2480
 5752SOL    HW118697   1.685   0.353   1.195  0.5467 -0.5395 -0.7140
 5752SOL    HW218698   1.684   0.217   1.261  0.0413 -0.9317 -1.5185
 5753SOL     OW18699   0.001   7.497  12.220  0.3743 -0.2904 -0.0082
 5753SOL    HW118700  -0.042   7.412  12.211  0.4603 -0.3511  0.1500
 5753SOL    HW218701   0.082   7.489  12.169  1.4288 -1.0212  1.6974
 5754SOL     OW18702   3.492   7.344   3.012 -0.4172  0.4913 -0.1564
 5754SOL    HW118703   3.472   7.434   2.986 -0.1783  0.9928  1.3171
 5754SOL    HW218704   3.584   7.345   3.035 -0.9228  0.4605  2.0937
 5755SOL     OW18705   1.244   6.741   0.316 -0.5672 -0.1881 -0.3747
 5755SOL    HW118706   1.334   6.773   0.328 -0.1977 -0.9675 -0.9731
 5755SOL    HW218707   1.255   6.652   0.281 -1.5717 -0.6240  0.3769
 5756SOL     OW18708   6.625   7.320   1.909 -0.7350 -0.0729  0.1718
 5756SOL    HW118709   6.536   7.296   1.936 -1.4625  0.1376 -1.9321
 5756SOL    HW218710   6.633   7.413   1.930 -1.3383  0.1252 -0.4699
 5757SOL     OW18711   0.022   0.549   0.376 -0.4235  0.2615  0.4356
 5757SOL    HW118712  -0.011   0.485   0.439  0.9421  1.1669  2.1708
 5757SOL    HW218713   0.112   0.566   0.404 -0.0722  1.3990 -1.2238
 5758SOL     OW18714   1.797   7.343   2.306  0.4610  0.1473  0.2177
 5758SOL    HW118715   1.844   7.265   2.275 -1.5934 -0.3191 -2.0724
 5758SOL    HW218716   1.832   7.415   2.253  1.3368  0.5395  1.3075
 5759SOL     OW18717   2.668   0.010   0.332 -0.0834  0.3999  0.4035
 5759SOL    HW118718   2.618   0.083   0.297  1.5467  0.4685 -2.0525
 5759SOL    HW218719   2.615  -0.067   0.311  0.4754  0.5137 -1.6973
 5760SOL     OW18720   2.385   0.477  11.728  0.1652  0.0154 -0.6100
 5760SOL    HW118721   2.302   0.442  11.694 -1.2336  2.5816 -0.1123
 5760SOL    HW218722   2.380   0.462  11.823  0.2444  0.1828 -0.5791
 5761SOL     OW18723   2.913   0.459   0.949  0.3231  0.3532  0.8095
 5761SOL    HW118724   2.833   0.412   0.931  1.5819 -1.6141  0.0722
 5761SOL    HW218725   2.950   0.415   1.026  0.2449  1.8663  1.7549
 5762SOL     OW18726   1.715   0.148   0.544 -0.2094 -0.3468  0.4691
 5762SOL    HW118727   1.665   0.120   0.467 -1.1601 -0.4192  1.0933
 5762SOL    HW218728   1.695   0.083   0.611 -2.2191  1.5118  1.8531
 5763SOL     OW18729   1.371   6.814   0.028  0.2659 -0.4760  0.5961
 5763SOL    HW118730   1.318   6.849   0.099 -0.1016  0.4787 -0.1222
 5763SOL    HW218731   1.348   6.721   0.024 -1.9121  0.0352 -0.1278
 5764SOL     OW18732   1.578   7.506   1.938  0.1384  0.1486  0.7512
 5764SOL    HW118733   1.487   7.478   1.933 -0.7585  2.1921  3.4562
 5764SOL    HW218734   1.588   7.543   2.026  2.9555  2.0560 -0.2126
 5765SOL     OW18735   0.781   7.894   3.012 -0.0946 -0.1142 -0.0540
 5765SOL    HW118736   0.739   7.921   3.095  0.4315 -0.1281  0.2212
 5765SOL    HW218737   0.708   7.874   2.954 -0.5967  2.7314 -0.5677
 5766SOL     OW18738   2.574   7.659   2.201  0.1220 -0.1407 -0.5605
 5766SOL    HW118739   2.636   7.614   2.144  0.1779 -2.1911  1.0040
 5766SOL    HW218740   2.626   7.688   2.276 -0.7167 -1.8822  0.7678
 5767SOL     OW18741   6.369   7.820   1.345 -0.0466 -0.1951 -0.3784
 5767SOL    HW118742   6.276   7.817   1.370  0.1220 -1.5872  0.1393
 5767SOL    HW218743   6.413   7.764   1.408  1.2638  0.9534 -0.2279
 5768SOL     OW18744   0.067   0.530   0.111 -0.8358  0.4351 -0.7165
 5768SOL    HW118745  -0.012   0.504   0.063 -1.0271 -1.5202  0.5485
 5768SOL    HW218746   0.037   0.544   0.201  0.0737  0.7342 -0.4480
 5769SOL     OW18747   0.642   7.416   0.737 -0.4412 -0.1117  0.3965
 5769SOL    HW118748   0.592   7.336   0.719  1.3681 -1.2113  0.0234
 5769SOL    HW218749   0.612   7.444   0.823 -0.5744 -1.6181  0.8668
 5770SOL     OW18750   1.742   6.159   1.126  0.1616  0.2148  0.3448
 5770SOL    HW118751   1.697   6.242   1.141  0.2742  0.3232  0.0897
 5770SOL    HW218752   1.711   6.102   1.196 -0.1899  0.3624  0.3116
 5771SOL     OW18753   2.739   5.040  12.465 -0.0195  0.5061  0.0427
 5771SOL    HW118754   2.656   4.992  12.470  1.2061 -1.6182  0.8277
 5771SOL    HW218755   2.713   5.132  12.473 -2.2513 -0.1362  0.8479
 5772SOL     OW18756   0.642   7.048   2.149 -0.5047 -0.1494 -0.3544
 5772SOL    HW118757   0.624   6.976   2.208  0.8755  0.2751  0.6403
 5772SOL    HW218758   0.660   7.123   2.206  1.2180  0.1892 -1.2546
 5773SOL     OW18759   2.901   6.389   1.833 -0.3088 -0.1909 -0.0417
 5773SOL    HW118760   2.883   6.297   1.849  0.4188 -0.2923  0.2384
 5773SOL    HW218761   2.981   6.407   1.882 -2.0869  1.3643  2.5779
 5774SOL     OW18762   7.950   6.384   1.345  0.2679 -0.0619  0.8252
 5774SOL    HW118763   8.013   6.445   1.383 -0.4931  0.9806  0.4582
 5774SOL    HW218764   7.869   6.401   1.393  0.3759 -1.8275  1.7436
 5775SOL     OW18765   7.757   5.548   2.187  0.6955  0.2009 -0.4547
 5775SOL    HW118766   7.712   5.468   2.217  0.6801  0.0762 -0.8044
 5775SOL    HW218767   7.848   5.522   2.179  0.7646  0.3409 -0.1514
 5776SOL     OW18768   0.917   0.941   2.164  0.1262 -0.3519 -0.1219
 5776SOL    HW118769   0.953   1.020   2.205  0.0023 -1.2046  1.7253
 5776SOL    HW218770   0.946   0.869   2.221 -1.4274 -1.4289 -0.6321
 5777SOL     OW18771   0.004   0.434  12.142  0.8544 -0.2982 -0.4824
 5777SOL    HW118772   0.008   0.367  12.211 -1.2626  1.3016  1.3391
 5777SOL    HW218773   0.043   0.512  12.183  1.3735  0.1813 -1.8317
 5778SOL     OW18774   2.468   7.479   0.977  0.9763  0.2187 -0.0517
 5778SOL    HW118775   2.430   7.496   1.063  0.3599  0.1356 -0.2996
 5778SOL    HW218776   2.403   7.424   0.933  0.6977  1.2925 -1.0161
 5779SOL     OW18777   2.108   7.971   0.368 -0.1576 -0.0576  0.5819
 5779SOL    HW118778   2.070   8.041   0.422  1.6144  0.9071  0.6643
 5779SOL    HW218779   2.105   7.894   0.425 -3.3920 -0.4866  0.0113
 5780SOL     OW18780   1.943   7.276   0.590  0.0437 -0.2060  0.2603
 5780SOL    HW118781   1.955   7.189   0.629 -3.2252 -0.7225  0.3735
 5780SOL    HW218782   1.902   7.327   0.660  0.5440  0.9988 -0.3110
 5781SOL     OW18783   2.509   0.938   1.200  0.1492 -0.1981  0.1504
 5781SOL    HW118784   2.454   1.015   1.189  0.3100 -0.2313 -0.9963
 5781SOL    HW218785   2.591   0.972   1.236 -0.7385 -0.2045  2.2877
 5782SOL     OW18786   0.805   6.674   2.022  0.0590 -0.1882 -0.0951
 5782SOL    HW118787   0.886   6.721   2.001 -0.0060 -0.3631 -0.7596
 5782SOL    HW218788   0.835   6.591   2.058  0.1761 -0.2031 -0.2239
 5783SOL     OW18789   6.209   0.839   1.719  0.2068  0.0347  0.2344
 5783SOL    HW118790   6.206   0.927   1.681 -0.5710 -0.3869 -0.7311
 5783SOL    HW218791   6.209   0.780   1.643 -0.4213 -0.8193  0.8717
 5784SOL     OW18792   0.097   7.439   1.331 -0.6054  0.1720  0.7851
 5784SOL    HW118793   0.049   7.415   1.410 -1.5320  1.4168  0.6295
 5784SOL    HW218794   0.179   7.475   1.363 -0.4861 -0.3747  1.1187
 5785SOL     OW18795   2.237   7.189   1.510  0.4567  0.6724 -0.0941
 5785SOL    HW118796   2.191   7.250   1.567 -1.3929  0.5640 -1.3464
 5785SOL    HW218797   2.247   7.110   1.562  0.3362  1.1223  0.6216
 5786SOL     OW18798   2.183   6.985   0.700 -0.1798  0.1591  0.4297
 5786SOL    HW118799   2.140   6.995   0.785 -0.8389  0.1278  0.1076
 5786SOL    HW218800   2.226   7.069   0.684 -0.2247  0.2336  0.6964
 5787SOL     OW18801   7.899   0.131   2.064 -0.1624  0.0835 -0.3752
 5787SOL    HW118802   7.880   0.088   2.148 -1.7441  2.2945  0.4784
 5787SOL    HW218803   7.872   0.067   1.998  0.5227 -1.4507  0.7690
 5788SOL     OW18804   1.659   7.061   0.363 -0.2458 -0.7790 -0.0528
 5788SOL    HW118805   1.598   6.992   0.336  0.1603 -0.8496 -0.8458
 5788SOL    HW218806   1.731   7.014   0.405  0.6755 -1.0075 -1.7796
 5789SOL     OW18807   1.325   7.598   0.589 -0.4247  0.1000  0.1824
 5789SOL    HW118808   1.258   7.646   0.637 -1.0143  0.2978 -0.8119
 5789SOL    HW218809   1.407   7.641   0.612 -0.8029  0.7723  0.3000
 5790SOL     OW18810   0.804   6.698  12.129 -0.6095 -0.4139  0.5559
 5790SOL    HW118811   0.822   6.792  12.131  0.4973 -0.6175  2.2136
 5790SOL    HW218812   0.796   6.673  12.221 -2.6718 -1.6576  0.1004
 5791SOL     OW18813   2.160   7.751   0.205 -0.1687 -0.0137  0.5550
 5791SOL    HW118814   2.080   7.699   0.198  0.3559 -0.8069  0.4300
 5791SOL    HW218815   2.136   7.824   0.262 -1.4093  0.5817 -0.6429
 5792SOL     OW18816   1.771   7.821   1.107  0.1181  0.2645 -0.3290
 5792SOL    HW118817   1.843   7.833   1.168 -0.5951  1.1015  0.3687
 5792SOL    HW218818   1.782   7.731   1.075  1.8405  0.5882 -0.7525
 5793SOL     OW18819   2.967   0.528   2.416 -0.3234 -0.5821  0.2515
 5793SOL    HW118820   2.950   0.617   2.446  1.2556 -0.0672 -0.2385
 5793SOL    HW218821   3.045   0.501   2.465  0.6880 -0.7328 -1.3540
 5794SOL     OW18822   0.797   0.112   0.494  0.0626  0.6705  0.1616
 5794SOL    HW118823   0.784   0.186   0.434  1.1908  2.4240  1.9730
 5794SOL    HW218824   0.711   0.100   0.535 -0.1390  0.9890 -0.1609
 5795SOL     OW18825   7.791   7.897   1.221  0.0602  0.1589  0.1748
 5795SOL    HW118826   7.775   7.807   1.248  1.3296  0.3726  1.7753
 5795SOL    HW218827   7.771   7.949   1.298 -0.4757  1.2481 -0.6724
 5796SOL     OW18828   0.641   1.067   0.034 -0.0553  0.3411  0.0227
 5796SOL    HW118829   0.592   1.144   0.063 -1.1470 -0.8444  1.4787
 5796SOL    HW218830   0.731   1.084   0.060 -0.4582  0.7103  1.2355
 5797SOL     OW18831   7.395   0.647  12.355 -0.0470 -0.3865 -0.2690
 5797SOL    HW118832   7.397   0.586  12.429 -0.5200 -2.7064 -2.0497
 5797SOL    HW218833   7.457   0.609  12.292 -0.6313  0.7958 -1.6004
 5798SOL     OW18834   1.129   2.269  12.027 -0.2164 -0.6731  0.9133
 5798SOL    HW118835   1.111   2.358  11.997 -0.8566 -0.6890  1.2306
 5798SOL    HW218836   1.165   2.224  11.950  0.5949 -0.0075  0.8871
 5799SOL     OW18837   0.291   0.346   0.113 -0.2504  0.1315 -0.1463
 5799SOL    HW118838   0.324   0.336   0.202 -0.6057  0.6422  0.0502
 5799SOL    HW218839   0.210   0.396   0.124 -1.5186 -1.7544 -0.5361
 5800SOL     OW18840   2.351   6.242   2.409  0.1686  0.2204  1.1973
 5800SOL    HW118841   2.380   6.153   2.392 -0.9599 -0.5648  3.0451
 5800SOL    HW218842   2.409   6.273   2.478 -0.0427  0.5747  1.2187
 5801SOL     OW18843   2.620   0.561   3.269  0.1641  0.1029  0.4958
 5801SOL    HW118844   2.639   0.633   3.209 -1.4236  1.5217  1.6147
 5801SOL    HW218845   2.536   0.583   3.308 -0.9573 -2.9085  0.1008
 5802SOL     OW18846   7.823   7.326   0.647  0.4360 -0.3933 -0.8293
 5802SOL    HW118847   7.891   7.262   0.664  2.4869  1.2801 -2.2265
 5802SOL    HW218848   7.864   7.390   0.589 -2.7030  0.0438 -2.8247
 5803SOL     OW18849   3.167   0.835   2.317  0.7117 -0.7857 -0.1569
 5803SOL    HW118850   3.100   0.838   2.385 -0.4526  1.1692 -1.2889
 5803SOL    HW218851   3.167   0.923   2.278  3.3821 -0.9419 -0.7703
 5804SOL     OW18852   7.614   0.310   1.644 -0.3296  0.1733 -0.0320
 5804SOL    HW118853   7.619   0.397   1.683  0.5578 -0.6638  1.8665
 5804SOL    HW218854   7.703   0.293   1.612  0.0628 -0.7978  1.4655
 5805SOL     OW18855   1.295   1.243   1.028  0.2626  0.4268  0.0014
 5805SOL    HW118856   1.252   1.328   1.022  0.3993  0.5022  0.0867
 5805SOL    HW218857   1.306   1.215   0.937 -2.3144 -0.7909 -0.0322
 5806SOL     OW18858   1.951   1.775  11.992 -0.9703 -0.0251 -0.4698
 5806SOL    HW118859   2.036   1.734  12.007 -1.8546 -1.3522  1.2845
 5806SOL    HW218860   1.956   1.808  11.902  0.9488 -1.1596 -0.8457
 5807SOL     OW18861   1.259   5.602   0.003  0.2935 -0.0127 -0.2431
 5807SOL    HW118862   1.275   5.655   0.081  1.8057  0.2773 -0.7262
 5807SOL    HW218863   1.210   5.527   0.035 -1.1139  1.2068  0.6060
 5808SOL     OW18864   7.748   7.784   3.335 -0.3573  0.2672 -0.0107
 5808SOL    HW118865   7.783   7.819   3.417  1.4635 -0.3139 -0.5056
 5808SOL    HW218866   7.659   7.821   3.330 -0.9680 -0.5629  2.7573
 5809SOL     OW18867   0.279   7.301   2.857 -0.4211 -0.0188 -0.5292
 5809SOL    HW118868   0.234   7.274   2.937  1.2047 -1.3849 -0.0316
 5809SOL    HW218869   0.214   7.287   2.788 -1.8139  1.0674  0.4895
 5810SOL     OW18870   0.655   7.254   1.052  0.1035 -0.4781 -0.1006
 5810SOL    HW118871   0.598   7.330   1.043  0.7065 -0.1388 -1.3393
 5810SOL    HW218872   0.735   7.279   1.004  0.7477 -1.4525  0.4483
 5811SOL     OW18873   1.846   0.531   3.036 -0.4746 -0.2664  0.0675
 5811SOL    HW118874   1.788   0.540   3.112  0.9406  0.7020  1.0687
 5811SOL    HW218875   1.877   0.441   3.041  1.0463  0.2843  1.7748
 5812SOL     OW18876   0.937   0.152   5.235 -0.2840  0.0132  0.2039
 5812SOL    HW118877   0.976   0.082   5.286  0.8063 -0.5192 -1.2698
 5812SOL    HW218878   0.999   0.225   5.244 -0.1151 -0.0649 -0.2871
 5813SOL     OW18879   1.819   6.663   1.995 -0.1299 -0.1175 -0.1857
 5813SOL    HW118880   1.781   6.645   2.081 -2.2139 -1.7233 -1.3378
 5813SOL    HW218881   1.909   6.632   2.001 -0.7266 -1.7839  0.9692
 5814SOL     OW18882   0.938   7.298   1.418  0.4949  0.2839  0.1485
 5814SOL    HW118883   0.964   7.224   1.364  0.0385 -0.0078  0.3284
 5814SOL    HW218884   0.891   7.356   1.358 -1.3010 -0.7203  0.5221
 5815SOL     OW18885   7.742   6.545   1.848 -0.4137 -0.4272  1.3666
 5815SOL    HW118886   7.652   6.578   1.854  0.5078  2.6008  0.0946
 5815SOL    HW218887   7.794   6.606   1.901  1.5461  1.0943 -1.9952
 5816SOL     OW18888   0.266   0.027   2.742  0.3633 -0.0474 -0.1381
 5816SOL    HW118889   0.271  -0.053   2.690  0.1474 -0.3351  0.2740
 5816SOL    HW218890   0.203   0.006   2.811 -0.3587  0.7667 -0.5297
 5817SOL     OW18891   1.265   7.106   1.731 -0.3741 -0.7286 -0.2328
 5817SOL    HW118892   1.347   7.076   1.692 -1.6371 -1.2082 -2.7387
 5817SOL    HW218893   1.216   7.025   1.748 -1.1507 -0.3763 -0.7444
 5818SOL     OW18894   1.917   7.379   2.977 -0.2372 -0.1409  0.1334
 5818SOL    HW118895   1.953   7.377   2.889  1.2926  1.5607  0.6488
 5818SOL    HW218896   1.948   7.298   3.017 -1.2814 -1.1226 -0.9746
 5819SOL     OW18897   3.060   6.786   2.863  0.5672 -0.0395 -0.2293
 5819SOL    HW118898   3.041   6.782   2.956  1.3038 -0.7507 -0.0929
 5819SOL    HW218899   3.073   6.879   2.845  2.4424 -0.0404  0.8323
 5820SOL     OW18900   2.224   6.691   3.999 -0.0468 -0.6308  0.1692
 5820SOL    HW118901   2.143   6.675   3.951  0.4148  0.3993 -1.0305
 5820SOL    HW218902   2.219   6.783   4.024  0.0543 -0.9696  1.4729
 5821SOL     OW18903   1.988   0.742   3.437 -0.1101  0.4098  0.3974
 5821SOL    HW118904   2.052   0.699   3.494  1.4705  1.9369 -0.1275
 5821SOL    HW218905   1.988   0.833   3.466 -0.0978  0.9826 -1.3097
 5822SOL     OW18906   0.934   7.330   3.329  0.6768 -0.0460 -0.1783
 5822SOL    HW118907   1.014   7.382   3.334  1.3671 -1.0538 -0.2619
 5822SOL    HW218908   0.911   7.330   3.237  2.5741 -2.5513 -0.7755
 5823SOL     OW18909   7.195   7.459   2.120  0.4592 -0.0001 -0.2266
 5823SOL    HW118910   7.106   7.493   2.126 -0.7246 -2.9418  1.1024
 5823SOL    HW218911   7.251   7.534   2.139 -1.7527  1.7783 -0.3177
 5824SOL     OW18912   7.747   7.930   3.632 -0.3160 -0.1388 -0.3893
 5824SOL    HW118913   7.755   7.947   3.726  1.3541  1.0322 -0.6967
 5824SOL    HW218914   7.699   8.005   3.598  1.1018  0.6291 -0.7723
 5825SOL     OW18915   0.615   7.970   3.542  0.2319  0.4068  0.6514
 5825SOL    HW118916   0.583   7.987   3.453  1.3343 -0.0775  0.1394
 5825SOL    HW218917   0.604   7.876   3.554  0.3865  0.4186  0.9018
 5826SOL     OW18918   2.052   7.116   3.862 -0.5712 -0.0735 -0.9343
 5826SOL    HW118919   2.048   7.203   3.901  0.3367 -0.8253  0.9354
 5826SOL    HW218920   2.078   7.132   3.771 -2.2113  1.6897 -1.1715
 5827SOL     OW18921   7.992   0.535   1.965 -0.1478  0.4704 -0.2117
 5827SOL    HW118922   7.945   0.584   1.897 -0.7456 -1.9171 -1.6281
 5827SOL    HW218923   7.932   0.464   1.989  1.8729 -1.4764 -0.5946
 5828SOL     OW18924   7.163   7.266   3.717  0.4056  0.1698  0.4263
 5828SOL    HW118925   7.101   7.331   3.750  0.7525 -0.3249  2.1706
 5828SOL    HW218926   7.248   7.311   3.719  0.3045  0.4536 -0.8025
 5829SOL     OW18927   1.581   0.214   3.082 -0.2970  0.5520 -0.6933
 5829SOL    HW118928   1.542   0.302   3.091 -1.1247  0.1445 -0.1001
 5829SOL    HW218929   1.528   0.171   3.015  1.5282  1.2292 -2.6968
 5830SOL     OW18930   0.825   6.560   1.336 -0.1842 -0.3038 -0.3940
 5830SOL    HW118931   0.835   6.571   1.430 -0.4651 -0.1249 -0.3830
 5830SOL    HW218932   0.754   6.621   1.312 -0.2336 -0.4756 -0.6903
 5831SOL     OW18933   3.118   1.318   3.414  0.4521 -0.2080  0.1143
 5831SOL    HW118934   3.189   1.363   3.460  1.0972  0.1756 -1.1899
 5831SOL    HW218935   3.137   1.225   3.425  1.2679 -0.1109 -0.3505
 5832SOL     OW18936   2.702   7.789   1.535  0.2922  0.1080  0.9497
 5832SOL    HW118937   2.787   7.760   1.501  0.7143 -1.3280  3.0287
 5832SOL    HW218938   2.662   7.709   1.571 -2.5020  0.4962 -0.9864
 5833SOL     OW18939   7.422   0.617   1.516  0.1239 -0.0868 -0.5591
 5833SOL    HW118940   7.358   0.547   1.532  0.1442  0.1060  0.4193
 5833SOL    HW218941   7.376   0.680   1.461 -0.4585 -0.0721 -0.0649
 5834SOL     OW18942   0.456   0.908   1.738 -0.3597  0.1922  0.3419
 5834SOL    HW118943   0.487   0.821   1.711 -0.9188  0.5516 -1.6047
 5834SOL    HW218944   0.536   0.956   1.762  0.0195 -0.6126  0.7242
 5835SOL     OW18945   1.556   5.383   1.667  0.0372 -0.1279 -0.1867
 5835SOL    HW118946   1.494   5.311   1.659  0.6068 -0.5985 -0.4680
 5835SOL    HW218947   1.556   5.425   1.582  0.4671 -0.4389 -0.3452
 5836SOL     OW18948   7.078   7.277   1.376 -0.0875 -0.1717  0.0562
 5836SOL    HW118949   7.013   7.334   1.418  0.0883 -1.2748  1.9157
 5836SOL    HW218950   7.038   7.191   1.375  0.6287 -0.5099 -0.4605
 5837SOL     OW18951   0.727   6.596   2.301  0.3064  0.5409  0.3433
 5837SOL    HW118952   0.697   6.620   2.388 -1.7146  0.1093 -0.1732
 5837SOL    HW218953   0.690   6.663   2.243 -0.5711 -0.5787 -0.4462
 5838SOL     OW18954   1.173   0.523   3.805 -0.4284  0.4755 -0.1312
 5838SOL    HW118955   1.237   0.564   3.746 -0.2771 -1.3307 -1.2771
 5838SOL    HW218956   1.136   0.452   3.754 -0.1022 -1.3544  2.0451
 5839SOL     OW18957   0.312   7.453   4.805 -0.3860 -0.5920 -0.4032
 5839SOL    HW118958   0.356   7.415   4.882 -0.1383  0.6908  0.1036
 5839SOL    HW218959   0.302   7.545   4.826 -2.9867 -0.7396 -0.6866
 5840SOL     OW18960   0.919   7.545   2.070  0.1194  0.2347  0.3644
 5840SOL    HW118961   0.957   7.609   2.131 -0.4736  0.0094  0.9843
 5840SOL    HW218962   0.948   7.460   2.104  1.1462  0.1692 -0.6222
 5841SOL     OW18963   6.321   0.012   3.885 -0.2569  0.2434  0.2200
 5841SOL    HW118964   6.363   0.094   3.910  0.0226  0.2776 -0.3504
 5841SOL    HW218965   6.389  -0.036   3.838 -1.0031  0.5143 -1.1659
 5842SOL     OW18966   1.730   7.826   2.889  0.1791 -0.0493 -0.3807
 5842SOL    HW118967   1.732   7.734   2.917 -0.7721 -0.4775 -1.6564
 5842SOL    HW218968   1.644   7.838   2.850 -0.5978  2.0287  1.7321
 5843SOL     OW18969   6.717   6.473   4.305 -0.0363 -0.1482  0.3203
 5843SOL    HW118970   6.668   6.535   4.360 -0.2161  0.8101 -0.8707
 5843SOL    HW218971   6.668   6.470   4.223  0.5507 -1.0961 -0.0097
 5844SOL     OW18972   4.142   1.105   3.264  0.5378  0.2831  0.4171
 5844SOL    HW118973   4.177   1.031   3.215  1.0510  1.7197 -1.5420
 5844SOL    HW218974   4.057   1.076   3.296  0.1458 -0.7206 -1.4201
 5845SOL     OW18975   1.387   6.813   1.339  0.1426  0.2546  0.3110
 5845SOL    HW118976   1.480   6.836   1.340  0.5211 -1.0407 -1.0680
 5845SOL    HW218977   1.353   6.852   1.259 -0.1237 -0.5923 -0.0023
 5846SOL     OW18978   2.054   6.324   1.989  0.4239  0.4116  0.1852
 5846SOL    HW118979   2.048   6.402   2.044  0.6791  0.8756 -0.4242
 5846SOL    HW218980   2.134   6.280   2.019 -0.0201  0.0802  0.9048
 5847SOL     OW18981   1.267   7.558   2.463  0.2249 -0.2091 -0.2738
 5847SOL    HW118982   1.203   7.496   2.426 -0.7719  0.6529 -0.0555
 5847SOL    HW218983   1.347   7.507   2.472 -0.0273 -0.9534 -1.8695
 5848SOL     OW18984   2.036   0.037   0.956  0.2229  0.2763 -0.1499
 5848SOL    HW118985   1.956   0.000   0.918  1.4056 -1.6150 -0.9860
 5848SOL    HW218986   2.074  -0.036   1.006  0.8711  1.4689  1.1573
 5849SOL     OW18987   1.097   6.977   2.497  0.8085 -0.4343 -0.0924
 5849SOL    HW118988   1.024   6.940   2.446  0.2458  0.6259 -0.0998
 5849SOL    HW218989   1.175   6.957   2.446  0.5222 -1.5127 -0.1318
 5850SOL     OW18990   1.252   0.063   3.351 -0.7540  0.6039 -0.2059
 5850SOL    HW118991   1.206   0.026   3.426 -0.6535 -0.5774 -0.7123
 5850SOL    HW218992   1.320   0.119   3.390 -1.1123  0.5078  0.5697
 5851SOL     OW18993   7.834   7.341   4.115 -0.5328 -0.3298  0.1293
 5851SOL    HW118994   7.801   7.423   4.152  0.1050 -0.3088  0.6736
 5851SOL    HW218995   7.791   7.273   4.167 -1.0929 -0.3482 -0.3485
 5852SOL     OW18996   0.448   7.015   3.887  0.2949 -0.5900  0.3240
 5852SOL    HW118997   0.398   6.978   3.815 -0.7695 -0.9551  1.2120
 5852SOL    HW218998   0.394   6.999   3.965  0.4263  1.6026  0.9421
 5853SOL     OW18999   0.264   6.612   1.388  0.5849 -0.1622  0.2778
 5853SOL    HW119000   0.261   6.702   1.420 -1.9323  0.5292 -1.5917
 5853SOL    HW219001   0.310   6.617   1.305  1.3678 -0.8176  0.6588
 5854SOL     OW19002   2.075   0.804   2.536  0.0947 -0.2066 -0.1779
 5854SOL    HW119003   2.143   0.868   2.514  0.0643 -0.6086 -1.5156
 5854SOL    HW219004   2.028   0.844   2.609  0.8859  0.7077 -0.1406
 5855SOL     OW19005   0.545   7.324   2.973  0.0152 -0.0577  0.0799
 5855SOL    HW119006   0.461   7.309   2.930 -0.8366 -0.0578  1.6682
 5855SOL    HW219007   0.530   7.298   3.064  1.5272  0.6344  0.5545
 5856SOL     OW19008   0.352   0.901   4.621 -0.3719 -0.4272 -0.2670
 5856SOL    HW119009   0.369   0.822   4.672  0.4349 -0.3537 -0.3993
 5856SOL    HW219010   0.400   0.970   4.667  3.2063 -0.9324 -2.7891
 5857SOL     OW19011   3.002   6.903   2.542  0.4036  0.4248  0.3393
 5857SOL    HW119012   3.060   6.961   2.492  1.6478 -1.3388 -0.3888
 5857SOL    HW219013   3.006   6.936   2.631  1.3204  1.2792  0.0085
 5858SOL     OW19014   0.991   7.292   2.125 -0.2576 -0.1164  0.0793
 5858SOL    HW119015   1.077   7.265   2.092  0.2039 -0.5983  1.5942
 5858SOL    HW219016   0.929   7.235   2.081  0.4876 -1.9330  1.2676
 5859SOL     OW19017   6.569   6.463   3.064  0.2225 -0.1202  0.0411
 5859SOL    HW119018   6.559   6.554   3.035 -0.7299 -0.8793 -2.2408
 5859SOL    HW219019   6.480   6.436   3.086  0.4178 -0.6814  0.1389
 5860SOL     OW19020   1.442   7.616   1.080  0.3043  0.4581 -0.1987
 5860SOL    HW119021   1.439   7.710   1.095  0.7357  0.6238 -1.1234
 5860SOL    HW219022   1.487   7.581   1.157  1.3159  1.1507 -0.4624
 5861SOL     OW19023   0.760   7.967   2.592 -0.0595 -0.0312 -0.5449
 5861SOL    HW119024   0.753   7.880   2.554 -1.2372  0.3682 -1.3127
 5861SOL    HW219025   0.691   7.971   2.658 -0.5606  0.5701 -1.0813
 5862SOL     OW19026   2.429   0.227   3.962 -0.0146  0.0487  0.1937
 5862SOL    HW119027   2.455   0.317   3.945  1.1315 -0.1890  0.6222
 5862SOL    HW219028   2.472   0.204   4.044 -0.5941 -0.7710  0.2809
 5863SOL     OW19029   6.460   0.700   4.135  0.0809 -0.6091 -0.0328
 5863SOL    HW119030   6.511   0.771   4.096 -1.1134 -0.1157 -0.7541
 5863SOL    HW219031   6.448   0.727   4.226  0.6536 -0.4804  0.0091
 5864SOL     OW19032   6.391   0.869   2.727 -0.7007  0.4810  0.0790
 5864SOL    HW119033   6.439   0.949   2.747  0.3933  0.1110 -0.9040
 5864SOL    HW219034   6.315   0.898   2.676 -0.8173  0.9701  0.5307
 5865SOL     OW19035   1.314   0.371   4.296 -0.1484 -0.2165  0.1772
 5865SOL    HW119036   1.315   0.281   4.264 -2.0608 -0.3353  0.2842
 5865SOL    HW219037   1.275   0.421   4.225  3.1630  1.0614 -0.9043
 5866SOL     OW19038   1.251   1.287   4.091 -0.4759  0.2851  0.4586
 5866SOL    HW119039   1.193   1.319   4.022 -0.2999  1.2088  0.7286
 5866SOL    HW219040   1.234   1.192   4.095  0.1637  0.0446 -1.4617
 5867SOL     OW19041   2.599   0.316   2.142 -0.3393 -0.0807 -0.0472
 5867SOL    HW119042   2.625   0.396   2.097 -1.2921  0.4126  0.2412
 5867SOL    HW219043   2.576   0.256   2.072  0.3449 -0.0955 -0.2670
 5868SOL     OW19044   0.959   6.119   4.055 -0.3676 -0.0481 -0.5829
 5868SOL    HW119045   0.994   6.176   4.124 -1.7705 -0.4908  0.5469
 5868SOL    HW219046   0.900   6.059   4.101  0.4106 -1.8828 -1.8532
 5869SOL     OW19047   1.974   1.613   3.781  0.3417  0.1009  0.3025
 5869SOL    HW119048   2.033   1.663   3.838  0.9034 -0.8910  0.6331
 5869SOL    HW219049   1.934   1.548   3.839 -0.9364  0.6231  0.0340
 5870SOL     OW19050   1.111   7.453   0.811 -0.2018 -0.2956 -0.4043
 5870SOL    HW119051   1.206   7.452   0.821 -0.2013  0.6812 -0.2339
 5870SOL    HW219052   1.094   7.530   0.758 -1.0953  1.1407  1.8437
 5871SOL     OW19053   1.189   7.998   3.077 -0.3907  0.5504 -0.1970
 5871SOL    HW119054   1.136   8.077   3.074  0.4101  1.1020 -0.1511
 5871SOL    HW219055   1.216   7.990   3.169  0.1081  0.6201 -0.3338
 5872SOL     OW19056   1.356   7.223   2.475  0.1602 -0.4110  0.0761
 5872SOL    HW119057   1.396   7.299   2.432 -1.3383  1.3474  1.5862
 5872SOL    HW219058   1.428   7.180   2.520  0.9889  0.3012 -0.5274
 5873SOL     OW19059   6.813   6.545   2.362 -0.8025 -0.3882  0.1730
 5873SOL    HW119060   6.756   6.609   2.320 -0.3865 -1.1384 -1.6434
 5873SOL    HW219061   6.802   6.465   2.309  1.5116 -0.6998  0.0420
 5874SOL     OW19062   0.443   6.484   2.681 -0.0865  0.7774  0.0524
 5874SOL    HW119063   0.412   6.394   2.691  0.7692  0.3358 -1.0336
 5874SOL    HW219064   0.386   6.535   2.738 -1.3180 -0.2998 -0.1612
 5875SOL     OW19065   7.750   1.201   2.768  0.1669  0.3025 -0.1870
 5875SOL    HW119066   7.709   1.203   2.681  0.0766 -1.2710 -0.2107
 5875SOL    HW219067   7.834   1.157   2.753 -0.6568 -1.7288  0.7965
 5876SOL     OW19068   7.891   0.773   4.980  0.0687  0.0540  0.0891
 5876SOL    HW119069   7.913   0.854   4.933 -1.5539 -0.5793 -1.9029
 5876SOL    HW219070   7.971   0.721   4.978  1.0059  1.3831  1.0170
 5877SOL     OW19071   7.449   0.240   4.245  0.0924 -0.0859 -0.2869
 5877SOL    HW119072   7.480   0.285   4.167  1.2614  1.1949  0.8732
 5877SOL    HW219073   7.526   0.232   4.301 -0.7817 -0.6670  0.8933
 5878SOL     OW19074   1.080   7.046   3.875  0.6474  0.1070 -0.4320
 5878SOL    HW119075   1.029   6.966   3.860  0.1097  0.0124  1.6004
 5878SOL    HW219076   1.171   7.017   3.871  0.4570 -0.5979  0.1149
 5879SOL     OW19077   1.029   1.004   7.031  0.1078 -0.0383 -0.0379
 5879SOL    HW119078   0.959   1.011   7.095 -0.2291  0.3047 -0.4400
 5879SOL    HW219079   1.108   0.991   7.083 -0.0543  1.0203  0.4934
 5880SOL     OW19080   0.382   6.790   4.415 -0.2776 -0.1912  0.1317
 5880SOL    HW119081   0.304   6.776   4.469 -0.1892 -0.4056  0.2072
 5880SOL    HW219082   0.409   6.701   4.389 -1.3415 -0.0216 -1.7197
 5881SOL     OW19083   0.091   7.569   5.002 -0.0582 -0.4064 -0.4237
 5881SOL    HW119084   0.042   7.596   5.079 -0.2682 -0.1274 -0.6509
 5881SOL    HW219085   0.150   7.641   4.983  1.7953 -1.4816  0.9296
 5882SOL     OW19086   0.133   6.512   4.402  0.3242 -0.0298  0.3830
 5882SOL    HW119087   0.182   6.454   4.344 -0.6372  0.3478 -0.8488
 5882SOL    HW219088   0.102   6.455   4.472 -0.8056 -1.0944 -0.9283
 5883SOL     OW19089   0.756   6.576   5.334  0.2797 -0.6735 -0.4542
 5883SOL    HW119090   0.737   6.482   5.328  0.5287 -0.6856 -1.2024
 5883SOL    HW219091   0.671   6.618   5.319 -0.1408 -0.7878  1.4603
 5884SOL     OW19092   7.546   0.031   4.830 -0.0743 -0.4886 -0.4671
 5884SOL    HW119093   7.495   0.089   4.773 -0.0631  0.0636  0.0801
 5884SOL    HW219094   7.540  -0.055   4.788 -1.7771 -0.5312 -0.2101
 5885SOL     OW19095   0.930   6.656   4.854 -0.3307  0.6795  0.2116
 5885SOL    HW119096   0.889   6.587   4.802  1.9569 -1.4518  1.0839
 5885SOL    HW219097   1.013   6.673   4.810  0.4083  0.8083  1.6187
 5886SOL     OW19098   1.893   7.957   2.720  0.2638 -0.1442 -0.0629
 5886SOL    HW119099   1.826   7.947   2.788 -0.1406  1.3761 -0.1903
 5886SOL    HW219100   1.904   7.870   2.683 -0.3787 -0.7559  1.1467
 5887SOL     OW19101   2.292   1.168   5.681  0.7925 -0.4663 -0.1132
 5887SOL    HW119102   2.233   1.113   5.629 -0.9254  0.0085  1.2542
 5887SOL    HW219103   2.341   1.219   5.615 -0.8608 -0.3290 -1.2899
 5888SOL     OW19104   0.004   6.274   3.972 -0.4877  0.5399 -0.4497
 5888SOL    HW119105  -0.022   6.300   3.884 -1.4789  0.5899 -0.1577
 5888SOL    HW219106   0.003   6.355   4.023  0.2552  0.5412 -0.4232
 5889SOL     OW19107   7.137   7.641   2.588 -0.1733 -0.0460 -0.0311
 5889SOL    HW119108   7.202   7.590   2.638 -0.1615 -0.4320 -0.4313
 5889SOL    HW219109   7.185   7.718   2.559 -0.2480  0.3038  0.7586
 5890SOL     OW19110   2.438   6.401   5.423  0.2894  0.2632 -0.1061
 5890SOL    HW119111   2.408   6.492   5.426  0.0860  0.2029 -0.3117
 5890SOL    HW219112   2.496   6.393   5.498  0.0778  0.4826  0.0830
 5891SOL     OW19113   1.852   7.263   4.997  0.1078  0.6162  0.3716
 5891SOL    HW119114   1.781   7.225   5.049  0.7157 -0.4050  0.4682
 5891SOL    HW219115   1.901   7.188   4.964 -0.2871  1.2356 -1.7605
 5892SOL     OW19116   0.344   7.944   3.989 -0.4660 -0.0850  0.2494
 5892SOL    HW119117   0.357   7.998   3.910 -0.3800  0.2355  0.4797
 5892SOL    HW219118   0.421   7.888   3.993 -0.5895 -0.2801 -0.0315
 5893SOL     OW19119   0.651   7.267   4.940 -0.2099  0.2630 -0.4480
 5893SOL    HW119120   0.575   7.324   4.948 -0.4731  0.1125 -1.6837
 5893SOL    HW219121   0.625   7.186   4.984 -1.3270 -0.3000 -2.0394
 5894SOL     OW19122   0.715   7.861   4.811  0.0209 -0.3430 -0.0417
 5894SOL    HW119123   0.680   7.946   4.839 -0.1547 -1.1121  2.2739
 5894SOL    HW219124   0.791   7.847   4.869  1.0989 -1.0065 -1.5642
 5895SOL     OW19125   0.326   7.573   2.978 -0.3510  0.0894 -0.4884
 5895SOL    HW119126   0.232   7.590   2.977 -0.6089 -1.1223  0.2342
 5895SOL    HW219127   0.339   7.504   2.912  0.2597  1.1958 -1.5634
 5896SOL     OW19128   1.903   7.755   3.923 -0.1171 -0.3735 -0.1548
 5896SOL    HW119129   1.959   7.679   3.939  0.0935  0.0549  1.3212
 5896SOL    HW219130   1.956   7.811   3.865  0.5137 -0.5130  0.2685
 5897SOL     OW19131   1.661   0.242   6.368 -0.1132 -0.1996  0.1101
 5897SOL    HW119132   1.596   0.287   6.422 -1.8823 -0.2293 -1.8622
 5897SOL    HW219133   1.676   0.159   6.412  0.1877  0.6763  1.7059
 5898SOL     OW19134   1.988   6.663   3.844 -0.0960 -0.1074 -0.4020
 5898SOL    HW119135   1.927   6.605   3.798 -0.3714 -0.0560 -0.1025
 5898SOL    HW219136   1.985   6.745   3.795  0.1422 -0.2800 -0.7078
 5899SOL     OW19137   7.268   0.216   4.462  0.2665  0.2695 -0.0775
 5899SOL    HW119138   7.193   0.272   4.444  0.8398  1.1179  0.1447
 5899SOL    HW219139   7.334   0.241   4.397  0.3842 -0.4360 -0.2402
 5900SOL     OW19140   1.094   7.606   3.441 -0.1544 -0.5147  0.0388
 5900SOL    HW119141   1.170   7.660   3.459 -0.4551 -0.0820  0.0225
 5900SOL    HW219142   1.130   7.527   3.400  0.1347  0.4756 -1.6988
 5901SOL     OW19143   1.672   7.405   4.514 -0.0040  0.3128  0.1922
 5901SOL    HW119144   1.644   7.482   4.465  1.8393  1.5347  0.9249
 5901SOL    HW219145   1.748   7.436   4.565  2.6506 -2.6255 -1.5958
 5902SOL     OW19146   1.481   7.706   4.675  0.0942 -0.5732  0.3658
 5902SOL    HW119147   1.389   7.733   4.670  0.9121  2.9742  1.6652
 5902SOL    HW219148   1.488   7.659   4.759 -0.5572 -1.2132  0.0773
 5903SOL     OW19149   1.090   6.469   3.836  0.2007  0.3734 -0.3661
 5903SOL    HW119150   1.122   6.467   3.926 -0.8450  0.9569  0.0317
 5903SOL    HW219151   1.152   6.525   3.790  1.4653 -0.9254 -0.3265
 5904SOL     OW19152   1.000   0.719   4.047 -0.1184  0.1533  0.4097
 5904SOL    HW119153   0.958   0.800   4.075  0.1784  0.4400  0.0420
 5904SOL    HW219154   0.967   0.704   3.958 -0.9981 -0.7092  0.8569
 5905SOL     OW19155   0.155   0.464   1.096  0.1618 -0.3080 -0.5585
 5905SOL    HW119156   0.060   0.472   1.091  0.0449 -1.2122  0.0712
 5905SOL    HW219157   0.187   0.554   1.084 -0.7940  0.1125 -0.0380
 5906SOL     OW19158   2.600   6.641   4.209 -0.3956 -0.1292 -0.1123
 5906SOL    HW119159   2.585   6.549   4.231  0.2862 -0.0646  0.6817
 5906SOL    HW219160   2.550   6.690   4.274 -1.6837  0.0789 -1.2255
 5907SOL     OW19161   1.136   7.661   5.081  0.4034  0.4127  0.2117
 5907SOL    HW119162   1.202   7.630   5.143 -0.2907 -2.0294 -0.1815
 5907SOL    HW219163   1.186   7.706   5.013  1.5188 -0.1930  0.6057
 5908SOL     OW19164   7.874   7.918   3.142 -0.1751  0.1275  0.2432
 5908SOL    HW119165   7.787   7.936   3.106 -0.7263 -2.1007  0.3280
 5908SOL    HW219166   7.857   7.863   3.219  1.2996 -0.0303  0.4797
 5909SOL     OW19167   0.407   7.075   4.413 -0.4722 -0.3965 -0.2656
 5909SOL    HW119168   0.401   6.982   4.434  0.8840 -0.0993  1.7452
 5909SOL    HW219169   0.379   7.119   4.493  0.2860  0.9185 -0.6984
 5910SOL     OW19170   7.451   5.360   6.333 -0.4043 -0.2386 -0.1657
 5910SOL    HW119171   7.449   5.292   6.400 -1.2558 -0.0283  0.0321
 5910SOL    HW219172   7.530   5.410   6.352 -1.0101  0.2667  1.1507
 5911SOL     OW19173   0.624   1.997   5.092  0.2794  0.5221  0.1672
 5911SOL    HW119174   0.531   2.002   5.113  0.2224 -0.2898  0.1524
 5911SOL    HW219175   0.649   1.907   5.115  0.5860  0.0901 -1.6889
 5912SOL     OW19176   6.571   1.972   4.972 -0.0685 -0.2082 -0.2663
 5912SOL    HW119177   6.630   1.960   5.047  0.0615 -1.7691 -0.5733
 5912SOL    HW219178   6.500   2.027   5.005 -0.6757 -1.9029  1.4115
 5913SOL     OW19179   7.717   0.286   2.865 -0.0859 -0.6467  0.1931
 5913SOL    HW119180   7.733   0.371   2.823  2.2599 -0.5567  1.0696
 5913SOL    HW219181   7.659   0.239   2.806  0.5215  0.6681 -1.5123
 5914SOL     OW19182   0.437   6.054   3.694  0.6850  0.0462 -0.0244
 5914SOL    HW119183   0.411   6.137   3.734  0.3248  0.8072 -1.7397
 5914SOL    HW219184   0.364   5.995   3.713  1.4028 -0.2407  2.0976
 5915SOL     OW19185   1.273   6.636   3.553 -0.1925 -0.1641  0.3173
 5915SOL    HW119186   1.269   6.702   3.622 -1.2190 -0.6196  0.7133
 5915SOL    HW219187   1.328   6.566   3.590  1.2382  0.6097 -0.2582
 5916SOL     OW19188   1.426   7.731   2.859  0.0798 -0.1041  0.2655
 5916SOL    HW119189   1.394   7.725   2.950  2.9933 -1.0173  1.3355
 5916SOL    HW219190   1.393   7.652   2.817 -0.4512 -0.1926  0.8309
 5917SOL     OW19191   0.300   5.605   5.622  0.4559  0.3822 -0.2890
 5917SOL    HW119192   0.346   5.592   5.539 -0.0813 -0.1064 -0.5135
 5917SOL    HW219193   0.237   5.533   5.627  0.0273  0.7811  0.2318
 5918SOL     OW19194   2.102   7.600   3.531  0.1360  0.0200  0.1048
 5918SOL    HW119195   2.043   7.525   3.533  1.1393 -0.8322 -1.0128
 5918SOL    HW219196   2.086   7.641   3.446  0.7759  0.0848  0.0105
 5919SOL     OW19197   1.753   7.146   6.084  0.0459 -0.3275  0.4857
 5919SOL    HW119198   1.842   7.158   6.115 -0.4348 -0.6301  2.1146
 5919SOL    HW219199   1.730   7.057   6.112 -2.0814  1.0734  3.8635
 5920SOL     OW19200   0.818   0.327   4.939  0.2121  0.0567  0.1102
 5920SOL    HW119201   0.877   0.376   4.997  0.9843 -1.4778  0.6551
 5920SOL    HW219202   0.870   0.312   4.860  0.7510 -1.6415  0.7423
 5921SOL     OW19203   7.002   0.554   5.430 -0.2215  0.0761  0.2315
 5921SOL    HW119204   6.950   0.508   5.495  3.2259 -0.2467  3.0561
 5921SOL    HW219205   7.034   0.632   5.474  2.5086 -0.3001 -0.8337
 5922SOL     OW19206   3.533   7.477   2.638  0.3716 -0.2325  0.5913
 5922SOL    HW119207   3.597   7.407   2.626  0.2095 -0.2970  0.1026
 5922SOL    HW219208   3.584   7.558   2.631 -0.0398 -0.1321 -3.1642
 5923SOL     OW19209   2.229   7.799   5.196 -0.4034  0.1742 -0.4664
 5923SOL    HW119210   2.229   7.719   5.248 -2.0760 -0.5962 -1.5763
 5923SOL    HW219211   2.137   7.824   5.189 -0.1664  0.7104 -2.3189
 5924SOL     OW19212   0.501   7.783   6.057 -0.1478  0.1285  0.6127
 5924SOL    HW119213   0.433   7.740   6.107 -1.6044  0.5689 -0.9105
 5924SOL    HW219214   0.468   7.785   5.967  2.1686 -0.2424 -0.3164
 5925SOL     OW19215   0.694   7.661   2.646 -0.6839 -0.1895  0.2173
 5925SOL    HW119216   0.668   7.575   2.679  0.6085 -1.1600 -1.1179
 5925SOL    HW219217   0.782   7.647   2.611 -0.7794  1.4819 -0.8050
 5926SOL     OW19218   2.901   0.394   5.242 -0.5685  0.2886  0.5134
 5926SOL    HW119219   2.994   0.414   5.256 -0.8668  1.7287  0.6082
 5926SOL    HW219220   2.889   0.401   5.148 -0.3564 -1.0805  0.3579
 5927SOL     OW19221   1.788   0.642   4.479 -0.5729  0.1488 -0.1547
 5927SOL    HW119222   1.726   0.670   4.411  0.4242  0.1045 -1.1035
 5927SOL    HW219223   1.872   0.635   4.434  0.1943  0.4551  1.1667
 5928SOL     OW19224   0.737   6.716   5.074  0.1596  0.1616  0.1273
 5928SOL    HW119225   0.822   6.717   5.029  0.0504  2.8709 -0.1567
 5928SOL    HW219226   0.733   6.629   5.114  4.0373  0.6032  1.9633
 5929SOL     OW19227   7.978   6.552   5.316 -0.0070  0.1874  0.6997
 5929SOL    HW119228   7.960   6.641   5.285  1.0007 -0.3267 -1.5731
 5929SOL    HW219229   7.903   6.500   5.287 -0.6996  0.2843  2.2139
 5930SOL     OW19230   7.658   0.674   4.851  0.3616  0.4344 -0.2053
 5930SOL    HW119231   7.749   0.686   4.878  0.3823  0.0336 -0.0910
 5930SOL    HW219232   7.611   0.656   4.932  0.8355 -3.3173 -0.6084
 5931SOL     OW19233   7.041   0.699   4.781  0.0502 -0.3928 -0.0636
 5931SOL    HW119234   7.110   0.640   4.749 -1.0069 -0.7624 -1.7401
 5931SOL    HW219235   6.968   0.685   4.722 -1.4345  0.1445  1.5612
 5932SOL     OW19236   7.794   0.876   3.930 -0.1767  0.0980 -0.4953
 5932SOL    HW119237   7.758   0.841   3.849  1.0556 -0.0596 -0.9971
 5932SOL    HW219238   7.717   0.901   3.982 -0.9918 -0.3710 -1.4478
 5933SOL     OW19239   1.782   0.305   5.689  0.3222  0.1776  0.4460
 5933SOL    HW119240   1.830   0.386   5.676  0.7070  0.1268  1.4306
 5933SOL    HW219241   1.849   0.239   5.706  0.1320 -0.7461 -2.0417
 5934SOL     OW19242   6.663   7.805   3.941 -0.0749 -0.3652  0.5179
 5934SOL    HW119243   6.620   7.841   3.863 -0.6725 -1.1394  0.4887
 5934SOL    HW219244   6.734   7.751   3.906  0.4271  0.2525  0.5506
 5935SOL     OW19245   0.142   5.728   6.095 -0.1183  0.0520 -0.0734
 5935SOL    HW119246   0.237   5.726   6.090 -0.0244  1.5180  0.5396
 5935SOL    HW219247   0.122   5.703   6.185 -0.0157  3.8019  1.1437
 5936SOL     OW19248   2.571   0.587   4.718 -0.2756 -0.0226 -0.1564
 5936SOL    HW119249   2.533   0.616   4.802 -0.1300 -0.1708 -0.0380
 5936SOL    HW219250   2.646   0.533   4.744  0.1106  0.3967 -0.3862
 5937SOL     OW19251   1.232   7.131   5.531  0.1180 -0.9153 -0.2771
 5937SOL    HW119252   1.322   7.163   5.532 -0.2956  0.4004 -1.3702
 5937SOL    HW219253   1.224   7.078   5.610  1.3417  0.3879  0.7726
 5938SOL     OW19254   1.273   7.127   4.142  0.1433 -0.0035 -0.2872
 5938SOL    HW119255   1.348   7.186   4.147  0.1125  0.0037  3.7437
 5938SOL    HW219256   1.197   7.185   4.141  0.1374 -0.0162 -1.5414
 5939SOL     OW19257   1.730   6.323   4.021  0.4388  0.6982 -0.1304
 5939SOL    HW119258   1.697   6.234   4.028 -1.2094  1.3094  0.1301
 5939SOL    HW219259   1.797   6.329   4.089 -1.2120  0.4080  1.5984
 5940SOL     OW19260   3.187   7.707   4.305  1.2156  0.1742  0.0945
 5940SOL    HW119261   3.225   7.669   4.226  2.8718  0.3077  0.7863
 5940SOL    HW219262   3.190   7.637   4.370 -0.6950 -0.1300 -0.0686
 5941SOL     OW19263   2.055   5.068   1.636 -0.6057 -0.4695  0.0812
 5941SOL    HW119264   2.114   5.013   1.687  1.1461  0.0997 -1.2641
 5941SOL    HW219265   2.057   5.031   1.548 -0.7604  0.7126 -0.4359
 5942SOL     OW19266   7.601   7.519   3.493 -0.2570  0.1188 -0.5115
 5942SOL    HW119267   7.560   7.513   3.407 -0.9838 -0.8163 -0.1294
 5942SOL    HW219268   7.670   7.452   3.491  0.4101  0.7990 -0.7062
 5943SOL     OW19269   1.241   7.490   5.503 -0.0394  0.1882 -0.0612
 5943SOL    HW119270   1.219   7.566   5.557  0.0392  0.6599 -0.6828
 5943SOL    HW219271   1.160   7.441   5.495 -0.2704  0.6024 -0.2739
 5944SOL     OW19272   1.005   0.396   6.820  0.2318  0.1327  0.4939
 5944SOL    HW119273   1.028   0.488   6.813  0.3268  0.1439  0.9076
 5944SOL    HW219274   1.070   0.350   6.766  0.3283  0.2874  0.4799
 5945SOL     OW19275   0.013   1.043   6.208 -0.1316 -0.4473 -0.3658
 5945SOL    HW119276   0.095   1.072   6.246 -1.0563 -0.8809  2.1315
 5945SOL    HW219277   0.031   0.954   6.177 -0.1459 -1.3678  2.1049
 5946SOL     OW19278   1.509   0.960   7.847 -0.0966  0.1678  0.5774
 5946SOL    HW119279   1.583   1.020   7.842  0.0114 -0.0251 -0.2830
 5946SOL    HW219280   1.461   0.986   7.926  1.0710  0.0797  1.3327
 5947SOL     OW19281   1.798   6.420   8.461  0.9346 -0.4115  0.1070
 5947SOL    HW119282   1.826   6.418   8.369  0.1455 -0.5964 -0.1395
 5947SOL    HW219283   1.703   6.423   8.456  0.9156  0.6094  0.9200
 5948SOL     OW19284   7.641   1.629   6.892  0.1428 -0.4395 -0.1907
 5948SOL    HW119285   7.577   1.699   6.894  1.0836  0.4194  0.9159
 5948SOL    HW219286   7.633   1.586   6.977  1.4208  0.0446  0.1888
 5949SOL     OW19287   1.690   1.011   8.225  0.6666  0.3467  0.0228
 5949SOL    HW119288   1.666   1.091   8.178  0.9570 -0.2143 -1.1120
 5949SOL    HW219289   1.645   0.941   8.177  1.5309 -0.3140  0.1477
 5950SOL     OW19290   1.265   1.286   6.525 -0.1670  0.2326  0.7408
 5950SOL    HW119291   1.321   1.214   6.553  0.8821  1.0506  0.7927
 5950SOL    HW219292   1.297   1.362   6.574  0.2510  1.2206 -1.0060
 5951SOL     OW19293   0.666   7.647   4.986 -0.1061  0.2828  0.2273
 5951SOL    HW119294   0.715   7.602   4.918  1.7512  1.1048  0.9437
 5951SOL    HW219295   0.656   7.737   4.953 -1.1726  0.1203  0.0811
 5952SOL     OW19296   7.880   6.364   5.973 -0.5240 -0.7405 -0.3701
 5952SOL    HW119297   7.828   6.289   5.942 -0.5509 -0.1934 -1.7299
 5952SOL    HW219298   7.842   6.439   5.928 -0.7189  0.1650  1.2333
 5953SOL     OW19299   1.175   6.134   4.660 -1.0375 -0.4452  0.4614
 5953SOL    HW119300   1.267   6.157   4.664 -1.2589  0.5461 -0.0248
 5953SOL    HW219301   1.165   6.063   4.725 -0.1169  0.0171  1.1224
 5954SOL     OW19302   1.600   7.920   8.833 -0.1074 -0.3075  0.0065
 5954SOL    HW119303   1.686   7.887   8.860 -1.0166 -2.6110  0.2767
 5954SOL    HW219304   1.606   7.927   8.738  0.5539  0.1495  0.0693
 5955SOL     OW19305   1.319   0.545   8.447  0.2027  0.2840  0.2482
 5955SOL    HW119306   1.296   0.503   8.530 -0.6862  1.7420  0.7812
 5955SOL    HW219307   1.383   0.613   8.470  0.3961  0.3092 -0.3431
 5956SOL     OW19308   1.494   0.375   6.801  0.0593 -0.3945 -0.2391
 5956SOL    HW119309   1.560   0.433   6.839  0.8945 -0.8376 -0.9830
 5956SOL    HW219310   1.412   0.403   6.841  0.5576  0.7781 -0.0003
 5957SOL     OW19311   2.125   1.356   4.066  0.1601 -0.8473 -0.3585
 5957SOL    HW119312   2.030   1.345   4.056  0.1616  0.4011 -2.0934
 5957SOL    HW219313   2.162   1.324   3.985  1.0664  0.3702 -0.4501
 5958SOL     OW19314   1.916   7.946   7.363 -0.0196 -0.2574  0.4350
 5958SOL    HW119315   1.883   8.034   7.343  1.2500  0.4161  1.2044
 5958SOL    HW219316   1.906   7.898   7.280 -0.6141  0.6341 -0.0277
 5959SOL     OW19317   1.782   6.734   5.230  0.0110 -0.4240 -0.3739
 5959SOL    HW119318   1.745   6.648   5.251  0.7076 -0.7305 -0.3794
 5959SOL    HW219319   1.725   6.796   5.276  0.5850 -0.9942  1.2015
 5960SOL     OW19320   0.122   1.332   9.081  0.2561 -0.0122  0.7329
 5960SOL    HW119321   0.194   1.392   9.061 -0.8238  1.9175  2.3034
 5960SOL    HW219322   0.055   1.352   9.015  0.6115 -0.8427  0.1093
 5961SOL     OW19323   1.731   7.413   5.350  0.0907  0.2176 -0.0337
 5961SOL    HW119324   1.723   7.472   5.425 -0.3134 -1.0270  0.9314
 5961SOL    HW219325   1.822   7.423   5.322  0.8728 -0.7984  1.9405
 5962SOL     OW19326   2.653   0.083   7.375  0.1967 -0.9109  0.6703
 5962SOL    HW119327   2.698   0.074   7.291 -0.6060 -0.8197  0.2125
 5962SOL    HW219328   2.609   0.168   7.370 -0.7120 -1.3569  0.7442
 5963SOL     OW19329   7.832   7.598   4.900  0.3014 -0.2992 -0.0038
 5963SOL    HW119330   7.813   7.662   4.831 -1.3607  0.1961  0.8444
 5963SOL    HW219331   7.924   7.612   4.922  0.7726 -0.2191 -1.8356
 5964SOL     OW19332   2.110   2.156   8.278 -0.0058 -0.0032 -0.8097
 5964SOL    HW119333   2.024   2.129   8.246 -1.0501  1.2789  0.7312
 5964SOL    HW219334   2.172   2.115   8.218 -1.6582 -1.3842 -1.6738
 5965SOL     OW19335   1.259   5.849   7.548  0.6354  0.5578  0.3668
 5965SOL    HW119336   1.245   5.873   7.639  0.6819  0.9944  0.2646
 5965SOL    HW219337   1.347   5.811   7.546  0.0211 -0.9294  0.7735
 5966SOL     OW19338   0.600   7.996   7.635 -0.3096  0.1762 -0.2140
 5966SOL    HW119339   0.667   7.929   7.643  0.8786  1.4072  0.7655
 5966SOL    HW219340   0.639   8.062   7.578 -1.4968  0.0185 -1.2560
 5967SOL     OW19341   1.474   1.016   7.212  0.0028  0.4372  0.1443
 5967SOL    HW119342   1.509   1.061   7.135  0.7324  1.6795  1.1792
 5967SOL    HW219343   1.540   0.951   7.234  0.2740  0.7723  0.3250
 5968SOL     OW19344   7.778   0.323   5.831  0.1519 -0.5434  0.0859
 5968SOL    HW119345   7.793   0.346   5.923 -0.1853  0.2931 -0.0565
 5968SOL    HW219346   7.825   0.241   5.818 -1.8677 -2.0439  1.6878
 5969SOL     OW19347   1.444   1.046   6.847  0.0443 -0.0540 -0.1589
 5969SOL    HW119348   1.438   1.054   6.752 -0.5431 -1.9597 -0.3110
 5969SOL    HW219349   1.532   1.012   6.863 -0.1906 -0.6519 -0.1059
 5970SOL     OW19350   1.188   0.373   5.309  0.0650  0.1316  0.2644
 5970SOL    HW119351   1.230   0.459   5.318 -1.4493  0.8262  1.0537
 5970SOL    HW219352   1.177   0.362   5.215  2.2791 -0.2400 -0.0059
 5971SOL     OW19353   1.829   7.187   4.466 -0.4756 -0.4289  0.0104
 5971SOL    HW119354   1.917   7.219   4.486 -1.1737  0.6360  1.5999
 5971SOL    HW219355   1.777   7.266   4.451 -0.8062 -1.0747 -2.8955
 5972SOL     OW19356   1.060   7.341   7.352  0.3338  0.2373 -0.6533
 5972SOL    HW119357   1.016   7.260   7.376  0.4502  0.3161 -0.1714
 5972SOL    HW219358   1.008   7.376   7.280  0.0638 -0.0715 -0.6099
 5973SOL     OW19359   1.041   0.571   6.501  0.0742  0.4415 -0.2436
 5973SOL    HW119360   1.111   0.532   6.449 -0.4260 -0.2736 -0.4031
 5973SOL    HW219361   0.971   0.506   6.498 -0.2098  0.6897  0.7675
 5974SOL     OW19362   4.230   0.003   7.607  0.1002 -0.0186  0.4736
 5974SOL    HW119363   4.158  -0.055   7.583  2.5648 -3.1319 -0.0742
 5974SOL    HW219364   4.250  -0.020   7.697 -0.7928  2.2934  1.3246
 5975SOL     OW19365   7.271   0.336   5.002  0.3242 -0.4073  0.3073
 5975SOL    HW119366   7.215   0.273   4.957 -0.9311 -1.0019  2.5158
 5975SOL    HW219367   7.244   0.330   5.094  3.9677 -0.6399  1.5300
 5976SOL     OW19368   6.906   0.985   7.107  0.5580  0.0151 -0.0985
 5976SOL    HW119369   6.991   0.949   7.130  0.8681  1.6256  1.5173
 5976SOL    HW219370   6.923   1.042   7.032  0.9758  0.5538  0.3983
 5977SOL     OW19371   1.246   7.109   7.482 -0.2974  0.4460  0.6367
 5977SOL    HW119372   1.152   7.127   7.484 -0.6839 -1.1915 -0.3388
 5977SOL    HW219373   1.254   7.024   7.526  0.5180 -0.0668 -0.4394
 5978SOL     OW19374   2.113   7.255   6.981  0.1194 -0.6707  0.5782
 5978SOL    HW119375   2.028   7.272   6.940 -0.4495 -0.9096  1.6284
 5978SOL    HW219376   2.177   7.282   6.915 -0.7483  1.5218  0.5803
 5979SOL     OW19377   1.536   6.850   6.560 -0.6137  0.3147 -0.1832
 5979SOL    HW119378   1.463   6.844   6.622  0.0814 -2.0405  0.5319
 5979SOL    HW219379   1.597   6.782   6.589  1.0488  1.0270 -1.8192
 5980SOL     OW19380   0.159   0.086   6.210 -0.8017  0.2853  0.0808
 5980SOL    HW119381   0.165   0.139   6.289 -0.6287  0.5942 -0.1385
 5980SOL    HW219382   0.153  -0.004   6.242 -4.0787  0.5458  0.6235
 5981SOL     OW19383   0.081   6.333   4.609 -0.0108 -0.2698  0.1072
 5981SOL    HW119384   0.006   6.278   4.634  0.9575 -1.2201  1.0280
 5981SOL    HW219385   0.085   6.401   4.675 -1.3438  1.0949 -1.1571
 5982SOL     OW19386   2.233   0.100   5.941 -0.1684 -0.2424  0.4780
 5982SOL    HW119387   2.309   0.142   5.980  0.0631  0.0866 -0.3018
 5982SOL    HW219388   2.158   0.152   5.970  0.0368  0.2082  0.2058
 5983SOL     OW19389   2.053   6.909   4.377 -0.4936  0.3132  0.0105
 5983SOL    HW119390   2.129   6.862   4.413  0.6207  1.0216 -1.2921
 5983SOL    HW219391   2.004   6.938   4.453  1.1197  0.7132  0.9532
 5984SOL     OW19392   3.598   7.321   6.018  0.0641 -0.2185 -0.0943
 5984SOL    HW119393   3.615   7.306   6.111 -0.8952 -0.0650  0.1208
 5984SOL    HW219394   3.502   7.328   6.012  0.0144 -1.5276 -1.2944
 5985SOL     OW19395   6.169   0.370   7.132  0.5709 -0.3555 -0.3738
 5985SOL    HW119396   6.142   0.410   7.049 -0.2645  0.0719  0.0872
 5985SOL    HW219397   6.223   0.295   7.107  0.9670  0.2223 -1.2860
 5986SOL     OW19398   1.020   6.296   6.736 -0.1562  0.9397  0.2249
 5986SOL    HW119399   1.019   6.287   6.831  0.4766  2.9936  0.4766
 5986SOL    HW219400   0.949   6.357   6.717 -1.0156 -0.3250 -0.7622
 5987SOL     OW19401   1.195   0.631   7.740 -0.3216 -0.4972 -0.1230
 5987SOL    HW119402   1.172   0.576   7.664 -1.1944 -0.6505  0.2371
 5987SOL    HW219403   1.276   0.593   7.773 -0.6928 -1.3310 -0.1271
 5988SOL     OW19404   7.862   0.494   8.282 -0.9158  0.1969 -0.0578
 5988SOL    HW119405   7.886   0.578   8.242 -0.8589 -0.3679 -1.2333
 5988SOL    HW219406   7.794   0.459   8.226  1.0400 -1.8894 -1.2967
 5989SOL     OW19407   0.643   7.170   7.603  0.7582  0.3987  0.0748
 5989SOL    HW119408   0.621   7.077   7.592  1.1547  0.4370 -1.2502
 5989SOL    HW219409   0.678   7.177   7.692  0.5312 -0.6766  0.2585
 5990SOL     OW19410   0.205   1.299   6.427  0.0644  0.5582  0.1156
 5990SOL    HW119411   0.201   1.311   6.522  1.9852  1.3746  0.1357
 5990SOL    HW219412   0.275   1.357   6.398  0.3867 -0.6246 -1.6417
 5991SOL     OW19413   2.278   7.077   6.719  0.2917  0.7061  0.7712
 5991SOL    HW119414   2.333   7.138   6.669 -0.8736  1.0335 -0.1350
 5991SOL    HW219415   2.295   6.992   6.679 -2.3204  1.2531 -1.8206
 5992SOL     OW19416   1.550   7.579   5.178 -0.2267 -0.0195  0.4066
 5992SOL    HW119417   1.461   7.569   5.213  0.1818  1.5813  2.0649
 5992SOL    HW219418   1.601   7.512   5.224 -0.7478 -1.7832 -1.4599
 5993SOL     OW19419   2.166   0.328   8.516  1.0834  0.1973 -0.2244
 5993SOL    HW119420   2.131   0.416   8.528  0.0826 -0.1671 -0.3407
 5993SOL    HW219421   2.258   0.335   8.542  1.0469  1.2898 -0.3198
 5994SOL     OW19422   3.340   1.300   8.781  0.7393 -0.0376 -0.1179
 5994SOL    HW119423   3.386   1.318   8.862 -1.0551  0.3347  0.8834
 5994SOL    HW219424   3.292   1.381   8.761 -0.1460 -0.6608 -0.6274
 5995SOL     OW19425   7.591   0.963   5.436  0.2641 -0.1957  0.1186
 5995SOL    HW119426   7.612   0.965   5.343  1.6378 -0.3718  0.4028
 5995SOL    HW219427   7.589   1.055   5.463  1.3640 -0.1877  0.2145
 5996SOL     OW19428   2.592   7.328   4.662 -0.5060 -0.3153 -0.5422
 5996SOL    HW119429   2.554   7.313   4.749  0.7953 -1.0735 -0.0668
 5996SOL    HW219430   2.614   7.421   4.661  1.3239 -0.6678  0.7839
 5997SOL     OW19431   0.372   1.729   8.496  0.0096 -0.4112  0.7898
 5997SOL    HW119432   0.388   1.638   8.524  0.4446 -0.3061  0.8777
 5997SOL    HW219433   0.277   1.732   8.480  0.1079 -1.0991  0.0069
 5998SOL     OW19434   2.664   7.053   7.428  0.4891 -0.1827 -0.2273
 5998SOL    HW119435   2.690   7.144   7.414  0.2429  0.1832  1.5068
 5998SOL    HW219436   2.746   7.009   7.451  0.6796 -0.5103 -1.4713
 5999SOL     OW19437   0.281   7.252   6.169 -0.1470  0.2647  0.7429
 5999SOL    HW119438   0.293   7.325   6.229 -0.8111 -1.0851  2.6082
 5999SOL    HW219439   0.186   7.247   6.156  0.0282  1.4449 -1.7038
 6000SOL     OW19440   7.708   7.737   6.305 -0.2626  0.1444 -0.1725
 6000SOL    HW119441   7.762   7.792   6.248  1.0449 -2.3639 -1.5466
 6000SOL    HW219442   7.626   7.728   6.257 -1.2874  2.4014  1.0109
 6001SOL     OW19443   0.348   6.415   8.950 -0.2403  0.0934  0.5161
 6001SOL    HW119444   0.363   6.364   8.871 -0.0085  0.0853  0.5651
 6001SOL    HW219445   0.370   6.355   9.022 -1.3545 -0.2114  0.6190
 6002SOL     OW19446   0.998   1.325   6.103  0.2298 -0.0409 -0.4302
 6002SOL    HW119447   0.913   1.352   6.136 -0.8393 -2.1949 -1.1843
 6002SOL    HW219448   1.001   1.230   6.119  1.7868 -0.3017 -1.8849
 6003SOL     OW19449   1.638   0.998   7.472 -0.3747  0.0415  0.5707
 6003SOL    HW119450   1.710   1.046   7.513 -0.5223  1.9391 -1.2497
 6003SOL    HW219451   1.563   1.056   7.479 -1.4225 -1.3094  1.1401
 6004SOL     OW19452   1.419   0.141   8.411 -0.2272 -0.2302 -0.2161
 6004SOL    HW119453   1.355   0.206   8.382 -0.7953 -0.4802  0.4507
 6004SOL    HW219454   1.495   0.155   8.354 -1.0022 -0.1778 -1.2660
 6005SOL     OW19455   2.342   0.102   7.107 -0.5312  0.2371 -0.6320
 6005SOL    HW119456   2.411   0.165   7.082 -0.8221 -0.1735 -2.6155
 6005SOL    HW219457   2.386   0.017   7.103 -1.1282 -0.0315 -1.9600
 6006SOL     OW19458   7.898   7.449   5.444 -0.2477  0.1004 -0.6346
 6006SOL    HW119459   7.813   7.406   5.455 -0.2046  0.2134  0.2143
 6006SOL    HW219460   7.962   7.383   5.471  0.1120 -0.7573 -3.3158
 6007SOL     OW19461   7.891   7.925   6.200  0.0565 -0.4601 -0.1805
 6007SOL    HW119462   7.914   7.995   6.140 -1.4370 -0.3400 -0.6595
 6007SOL    HW219463   7.974   7.900   6.241  0.9464  0.1400 -1.5395
 6008SOL     OW19464   1.359   6.075   6.074  0.2595  0.6739 -0.4107
 6008SOL    HW119465   1.354   6.080   5.979  1.4743 -1.0498 -0.6110
 6008SOL    HW219466   1.269   6.094   6.104 -0.3948  0.1723 -1.9580
 6009SOL     OW19467   2.947   6.912   5.742  0.2922  0.1758  0.4845
 6009SOL    HW119468   2.976   6.904   5.833  0.7390  0.4778  0.3740
 6009SOL    HW219469   3.015   6.868   5.691  0.4994  0.7707  0.2309
 6010SOL     OW19470   0.621   0.450   6.321  0.1396 -0.2756 -0.5020
 6010SOL    HW119471   0.607   0.541   6.293 -3.1392 -0.0861  1.2386
 6010SOL    HW219472   0.547   0.402   6.285 -0.1856 -1.4568  1.5569
 6011SOL     OW19473   0.999   6.001   5.836 -0.5798  0.2305 -0.1158
 6011SOL    HW119474   1.087   5.970   5.817 -1.5634 -2.1039 -1.2011
 6011SOL    HW219475   0.955   6.005   5.751 -1.6958  0.7830  0.4603
 6012SOL     OW19476   0.657   6.612   7.589  0.0125  0.5604 -0.0674
 6012SOL    HW119477   0.692   6.523   7.582  1.3192  1.0838 -0.4033
 6012SOL    HW219478   0.562   6.600   7.588  0.1621 -0.7907 -0.7038
 6013SOL     OW19479   0.155   6.459  11.009 -0.3339  0.5811  0.1615
 6013SOL    HW119480   0.193   6.546  10.996 -1.5501  1.0597 -0.4063
 6013SOL    HW219481   0.155   6.419  10.922 -1.4233  0.7384  0.0732
 6014SOL     OW19482   3.879   7.596   7.081  0.4742 -0.1718 -0.4735
 6014SOL    HW119483   3.878   7.686   7.113 -0.8153  0.2482 -1.5790
 6014SOL    HW219484   3.966   7.563   7.104  0.3440  0.7400  1.5331
 6015SOL     OW19485   2.488   7.474   8.563 -0.0744  0.0902 -0.0230
 6015SOL    HW119486   2.570   7.461   8.611 -0.1898  0.5289  0.3028
 6015SOL    HW219487   2.499   7.423   8.483  0.9267  0.9412 -0.4614
 6016SOL     OW19488   2.311   7.401   7.198 -0.5849 -0.2378  0.1564
 6016SOL    HW119489   2.254   7.325   7.183  0.9150 -1.3344 -0.2282
 6016SOL    HW219490   2.267   7.473   7.154 -0.2531 -1.6938 -2.8057
 6017SOL     OW19491   1.170   6.706  10.072 -0.5011 -0.0242  0.5127
 6017SOL    HW119492   1.237   6.762  10.032  0.0061  0.7120  2.2873
 6017SOL    HW219493   1.178   6.623  10.026  0.5284  0.5641 -0.4127
 6018SOL     OW19494   0.264   0.399   7.822 -0.5565 -0.1347  0.1826
 6018SOL    HW119495   0.340   0.415   7.765 -0.0230  0.0141  0.9288
 6018SOL    HW219496   0.265   0.304   7.837 -1.0136 -0.2504 -0.4851
 6019SOL     OW19497   0.943   7.915   6.811  0.0073  0.0513 -0.1464
 6019SOL    HW119498   0.919   7.987   6.870  0.6357 -0.0462  0.2434
 6019SOL    HW219499   0.914   7.944   6.725 -1.9221 -0.2846  0.3574
 6020SOL     OW19500   0.891   0.039  10.382 -0.7356 -0.0265  0.1085
 6020SOL    HW119501   0.904   0.121  10.333  0.3468  0.0933  0.5624
 6020SOL    HW219502   0.812   0.054  10.434 -1.4431  0.1421 -0.9762
 6021SOL     OW19503   1.500   7.843   9.877 -0.6278  0.1436 -0.6145
 6021SOL    HW119504   1.465   7.813   9.961  0.7346  1.2170  0.3944
 6021SOL    HW219505   1.540   7.766   9.839  0.1225 -0.0379  0.4904
 6022SOL     OW19506   1.132   1.028   9.611  0.0128  0.0791  0.2233
 6022SOL    HW119507   1.155   1.111   9.569  0.5611  0.1904  0.7256
 6022SOL    HW219508   1.160   0.961   9.548  1.1311  0.2337  0.5299
 6023SOL     OW19509   1.875   0.723  10.658 -0.2861  0.2691  0.0431
 6023SOL    HW119510   1.905   0.633  10.646  0.8825  0.6200  0.2024
 6023SOL    HW219511   1.799   0.731  10.600 -0.1004 -0.6752 -0.3469
 6024SOL     OW19512   0.547   0.769  10.504 -0.0876  0.0459  0.4458
 6024SOL    HW119513   0.511   0.809  10.583 -0.4274 -0.8767  0.7745
 6024SOL    HW219514   0.553   0.841  10.441 -0.9013  0.5573  0.9342
 6025SOL     OW19515   0.727   7.539   9.592 -0.1780 -0.4486 -0.5733
 6025SOL    HW119516   0.692   7.457   9.626 -2.8820  0.5832 -0.5645
 6025SOL    HW219517   0.669   7.607   9.629  1.1740  1.3354 -1.5665
 6026SOL     OW19518   5.104   7.975   9.236 -0.2214 -0.3365  0.3070
 6026SOL    HW119519   5.095   7.889   9.195 -0.7061 -1.0437  1.8431
 6026SOL    HW219520   5.156   8.026   9.173 -1.7810 -1.0417 -1.6496
 6027SOL     OW19521   7.723   7.375   9.733 -0.3542  0.2978  0.1640
 6027SOL    HW119522   7.665   7.321   9.679 -0.2904  0.9597 -0.5933
 6027SOL    HW219523   7.683   7.462   9.731 -0.5192  0.2622  1.4631
 6028SOL     OW19524   0.589   7.738   9.703  0.2932 -0.3562 -0.1868
 6028SOL    HW119525   0.631   7.749   9.789 -2.1845 -0.4410  1.1356
 6028SOL    HW219526   0.582   7.827   9.668 -2.0162  0.1959  1.4746
 6029SOL     OW19527   1.457   6.426   6.637 -0.1737 -0.3320 -0.1513
 6029SOL    HW119528   1.425   6.497   6.692 -0.9295 -1.2960  0.6906
 6029SOL    HW219529   1.387   6.409   6.574  0.5713  0.5744 -1.2782
 6030SOL     OW19530   0.626   2.279   9.471 -0.0740 -0.2054  0.2968
 6030SOL    HW119531   0.531   2.267   9.463  0.0235 -1.0606  0.2561
 6030SOL    HW219532   0.636   2.359   9.522 -0.8250 -0.1353  0.3493
 6031SOL     OW19533   0.194   5.923   7.211  0.7309 -0.1344 -0.6416
 6031SOL    HW119534   0.263   5.919   7.145  2.5538 -2.1913  1.2108
 6031SOL    HW219535   0.136   5.850   7.190  1.8044 -1.3574  0.4023
 6032SOL     OW19536   7.222   0.187  11.355  0.3631  0.1186 -0.4444
 6032SOL    HW119537   7.283   0.121  11.324 -0.1126 -0.8207  0.5352
 6032SOL    HW219538   7.156   0.137  11.404  0.5004  1.4062  1.1221
 6033SOL     OW19539   2.738   1.515   8.675  0.4665  0.1634 -0.2178
 6033SOL    HW119540   2.674   1.581   8.649  0.8244  0.3946 -0.5233
 6033SOL    HW219541   2.732   1.512   8.770  2.6400  2.9264  0.1408
 6034SOL     OW19542   0.670   1.604   7.905  0.3440  0.5947  0.4283
 6034SOL    HW119543   0.734   1.620   7.974  1.4622  1.1706 -0.6877
 6034SOL    HW219544   0.702   1.657   7.831 -1.6783  1.2547 -0.0288
 6035SOL     OW19545   0.347   7.600   6.191 -0.4653  0.5719  0.3046
 6035SOL    HW119546   0.336   7.531   6.257  0.6485 -0.3039 -0.3836
 6035SOL    HW219547   0.315   7.561   6.110  0.7685  0.5918 -0.2227
 6036SOL     OW19548   2.515   2.173   9.396 -0.9341  0.0498  0.4574
 6036SOL    HW119549   2.546   2.248   9.346  0.7528 -0.8380  0.1019
 6036SOL    HW219550   2.520   2.202   9.487  0.6672  0.0899  0.3925
 6037SOL     OW19551   0.911   0.846   8.559  0.3008  0.1847  0.2573
 6037SOL    HW119552   0.987   0.819   8.508 -0.7239  0.7399 -1.6762
 6037SOL    HW219553   0.877   0.923   8.514 -0.5651  0.8361  1.9242
 6038SOL     OW19554   2.525   0.334   8.316 -0.1797 -0.1130  0.2137
 6038SOL    HW119555   2.578   0.278   8.259 -0.5622 -1.0575  0.7629
 6038SOL    HW219556   2.515   0.415   8.267 -0.6661 -0.9658 -1.1838
 6039SOL     OW19557   1.851   7.278   6.845 -0.0580 -0.2595 -0.3125
 6039SOL    HW119558   1.801   7.236   6.916 -1.6120  1.3492 -0.3852
 6039SOL    HW219559   1.795   7.269   6.768 -0.3910  1.7510 -0.3619
 6040SOL     OW19560   2.470   6.575  11.194 -0.0495  0.4069 -0.3006
 6040SOL    HW119561   2.447   6.638  11.262  1.3261 -0.0437  0.6315
 6040SOL    HW219562   2.563   6.559  11.207 -0.3404 -1.8201 -0.4756
 6041SOL     OW19563   2.005   7.425   6.615 -0.4489 -0.2296 -0.2835
 6041SOL    HW119564   2.089   7.459   6.647  0.1494 -0.9575 -1.0405
 6041SOL    HW219565   1.953   7.413   6.694  0.3404 -0.2266  0.2533
 6042SOL     OW19566   0.913   7.168   9.646  0.4311 -0.0336 -0.2130
 6042SOL    HW119567   0.834   7.214   9.674  1.0863  0.7052  0.4437
 6042SOL    HW219568   0.898   7.149   9.553 -0.4856  0.1483 -0.1079
 6043SOL     OW19569   0.323   7.883   8.725  0.0073 -0.4873  0.4638
 6043SOL    HW119570   0.372   7.801   8.718 -0.7408 -0.8945 -0.2770
 6043SOL    HW219571   0.233   7.854   8.745 -0.3510  0.1268 -0.2269
 6044SOL     OW19572   6.902   0.055   7.583  0.3529 -0.7093 -0.0726
 6044SOL    HW119573   6.978   0.091   7.538  1.8199 -1.2738  1.8229
 6044SOL    HW219574   6.845   0.130   7.598  0.7746 -0.1788 -0.9949
 6045SOL     OW19575   1.588   1.441   9.564 -0.4573  0.4651  0.1524
 6045SOL    HW119576   1.546   1.381   9.502 -0.2854 -1.9270  2.1682
 6045SOL    HW219577   1.665   1.474   9.517  0.1628 -1.9322 -0.6657
 6046SOL     OW19578   0.859   0.570  10.589 -0.1042  0.0544  0.0051
 6046SOL    HW119579   0.842   0.492  10.642  0.5363 -0.7924 -0.9955
 6046SOL    HW219580   0.839   0.644  10.647  1.5852 -0.8090  1.7998
 6047SOL     OW19581   1.042   7.596   9.145 -0.2682 -0.5993  0.5227
 6047SOL    HW119582   1.022   7.572   9.055  2.8182 -0.0779 -0.4226
 6047SOL    HW219583   1.099   7.525   9.177  0.2104  0.1544  1.3877
 6048SOL     OW19584   0.285   0.076   9.593 -0.6120 -0.1545 -0.0227
 6048SOL    HW119585   0.362   0.020   9.583 -1.1002 -0.6887 -0.8717
 6048SOL    HW219586   0.270   0.080   9.688  1.0456  0.7832  0.2501
 6049SOL     OW19587   7.677   6.585   8.155  0.0128  0.0728  0.5081
 6049SOL    HW119588   7.652   6.529   8.081  1.2585 -1.2846  1.0846
 6049SOL    HW219589   7.593   6.609   8.195 -0.6534  0.3447 -0.9684
 6050SOL     OW19590   2.251   7.677   9.526 -0.3823 -0.3879 -0.0395
 6050SOL    HW119591   2.256   7.590   9.487 -2.9417 -0.4492 -0.3936
 6050SOL    HW219592   2.274   7.664   9.618 -3.2923 -1.9893  0.5534
 6051SOL     OW19593   2.028   6.784   7.938  0.2981 -0.2803 -0.7256
 6051SOL    HW119594   2.064   6.705   7.898  1.6257  0.0672 -0.2473
 6051SOL    HW219595   2.070   6.856   7.891 -0.2676  0.1423 -0.5961
 6052SOL     OW19596   7.841   0.469   6.210 -0.0650  0.6085  0.7138
 6052SOL    HW119597   7.913   0.475   6.147 -0.5377 -0.7650  0.0080
 6052SOL    HW219598   7.815   0.377   6.208 -0.7456  0.7485  2.2037
 6053SOL     OW19599   1.094   7.803  10.807  0.0404 -0.1109 -0.2234
 6053SOL    HW119600   1.091   7.870  10.739  2.8269  0.9627  0.5908
 6053SOL    HW219601   1.082   7.851  10.889  1.0698 -0.7177  0.3125
 6054SOL     OW19602   2.041   0.158   9.897 -0.2442 -0.3958 -0.7337
 6054SOL    HW119603   2.121   0.196   9.933  0.0771 -2.1243  0.4909
 6054SOL    HW219604   2.023   0.210   9.818  0.9199  1.3333  0.0835
 6055SOL     OW19605   1.041   6.740   9.623 -0.0008 -0.6031 -0.1133
 6055SOL    HW119606   1.039   6.721   9.530  1.3646 -1.6328  0.0460
 6055SOL    HW219607   0.996   6.665   9.663  0.1805 -0.5836  0.1249
 6056SOL     OW19608   1.813   0.979   9.812  0.8073 -0.2800 -0.0192
 6056SOL    HW119609   1.855   0.923   9.878 -0.6410 -3.7922 -1.8057
 6056SOL    HW219610   1.855   0.953   9.730  0.1999  1.4907 -0.9279
 6057SOL     OW19611   6.850   7.616  10.131 -0.4092  0.2714  0.4743
 6057SOL    HW119612   6.860   7.697  10.179 -0.2388  0.6842 -0.2405
 6057SOL    HW219613   6.828   7.551  10.197 -4.0316  1.5265  0.7135
 6058SOL     OW19614   6.591   0.557   9.412 -0.0056  0.4399  0.5403
 6058SOL    HW119615   6.553   0.546   9.499 -0.9784 -0.4126  0.0346
 6058SOL    HW219616   6.516   0.576   9.355  0.5899  0.8218 -0.1396
 6059SOL     OW19617   2.904   7.008   8.460 -0.5097  0.3197 -0.4143
 6059SOL    HW119618   2.867   6.919   8.465 -0.1856  0.1937 -0.2625
 6059SOL    HW219619   2.847   7.053   8.397 -1.5670  0.4369  0.5863
 6060SOL     OW19620   1.158   0.089   7.251 -0.0087 -0.0504 -0.0301
 6060SOL    HW119621   1.093   0.028   7.215 -0.1958 -1.0036  1.8193
 6060SOL    HW219622   1.242   0.048   7.234 -0.1848 -1.5573  2.3416
 6061SOL     OW19623   3.220   0.833   8.589  0.0557 -0.3081 -0.3922
 6061SOL    HW119624   3.230   0.895   8.661 -2.1591 -2.1331  1.6677
 6061SOL    HW219625   3.289   0.768   8.602 -0.1419 -0.4566 -0.0520
 6062SOL     OW19626   2.141   7.204   9.265 -0.3149 -0.3731  0.1943
 6062SOL    HW119627   2.165   7.121   9.308  2.0636  0.6528  1.0137
 6062SOL    HW219628   2.177   7.197   9.177  2.3516  0.7526  1.0979
 6063SOL     OW19629   1.584   7.483   8.484  0.4627  0.4790  0.5223
 6063SOL    HW119630   1.530   7.412   8.518 -0.0003  0.3363 -0.4783
 6063SOL    HW219631   1.659   7.439   8.444  0.4525  0.5871  0.3837
 6064SOL     OW19632   2.148   0.646   8.853  0.2843  0.7892  0.4332
 6064SOL    HW119633   2.203   0.569   8.870  0.2979  1.0017  1.4300
 6064SOL    HW219634   2.059   0.617   8.875  0.2450  0.9505  0.4885
 6065SOL     OW19635   2.542   0.931   6.841  0.3834 -0.3375  0.1057
 6065SOL    HW119636   2.518   0.915   6.933  1.3294 -1.5391  0.1747
 6065SOL    HW219637   2.619   0.988   6.846 -0.7012  1.2218 -0.0373
 6066SOL     OW19638   6.833   0.338  10.887  0.4412 -0.1058 -0.3180
 6066SOL    HW119639   6.751   0.352  10.839 -0.4573 -0.7046  0.9900
 6066SOL    HW219640   6.897   0.317  10.819 -0.6043 -0.1567 -1.3212
 6067SOL     OW19641   2.078   0.886   6.822 -0.2855 -0.0863  0.1748
 6067SOL    HW119642   2.134   0.963   6.831 -1.1033  0.4861  0.3526
 6067SOL    HW219643   2.018   0.907   6.751 -1.2950 -0.0753  1.0129
 6068SOL     OW19644   7.037   7.938   8.509 -0.4149 -0.4157 -0.6930
 6068SOL    HW119645   7.122   7.970   8.540 -1.4367  0.9524  0.8796
 6068SOL    HW219646   7.032   7.848   8.541 -0.0934 -0.0689  0.3628
 6069SOL     OW19647   1.889   7.889  10.199  0.1510  0.1830  0.3227
 6069SOL    HW119648   1.885   7.806  10.151  2.0599 -1.1153  2.1880
 6069SOL    HW219649   1.977   7.922  10.182 -0.6512  1.9964 -0.5457
 6070SOL     OW19650   1.009   7.353   7.780 -0.2801 -0.0672 -0.6445
 6070SOL    HW119651   0.986   7.431   7.728  0.8684  0.2263 -0.7421
 6070SOL    HW219652   1.102   7.340   7.762 -0.0880 -0.5083  0.6381
 6071SOL     OW19653   0.359   0.552   8.363  0.0303  0.1618 -0.4954
 6071SOL    HW119654   0.378   0.634   8.317  2.3901 -1.0127 -1.8309
 6071SOL    HW219655   0.357   0.486   8.293  0.2092 -1.2065  0.7480
 6072SOL     OW19656   4.157   1.471   9.567  0.4258  0.4486 -0.0135
 6072SOL    HW119657   4.216   1.544   9.553  0.5496  0.1396 -1.1904
 6072SOL    HW219658   4.090   1.480   9.499  0.7567 -0.8356 -0.5425
 6073SOL     OW19659   3.553   7.850   8.405  0.2125  0.0873 -0.2175
 6073SOL    HW119660   3.569   7.793   8.330 -0.1162 -0.3448  0.0414
 6073SOL    HW219661   3.589   7.935   8.378 -0.6888  0.1783 -1.2111
 6074SOL     OW19662   0.408   7.222   7.761  0.1282 -0.3392  0.0026
 6074SOL    HW119663   0.409   7.255   7.671  0.8979 -0.4119 -0.0223
 6074SOL    HW219664   0.336   7.159   7.762 -0.2142  0.0359 -0.4218
 6075SOL     OW19665   0.995   0.216   8.490  0.0985  0.2736 -0.1631
 6075SOL    HW119666   0.946   0.142   8.454 -1.6970  1.1638  0.3190
 6075SOL    HW219667   1.068   0.177   8.537 -0.8918 -1.2025  0.1975
 6076SOL     OW19668   0.434   7.305  11.066  0.0612 -0.2230 -0.1799
 6076SOL    HW119669   0.517   7.348  11.084 -1.0186  2.1558 -0.4721
 6076SOL    HW219670   0.392   7.360  10.999 -1.7117 -1.3745 -0.0946
 6077SOL     OW19671   2.574   0.157   8.557 -0.0631  0.3770 -0.2113
 6077SOL    HW119672   2.603   0.166   8.467 -1.0525  0.3377 -0.5526
 6077SOL    HW219673   2.494   0.105   8.551  0.8146 -1.1556  0.8702
 6078SOL     OW19674   1.491   0.526   9.362 -0.1291  0.1275  0.6162
 6078SOL    HW119675   1.504   0.462   9.292 -0.2637  0.6518  0.1027
 6078SOL    HW219676   1.488   0.474   9.442 -1.1481 -0.6055  0.1225
 6079SOL     OW19677   2.098   1.468   7.948  0.1785  0.1429 -0.4731
 6079SOL    HW119678   2.146   1.511   7.878  1.2421  0.7711  0.6028
 6079SOL    HW219679   2.122   1.376   7.942  2.1305  0.5482  0.4798
 6080SOL     OW19680   7.258   7.254   8.623 -0.3859  0.0618 -0.3329
 6080SOL    HW119681   7.334   7.293   8.581 -0.0027 -1.2433 -0.9105
 6080SOL    HW219682   7.236   7.314   8.694  0.5128  1.0117 -0.8315
 6081SOL     OW19683   0.101   6.406  10.740  0.0293  0.0241  0.4302
 6081SOL    HW119684   0.055   6.325  10.720  0.9042 -0.7382  1.4216
 6081SOL    HW219685   0.142   6.431  10.658 -1.0613  0.0143 -0.1349
 6082SOL     OW19686   3.908   0.749   9.245 -0.3733 -0.2253 -0.1513
 6082SOL    HW119687   4.002   0.767   9.233 -0.5325  0.5633 -0.2925
 6082SOL    HW219688   3.889   0.784   9.332 -0.4534 -0.7283  0.0309
 6083SOL     OW19689   1.228   7.126  10.033 -0.3810 -0.3734  0.3100
 6083SOL    HW119690   1.252   7.041  10.069  0.8453 -0.7200 -1.2163
 6083SOL    HW219691   1.182   7.105   9.951  2.5335  0.3655 -1.6686
 6084SOL     OW19692   2.703   0.320   9.405 -0.2965 -0.7293  0.2729
 6084SOL    HW119693   2.622   0.356   9.369 -1.0155 -2.6176 -0.1227
 6084SOL    HW219694   2.677   0.234   9.439  1.6940 -1.7585 -0.6601
 6085SOL     OW19695   1.755   6.686  11.315  0.6718  0.0761 -0.2453
 6085SOL    HW119696   1.667   6.670  11.348  0.8134  0.7195  0.4701
 6085SOL    HW219697   1.750   6.773  11.275  0.7663 -0.2629 -1.0288
 6086SOL     OW19698   7.235   7.905   9.245 -0.3649  0.6729 -0.2239
 6086SOL    HW119699   7.217   7.986   9.197  3.0278  1.4814 -0.4053
 6086SOL    HW219700   7.330   7.898   9.243 -0.4651 -2.4020  1.3820
 6087SOL     OW19701   0.363   0.610  11.578  0.6166  0.0493  0.3533
 6087SOL    HW119702   0.431   0.670  11.547 -1.0122  1.5116 -0.4865
 6087SOL    HW219703   0.355   0.629  11.671  0.1610  1.1141  0.1081
 6088SOL     OW19704   6.634   6.188  11.327  0.5253  0.0755  0.0159
 6088SOL    HW119705   6.635   6.171  11.233 -0.9212  0.8992 -0.1854
 6088SOL    HW219706   6.628   6.101  11.368 -0.5138 -0.2287 -0.7350
 6089SOL     OW19707   7.409   0.558  10.952  0.0372 -0.1741  0.3466
 6089SOL    HW119708   7.391   0.469  10.921 -0.5833 -0.4257  1.3982
 6089SOL    HW219709   7.413   0.550  11.047  2.6322  0.4412  0.3687
 6090SOL     OW19710   0.781   1.839  10.651  0.6167 -0.2849 -0.2958
 6090SOL    HW119711   0.696   1.881  10.639  0.7087  0.0801  0.3182
 6090SOL    HW219712   0.762   1.745  10.649  0.5008 -0.2681 -2.3936
 6091SOL     OW19713   1.399   1.234  11.793  0.4963 -0.1733 -0.5488
 6091SOL    HW119714   1.333   1.258  11.728  0.8990  0.9232 -0.5725
 6091SOL    HW219715   1.482   1.255  11.752  0.7106  2.3583  0.9807
 6092SOL     OW19716   0.398   1.253  12.257  0.7635 -0.1183 -0.1776
 6092SOL    HW119717   0.409   1.159  12.267  1.5837 -0.0954 -0.7540
 6092SOL    HW219718   0.330   1.262  12.191 -2.1907 -0.2635  2.5932
 6093SOL     OW19719   2.996   7.684  10.693  0.4297 -0.0825 -0.3069
 6093SOL    HW119720   2.955   7.770  10.683  0.7775 -0.0391 -1.4862
 6093SOL    HW219721   2.996   7.668  10.787 -0.7029  0.6872 -0.1616
 6094SOL     OW19722   2.517   7.544  11.776  0.1531 -0.2446 -0.2335
 6094SOL    HW119723   2.555   7.587  11.853 -1.2910  1.0905 -0.2149
 6094SOL    HW219724   2.534   7.605  11.705  1.5896 -1.5275 -1.0677
 6095SOL     OW19725   2.800   6.722  11.443 -0.1344 -0.0266 -0.7427
 6095SOL    HW119726   2.736   6.767  11.499  0.7083 -0.1599  0.3596
 6095SOL    HW219727   2.775   6.630  11.449 -0.0586 -0.0382 -0.6174
 6096SOL     OW19728   1.818   7.893  10.475 -0.4398 -0.5411  0.4905
 6096SOL    HW119729   1.722   7.896  10.477 -0.4415 -0.7653  2.0623
 6096SOL    HW219730   1.839   7.862  10.387 -1.9223 -2.8410  0.8538
 6097SOL     OW19731   3.885   6.569  11.412  0.4303 -0.5618  0.2930
 6097SOL    HW119732   3.869   6.655  11.372  0.4831  1.0635  3.4067
 6097SOL    HW219733   3.977   6.550  11.392  0.8562  0.8609  0.7603
 6098SOL     OW19734   0.069   7.010  10.664  0.0870 -0.4836 -0.1982
 6098SOL    HW119735   0.127   7.031  10.738  0.7366 -2.4301 -0.1167
 6098SOL    HW219736   0.011   7.086  10.658  1.4452  0.7129  0.8989
 6099SOL     OW19737   1.662   5.139  11.036 -0.0721 -0.0029  0.0420
 6099SOL    HW119738   1.727   5.119  10.969 -0.2803  0.1047 -0.1934
 6099SOL    HW219739   1.647   5.055  11.081 -1.5826 -0.6172 -1.5079
 6100SOL     OW19740   0.707   7.139   0.169 -0.3013 -0.0790 -0.0543
 6100SOL    HW119741   0.685   7.229   0.147  1.2392  0.1891 -0.6272
 6100SOL    HW219742   0.726   7.097   0.085 -1.2249 -1.0146  0.1816
 6101SOL     OW19743   0.131   0.241  10.638 -0.3308  0.3504 -0.4107
 6101SOL    HW119744   0.145   0.160  10.688 -1.7924  0.4106  0.1510
 6101SOL    HW219745   0.214   0.257  10.594  0.8236 -0.0479  1.5147
 6102SOL     OW19746   1.163   0.852   9.416 -0.3168  0.2353  0.2546
 6102SOL    HW119747   1.111   0.772   9.417 -1.1153  0.7472  1.7611
 6102SOL    HW219748   1.232   0.835   9.351 -1.5108 -0.9850 -0.7446
 6103SOL     OW19749   2.131   0.644   9.403 -0.3533  0.1976  0.0002
 6103SOL    HW119750   2.134   0.630   9.308 -0.9099  3.0384 -0.5350
 6103SOL    HW219751   2.215   0.685   9.424 -0.6178  0.4643  0.5572
 6104SOL     OW19752   7.972   7.338  11.914  0.2888  0.1324  0.0122
 6104SOL    HW119753   7.973   7.245  11.935  0.8379  0.4581  1.5135
 6104SOL    HW219754   7.882   7.366  11.934 -0.5267 -0.4590 -2.4449
 6105SOL     OW19755   7.983   6.817  11.355  0.0199 -0.2110  0.6908
 6105SOL    HW119756   7.932   6.758  11.300 -1.3724  1.5861 -0.0686
 6105SOL    HW219757   8.058   6.841  11.300 -1.5146  1.8096 -0.6837
 6106SOL     OW19758   1.357   0.096  11.657 -0.5533 -0.4179 -0.1580
 6106SOL    HW119759   1.262   0.085  11.652 -0.4076 -1.6858 -0.4346
 6106SOL    HW219760   1.385   0.034  11.724  0.2801 -1.4512 -1.4206
 6107SOL     OW19761   2.187   1.610   8.816 -0.2503  0.1888  0.6220
 6107SOL    HW119762   2.127   1.677   8.783 -2.1135 -0.6056  2.1622
 6107SOL    HW219763   2.218   1.565   8.737 -0.1598  1.8651 -0.3302
 6108SOL     OW19764   1.552   0.237  12.320  0.1393  0.5722 -0.3930
 6108SOL    HW119765   1.624   0.208  12.264 -1.2496 -0.2537 -1.8277
 6108SOL    HW219766   1.595   0.281  12.394  2.0895  0.1393 -1.2157
 6109SOL     OW19767   1.156   7.155  10.974  0.2151 -0.0116  0.2137
 6109SOL    HW119768   1.182   7.094  11.042  0.2421  1.2298  1.3573
 6109SOL    HW219769   1.222   7.224  10.977 -0.9188  1.1111  0.3822
 6110SOL     OW19770   7.765   7.974  11.585  0.2065 -0.5336 -0.2631
 6110SOL    HW119771   7.784   7.889  11.546 -0.5211 -0.3559 -1.0269
 6110SOL    HW219772   7.810   7.972  11.670  1.9833 -0.8432 -1.1632
 6111SOL     OW19773   7.935   7.509  11.493 -0.2069  0.6319  0.2535
 6111SOL    HW119774   7.859   7.538  11.443 -1.6747 -3.1363 -0.0018
 6111SOL    HW219775   8.008   7.514  11.431 -1.3002 -0.5129 -1.2073
 6112SOL     OW19776   1.722   6.908  11.994  0.0062 -0.0342  0.5904
 6112SOL    HW119777   1.644   6.947  11.956  0.5289  0.5458  0.0766
 6112SOL    HW219778   1.691   6.858  12.069 -1.1371 -1.6342 -0.8665
 6113SOL     OW19779   1.799   7.777   9.671 -0.1493  0.3049  0.1497
 6113SOL    HW119780   1.786   7.851   9.730  0.7077 -0.7964  1.7807
 6113SOL    HW219781   1.793   7.815   9.583  2.3387  2.7331  0.9147
 6114SOL     OW19782   7.628   7.676  10.865  0.1529 -0.4146  0.6417
 6114SOL    HW119783   7.667   7.627  10.792  1.9293  2.5148 -0.5531
 6114SOL    HW219784   7.696   7.738  10.891 -2.0091  1.6327  1.8324
 6115SOL     OW19785   7.850   0.062  10.013  0.0122 -0.0168  0.2506
 6115SOL    HW119786   7.763   0.078   9.976 -0.2823 -2.1804 -0.0965
 6115SOL    HW219787   7.833   0.029  10.101  0.4733 -0.6638  0.1006
 6116SOL     OW19788   2.244   6.815  11.945  0.2318  0.5453  0.2747
 6116SOL    HW119789   2.283   6.732  11.918 -0.4115  0.8497 -1.7318
 6116SOL    HW219790   2.274   6.827  12.035 -0.1320 -2.1433  0.8496
 6117SOL     OW19791   4.725   0.577   9.082  0.6350 -0.0249 -0.3881
 6117SOL    HW119792   4.772   0.513   9.028  0.9429  1.0439 -1.4273
 6117SOL    HW219793   4.731   0.659   9.032 -0.3007  0.6680  0.6088
 6118SOL     OW19794   1.706   0.672  10.250  0.7602 -0.1792 -0.2187
 6118SOL    HW119795   1.646   0.673  10.175  0.6436 -2.0900 -0.2052
 6118SOL    HW219796   1.792   0.655  10.212  1.0729  0.9912 -0.0846
 6119SOL     OW19797   1.211   7.543  10.394  0.0567  0.1299 -0.7621
 6119SOL    HW119798   1.157   7.590  10.330 -1.0100 -0.3619 -0.2598
 6119SOL    HW219799   1.154   7.473  10.425  0.8478 -0.1318  0.1321
 6120SOL     OW19800   0.521   0.834   9.107 -0.0855  0.8283 -0.4483
 6120SOL    HW119801   0.565   0.914   9.079  0.7575  1.2888  1.9469
 6120SOL    HW219802   0.534   0.831   9.202 -0.3082 -2.0217 -0.4036
 6121SOL     OW19803   0.633   0.443  10.977 -0.1443 -1.3170  0.2018
 6121SOL    HW119804   0.584   0.366  11.005 -0.5253 -2.0456 -2.1883
 6121SOL    HW219805   0.570   0.495  10.927 -0.3209  1.3971  2.9772
 6122SOL     OW19806   0.677   6.971  12.424 -0.4714 -0.0019 -0.1271
 6122SOL    HW119807   0.695   6.877  12.430 -0.5533 -0.0748 -0.8560
 6122SOL    HW219808   0.730   7.000  12.349  1.5592  1.0539  1.6215
 6123SOL     OW19809   7.605   7.346   9.970  0.0270 -0.0067 -0.0647
 6123SOL    HW119810   7.674   7.345   9.904  0.4598  0.1832  0.3732
 6123SOL    HW219811   7.533   7.295   9.932  0.9406 -1.4361  0.0291
 6124SOL     OW19812   6.484   7.120  10.999 -0.3067 -0.3049 -0.0673
 6124SOL    HW119813   6.431   7.049  10.962  0.0188  0.2116 -1.6014
 6124SOL    HW219814   6.435   7.200  10.978  1.6337  0.3221 -2.8026
 6125SOL     OW19815   7.734   7.141  10.269 -0.3170 -0.7595 -0.0441
 6125SOL    HW119816   7.751   7.212  10.208 -0.5001 -0.4106  0.3070
 6125SOL    HW219817   7.820   7.119  10.305 -0.5194  0.8561  1.5676
 6126SOL     OW19818   0.846   0.625  11.617 -0.6229 -0.0989  0.3116
 6126SOL    HW119819   0.930   0.622  11.664 -0.7909  0.8651  0.6922
 6126SOL    HW219820   0.824   0.718  11.613 -1.1800 -0.2603 -0.6832
 6127SOL     OW19821   2.817   6.862  11.202 -0.1806  0.2055  0.2506
 6127SOL    HW119822   2.797   6.930  11.266  3.4277  1.6664  0.0812
 6127SOL    HW219823   2.807   6.780  11.250 -2.2211  0.9365  1.1940
 6128SOL     OW19824   1.214   0.406   8.702 -0.7432  0.0245 -0.1374
 6128SOL    HW119825   1.191   0.316   8.725  1.1214 -0.1505  1.3742
 6128SOL    HW219826   1.137   0.458   8.727 -1.5276 -1.0582 -0.2586
 6129SOL     OW19827   0.869   7.180  11.073  0.2348 -0.2404  0.0877
 6129SOL    HW119828   0.955   7.171  11.114 -1.1146 -1.7986  2.8209
 6129SOL    HW219829   0.823   7.243  11.128 -1.5532 -2.1587  0.8779
 6130SOL     OW19830   7.403   1.334  11.103  0.1892  0.2366  0.4440
 6130SOL    HW119831   7.317   1.303  11.077 -0.3124  1.2444  0.8166
 6130SOL    HW219832   7.397   1.429  11.097  1.4140  0.3081  0.0744
 6131SOL     OW19833   1.134   1.308  10.311 -0.3304 -0.6030  0.3126
 6131SOL    HW119834   1.176   1.385  10.273 -0.6206 -0.4858  0.2247
 6131SOL    HW219835   1.163   1.307  10.402 -1.5132  0.4697  0.7218
 6132SOL     OW19836   4.268   6.177  11.226 -0.1324  0.1949 -0.1724
 6132SOL    HW119837   4.260   6.268  11.254  0.1813  0.0596  0.3678
 6132SOL    HW219838   4.193   6.163  11.168  0.3952  1.0981 -1.1044
 6133SOL     OW19839   2.340   6.609  11.552 -0.0716  0.5821 -0.0354
 6133SOL    HW119840   2.322   6.700  11.575  1.0283  0.9852 -0.6948
 6133SOL    HW219841   2.258   6.578  11.513 -1.0451  0.7207  1.8039
 6134SOL     OW19842   0.405   0.251   9.411 -0.1950  0.2044 -0.2084
 6134SOL    HW119843   0.385   0.180   9.472 -0.4531  0.2165 -0.2773
 6134SOL    HW219844   0.328   0.307   9.413  0.5208  1.1938  0.8171
 6135SOL     OW19845   7.175   0.044  11.005  0.0689  0.5857 -0.5163
 6135SOL    HW119846   7.183  -0.008  10.925 -2.0182 -0.4358 -0.1442
 6135SOL    HW219847   7.201  -0.017  11.075 -0.7253  0.5858 -0.2144
 6136SOL     OW19848   1.989   0.155  10.528 -0.0702 -0.6568  0.1038
 6136SOL    HW119849   2.066   0.106  10.557  0.5033 -0.3762 -0.9089
 6136SOL    HW219850   1.933   0.091  10.486  0.3303 -0.5909 -0.5416
 6137SOL     OW19851   1.052   7.997  10.616  0.1970 -0.1309  0.2199
 6137SOL    HW119852   1.023   7.976  10.527  0.4112  2.3622 -0.5123
 6137SOL    HW219853   0.984   8.056  10.650  0.6870 -0.1553  1.2994
 6138SOL     OW19854   0.212   1.830  12.023  0.5073 -0.3901  0.3295
 6138SOL    HW119855   0.207   1.823  11.928  1.1353  0.4920  0.2113
 6138SOL    HW219856   0.134   1.786  12.056  0.8199 -1.6392 -0.5367
 6139SOL     OW19857   0.023   7.894  12.249  0.0864 -0.2127 -0.0265
 6139SOL    HW119858   0.113   7.886  12.282 -0.0876  0.4591  0.6254
 6139SOL    HW219859  -0.023   7.820  12.289  0.4411 -0.8190 -0.7126
 6140SOL     OW19860   7.999   7.172  11.646  0.2169  0.0224  0.2439
 6140SOL    HW119861   7.967   7.135  11.728 -0.6738  1.6823  0.6875
 6140SOL    HW219862   7.945   7.131  11.579  0.3790 -0.7104  0.5486
 6141SOL     OW19863   0.684   7.422  11.084  0.5945 -0.3247 -0.2974
 6141SOL    HW119864   0.681   7.444  10.990 -1.3210  0.1376 -0.1750
 6141SOL    HW219865   0.775   7.436  11.109  0.8365  1.0704 -1.7610
 6142SOL     OW19866   2.978   1.344  11.713  0.6718 -0.5482 -0.5692
 6142SOL    HW119867   3.069   1.368  11.730 -0.3006  2.7692  0.8330
 6142SOL    HW219868   2.953   1.291  11.789  1.2959 -1.1830 -0.7918
 6143SOL     OW19869   3.861   6.254  10.940  0.2003 -0.0980 -0.4051
 6143SOL    HW119870   3.919   6.330  10.945 -0.0307  0.0760 -0.3996
 6143SOL    HW219871   3.795   6.278  10.875 -0.1218 -0.1282 -0.0877
 6144SOL     OW19872   4.851   6.861   8.269  0.6913  0.3169  0.0376
 6144SOL    HW119873   4.930   6.914   8.280  2.9134 -2.9775  1.6942
 6144SOL    HW219874   4.803   6.872   8.351 -0.4327  1.9851 -0.8007
 6145SOL     OW19875   7.437   0.027  11.274  0.2879  0.1427  0.2944
 6145SOL    HW119876   7.524   0.065  11.262  0.8097 -0.3963  2.0708
 6145SOL    HW219877   7.441  -0.058  11.230  1.0959 -0.4281  1.4284
 6146SOL     OW19878   1.235   6.872   7.614 -0.3564  0.5637 -0.2484
 6146SOL    HW119879   1.166   6.812   7.645 -1.2098  1.9313  0.6010
 6146SOL    HW219880   1.277   6.824   7.543 -3.0211  0.1301 -1.6981
 6147SOL     OW19881   0.526   0.242   1.456 -0.3746  0.5532  0.5102
 6147SOL    HW119882   0.554   0.181   1.388  1.1512  1.1490  0.5497
 6147SOL    HW219883   0.431   0.243   1.451 -0.6679 -3.5532  2.0143
 6148SOL     OW19884   7.302   7.851  12.106  0.0033 -0.7158 -0.6855
 6148SOL    HW119885   7.297   7.778  12.045  1.0884 -2.3908  1.1284
 6148SOL    HW219886   7.286   7.812  12.192 -0.7227  1.4285  0.2163
 6149SOL     OW19887   3.572   6.796  11.817  0.5405  0.0959 -0.2042
 6149SOL    HW119888   3.507   6.752  11.762 -2.2174  3.2165  0.1490
 6149SOL    HW219889   3.586   6.881  11.774  3.1581  0.1968  0.6831
 6150SOL     OW19890   2.710   0.261   0.591  0.1281 -0.2217 -0.1551
 6150SOL    HW119891   2.620   0.236   0.615  0.3010 -0.2476  0.4737
 6150SOL    HW219892   2.705   0.354   0.571 -0.0820 -0.2730 -0.3495
 6151SOL     OW19893   1.249   2.416   0.527 -0.1992 -0.1139 -0.0243
 6151SOL    HW119894   1.195   2.340   0.550 -0.0611 -0.4510 -0.7813
 6151SOL    HW219895   1.195   2.465   0.464 -0.3766  0.5391  0.6205
 6152SOL     OW19896   0.456   6.400  12.005 -0.3268 -0.7195 -0.2845
 6152SOL    HW119897   0.365   6.378  11.986 -0.6211  0.7934 -0.7363
 6152SOL    HW219898   0.460   6.408  12.100 -1.0760  0.7728 -0.3495
 6153SOL     OW19899   1.161   7.646   0.075 -0.4591 -0.8185 -0.4224
 6153SOL    HW119900   1.149   7.551   0.075 -3.8165 -0.5144  0.1296
 6153SOL    HW219901   1.111   7.677   0.151  0.4493  1.4038 -0.6514
 6154SOL     OW19902   7.609   0.181  12.394  0.6248  0.1645 -0.1363
 6154SOL    HW119903   7.672   0.118  12.359  0.7891 -0.0613  0.5350
 6154SOL    HW219904   7.630   0.186  12.488  0.5348  1.1349 -0.1597
 6155SOL     OW19905   2.691   7.961  10.963 -0.2491 -0.6885 -0.0768
 6155SOL    HW119906   2.786   7.968  10.971 -0.2244 -1.1434  0.0641
 6155SOL    HW219907   2.677   7.886  10.906 -0.5165 -0.3209 -0.4966
 6156SOL     OW19908   0.726   0.408  12.328 -0.6990  0.0330 -0.7282
 6156SOL    HW119909   0.657   0.356  12.370 -1.2910 -1.2696 -3.1327
 6156SOL    HW219910   0.726   0.378  12.237  2.0824  1.0435 -1.1382
 6157SOL     OW19911   7.285   6.423   1.144 -0.5021  0.0880 -0.0285
 6157SOL    HW119912   7.380   6.413   1.152 -0.5919  0.0221  1.1586
 6157SOL    HW219913   7.272   6.516   1.129 -0.3094  0.3245  1.1817
 6158SOL     OW19914   1.632   1.303  11.229  0.2256  0.3035 -0.6506
 6158SOL    HW119915   1.631   1.232  11.165  0.8670 -0.8859  0.6119
 6158SOL    HW219916   1.668   1.264  11.308 -3.6774  0.7045  1.6211
 6159SOL     OW19917   1.521   6.116   0.170 -0.1336 -0.1564  0.4175
 6159SOL    HW119918   1.460   6.084   0.236  0.6869 -2.7502  0.0270
 6159SOL    HW219919   1.467   6.124   0.091 -0.5255  0.2471  0.7173
 6160SOL     OW19920   0.179   5.973  12.051 -0.4168 -0.1815  0.9196
 6160SOL    HW119921   0.189   5.889  12.096  2.7719  0.1815  1.1072
 6160SOL    HW219922   0.169   6.037  12.122  2.6375  0.1476  1.1963
 6161SOL     OW19923   0.180   5.591   0.251 -0.5942  0.2175 -0.2829
 6161SOL    HW119924   0.219   5.674   0.221  0.3122 -0.6084 -1.4774
 6161SOL    HW219925   0.100   5.583   0.200 -0.7791  0.4429 -0.0308
 6162SOL     OW19926   1.555   7.178   0.022  0.0536 -0.6082  0.1252
 6162SOL    HW119927   1.576   7.131   0.103  1.0189 -0.7525 -0.1900
 6162SOL    HW219928   1.640   7.193  -0.019 -0.3017  0.6881 -0.1931
 6163SOL     OW19929   0.570   1.427   1.477 -0.4343 -0.4972 -0.2454
 6163SOL    HW119930   0.510   1.396   1.409  1.6008 -0.6871 -2.0987
 6163SOL    HW219931   0.615   1.348   1.507 -0.4143 -0.2495  0.3747
 6164SOL     OW19932   0.017   0.510  11.861  0.3495  0.1818  0.1549
 6164SOL    HW119933   0.112   0.514  11.869  0.5236 -3.2898  0.9995
 6164SOL    HW219934  -0.014   0.500  11.951 -0.6002 -1.3251 -0.3239
 6165SOL     OW19935   3.250   6.921   0.718  0.2478 -0.5645  0.0793
 6165SOL    HW119936   3.266   6.935   0.811  1.2263 -2.4841  0.2636
 6165SOL    HW219937   3.308   6.983   0.674  1.6706 -1.3504  0.7793
 6166SOL     OW19938   2.256   5.895  11.781 -0.1733 -0.2166 -0.6984
 6166SOL    HW119939   2.221   5.976  11.743  0.4614  0.7409  0.6749
 6166SOL    HW219940   2.334   5.877  11.730  1.2150  1.5962  0.6502
 6167SOL     OW19941   0.918   7.342  11.993 -0.1288  0.2074  0.3083
 6167SOL    HW119942   1.011   7.362  11.990 -0.5900  2.9642  1.3015
 6167SOL    HW219943   0.886   7.361  11.905 -0.0400  1.0068  0.4464
 6168SOL     OW19944   6.876   7.192   2.492 -0.2317  0.0637 -0.0887
 6168SOL    HW119945   6.806   7.212   2.554  1.7337  1.4889  1.8423
 6168SOL    HW219946   6.925   7.120   2.533 -2.0579 -2.9961 -2.7743
 6169SOL     OW19947   7.958   6.761  12.252 -0.2229 -0.1334 -0.2352
 6169SOL    HW119948   8.002   6.846  12.253 -0.3081 -0.0721 -1.2147
 6169SOL    HW219949   7.955   6.735  12.344  0.5982  0.5158 -0.0115
 6170SOL     OW19950   1.271   1.120  12.238 -0.2114 -0.1972 -0.3921
 6170SOL    HW119951   1.261   1.109  12.143  0.9109 -0.0272 -0.5457
 6170SOL    HW219952   1.281   1.030  12.271  1.0300 -0.1706 -0.6525
 6171SOL     OW19953   0.057   7.896  11.013  0.1096  0.4831 -0.4684
 6171SOL    HW119954   0.073   7.823  11.073  1.2607  0.1451 -1.1383
 6171SOL    HW219955   0.083   7.974  11.063 -0.7824  0.4065  0.1276
 6172SOL     OW19956   2.422   7.278  12.266  0.0535 -0.5214  0.3746
 6172SOL    HW119957   2.446   7.253  12.355 -0.4515 -3.7166 -0.2738
 6172SOL    HW219958   2.501   7.262  12.215 -0.2124 -0.5176 -0.0443
 6173SOL     OW19959   7.936   7.753  10.821  0.5041  0.0705 -0.4136
 6173SOL    HW119960   7.985   7.816  10.874 -1.0014  0.5237  0.4694
 6173SOL    HW219961   8.005   7.701  10.777  1.7828  2.3551 -1.2782
 6174SOL     OW19962   0.472   6.720   9.676 -0.2275 -0.8572 -0.1870
 6174SOL    HW119963   0.489   6.628   9.692  0.2315 -0.8396 -0.5524
 6174SOL    HW219964   0.490   6.763   9.759  0.8745 -0.9259 -0.3810
 6175SOL     OW19965   0.026   7.518   0.556  0.0380  0.4946  0.5387
 6175SOL    HW119966   0.036   7.474   0.471 -1.1480  0.3051  0.4832
 6175SOL    HW219967   0.072   7.461   0.618 -0.4210 -0.1808  0.2716
 6176SOL     OW19968   1.637   0.795  11.425  0.5737 -0.0281  0.2281
 6176SOL    HW119969   1.585   0.845  11.361 -0.0297 -2.5339 -1.3756
 6176SOL    HW219970   1.726   0.798  11.391  1.2312  2.5276  1.8798
 6177SOL     OW19971   7.990   0.281  12.364  0.0709  0.1178  0.1252
 6177SOL    HW119972   7.999   0.198  12.412 -0.8177  0.1208  0.3034
 6177SOL    HW219973   7.923   0.329  12.411  0.8703  1.1283  0.2635
 6178SOL     OW19974   3.099   7.611  11.614 -0.3040 -0.2422 -0.0953
 6178SOL    HW119975   3.146   7.694  11.609  0.1182 -0.4557  0.2061
 6178SOL    HW219976   3.014   7.634  11.651 -0.3163  0.1042 -0.3367
 6179SOL     OW19977   1.211   1.127   0.681  0.1918 -0.3717 -0.1980
 6179SOL    HW119978   1.247   1.090   0.761  0.9584 -1.8856 -1.1938
 6179SOL    HW219979   1.167   1.053   0.638 -0.1411  0.3876 -1.2125
 6180SOL     OW19980   2.256   0.007  11.899  0.1881  0.5537 -0.2732
 6180SOL    HW119981   2.272  -0.047  11.977  1.2364 -2.2937 -2.2974
 6180SOL    HW219982   2.176  -0.028  11.861  1.2286 -0.0978 -1.9833
 6181SOL     OW19983   3.493   6.868  12.102 -0.3058  0.3301 -0.6384
 6181SOL    HW119984   3.508   6.961  12.118 -0.3439  0.4156 -1.0891
 6181SOL    HW219985   3.496   6.859  12.007  2.0881 -0.5356 -0.5330
 6182SOL     OW19986   2.865   5.402  11.999  0.3755  0.0564 -0.7209
 6182SOL    HW119987   2.796   5.339  11.976  0.3488  0.2862 -1.2866
 6182SOL    HW219988   2.921   5.406  11.921 -0.1059  1.3664 -1.0307
 6183SOL     OW19989   0.520   6.413   0.311 -0.2914 -0.2198 -0.1582
 6183SOL    HW119990   0.435   6.375   0.334  0.2150 -0.1654  1.9485
 6183SOL    HW219991   0.512   6.506   0.333  0.6030 -0.3883  0.9268
 6184SOL     OW19992   0.027   0.118   1.721 -0.0883 -0.1905  0.0654
 6184SOL    HW119993   0.026   0.194   1.663  0.3992  0.0853  0.4120
 6184SOL    HW219994   0.087   0.057   1.680  1.8718  0.8254  1.2829
 6185SOL     OW19995   2.256   7.321   0.167  0.1336 -0.0975 -0.5791
 6185SOL    HW119996   2.195   7.351   0.099  0.5784  1.2624 -0.4007
 6185SOL    HW219997   2.342   7.343   0.133  0.3974 -0.0448  0.1144
 6186SOL     OW19998   0.682   7.506  10.803 -0.3644  0.0413 -0.0578
 6186SOL    HW119999   0.690   7.582  10.745  0.4220  1.5366  1.9308
 6186SOL    HW220000   0.735   7.439  10.761  1.6343  1.6412 -0.2315
 6187SOL     OW20001   7.080   0.850  12.489  0.1933 -0.1101  0.4118
 6187SOL    HW120002   6.993   0.820  12.515  0.0659  0.5813  0.8397
 6187SOL    HW220003   7.066   0.891  12.404 -0.0646  0.6874  0.8210
 6188SOL     OW20004   7.396   7.684   0.485  0.4382  0.2932 -0.2094
 6188SOL    HW120005   7.359   7.684   0.573  0.9979 -1.0894  0.0501
 6188SOL    HW220006   7.332   7.732   0.432 -1.4755 -1.4931  0.3373
 6189SOL     OW20007   1.355   7.640  11.708 -0.5954  0.6905  0.1354
 6189SOL    HW120008   1.287   7.614  11.646 -1.5055  1.7358  0.6677
 6189SOL    HW220009   1.431   7.588  11.683 -0.9949  0.9284 -1.7481
 6190SOL     OW20010   2.883   6.438  11.842  0.6817  0.4912 -0.0220
 6190SOL    HW120011   2.834   6.357  11.855  0.3408  0.6682 -0.1835
 6190SOL    HW220012   2.816   6.505  11.828  0.9752  0.6583 -0.6755
 6191SOL     OW20013   5.829   1.344  10.953  0.4970  0.0726  0.0192
 6191SOL    HW120014   5.858   1.322  11.042  0.9878  0.9112  0.0760
 6191SOL    HW220015   5.771   1.272  10.928  0.1245 -0.0315  1.1323
 6192SOL     OW20016   2.459   7.924  11.733 -0.0370  0.1548 -0.2071
 6192SOL    HW120017   2.371   7.957  11.751 -1.0049 -1.1297 -2.2500
 6192SOL    HW220018   2.446   7.836  11.697  2.0992 -0.1525 -0.3939
 6193SOL     OW20019   0.974   2.995  12.069 -0.0999 -0.5985 -0.1426
 6193SOL    HW120020   0.992   2.942  12.147 -0.0590 -0.8302 -0.3067
 6193SOL    HW220021   1.048   2.978  12.011  0.6479  0.7470  0.3731
 6194SOL     OW20022   1.003   0.207  11.129  0.2087 -0.0181 -0.7248
 6194SOL    HW120023   1.072   0.255  11.176  0.2666 -0.8308  0.0504
 6194SOL    HW220024   0.932   0.271  11.120  0.7702  0.6024 -0.8619
 6195SOL     OW20025   7.727   7.881   0.944  0.3352 -0.3956 -0.3690
 6195SOL    HW120026   7.731   7.908   1.036 -3.7763  0.2617 -0.1556
 6195SOL    HW220027   7.708   7.787   0.948  0.0371 -0.3419 -0.5275
 6196SOL     OW20028   2.237   7.553  11.836  0.1481  0.2643  0.2325
 6196SOL    HW120029   2.332   7.539  11.842  0.4534  1.8773 -0.1441
 6196SOL    HW220030   2.202   7.469  11.809  1.4033 -0.5253  0.9355
 6197SOL     OW20031   1.557   7.809   0.545 -0.1459 -0.0518  0.2511
 6197SOL    HW120032   1.575   7.869   0.617 -0.4535  1.3730 -0.8283
 6197SOL    HW220033   1.535   7.865   0.471  0.9137 -1.4358 -1.1896
 6198SOL     OW20034   1.609   7.124   1.795 -0.0800  0.0280  0.1195
 6198SOL    HW120035   1.628   7.043   1.842 -2.2444 -0.2081  0.6844
 6198SOL    HW220036   1.575   7.096   1.710  0.8022  0.3957 -0.3682
 6199SOL     OW20037   2.425   1.282  12.151 -0.3492 -0.2343  0.1497
 6199SOL    HW120038   2.492   1.281  12.082 -2.1641  0.7138 -1.7398
 6199SOL    HW220039   2.352   1.232  12.114 -1.3857  0.2949  1.4106
 6200SOL     OW20040   4.742   2.481   2.035  0.0071  0.7073 -0.1473
 6200SOL    HW120041   4.751   2.395   2.077 -0.3865  0.1628 -1.1269
 6200SOL    HW220042   4.658   2.477   1.990  0.5143  1.1550 -1.1876
 6201SOL     OW20043   3.887   1.618   1.545 -0.2361  0.1052  0.0422
 6201SOL    HW120044   3.814   1.613   1.483 -1.8307 -0.9611  1.8966
 6201SOL    HW220045   3.854   1.670   1.618  0.6799 -0.7499  1.1156
 6202SOL     OW20046   3.541   6.937   0.448 -0.3241  0.2222  0.1178
 6202SOL    HW120047   3.568   7.029   0.445 -1.3196  0.5373  0.1870
 6202SOL    HW220048   3.547   6.913   0.540  1.6882 -0.3613 -0.1188
 6203SOL     OW20049   2.377   1.804   1.604 -0.2953  0.5041  0.2089
 6203SOL    HW120050   2.459   1.853   1.608 -0.2683  0.4292  0.5308
 6203SOL    HW220051   2.399   1.724   1.557 -0.3894  0.8970 -0.5282
 6204SOL     OW20052   2.572   7.530   4.390 -0.2848  0.4860  0.5812
 6204SOL    HW120053   2.520   7.452   4.409 -0.4818  0.6544  0.7404
 6204SOL    HW220054   2.642   7.499   4.332  0.4375 -0.0853  1.7194
 6205SOL     OW20055   3.219   1.156   2.907  0.4930  0.7340 -0.1329
 6205SOL    HW120056   3.223   1.244   2.869  0.0442  1.3936  1.3014
 6205SOL    HW220057   3.268   1.163   2.989 -2.1169  0.4821  1.5488
 6206SOL     OW20058   2.321   6.646   2.232 -0.1069 -0.2769  0.0862
 6206SOL    HW120059   2.378   6.579   2.195  0.2917  0.0243  0.1511
 6206SOL    HW220060   2.333   6.637   2.327  1.1363  0.8944  0.0700
 6207SOL     OW20061   3.518   0.142   1.388 -0.3080  0.4252  0.2533
 6207SOL    HW120062   3.482   0.131   1.300  1.1719 -0.8615 -0.2394
 6207SOL    HW220063   3.581   0.071   1.398  0.4345  1.2361  1.9173
 6208SOL     OW20064   2.701   7.375   1.048 -0.3208  0.0215  0.3933
 6208SOL    HW120065   2.626   7.419   1.008 -0.7735  0.2176  1.4299
 6208SOL    HW220066   2.676   7.283   1.052  0.0846 -0.1483 -0.5448
 6209SOL     OW20067   3.129   0.675   2.106  0.8473 -0.0972  0.1395
 6209SOL    HW120068   3.043   0.633   2.102  0.8217 -0.1703  1.3098
 6209SOL    HW220069   3.131   0.720   2.190  1.2808  1.4037 -0.6464
 6210SOL     OW20070   2.508   6.667   3.457 -0.8322  0.0153 -0.3494
 6210SOL    HW120071   2.449   6.593   3.470  4.3148 -4.3696  2.4042
 6210SOL    HW220072   2.551   6.648   3.373 -0.9283  1.1543 -0.6663
 6211SOL     OW20073   4.447   1.657   1.308 -0.7007  0.3769  0.0400
 6211SOL    HW120074   4.513   1.629   1.372 -0.3779 -0.2380 -0.5483
 6211SOL    HW220075   4.365   1.623   1.343 -0.9121  2.1577  1.3939
 6212SOL     OW20076   2.011   1.284   0.225  0.1990 -0.7904  0.2863
 6212SOL    HW120077   2.102   1.262   0.209  0.6881  2.6856 -3.2170
 6212SOL    HW220078   1.961   1.224   0.170  0.8783  0.6407 -2.0488
 6213SOL     OW20079   3.370   0.195   3.954  0.4187  0.6671  0.1878
 6213SOL    HW120080   3.290   0.148   3.931  1.2059 -0.0484 -1.1747
 6213SOL    HW220081   3.340   0.284   3.975 -0.8207  0.1757  0.5659
 6214SOL     OW20082   1.639   1.492   0.083 -0.0443  0.4099 -0.3782
 6214SOL    HW120083   1.636   1.587   0.071  0.0467  0.3435 -0.9607
 6214SOL    HW220084   1.693   1.479   0.160 -0.4908  0.8544  0.0196
 6215SOL     OW20085   1.507   1.180   1.957  0.2855 -0.5304 -0.4931
 6215SOL    HW120086   1.561   1.147   2.029  1.2577 -0.4916 -1.1926
 6215SOL    HW220087   1.443   1.110   1.941 -0.6006 -0.1319  1.0519
 6216SOL     OW20088   2.920   7.797   2.116  0.1230 -0.2988 -0.2748
 6216SOL    HW120089   2.993   7.771   2.171 -0.0456 -0.5795 -0.1863
 6216SOL    HW220090   2.856   7.726   2.123 -0.6481  0.4451  0.5333
 6217SOL     OW20091   3.395   2.998  12.409  0.3003  0.2025 -0.5737
 6217SOL    HW120092   3.447   3.038  12.339 -0.8315  0.7806 -1.1066
 6217SOL    HW220093   3.355   2.921  12.369 -0.0576  0.3277 -0.4627
 6218SOL     OW20094   2.567   0.384   1.154 -0.1617  0.2058  0.0635
 6218SOL    HW120095   2.539   0.377   1.246 -3.3174 -0.5658 -0.8335
 6218SOL    HW220096   2.587   0.477   1.142  2.0424  0.0625  1.8974
 6219SOL     OW20097   1.660   1.548   1.422 -0.4653 -0.6801  0.0423
 6219SOL    HW120098   1.701   1.563   1.337 -0.5394  0.3035  0.1650
 6219SOL    HW220099   1.716   1.594   1.484 -1.4082  0.1707  0.2823
 6220SOL     OW20100   3.854   0.768   1.134 -0.8358 -0.2683 -0.3482
 6220SOL    HW120101   3.875   0.674   1.136 -1.0392 -0.3375 -1.1384
 6220SOL    HW220102   3.940   0.811   1.128 -0.7511 -0.4091 -0.1641
 6221SOL     OW20103   2.140   1.157  12.374  0.1234 -0.0474 -0.3634
 6221SOL    HW120104   2.141   1.159  12.278 -1.8203  0.6244 -0.4231
 6221SOL    HW220105   2.050   1.181  12.397  0.2831 -1.1329  1.6158
 6222SOL     OW20106   3.741   1.633   1.270  0.0289 -0.6271 -0.0555
 6222SOL    HW120107   3.748   1.539   1.256 -1.6217 -0.6709 -0.8151
 6222SOL    HW220108   3.675   1.662   1.208  1.1032  1.1971 -0.4449
 6223SOL     OW20109   4.326   0.765  12.403  0.6118 -0.5053  0.2731
 6223SOL    HW120110   4.275   0.735  12.478  0.0829 -0.7118 -0.1602
 6223SOL    HW220111   4.345   0.685  12.354  0.9542 -0.3701  0.1788
 6224SOL     OW20112   4.187   1.505   2.670  0.7943  0.1488  0.0927
 6224SOL    HW120113   4.144   1.421   2.690  0.6901  0.4075  1.0335
 6224SOL    HW220114   4.277   1.481   2.649  0.1640 -0.4343 -2.2228
 6225SOL     OW20115   0.314   0.899   2.467  0.3328 -0.9083  0.1203
 6225SOL    HW120116   0.332   0.874   2.376  0.2312 -0.0630 -0.1393
 6225SOL    HW220117   0.311   0.995   2.466  2.3570 -0.7745  1.3889
 6226SOL     OW20118   3.482   0.593   0.509 -0.4151 -0.0000  0.0788
 6226SOL    HW120119   3.475   0.587   0.605  1.5791 -0.1154  0.2762
 6226SOL    HW220120   3.551   0.657   0.495 -1.2344  0.6030 -1.3332
 6227SOL     OW20121   2.437   0.395  10.926 -0.7114 -0.1571  0.2189
 6227SOL    HW120122   2.396   0.402  11.013 -1.8535  1.3740 -0.3993
 6227SOL    HW220123   2.452   0.486  10.900 -0.6253 -0.5879 -1.2940
 6228SOL     OW20124   3.035   1.784   2.179 -0.3904 -0.2446  0.1002
 6228SOL    HW120125   2.951   1.782   2.225 -1.1744  0.7418 -1.2175
 6228SOL    HW220126   3.096   1.739   2.239 -1.7191 -0.5241  1.3115
 6229SOL     OW20127   1.693   0.257   0.192 -0.0893 -0.6236  0.1250
 6229SOL    HW120128   1.760   0.270   0.125 -1.6392  1.0712 -1.1986
 6229SOL    HW220129   1.720   0.314   0.264 -1.0966  1.6771 -1.2285
 6230SOL     OW20130   3.674   7.890   1.427  0.5310 -0.7214  0.0729
 6230SOL    HW120131   3.623   7.843   1.493 -1.3180 -0.6435 -1.2260
 6230SOL    HW220132   3.688   7.826   1.358 -1.2192  0.2777 -1.3032
 6231SOL     OW20133   2.333   7.755   1.288  0.0692 -0.1260  0.3939
 6231SOL    HW120134   2.286   7.783   1.367 -0.3463  1.2669 -0.3102
 6231SOL    HW220135   2.422   7.789   1.299  0.2628 -0.7079  0.6565
 6232SOL     OW20136   4.228   1.833   0.996 -0.3429 -0.2647 -0.1053
 6232SOL    HW120137   4.231   1.752   0.945  0.2428  0.1890 -0.8226
 6232SOL    HW220138   4.316   1.842   1.032 -0.1241  0.5088 -0.7930
 6233SOL     OW20139   5.365   0.785   0.183  0.1057 -0.4307  0.0742
 6233SOL    HW120140   5.291   0.831   0.142  0.7551 -0.8598 -1.6417
 6233SOL    HW220141   5.363   0.815   0.274 -0.6238  1.5618 -0.5327
 6234SOL     OW20142   2.181   1.162  12.076 -0.3101  0.1335  0.2711
 6234SOL    HW120143   2.210   1.072  12.062  1.3143  0.5435  0.7921
 6234SOL    HW220144   2.088   1.154  12.098 -0.3569 -1.3400 -0.3628
 6235SOL     OW20145   3.346   7.671   0.759 -0.0766  0.1760 -0.0439
 6235SOL    HW120146   3.259   7.701   0.784  0.4511  1.8656 -0.0732
 6235SOL    HW220147   3.403   7.695   0.833  0.1693 -2.2360  0.6304
 6236SOL     OW20148   3.681   1.087   0.801  0.3235 -0.4946 -0.1031
 6236SOL    HW120149   3.694   1.010   0.746 -0.9987 -0.8623  0.0542
 6236SOL    HW220150   3.752   1.146   0.778  0.4880 -1.1438 -1.3270
 6237SOL     OW20151   3.405   0.380  12.383  0.3211 -0.1196 -0.0007
 6237SOL    HW120152   3.431   0.466  12.415 -1.9274  1.2654 -1.5928
 6237SOL    HW220153   3.342   0.348  12.447 -1.8448  1.2833 -1.2920
 6238SOL     OW20154   2.626   0.039   2.690 -0.2019  0.4037  0.1128
 6238SOL    HW120155   2.705   0.002   2.729  0.3122 -0.3239 -1.5200
 6238SOL    HW220156   2.644   0.133   2.682 -0.2349  0.5308  1.3573
 6239SOL     OW20157   1.975   0.834   1.985  0.0203  0.4144  0.0424
 6239SOL    HW120158   1.917   0.839   1.909 -0.9732 -0.8896  0.6708
 6239SOL    HW220159   1.983   0.924   2.015  1.7574  1.2534 -2.5108
 6240SOL     OW20160   5.210   5.613   1.482 -0.4498 -0.0288 -0.4606
 6240SOL    HW120161   5.296   5.638   1.448 -1.2346  1.9732 -1.1132
 6240SOL    HW220162   5.194   5.674   1.555 -1.2159 -0.5099 -0.2135
 6241SOL     OW20163   3.135   1.137   0.388 -0.4392 -0.2375  0.1313
 6241SOL    HW120164   3.180   1.104   0.466  0.3015  2.6034  1.0331
 6241SOL    HW220165   3.042   1.132   0.410 -0.3170 -1.0344  0.5057
 6242SOL     OW20166   0.608   0.108   1.175 -0.8841 -0.0397  0.1096
 6242SOL    HW120167   0.651   0.028   1.145 -2.7027 -1.0110 -0.0169
 6242SOL    HW220168   0.648   0.178   1.123  0.6635 -0.8457  0.1570
 6243SOL     OW20169   2.390   1.555   2.388 -0.0628  0.4925  0.1859
 6243SOL    HW120170   2.422   1.556   2.478  0.9283  1.7263 -0.1439
 6243SOL    HW220171   2.465   1.527   2.336 -0.7426 -0.5946 -0.2321
 6244SOL     OW20172   4.976   7.713   0.557  0.5535  0.2364 -0.1305
 6244SOL    HW120173   4.890   7.743   0.584  0.5387  0.1165 -0.0398
 6244SOL    HW220174   4.988   7.630   0.603  0.6025  0.1160 -0.3554
 6245SOL     OW20175   4.004   0.799   3.731 -0.3886  0.5421  0.5254
 6245SOL    HW120176   3.979   0.706   3.733  1.0274  0.1422  0.7819
 6245SOL    HW220177   3.922   0.845   3.715 -1.3243 -0.6710  1.5617
 6246SOL     OW20178   3.510   0.601   0.806  0.5147  0.4795  0.5955
 6246SOL    HW120179   3.571   0.666   0.841  0.4172  1.1438 -0.4172
 6246SOL    HW220180   3.424   0.636   0.827  0.4702  0.3070  0.6964
 6247SOL     OW20181   1.868   0.767   2.259 -0.1283 -0.2128 -0.2437
 6247SOL    HW120182   1.955   0.766   2.298  0.3031 -1.2520 -1.1862
 6247SOL    HW220183   1.883   0.779   2.166 -0.9935 -0.3569 -0.4144
 6248SOL     OW20184   3.462   0.217   2.173  0.0038 -0.3965 -1.0320
 6248SOL    HW120185   3.484   0.124   2.180 -1.0383 -0.5410  1.6780
 6248SOL    HW220186   3.368   0.221   2.189 -0.0554  1.0910 -1.6109
 6249SOL     OW20187   3.790   0.523   2.002  0.1331  0.3400 -0.2759
 6249SOL    HW120188   3.779   0.438   2.045  0.0514  0.6900  0.4171
 6249SOL    HW220189   3.883   0.544   2.014  0.0931  0.4754 -0.2081
 6250SOL     OW20190   3.983   0.453   1.344 -0.3166 -0.2421 -0.1504
 6250SOL    HW120191   4.025   0.523   1.395 -2.4928  1.2853 -0.3042
 6250SOL    HW220192   3.922   0.412   1.405 -0.1199 -1.0296 -0.4746
 6251SOL     OW20193   3.287   1.455   1.944 -0.4751  0.0551 -0.2721
 6251SOL    HW120194   3.297   1.382   1.883  0.2785  0.7960 -1.0658
 6251SOL    HW220195   3.287   1.533   1.888  0.1064  0.7468  0.6615
 6252SOL     OW20196   0.581   1.142  11.950 -0.5453  0.3283  0.5003
 6252SOL    HW120197   0.534   1.088  11.886 -2.2734  1.2143  0.9391
 6252SOL    HW220198   0.541   1.229  11.942  1.6366  1.3701  0.3494
 6253SOL     OW20199   1.980   1.750   0.768  0.1158 -0.4527 -0.1152
 6253SOL    HW120200   1.958   1.683   0.704 -2.5942 -0.3133  0.5671
 6253SOL    HW220201   1.925   1.731   0.844  0.9880  1.1863  1.0078
 6254SOL     OW20202   2.465   7.684   3.774 -0.6701 -0.5765 -0.0491
 6254SOL    HW120203   2.483   7.768   3.732 -0.4352 -0.7368 -0.2696
 6254SOL    HW220204   2.421   7.633   3.706 -1.1883 -0.4868  0.2158
 6255SOL     OW20205   3.478   1.431   1.432 -0.3790  0.2549 -0.5346
 6255SOL    HW120206   3.535   1.375   1.379 -1.0701 -0.5150 -0.4769
 6255SOL    HW220207   3.429   1.482   1.368  0.6773  1.2622 -0.5824
 6256SOL     OW20208   3.371   7.300   1.442  0.1153 -0.2448  0.1490
 6256SOL    HW120209   3.357   7.323   1.350  0.0120 -1.4296 -0.1402
 6256SOL    HW220210   3.453   7.250   1.443  1.6877  2.1365  1.1188
 6257SOL     OW20211   5.089   7.963   0.486 -0.1716 -0.0550 -0.3733
 6257SOL    HW120212   5.059   7.874   0.502  1.8858 -1.3402 -2.8910
 6257SOL    HW220213   5.133   7.989   0.567 -1.0049 -1.2050  0.4828
 6258SOL     OW20214   1.903   1.522   0.615  0.5643  0.8963  0.1995
 6258SOL    HW120215   1.823   1.481   0.582  0.6377  2.5338 -2.3210
 6258SOL    HW220216   1.966   1.451   0.621 -0.8836 -0.3420  1.7597
 6259SOL     OW20217   0.836   1.680   0.626  0.4796  0.3600  0.2761
 6259SOL    HW120218   0.879   1.598   0.650 -0.1764 -0.2334 -0.5215
 6259SOL    HW220219   0.773   1.695   0.697 -0.6456 -0.7752 -0.4440
 6260SOL     OW20220   1.430   1.045   1.179 -0.3060 -0.3142  0.4570
 6260SOL    HW120221   1.375   1.108   1.132 -0.7766 -0.3153  0.9997
 6260SOL    HW220222   1.488   1.098   1.232 -0.4077 -0.3333  0.5860
 6261SOL     OW20223   1.736   0.912   1.867 -0.0248 -0.0132 -0.2931
 6261SOL    HW120224   1.688   0.986   1.905  1.7480  0.3517  1.4146
 6261SOL    HW220225   1.683   0.835   1.887 -1.2775  0.6296 -1.0012
 6262SOL     OW20226   0.324   7.602   2.144  0.1244  0.2779 -0.6386
 6262SOL    HW120227   0.240   7.650   2.146 -0.5032 -0.7820  1.2054
 6262SOL    HW220228   0.310   7.528   2.203  2.9102  0.9983  1.1109
 6263SOL     OW20229   1.891   7.013   0.665 -0.2941 -0.0193  0.0917
 6263SOL    HW120230   1.863   6.962   0.589 -0.8609  0.2730  0.0959
 6263SOL    HW220231   1.974   6.974   0.691  0.1616  0.2115 -0.9772
 6264SOL     OW20232   1.725   6.303   2.645  0.1634  0.4501  0.0604
 6264SOL    HW120233   1.800   6.357   2.621  0.5640  0.4610  1.2618
 6264SOL    HW220234   1.672   6.298   2.565  1.9606 -0.4381 -1.1300
 6265SOL     OW20235   2.190   0.265   1.287  0.5196 -0.3040  0.5241
 6265SOL    HW120236   2.217   0.229   1.372 -0.8260 -0.7625  0.7804
 6265SOL    HW220237   2.136   0.196   1.248 -2.6582  1.5222  1.2864
 6266SOL     OW20238   1.826   7.955   1.675 -0.5004 -0.4913  0.0090
 6266SOL    HW120239   1.736   7.986   1.671 -0.5128 -0.5660 -0.2894
 6266SOL    HW220240   1.821   7.875   1.727 -0.3020  0.6010  1.8016
 6267SOL     OW20241   3.170   1.497   0.697  0.1666  0.3394 -0.8438
 6267SOL    HW120242   3.111   1.496   0.772  1.6153  0.3558  0.3392
 6267SOL    HW220243   3.247   1.546   0.727  1.7716 -1.6151 -1.5165
 6268SOL     OW20244   4.003   6.113   1.718  0.5389  0.1606  0.4476
 6268SOL    HW120245   4.000   6.204   1.750  0.6399 -0.2604  1.7020
 6268SOL    HW220246   3.963   6.062   1.788  0.2908 -0.7511 -0.3447
 6269SOL     OW20247   2.973   7.196   2.283  0.5481 -0.0229  0.6036
 6269SOL    HW120248   2.934   7.209   2.197  3.0060  0.8206 -0.4698
 6269SOL    HW220249   2.899   7.201   2.344 -1.1137  0.4063 -1.3342
 6270SOL     OW20250   4.242   2.385   0.948  0.2404  0.1648  0.0639
 6270SOL    HW120251   4.180   2.456   0.961  0.6447  0.5093  0.1361
 6270SOL    HW220252   4.209   2.313   1.002 -0.4928  0.0947 -0.4682
 6271SOL     OW20253   2.230   0.274  12.339  0.1296  0.6117 -0.0685
 6271SOL    HW120254   2.207   0.186  12.368 -0.8499  0.6546 -0.6819
 6271SOL    HW220255   2.229   0.327  12.418 -2.4043  0.7123 -0.1023
 6272SOL     OW20256   1.416   7.379   1.515 -0.2101 -0.3163  0.2586
 6272SOL    HW120257   1.389   7.390   1.606  0.7445 -1.1072  0.6609
 6272SOL    HW220258   1.335   7.382   1.465 -1.2159 -3.5390  1.4911
 6273SOL     OW20259   2.043   6.846  12.411 -0.0179  0.1763  0.0736
 6273SOL    HW120260   2.074   6.768  12.365  0.7163  0.9867 -0.8488
 6273SOL    HW220261   2.113   6.867  12.472 -0.3047  0.0048  0.4645
 6274SOL     OW20262   3.387   1.134  12.387 -0.0260 -0.2294 -0.6001
 6274SOL    HW120263   3.432   1.217  12.375 -2.0531  0.6890 -2.5408
 6274SOL    HW220264   3.425   1.097  12.467  1.7165  2.0090 -0.3145
 6275SOL     OW20265   3.342   1.471   1.143  0.5458 -0.0257  0.4425
 6275SOL    HW120266   3.325   1.378   1.131 -0.4492  0.0747  1.0108
 6275SOL    HW220267   3.427   1.485   1.100 -0.2561 -0.7563 -1.5008
 6276SOL     OW20268   3.563   1.992   1.981 -0.7688  0.4077  0.2927
 6276SOL    HW120269   3.621   2.066   1.997 -0.7537  0.5666 -0.4546
 6276SOL    HW220270   3.528   1.970   2.067  1.9904 -1.0687  1.1500
 6277SOL     OW20271   3.136   1.601   2.427 -0.0709 -0.4730  0.0265
 6277SOL    HW120272   3.164   1.692   2.424  1.7599 -0.9838  0.3029
 6277SOL    HW220273   3.116   1.585   2.519 -2.0555  0.0683 -0.2618
 6278SOL     OW20274   2.693   0.996   1.856  0.3213  0.0317 -0.0917
 6278SOL    HW120275   2.659   1.086   1.856 -1.1469 -0.4423  2.0134
 6278SOL    HW220276   2.736   0.987   1.941  3.6507 -0.2298 -1.6578
 6279SOL     OW20277   3.003   0.311   1.709 -0.5881 -0.1303  0.5645
 6279SOL    HW120278   3.012   0.216   1.705  0.0863 -0.0473 -0.7660
 6279SOL    HW220279   3.093   0.344   1.703 -0.8409  0.5940  0.5951
 6280SOL     OW20280   2.540   0.957   0.172  0.2220 -0.0293  0.5123
 6280SOL    HW120281   2.509   1.047   0.174 -0.0494 -0.1126  0.0111
 6280SOL    HW220282   2.474   0.908   0.221 -0.3461 -0.1704 -0.3661
 6281SOL     OW20283   2.956   6.027   0.596  0.2032  0.1746  0.0784
 6281SOL    HW120284   2.939   6.012   0.503  0.1090 -0.7146  0.2273
 6281SOL    HW220285   2.892   5.972   0.641  1.9632 -1.5295  0.6438
 6282SOL     OW20286   4.762   1.417  12.157 -0.3681  0.2348 -0.4172
 6282SOL    HW120287   4.837   1.449  12.107  1.1442 -0.3306  1.3207
 6282SOL    HW220288   4.744   1.331  12.120  0.9126 -0.2970  0.0936
 6283SOL     OW20289   2.674   7.408   3.089 -0.1494  0.1850  0.0876
 6283SOL    HW120290   2.741   7.433   3.025  0.0498  0.9248  0.5843
 6283SOL    HW220291   2.657   7.487   3.139  0.8977 -0.7655  2.0717
 6284SOL     OW20292   4.616   6.302   1.565  0.2093 -0.0250  0.4751
 6284SOL    HW120293   4.691   6.248   1.589  1.7689  2.0061  0.4328
 6284SOL    HW220294   4.551   6.286   1.634  0.5080 -2.0715  0.3234
 6285SOL     OW20295   2.290   2.185  12.371 -0.1664  0.4588  0.0767
 6285SOL    HW120296   2.201   2.158  12.349 -0.6817  1.1282  1.2291
 6285SOL    HW220297   2.282   2.279  12.392  0.7859  0.5004  0.2936
 6286SOL     OW20298   3.561   1.564   2.091  0.1056 -0.2097  0.0490
 6286SOL    HW120299   3.489   1.536   2.035 -0.8121  3.2565 -0.7064
 6286SOL    HW220300   3.535   1.536   2.179 -1.0297 -1.0290 -0.5250
 6287SOL     OW20301   3.810   0.587  11.840 -0.2355 -0.0664  0.2412
 6287SOL    HW120302   3.773   0.664  11.795 -3.5940 -1.9449 -0.5641
 6287SOL    HW220303   3.840   0.531  11.768 -1.6359 -1.2077  0.4956
 6288SOL     OW20304   2.324   7.675   1.563 -0.0059  0.8179 -0.0697
 6288SOL    HW120305   2.344   7.749   1.620 -0.5296  1.5136 -0.7629
 6288SOL    HW220306   2.409   7.634   1.547  0.1729  0.7185  1.0480
 6289SOL     OW20307   3.736   0.857   3.755 -0.0670  0.4270 -0.0060
 6289SOL    HW120308   3.723   0.799   3.830  0.3889  0.1472 -0.1394
 6289SOL    HW220309   3.657   0.845   3.701  0.9639 -1.7800 -1.1633
 6290SOL     OW20310   2.469   1.106   2.044 -0.1842  0.1823  0.3770
 6290SOL    HW120311   2.425   1.037   1.994  0.0952 -0.9262  1.6070
 6290SOL    HW220312   2.509   1.060   2.118  0.8339  1.5387  0.7038
 6291SOL     OW20313   3.423   1.719   2.866 -0.5051  0.1474  0.2022
 6291SOL    HW120314   3.399   1.771   2.942 -2.5444  0.2150 -0.4274
 6291SOL    HW220315   3.509   1.752   2.840 -0.9515  1.9624  0.8915
 6292SOL     OW20316   2.789   1.422  12.042  0.0126  0.2216 -0.2721
 6292SOL    HW120317   2.775   1.483  12.115  0.6760 -0.3834  0.3843
 6292SOL    HW220318   2.715   1.362  12.047  0.5196 -0.3668  0.4931
 6293SOL     OW20319   3.040   1.416   2.979  0.4381 -0.3705 -0.4895
 6293SOL    HW120320   3.030   1.466   3.060 -2.4514  1.1343 -1.6632
 6293SOL    HW220321   3.122   1.448   2.942  1.5226 -0.6724  1.4853
 6294SOL     OW20322   2.640   7.495   1.317  0.0705  0.7037  0.1940
 6294SOL    HW120323   2.731   7.502   1.347  0.1055 -0.9364  0.5234
 6294SOL    HW220324   2.647   7.478   1.223  0.0489  1.7353 -0.0127
 6295SOL     OW20325   3.409   0.014   0.803 -0.7626  0.3829 -0.2674
 6295SOL    HW120326   3.403  -0.056   0.868  1.5553  0.8630  0.5759
 6295SOL    HW220327   3.456   0.084   0.848  0.1285  1.0916 -2.1788
 6296SOL     OW20328   2.801   0.991   1.551  0.4861  0.1649  0.0501
 6296SOL    HW120329   2.767   1.070   1.592  0.6504  0.6822 -0.7798
 6296SOL    HW220330   2.740   0.922   1.578  1.2954  0.2124  2.1654
 6297SOL     OW20331   3.183   7.939   2.687 -0.6175  0.2417  0.1087
 6297SOL    HW120332   3.159   8.031   2.701  0.9482  0.5068  1.3264
 6297SOL    HW220333   3.265   7.942   2.638  1.0674 -0.3495  2.7008
 6298SOL     OW20334   1.773   1.248   2.053  0.1521  0.4199 -0.0918
 6298SOL    HW120335   1.835   1.176   2.045  1.2247  0.9674  2.3053
 6298SOL    HW220336   1.775   1.271   2.146 -0.9214  2.8648 -0.5885
 6299SOL     OW20337   2.712   2.485   0.969  0.1512 -0.0097  0.2084
 6299SOL    HW120338   2.681   2.525   1.050 -2.3431 -0.3089 -0.5150
 6299SOL    HW220339   2.808   2.489   0.976  0.0218  0.7368  2.7495
 6300SOL     OW20340   2.419   6.343   0.884 -0.2772  0.0093  0.5490
 6300SOL    HW120341   2.437   6.268   0.941 -0.9498 -0.7471 -0.1888
 6300SOL    HW220342   2.506   6.377   0.861  0.1287 -1.5579 -0.3816
 6301SOL     OW20343   2.665   7.040   1.460  0.1525  0.4979  0.3719
 6301SOL    HW120344   2.679   6.958   1.413 -0.0612  1.0901 -0.7470
 6301SOL    HW220345   2.580   7.071   1.430 -0.0681  0.8210  1.2776
 6302SOL     OW20346   2.849   2.511   0.554  0.4527 -0.0946  0.0329
 6302SOL    HW120347   2.900   2.436   0.585  0.5113  0.1968  0.6539
 6302SOL    HW220348   2.785   2.473   0.494  0.7597 -0.5859  0.0088
 6303SOL     OW20349   3.339   2.148   0.787 -0.1758 -0.2219  0.5905
 6303SOL    HW120350   3.403   2.160   0.717  0.0718 -0.2733  0.8061
 6303SOL    HW220351   3.391   2.150   0.867 -0.5670  0.8579  0.8431
 6304SOL     OW20352   4.593   0.990   1.438  0.0977  0.0553  0.0622
 6304SOL    HW120353   4.538   1.065   1.462 -1.6002 -1.4981  1.4084
 6304SOL    HW220354   4.670   0.999   1.494 -0.2366  0.6477  0.4465
 6305SOL     OW20355   3.659   1.072   1.105 -0.4339 -0.5086 -0.1982
 6305SOL    HW120356   3.687   1.084   1.014 -0.9011  2.6331 -0.0582
 6305SOL    HW220357   3.594   1.002   1.101  0.3344 -1.1762 -2.0910
 6306SOL     OW20358   2.930   0.174   2.856  0.1175 -0.1524 -0.6024
 6306SOL    HW120359   2.846   0.214   2.835  0.4732 -0.3268 -2.5024
 6306SOL    HW220360   2.991   0.208   2.790  2.0346  1.3890  1.7357
 6307SOL     OW20361   2.711   1.673   4.079 -0.4701 -1.1059 -0.0887
 6307SOL    HW120362   2.784   1.617   4.052  0.7329  0.1651  0.4333
 6307SOL    HW220363   2.723   1.754   4.028 -0.3595 -0.1354  1.4207
 6308SOL     OW20364   2.823   0.658   2.084  0.2378 -0.1802  0.3086
 6308SOL    HW120365   2.764   0.666   2.009 -0.7928 -2.3980  0.7939
 6308SOL    HW220366   2.764   0.657   2.160  1.1853  0.8846  1.0864
 6309SOL     OW20367   1.771   7.251  11.538 -0.3013 -0.1867 -0.3333
 6309SOL    HW120368   1.865   7.246  11.523 -0.3671 -0.4344 -0.6865
 6309SOL    HW220369   1.762   7.250  11.633  0.0424 -0.3513 -0.3000
 6310SOL     OW20370   2.044   1.437   3.337 -0.7958  0.2962 -0.0829
 6310SOL    HW120371   2.136   1.412   3.339 -0.3062  1.9631 -0.3409
 6310SOL    HW220372   2.044   1.531   3.353 -2.7140 -0.1329  3.7246
 6311SOL     OW20373   2.816   1.229   0.792 -0.1545 -0.5359 -0.2670
 6311SOL    HW120374   2.736   1.276   0.769  0.9445 -0.0171 -3.5590
 6311SOL    HW220375   2.883   1.297   0.800  0.5448 -1.1762 -0.5316
 6312SOL     OW20376   4.744   7.913   1.638 -0.2809  0.2043  0.0444
 6312SOL    HW120377   4.742   7.986   1.575  1.7933 -0.1351 -0.4860
 6312SOL    HW220378   4.755   7.835   1.585  0.3385 -0.2038  0.7384
 6313SOL     OW20379   3.959   6.253   0.124  0.0397  0.4809  0.6473
 6313SOL    HW120380   3.965   6.339   0.165  0.2601  1.0703 -0.5758
 6313SOL    HW220381   3.901   6.267   0.049 -0.6776 -0.6541  0.9722
 6314SOL     OW20382   2.189   1.501   1.924 -0.6920 -0.3025  0.7629
 6314SOL    HW120383   2.233   1.425   1.961 -0.5999  0.2333  1.7966
 6314SOL    HW220384   2.245   1.575   1.948 -1.1678  0.1723  0.4319
 6315SOL     OW20385   4.051   1.798   1.195 -1.0720  0.0753  0.3868
 6315SOL    HW120386   4.122   1.791   1.132 -0.8123 -1.0298  0.7759
 6315SOL    HW220387   3.982   1.741   1.160 -1.4730  0.5498  0.3945
 6316SOL     OW20388   4.031   2.194   3.359  0.1894 -0.4628  0.0156
 6316SOL    HW120389   4.011   2.226   3.447 -0.2264 -1.7022  0.4049
 6316SOL    HW220390   4.071   2.108   3.374  1.0463 -0.2559 -0.9766
 6317SOL     OW20391   3.915   0.668   1.620 -0.6240 -0.1016 -0.1920
 6317SOL    HW120392   3.862   0.594   1.649  0.6678 -0.2064  2.1447
 6317SOL    HW220393   4.005   0.639   1.630 -0.0925  1.3844 -0.3585
 6318SOL     OW20394   1.910   1.065   0.123  0.0732 -0.5404 -0.2144
 6318SOL    HW120395   1.863   1.000   0.174 -1.0056  1.1230  1.0113
 6318SOL    HW220396   1.854   1.081   0.047  0.0325 -0.5902 -0.1945
 6319SOL     OW20397   3.979   7.832   0.704  0.6677  0.0226  0.1298
 6319SOL    HW120398   3.911   7.900   0.703  1.0027  0.3669  0.5104
 6319SOL    HW220399   3.947   7.766   0.642 -0.2130 -0.0205  0.6066
 6320SOL     OW20400   3.251   1.971   1.831  0.3190  0.0079 -0.2778
 6320SOL    HW120401   3.284   1.882   1.820  0.8302  0.3026 -1.2876
 6320SOL    HW220402   3.328   2.027   1.819 -0.4046  0.6838 -2.1430
 6321SOL     OW20403   3.934   2.099   2.140 -0.2554  0.7280 -0.1349
 6321SOL    HW120404   3.867   2.124   2.075 -1.1616  1.0480  0.8938
 6321SOL    HW220405   3.921   2.005   2.152  0.3828  0.5283 -0.9194
 6322SOL     OW20406   2.221   0.702   1.908 -0.7318 -0.1834  0.0585
 6322SOL    HW120407   2.125   0.695   1.907 -0.7266 -0.2843  0.2250
 6322SOL    HW220408   2.238   0.796   1.902 -0.8084 -0.2625 -1.8979
 6323SOL     OW20409   3.980   0.544   0.079  0.1629 -0.2827  0.4679
 6323SOL    HW120410   4.029   0.514   0.002  1.1845 -1.3266  1.4768
 6323SOL    HW220411   3.991   0.639   0.078  1.6123 -0.4259  0.2508
 6324SOL     OW20412   2.721   0.495   0.459 -0.0766 -0.1375  0.6567
 6324SOL    HW120413   2.642   0.529   0.417  0.8216  0.8937 -0.2406
 6324SOL    HW220414   2.760   0.437   0.394 -0.8903 -1.9190  1.6807
 6325SOL     OW20415   2.952   2.707   0.371 -0.5642  0.3638  0.1142
 6325SOL    HW120416   2.914   2.704   0.283  0.5695  0.7533 -0.4116
 6325SOL    HW220417   2.877   2.698   0.430 -1.3941  0.5366 -0.8817
 6326SOL     OW20418   1.659   1.376   0.521 -0.2527 -0.2199 -0.6515
 6326SOL    HW120419   1.667   1.286   0.551  0.7254  0.1496  0.2651
 6326SOL    HW220420   1.568   1.400   0.541 -0.2598 -0.7168 -0.0653
 6327SOL     OW20421   2.586   0.769   3.064  0.4176 -0.4446 -0.1443
 6327SOL    HW120422   2.536   0.848   3.084  1.3143 -0.1503  1.0410
 6327SOL    HW220423   2.677   0.799   3.062  0.6700 -1.2298 -0.8751
 6328SOL     OW20424   3.317   0.687   3.100  0.0158  0.3588  0.3423
 6328SOL    HW120425   3.350   0.769   3.064  0.6131 -0.0522 -0.0697
 6328SOL    HW220426   3.223   0.702   3.112 -0.7681 -0.1864 -3.6150
 6329SOL     OW20427   3.204   0.426   2.495 -0.1514  0.0159  0.0074
 6329SOL    HW120428   3.199   0.416   2.400 -1.4432 -2.1447  0.2388
 6329SOL    HW220429   3.294   0.404   2.517  0.1307  0.4292 -0.7022
 6330SOL     OW20430   3.050   3.143   0.019 -0.4816 -0.0211  0.6442
 6330SOL    HW120431   3.028   3.145  -0.074 -3.4099 -0.5714  1.2095
 6330SOL    HW220432   3.119   3.208   0.029  0.5038 -0.5346 -2.0055
 6331SOL     OW20433   2.281   7.925  12.149 -0.3657 -0.6670 -0.0838
 6331SOL    HW120434   2.251   7.969  12.229  1.7561  1.2162 -0.2200
 6331SOL    HW220435   2.327   7.848  12.180 -0.4196 -0.4895  0.4418
 6332SOL     OW20436   2.347   7.217   0.806  0.4709 -0.3357 -0.5639
 6332SOL    HW120437   2.437   7.184   0.813  0.6275 -0.0170 -1.0720
 6332SOL    HW220438   2.313   7.212   0.896  2.0449  2.4758  0.3316
 6333SOL     OW20439   2.745   7.417   0.701  0.1802 -0.0767 -0.3018
 6333SOL    HW120440   2.800   7.411   0.779 -0.9744 -0.6394  0.5089
 6333SOL    HW220441   2.772   7.498   0.658  2.1029 -0.6791 -0.3283
 6334SOL     OW20442   0.850   1.446   3.093 -0.0846 -0.1533  0.0389
 6334SOL    HW120443   0.766   1.438   3.048  0.1555 -0.3911 -0.3708
 6334SOL    HW220444   0.850   1.375   3.157 -0.6506  0.5030  0.7925
 6335SOL     OW20445   2.489   0.783   0.848  0.0575 -0.1148 -0.1977
 6335SOL    HW120446   2.502   0.719   0.778 -0.5522 -0.3209 -0.1261
 6335SOL    HW220447   2.404   0.761   0.885  0.4222 -0.0847  0.6925
 6336SOL     OW20448   1.834   0.245  11.977 -0.0137  0.0933  0.0914
 6336SOL    HW120449   1.829   0.221  11.884  1.2043  0.9373 -0.2247
 6336SOL    HW220450   1.866   0.167  12.021  1.0017  0.1816 -0.4639
 6337SOL     OW20451   2.860   0.698   1.289 -0.7482 -0.0911  0.0195
 6337SOL    HW120452   2.842   0.650   1.369 -1.5591  1.6472  0.9297
 6337SOL    HW220453   2.790   0.672   1.228 -0.3281 -1.1489 -0.0216
 6338SOL     OW20454   3.130   7.641   1.445 -0.3610  0.0416 -0.2590
 6338SOL    HW120455   3.195   7.605   1.506  0.8892  0.9109 -1.0369
 6338SOL    HW220456   3.178   7.653   1.363 -1.1630  1.9123 -0.5010
 6339SOL     OW20457   3.170   0.145   3.035  0.0519 -0.3039 -0.0549
 6339SOL    HW120458   3.216   0.229   3.044 -1.3518  0.4088  0.9222
 6339SOL    HW220459   3.106   0.161   2.965 -1.8419  0.2717  1.7207
 6340SOL     OW20460   1.937   1.744   2.875  0.1360  0.0155 -0.2517
 6340SOL    HW120461   1.930   1.659   2.834  0.6750 -0.0239 -0.2659
 6340SOL    HW220462   2.006   1.734   2.940 -0.1855  0.2852  0.1407
 6341SOL     OW20463   1.262   1.583   1.020 -0.5662  0.6256 -0.4216
 6341SOL    HW120464   1.182   1.595   0.969 -0.6331  1.2566 -0.1734
 6341SOL    HW220465   1.238   1.608   1.109  0.2305  2.0990 -0.5784
 6342SOL     OW20466   3.252   0.715   0.827 -0.2620  0.1761  0.1737
 6342SOL    HW120467   3.187   0.680   0.766 -1.3180  1.9550  0.2110
 6342SOL    HW220468   3.221   0.688   0.913 -1.9249  2.3031  0.3392
 6343SOL     OW20469   3.882   1.053   3.062  0.3161 -0.5079  0.1372
 6343SOL    HW120470   3.957   1.020   3.012  1.3815  2.1335 -0.2052
 6343SOL    HW220471   3.888   1.009   3.147  2.4474 -0.1963  0.2122
 6344SOL     OW20472   3.861   0.664   0.695 -0.1658 -0.1600 -0.3736
 6344SOL    HW120473   3.797   0.707   0.751  0.8849 -0.5464  1.2034
 6344SOL    HW220474   3.835   0.572   0.694 -0.1589 -0.1608 -0.4766
 6345SOL     OW20475   3.278   7.699   2.524 -0.3263 -0.0196  0.4607
 6345SOL    HW120476   3.211   7.734   2.583 -0.8453 -1.3677  0.7158
 6345SOL    HW220477   3.301   7.614   2.562 -0.2522 -0.6543 -0.9541
 6346SOL     OW20478   1.983   1.506   2.749 -0.2023 -0.2708  0.0329
 6346SOL    HW120479   1.933   1.441   2.699 -0.9419 -0.1150  0.5655
 6346SOL    HW220480   2.043   1.454   2.802  0.5664 -0.4425 -0.9653
 6347SOL     OW20481   1.926   0.024   3.379  0.1387 -0.4004 -0.0811
 6347SOL    HW120482   1.837   0.049   3.402  0.0137 -0.6288 -0.3071
 6347SOL    HW220483   1.917  -0.021   3.295  0.7586  1.6913 -1.3299
 6348SOL     OW20484   1.829   1.532   3.098  0.2051  0.3201  0.3278
 6348SOL    HW120485   1.919   1.551   3.073  0.2824  1.7033  1.5089
 6348SOL    HW220486   1.837   1.462   3.163  0.5210  1.0682  1.1100
 6349SOL     OW20487   3.272   7.204  12.152 -0.0937 -0.0823 -0.2872
 6349SOL    HW120488   3.224   7.277  12.193 -0.4453 -0.4262 -0.0802
 6349SOL    HW220489   3.362   7.215  12.183  0.2230  1.1992 -1.5381
 6350SOL     OW20490   1.226   0.588  11.571  0.0417 -0.5843 -0.0323
 6350SOL    HW120491   1.185   0.559  11.652  0.0879 -1.2929 -0.2506
 6350SOL    HW220492   1.175   0.544  11.502 -0.3811  0.4747 -0.4222
 6351SOL     OW20493   4.087   0.045   0.368 -0.5465  0.5238  0.5512
 6351SOL    HW120494   4.147  -0.030   0.369 -0.3429  0.6853  1.8074
 6351SOL    HW220495   4.059   0.051   0.277 -1.6949 -1.9931  0.6473
 6352SOL     OW20496   2.322   0.247   3.206  0.3058 -0.8709  0.1398
 6352SOL    HW120497   2.259   0.234   3.136 -0.3779  1.2170  0.3014
 6352SOL    HW220498   2.284   0.201   3.281 -0.5540 -0.4362 -0.0191
 6353SOL     OW20499   3.893   1.240   0.752 -0.3522  0.0865 -0.2970
 6353SOL    HW120500   3.982   1.225   0.784 -0.3414  2.4433  1.0234
 6353SOL    HW220501   3.905   1.284   0.668 -0.3074 -0.4661 -0.5863
 6354SOL     OW20502   2.226   0.502   1.572  0.1823 -0.0623  0.1346
 6354SOL    HW120503   2.186   0.450   1.641  0.7925  0.3928  0.8483
 6354SOL    HW220504   2.156   0.561   1.542 -0.5697 -1.3781 -0.8104
 6355SOL     OW20505   3.143   0.629  10.782 -0.1596  0.1259 -0.2733
 6355SOL    HW120506   3.048   0.638  10.791 -0.0859  2.1976 -1.0556
 6355SOL    HW220507   3.158   0.633  10.688  0.7668  0.4082 -0.1154
 6356SOL     OW20508   1.689   2.312   1.749 -0.2253 -0.0925  0.3510
 6356SOL    HW120509   1.608   2.342   1.709  0.0645  0.6989  0.3381
 6356SOL    HW220510   1.754   2.317   1.679 -0.1881 -0.8635  0.3201
 6357SOL     OW20511   4.289   0.900   1.262  0.7261 -0.0858 -0.3156
 6357SOL    HW120512   4.257   0.897   1.352 -0.6270  0.4322 -0.7472
 6357SOL    HW220513   4.361   0.837   1.260 -1.1166 -2.3441  0.4207
 6358SOL     OW20514   1.332   7.058  12.389 -0.1827 -0.1496 -0.4429
 6358SOL    HW120515   1.377   7.132  12.430  0.5529 -0.5654 -0.4820
 6358SOL    HW220516   1.363   6.981  12.438  1.0507 -0.7014 -2.0224
 6359SOL     OW20517   2.971   3.215   1.020  0.1708 -0.5959 -0.4043
 6359SOL    HW120518   2.993   3.289   0.963 -2.5542 -0.3394 -1.2527
 6359SOL    HW220519   2.943   3.255   1.102 -0.6038 -0.7100 -0.6090
 6360SOL     OW20520   1.650   0.695   1.405 -0.3609 -0.4498 -0.7987
 6360SOL    HW120521   1.679   0.701   1.313  0.1303 -1.3202 -0.7157
 6360SOL    HW220522   1.645   0.601   1.422 -0.8799 -0.2958 -0.0568
 6361SOL     OW20523   4.221   7.787   0.359  0.3310  0.3802  0.1204
 6361SOL    HW120524   4.282   7.747   0.297  0.1171  0.1473  0.0605
 6361SOL    HW220525   4.139   7.738   0.348  0.3418  0.2156  0.7136
 6362SOL     OW20526   4.247   1.069   1.893  0.4382 -0.3401 -0.0202
 6362SOL    HW120527   4.235   1.143   1.953  1.2527  0.7087 -1.1116
 6362SOL    HW220528   4.161   1.027   1.890 -0.0899  0.6594  0.4972
 6363SOL     OW20529   3.819   0.349   1.533  0.9969 -0.1836  0.0534
 6363SOL    HW120530   3.737   0.301   1.522  1.2150 -0.3395 -0.9802
 6363SOL    HW220531   3.819   0.377   1.625 -0.7480  0.8024 -0.2089
 6364SOL     OW20532   4.098   1.175  12.041 -0.2751  0.1801  0.6002
 6364SOL    HW120533   4.105   1.083  12.016  0.9829  0.7807 -1.5264
 6364SOL    HW220534   4.186   1.210  12.028 -1.1317  2.0912 -0.4467
 6365SOL     OW20535   3.227   1.314   1.715 -0.1372  0.1111 -0.5516
 6365SOL    HW120536   3.240   1.220   1.724  0.1010  0.0409 -1.5074
 6365SOL    HW220537   3.216   1.328   1.621  0.0338  1.0650 -0.4428
 6366SOL     OW20538   3.141   7.740   0.459 -0.5445  0.0063  0.2922
 6366SOL    HW120539   3.128   7.667   0.520  2.2677 -0.5989  0.2745
 6366SOL    HW220540   3.121   7.818   0.512  0.3114 -0.5899  1.5454
 6367SOL     OW20541   2.948   0.926  12.133 -0.0534  0.3277 -0.2911
 6367SOL    HW120542   2.868   0.952  12.180 -0.0923  0.7455 -0.5798
 6367SOL    HW220543   3.017   0.980  12.172 -0.1369  0.8960 -0.9074
 6368SOL     OW20544   3.902   7.681   0.344  0.3534 -0.4637  0.1462
 6368SOL    HW120545   3.809   7.671   0.321 -0.2037  1.1409  1.5161
 6368SOL    HW220546   3.910   7.639   0.429  0.4566  0.9588  0.8581
 6369SOL     OW20547   0.861   7.915   1.491 -0.4305 -0.3982 -0.1954
 6369SOL    HW120548   0.934   7.860   1.522 -0.4583 -0.7999 -0.8286
 6369SOL    HW220549   0.856   7.897   1.397 -1.7089 -0.7835 -0.0595
 6370SOL     OW20550   1.864   7.596   1.933  0.4617 -0.5549 -0.1813
 6370SOL    HW120551   1.888   7.605   1.840 -0.3955 -0.0299 -0.3649
 6370SOL    HW220552   1.770   7.580   1.931  0.5928 -1.4807  0.5668
 6371SOL     OW20553   7.537   0.313   1.964 -0.1000  0.2207  0.2326
 6371SOL    HW120554   7.515   0.373   1.893 -0.0400  1.5108  1.2773
 6371SOL    HW220555   7.510   0.227   1.932  0.6309  0.6407 -1.6617
 6372SOL     OW20556   3.602   1.149   3.585 -0.0378  0.4112  0.2670
 6372SOL    HW120557   3.591   1.054   3.596 -1.3527  0.2576 -1.8553
 6372SOL    HW220558   3.547   1.171   3.510  0.9083  2.7304  0.1774
 6373SOL     OW20559   3.128   0.691   0.233 -0.0432 -0.1270  0.4149
 6373SOL    HW120560   3.086   0.690   0.319  0.3944 -0.5866  0.6270
 6373SOL    HW220561   3.072   0.748   0.180 -0.2163  0.3080  1.0516
 6374SOL     OW20562   4.643   0.704   0.291 -0.0387 -0.1581 -0.1160
 6374SOL    HW120563   4.630   0.706   0.386 -1.6493 -2.3570 -0.2200
 6374SOL    HW220564   4.628   0.612   0.266  1.0536  0.2085 -2.4194
 6375SOL     OW20565   3.069   0.999   1.483  0.4858  0.0236 -0.3560
 6375SOL    HW120566   2.977   0.997   1.509  0.2782 -0.2009 -1.0974
 6375SOL    HW220567   3.089   1.092   1.471  0.1208  0.0122 -1.0301
 6376SOL     OW20568   3.665   0.215   0.233  0.1091  0.4386  0.2910
 6376SOL    HW120569   3.714   0.133   0.240  1.7886  1.3190 -0.5828
 6376SOL    HW220570   3.597   0.207   0.300  0.4855 -1.4830  0.5104
 6377SOL     OW20571   1.895   1.979   2.345 -0.4330  0.0519  0.1870
 6377SOL    HW120572   1.828   1.979   2.277 -0.5046  1.4834  0.2334
 6377SOL    HW220573   1.853   1.938   2.420 -1.1521  0.6184  0.1027
 6378SOL     OW20574   4.651   0.223   1.463  0.0843 -0.0050  0.6255
 6378SOL    HW120575   4.563   0.254   1.484  0.6965  1.4019  1.2461
 6378SOL    HW220576   4.675   0.270   1.383  0.0528 -0.8472  0.1091
 6379SOL     OW20577   0.191   1.835   1.567  0.4761 -0.0808  0.2222
 6379SOL    HW120578   0.230   1.919   1.542  2.5079 -1.0150  0.0541
 6379SOL    HW220579   0.255   1.770   1.538 -1.5300 -1.7715 -0.6176
 6380SOL     OW20580   3.886   0.408   0.355 -0.2156  0.0287 -0.3126
 6380SOL    HW120581   3.869   0.469   0.427  2.8589 -0.0532  0.6287
 6380SOL    HW220582   3.904   0.325   0.398  1.2038 -0.1322 -1.1693
 6381SOL     OW20583   2.913   0.153   0.777  0.0167 -0.1847  0.0473
 6381SOL    HW120584   2.856   0.214   0.730  0.3218  1.8639  2.1584
 6381SOL    HW220585   2.991   0.205   0.798  1.4811 -2.1190 -0.3646
 6382SOL     OW20586   4.089   0.070   2.933 -0.3065 -0.5986  0.9225
 6382SOL    HW120587   4.035   0.028   2.866  0.1646  0.3764 -0.1037
 6382SOL    HW220588   4.135  -0.002   2.975 -1.6270 -1.3485  1.1296
 6383SOL     OW20589   3.235   0.241   1.210 -0.2789 -0.0544 -0.3195
 6383SOL    HW120590   3.216   0.151   1.187 -0.6410  0.0485 -0.4196
 6383SOL    HW220591   3.152   0.277   1.241 -0.0719  0.1592  0.0015
 6384SOL     OW20592   3.803   2.349   0.084  0.0425  0.2893  0.0712
 6384SOL    HW120593   3.722   2.371   0.131  0.0701 -0.9771  0.7571
 6384SOL    HW220594   3.862   2.318   0.151  0.9260  0.6697 -0.5095
 6385SOL     OW20595   2.028   7.855  10.807 -0.7684 -0.3667  0.1081
 6385SOL    HW120596   1.952   7.797  10.805 -0.6323 -0.5364 -0.7245
 6385SOL    HW220597   2.055   7.862  10.715  0.0506 -0.0867  0.3577
 6386SOL     OW20598   2.922   0.673  12.105  0.4751 -0.0914 -0.2570
 6386SOL    HW120599   2.947   0.764  12.090 -0.8002  0.2330 -0.4813
 6386SOL    HW220600   2.934   0.660  12.199 -2.2363  1.2586  0.3673
 6387SOL     OW20601   3.453   0.918   2.331  0.1131 -0.4878 -0.0280
 6387SOL    HW120602   3.506   0.893   2.256 -1.8825  0.0432 -1.6979
 6387SOL    HW220603   3.393   0.845   2.345 -0.8291  0.2175 -0.2319
 6388SOL     OW20604   1.877   7.693   0.198  0.0719  0.8505  0.0202
 6388SOL    HW120605   1.805   7.693   0.261 -0.7569  1.1607 -0.8958
 6388SOL    HW220606   1.847   7.634   0.128  0.7826  0.8488 -0.2887
 6389SOL     OW20607   3.685   1.688   0.304 -0.1151  1.0175 -0.1496
 6389SOL    HW120608   3.675   1.775   0.343  1.6557  0.5222  1.5494
 6389SOL    HW220609   3.757   1.698   0.242  0.7116  0.5758  0.7236
 6390SOL     OW20610   1.499   7.943   2.707  0.3099 -0.2865  0.0362
 6390SOL    HW120611   1.461   7.862   2.740 -0.4177  0.6165  1.5173
 6390SOL    HW220612   1.471   8.010   2.769  2.1168  0.8704 -0.3132
 6391SOL     OW20613   2.624   0.570   1.507  0.3504  0.0534  0.2360
 6391SOL    HW120614   2.562   0.623   1.458 -0.2323  1.0936  1.9970
 6391SOL    HW220615   2.570   0.525   1.573  1.1491 -0.9631  0.2315
 6392SOL     OW20616   3.557   7.922   1.777  0.4858 -0.7303  0.2459
 6392SOL    HW120617   3.539   7.849   1.717 -0.2115 -0.1560 -0.2634
 6392SOL    HW220618   3.617   7.978   1.729 -0.2338 -0.1639 -0.0135
 6393SOL     OW20619   2.945   6.664   2.077 -0.1401 -0.4744  0.4935
 6393SOL    HW120620   3.006   6.693   2.145  1.4277 -3.0017  0.3299
 6393SOL    HW220621   2.988   6.587   2.039 -2.2144 -0.7137 -1.5441
 6394SOL     OW20622   2.861   7.648  11.729 -0.1653 -0.3579 -0.3423
 6394SOL    HW120623   2.776   7.667  11.690 -0.3354  1.7387  0.8868
 6394SOL    HW220624   2.843   7.640  11.823  0.9240 -0.2196 -0.1082
 6395SOL     OW20625   4.836   1.021   1.558 -0.1206 -0.2489  0.1549
 6395SOL    HW120626   4.854   1.025   1.464  0.5366 -0.6943  0.2484
 6395SOL    HW220627   4.922   1.032   1.599 -0.4534  0.3069  0.7141
 6396SOL     OW20628   2.121   7.656   0.748  0.4909 -0.1137  0.2064
 6396SOL    HW120629   2.138   7.574   0.703  0.1894 -0.0399 -0.0450
 6396SOL    HW220630   2.126   7.633   0.841 -1.8087 -0.9266  0.1910
 6397SOL     OW20631   3.672   0.493  12.458 -0.4906 -0.4507 -0.5262
 6397SOL    HW120632   3.616   0.570  12.451 -1.1058 -0.9021 -0.7345
 6397SOL    HW220633   3.615   0.420  12.431 -0.4686 -1.2251  1.3879
 6398SOL     OW20634   3.153   0.729   1.566  0.5679  0.0910  0.4196
 6398SOL    HW120635   3.120   0.810   1.604  0.1407  0.1618 -0.0928
 6398SOL    HW220636   3.153   0.745   1.472 -0.5768 -0.8851  0.2253
 6399SOL     OW20637   3.130   6.192   0.725 -0.4533 -0.8720  0.3003
 6399SOL    HW120638   3.062   6.133   0.693  0.2299 -2.6089  1.7895
 6399SOL    HW220639   3.212   6.148   0.703  0.1267  0.1200  0.4103
 6400SOL     OW20640   1.619   0.210  11.635  0.4320  0.3560 -0.2053
 6400SOL    HW120641   1.553   0.151  11.598  1.3455 -1.3935  0.8212
 6400SOL    HW220642   1.568   0.276  11.682 -0.6070  0.1909 -1.0524
 6401SOL     OW20643   3.714   0.108   2.664  0.2433  0.2945 -0.0602
 6401SOL    HW120644   3.637   0.155   2.630  0.4347  0.0189 -0.8906
 6401SOL    HW220645   3.678   0.044   2.725 -0.2724 -0.4116 -1.0843
 6402SOL     OW20646   3.120   0.376  12.201  0.4765 -0.2702 -0.1017
 6402SOL    HW120647   3.054   0.309  12.181  1.9576 -1.6824 -0.4749
 6402SOL    HW220648   3.119   0.383  12.296 -1.5875  1.2120 -0.1820
 6403SOL     OW20649   2.764   6.581   0.742 -0.0063 -0.3199  0.4831
 6403SOL    HW120650   2.853   6.602   0.770  0.6200  0.2090 -1.7188
 6403SOL    HW220651   2.724   6.666   0.725 -0.5655 -0.6007  0.3888
 6404SOL     OW20652   4.525   0.226   0.528 -0.3838  0.1713 -0.8493
 6404SOL    HW120653   4.586   0.159   0.500 -0.6582 -0.2661 -0.4216
 6404SOL    HW220654   4.542   0.301   0.470  0.8805  0.2298 -0.4330
 6405SOL     OW20655   1.100   0.578   0.719 -0.3155  0.8740 -0.0554
 6405SOL    HW120656   1.033   0.588   0.651 -0.4188  1.5478  0.1302
 6405SOL    HW220657   1.182   0.579   0.671 -0.4516 -0.4305 -0.3265
 6406SOL     OW20658   1.683   0.603  11.636 -0.4267  0.7356 -0.5288
 6406SOL    HW120659   1.763   0.564  11.602 -0.5641 -0.5353  0.5216
 6406SOL    HW220660   1.651   0.658  11.565  0.4999 -0.0235 -1.5728
 6407SOL     OW20661   0.144   7.331   1.880  0.2922  0.3495 -0.1128
 6407SOL    HW120662   0.221   7.329   1.937  1.0238 -0.6072 -1.0854
 6407SOL    HW220663   0.173   7.287   1.800 -1.3993 -0.4383 -0.3347
 6408SOL     OW20664   7.600   1.097   2.121 -0.4851 -0.3391 -0.3365
 6408SOL    HW120665   7.577   1.018   2.072  2.1253 -0.2043 -1.9768
 6408SOL    HW220666   7.692   1.084   2.144  0.1723  2.4105 -1.1063
 6409SOL     OW20667   2.796   1.259   1.614 -0.1061 -0.1142 -0.4932
 6409SOL    HW120668   2.727   1.263   1.681 -1.0236 -0.5941 -1.3833
 6409SOL    HW220669   2.784   1.338   1.562  0.8530  0.4552  0.1029
 6410SOL     OW20670   1.906   1.808   3.602  0.5318 -0.2947 -0.1520
 6410SOL    HW120671   1.951   1.740   3.653 -1.5803 -0.3928  1.7674
 6410SOL    HW220672   1.937   1.796   3.513  1.1458 -3.0277  0.3397
 6411SOL     OW20673   2.347   2.381   3.108  0.4755 -0.2829 -0.2291
 6411SOL    HW120674   2.383   2.309   3.056 -0.3922 -1.6923  1.0380
 6411SOL    HW220675   2.258   2.393   3.075  0.0461 -0.9427  0.6465
 6412SOL     OW20676   3.052   1.603   3.643  0.5043  0.1807 -0.2498
 6412SOL    HW120677   3.087   1.675   3.590 -0.1670 -0.6219 -1.8613
 6412SOL    HW220678   3.119   1.534   3.637  0.1155 -0.1723 -0.6780
 6413SOL     OW20679   3.678   6.996   2.447 -0.4551 -0.6250  0.0050
 6413SOL    HW120680   3.671   6.926   2.511 -0.8424 -0.7998 -0.2258
 6413SOL    HW220681   3.593   7.040   2.449  0.7197  1.8731  2.4213
 6414SOL     OW20682   1.534   1.145   4.057  0.4525  0.1083 -0.0848
 6414SOL    HW120683   1.465   1.211   4.068  0.9513  0.9862 -1.8292
 6414SOL    HW220684   1.546   1.108   4.144  0.4738  2.6463  1.0684
 6415SOL     OW20685   3.408   7.045   3.562 -0.5297  0.2520 -0.6378
 6415SOL    HW120686   3.384   6.953   3.562  0.7300 -0.0990  0.5808
 6415SOL    HW220687   3.502   7.046   3.576 -0.6656  1.7537  0.4890
 6416SOL     OW20688   1.496   1.067   2.993  0.2237 -0.1666  0.1278
 6416SOL    HW120689   1.451   1.017   2.925  1.3206 -0.6511 -0.2777
 6416SOL    HW220690   1.539   1.001   3.047 -0.2346  0.2440  1.0088
 6417SOL     OW20691   2.629   0.686   1.106  0.4321 -0.0281  0.3556
 6417SOL    HW120692   2.603   0.773   1.135  0.9638 -0.0584  0.9341
 6417SOL    HW220693   2.594   0.679   1.017 -0.9336  0.1830  0.8597
 6418SOL     OW20694   2.626   1.460   3.621  0.6684  0.5654  0.5767
 6418SOL    HW120695   2.707   1.427   3.583 -0.5967  0.6807 -2.5356
 6418SOL    HW220696   2.617   1.548   3.585 -1.7944 -0.1918 -0.9223
 6419SOL     OW20697   3.248   1.005   3.724  0.6775 -0.3295 -0.5687
 6419SOL    HW120698   3.276   1.095   3.738 -0.1429 -0.0159 -0.9441
 6419SOL    HW220699   3.248   0.967   3.812 -0.9462  0.6223 -0.1142
 6420SOL     OW20700   3.029   0.230   2.206 -0.2888  0.3916  0.0550
 6420SOL    HW120701   3.008   0.285   2.131  0.6446 -0.5528 -0.9406
 6420SOL    HW220702   2.952   0.175   2.218  0.0447 -0.3649 -1.0859
 6421SOL     OW20703   3.625   0.847   4.350  0.2198  0.5693  0.1454
 6421SOL    HW120704   3.550   0.897   4.381  1.1307  1.2831  1.3100
 6421SOL    HW220705   3.680   0.836   4.428  0.6694 -1.1448 -0.3624
 6422SOL     OW20706   3.014   0.051   1.781 -0.3278 -0.0448 -0.0439
 6422SOL    HW120707   3.072   0.005   1.721 -0.5855  0.1975 -0.4830
 6422SOL    HW220708   2.940  -0.009   1.792 -0.1200 -0.2398  0.3090
 6423SOL     OW20709   3.482   1.779   2.565 -0.0416  0.2832 -0.0985
 6423SOL    HW120710   3.497   1.847   2.631 -1.2819 -0.2198  0.7422
 6423SOL    HW220711   3.424   1.820   2.501  0.1246  0.3767 -0.1873
 6424SOL     OW20712   1.494   0.834   1.568 -0.1544  0.1391 -0.1937
 6424SOL    HW120713   1.517   0.926   1.556 -0.1284  0.3491  1.2809
 6424SOL    HW220714   1.556   0.787   1.512  0.8336  0.9422  0.1832
 6425SOL     OW20715   1.365   0.789   4.019  0.0287  0.1984 -0.1341
 6425SOL    HW120716   1.373   0.826   4.107  1.0358  1.7151 -0.8152
 6425SOL    HW220717   1.324   0.703   4.033  1.0012 -0.0190  1.9052
 6426SOL     OW20718   1.950   0.158   2.246  0.2724  0.4506 -0.1320
 6426SOL    HW120719   1.938   0.249   2.274 -2.0766  0.9264 -2.2629
 6426SOL    HW220720   1.942   0.161   2.151  2.9337 -1.6847 -0.5473
 6427SOL     OW20721   2.926   1.086   2.278 -0.4355 -0.3442 -0.2337
 6427SOL    HW120722   2.868   1.045   2.343  0.8806 -2.5247 -0.3371
 6427SOL    HW220723   2.925   1.026   2.204  0.2080  0.7372 -1.1465
 6428SOL     OW20724   1.485   0.515   3.631 -0.0031 -0.5233 -0.2205
 6428SOL    HW120725   1.565   0.491   3.585 -0.4226  0.1944 -1.3732
 6428SOL    HW220726   1.472   0.608   3.610 -2.2276 -1.1116 -1.8256
 6429SOL     OW20727   2.495   0.735   2.632 -0.5704 -0.2341 -0.2938
 6429SOL    HW120728   2.512   0.660   2.575 -1.3599 -0.7920  0.1910
 6429SOL    HW220729   2.422   0.707   2.688 -0.8133  0.8581 -0.0442
 6430SOL     OW20730   3.750   1.279   2.132  0.0556  0.4797 -0.4457
 6430SOL    HW120731   3.743   1.373   2.142 -0.5859  0.4638 -0.6773
 6430SOL    HW220732   3.769   1.246   2.220 -3.5174  0.4960  0.4872
 6431SOL     OW20733   1.376   7.747   2.326 -0.1680  0.2302  0.3924
 6431SOL    HW120734   1.434   7.782   2.393  0.2978 -1.1273  0.7450
 6431SOL    HW220735   1.321   7.684   2.373 -0.9178  0.4238 -0.2138
 6432SOL     OW20736   3.016   1.382   0.911 -0.0995  0.5306 -0.2072
 6432SOL    HW120737   2.990   1.464   0.952 -2.8454 -0.9942  1.4409
 6432SOL    HW220738   3.071   1.338   0.976  0.1909  0.4554 -0.4977
 6433SOL     OW20739   3.425   0.655   4.216  0.1497  0.2467 -0.0442
 6433SOL    HW120740   3.512   0.668   4.251 -0.5881 -0.0590  2.0205
 6433SOL    HW220741   3.368   0.709   4.271 -1.2732 -1.5094  0.2906
 6434SOL     OW20742   1.485   0.474   2.330  0.3177 -0.3656 -0.3565
 6434SOL    HW120743   1.463   0.458   2.422  1.2510  1.7905  0.3012
 6434SOL    HW220744   1.501   0.387   2.294 -0.9183 -1.3374  1.2757
 6435SOL     OW20745   2.182   1.337   0.878 -0.0741  0.1065 -0.2141
 6435SOL    HW120746   2.221   1.393   0.812  0.6299 -0.2240 -0.0874
 6435SOL    HW220747   2.154   1.397   0.947  0.8212  0.2993 -0.0037
 6436SOL     OW20748   3.987   7.852   2.763  0.0299 -0.1945  0.2791
 6436SOL    HW120749   4.080   7.832   2.773  0.3393  0.6220 -0.7217
 6436SOL    HW220750   3.960   7.804   2.685 -0.0337  0.6311 -0.2195
 6437SOL     OW20751   4.349   7.846   2.455  0.2493  0.1039  0.2205
 6437SOL    HW120752   4.260   7.860   2.425  0.1188 -0.5425  0.2851
 6437SOL    HW220753   4.400   7.915   2.413 -0.0560 -0.3095 -0.8533
 6438SOL     OW20754   1.713   7.568   2.929 -0.2016 -0.0413 -0.1891
 6438SOL    HW120755   1.762   7.496   2.969  0.8705  1.0771  0.5907
 6438SOL    HW220756   1.635   7.527   2.893  0.1961 -1.5346  0.5741
 6439SOL     OW20757   2.890   7.250   2.903 -0.1792 -0.2523 -0.2538
 6439SOL    HW120758   2.952   7.238   2.975 -0.4193  0.1741  0.0321
 6439SOL    HW220759   2.817   7.191   2.924 -1.3096  1.5279  1.0928
 6440SOL     OW20760   2.145   0.601   3.640  0.1084 -0.2153 -0.0468
 6440SOL    HW120761   2.171   0.515   3.608  1.8385  1.1771 -2.7751
 6440SOL    HW220762   2.157   0.596   3.735  2.6923 -2.2290 -0.3574
 6441SOL     OW20763   1.805   5.996   4.398 -0.1236  0.6644  0.0802
 6441SOL    HW120764   1.860   6.073   4.385  0.9005  0.2953  1.8368
 6441SOL    HW220765   1.854   5.941   4.460 -1.7056 -0.4828  0.4011
 6442SOL     OW20766   3.309   1.931   1.377  0.1247 -0.5772  0.4725
 6442SOL    HW120767   3.320   1.945   1.283 -0.1584 -0.9723  0.3804
 6442SOL    HW220768   3.380   1.982   1.416 -0.4085  0.4809  0.1079
 6443SOL     OW20769   4.596   0.186   3.806 -0.7173 -0.2241  0.2340
 6443SOL    HW120770   4.559   0.197   3.893 -0.7297 -0.4740  0.2605
 6443SOL    HW220771   4.562   0.260   3.755 -1.4906 -0.6217  0.1742
 6444SOL     OW20772   2.363   7.815   2.033  0.0953 -0.2674  0.5382
 6444SOL    HW120773   2.436   7.753   2.042  2.4697  1.6270 -2.9740
 6444SOL    HW220774   2.378   7.880   2.102  0.1273 -1.2709  1.5038
 6445SOL     OW20775   3.055   6.311   3.960  0.2244 -0.2623 -0.5357
 6445SOL    HW120776   2.976   6.304   3.906 -0.8934  0.5444  0.9129
 6445SOL    HW220777   3.059   6.228   4.008  0.6038 -0.5377 -1.0327
 6446SOL     OW20778   2.095   2.396   3.025 -0.0399 -0.4635  0.2114
 6446SOL    HW120779   2.035   2.456   3.069  1.3843  1.3373 -0.2113
 6446SOL    HW220780   2.109   2.434   2.938  0.6465 -1.5822 -0.1933
 6447SOL     OW20781   3.189   7.910   3.193 -0.2769  1.0393 -0.3550
 6447SOL    HW120782   3.175   7.990   3.143  0.3493  0.1477 -2.0418
 6447SOL    HW220783   3.222   7.847   3.129 -1.9862 -0.9845  0.6068
 6448SOL     OW20784   2.660   7.655   3.205  0.0604 -0.3634  0.4820
 6448SOL    HW120785   2.733   7.711   3.230  0.7991 -0.8003 -0.6199
 6448SOL    HW220786   2.587   7.684   3.261  1.1703 -0.2115  1.9199
 6449SOL     OW20787   1.088   7.927   2.134 -0.3486 -0.2418  0.5338
 6449SOL    HW120788   1.009   7.885   2.102 -0.6879  0.5362  0.3255
 6449SOL    HW220789   1.065   7.958   2.222 -1.0442  1.9788 -0.3660
 6450SOL     OW20790   2.580   1.319   1.781  0.7228 -0.7900 -0.3084
 6450SOL    HW120791   2.536   1.326   1.866  0.9719  1.4787 -0.3212
 6450SOL    HW220792   2.509   1.300   1.720  0.3412 -1.0417  0.1946
 6451SOL     OW20793   2.399   0.116   1.573  0.8289  0.1448 -0.2585
 6451SOL    HW120794   2.305   0.128   1.574  0.7713 -0.3072 -0.0275
 6451SOL    HW220795   2.415   0.042   1.632  1.6152  2.2121  2.3178
 6452SOL     OW20796   2.742   1.318   2.467  0.1360 -0.1559  0.1718
 6452SOL    HW120797   2.707   1.373   2.537 -0.3856 -1.3544  0.8871
 6452SOL    HW220798   2.791   1.250   2.513  0.4324 -0.5241 -0.6733
 6453SOL     OW20799   2.186   1.316   2.831  0.2642 -0.0164  0.8333
 6453SOL    HW120800   2.172   1.353   2.919 -0.7288  0.6094  0.4291
 6453SOL    HW220801   2.147   1.228   2.836 -2.0573  0.9161  0.3494
 6454SOL     OW20802   5.023   1.418   2.834 -0.5032 -0.3227  0.1384
 6454SOL    HW120803   4.974   1.489   2.875 -0.9351 -0.4493 -0.1450
 6454SOL    HW220804   5.031   1.445   2.742  0.3234 -0.1100  0.2682
 6455SOL     OW20805   3.356   7.001   6.127  0.2711  0.4320  0.2509
 6455SOL    HW120806   3.268   7.039   6.129 -0.1785 -0.4638 -0.8646
 6455SOL    HW220807   3.367   6.973   6.036  1.4989  0.0524  0.5029
 6456SOL     OW20808   1.414   1.346   3.507 -0.0138  0.4239  0.5735
 6456SOL    HW120809   1.396   1.395   3.427 -0.3262  0.0153  0.3896
 6456SOL    HW220810   1.346   1.373   3.568 -0.7189 -0.4159  0.1871
 6457SOL     OW20811   2.059   0.261   4.105 -0.1468  0.3713 -0.5037
 6457SOL    HW120812   1.972   0.234   4.134  0.3532 -0.2346  0.4746
 6457SOL    HW220813   2.046   0.289   4.015 -0.3830 -5.5959 -2.8219
 6458SOL     OW20814   2.790   0.840   4.313  0.1482  0.6863 -0.2321
 6458SOL    HW120815   2.729   0.875   4.248 -0.0400 -0.5034 -0.7194
 6458SOL    HW220816   2.780   0.898   4.388  1.3139  2.8860 -1.6799
 6459SOL     OW20817   1.265   0.207   2.109  0.5071 -0.6018 -0.0685
 6459SOL    HW120818   1.306   0.121   2.114  0.2662 -0.6923  0.3605
 6459SOL    HW220819   1.254   0.234   2.200 -0.0942 -0.4398 -0.1836
 6460SOL     OW20820   3.071   1.016   4.456  0.4742 -0.3512 -0.0033
 6460SOL    HW120821   2.985   0.985   4.486  0.3551  0.3774  0.4114
 6460SOL    HW220822   3.133   0.971   4.513  0.4014 -1.1356 -0.5148
 6461SOL     OW20823   3.249   2.910   2.272 -0.1665  0.4619  0.2301
 6461SOL    HW120824   3.317   2.899   2.339 -0.5861  0.0131  0.5880
 6461SOL    HW220825   3.193   2.834   2.282  0.0744  0.1008 -1.0069
 6462SOL     OW20826   0.934   1.970   1.722  0.1256 -0.0051 -0.4189
 6462SOL    HW120827   1.003   2.036   1.717 -0.4430  0.9007  2.2138
 6462SOL    HW220828   0.886   1.979   1.640  0.9597  1.8042 -0.7556
 6463SOL     OW20829   2.890   7.796   3.006  0.0813  0.2224 -0.0568
 6463SOL    HW120830   2.887   7.701   2.994 -1.4660  0.0836  1.1073
 6463SOL    HW220831   2.799   7.821   3.022  0.4140  1.9757 -0.7709
 6464SOL     OW20832   1.418   3.162   4.166  0.0201  0.0071 -0.7337
 6464SOL    HW120833   1.399   3.202   4.081 -1.1760 -1.2775 -1.1047
 6464SOL    HW220834   1.372   3.078   4.163  1.2386 -0.7354  0.5889
 6465SOL     OW20835   2.564   2.561   3.409  0.3344 -0.3023  0.2261
 6465SOL    HW120836   2.474   2.534   3.424 -0.4711  1.1158 -1.5893
 6465SOL    HW220837   2.571   2.569   3.314  2.1013  0.5140  0.3787
 6466SOL     OW20838   1.466   6.412   3.219 -0.5287 -0.2554 -0.2163
 6466SOL    HW120839   1.507   6.373   3.296  0.0214  0.7665  0.0265
 6466SOL    HW220840   1.373   6.389   3.227 -0.7627  1.0770  1.5699
 6467SOL     OW20841   2.442   7.101   2.728  0.0438  0.1476 -0.1725
 6467SOL    HW120842   2.477   7.076   2.642  1.0895 -0.1710  0.3286
 6467SOL    HW220843   2.496   7.175   2.755 -1.4212  1.3989 -0.5388
 6468SOL     OW20844   3.609   1.500   2.643 -0.0931  0.1646 -0.0413
 6468SOL    HW120845   3.694   1.524   2.608  0.0083 -0.7511 -0.4387
 6468SOL    HW220846   3.552   1.574   2.620  0.2786  0.1747 -0.9745
 6469SOL     OW20847   3.432   7.740   3.802 -0.6361 -0.4197 -0.1537
 6469SOL    HW120848   3.370   7.803   3.764 -1.3761 -0.8690  0.2799
 6469SOL    HW220849   3.416   7.659   3.754  1.0248 -0.0493 -1.4200
 6470SOL     OW20850   1.635   2.036   1.733 -0.3197 -0.0798 -0.1282
 6470SOL    HW120851   1.723   2.022   1.698  0.1902 -2.6433  1.8650
 6470SOL    HW220852   1.641   2.118   1.782  0.3900  0.7496 -1.5436
 6471SOL     OW20853   1.328   1.963   3.284  0.2317  0.5762  0.4660
 6471SOL    HW120854   1.361   1.902   3.218  1.2562  0.2254  1.2687
 6471SOL    HW220855   1.369   1.934   3.366 -0.7701  1.1901  1.2020
 6472SOL     OW20856   1.344   1.436   2.725  0.0757  0.7283 -0.5071
 6472SOL    HW120857   1.367   1.522   2.691 -0.1989  0.6390 -0.9199
 6472SOL    HW220858   1.318   1.453   2.816  0.0217  1.0833 -0.5872
 6473SOL     OW20859   1.953   7.393   3.551 -0.2138  0.3977  0.1876
 6473SOL    HW120860   1.911   7.324   3.602 -1.1041  1.8710  1.5730
 6473SOL    HW220861   1.895   7.408   3.477 -0.4379  0.1996  0.3229
 6474SOL     OW20862   3.200   6.815   3.162 -0.1431  0.0396  0.0828
 6474SOL    HW120863   3.181   6.721   3.163  2.0978 -0.4491  0.7095
 6474SOL    HW220864   3.140   6.852   3.228  0.7123 -1.3627  1.7337
 6475SOL     OW20865   2.733   7.739   2.432 -0.1386  0.7945 -0.3464
 6475SOL    HW120866   2.814   7.790   2.444  0.4803 -0.0872 -0.6906
 6475SOL    HW220867   2.708   7.713   2.521 -0.0146  1.0138 -0.2450
 6476SOL     OW20868   2.402   1.370   2.061  0.3158  0.2114 -0.2123
 6476SOL    HW120869   2.471   1.409   2.114 -0.1426 -0.0627  0.6104
 6476SOL    HW220870   2.414   1.275   2.071  0.0278  0.1612 -0.3154
 6477SOL     OW20871   4.063   0.323   3.449 -0.7173 -0.2846 -0.3713
 6477SOL    HW120872   4.119   0.400   3.451 -1.0003 -0.0796  0.7047
 6477SOL    HW220873   4.080   0.282   3.364  1.3160 -0.4251  0.0553
 6478SOL     OW20874   2.360   1.483   3.577  0.0963 -0.3972  0.0454
 6478SOL    HW120875   2.320   1.508   3.661 -0.5753  0.4797 -0.5073
 6478SOL    HW220876   2.445   1.446   3.601 -0.4088 -0.9058  1.1609
 6479SOL     OW20877   1.600   0.991   2.360 -0.7867 -0.1093 -0.1477
 6479SOL    HW120878   1.616   0.907   2.404  1.1702  0.1239 -0.3427
 6479SOL    HW220879   1.562   0.967   2.276 -0.3330 -0.7926 -0.1647
 6480SOL     OW20880   3.901   7.684   2.276 -0.0732  0.0619  0.0547
 6480SOL    HW120881   3.962   7.617   2.246 -0.9463 -1.1563  0.9021
 6480SOL    HW220882   3.869   7.652   2.360  1.8083  3.0530  2.1117
 6481SOL     OW20883   3.815   1.836   2.704 -0.0384 -0.1994  0.8759
 6481SOL    HW120884   3.740   1.848   2.762  0.0375  0.1351  0.9035
 6481SOL    HW220885   3.844   1.746   2.721 -0.3771 -0.3023  0.9275
 6482SOL     OW20886   1.640   6.969   2.458 -0.6879 -0.0591  0.8888
 6482SOL    HW120887   1.719   6.915   2.455  0.3078  1.2810  1.4747
 6482SOL    HW220888   1.592   6.938   2.534 -0.1512 -0.1391  1.1969
 6483SOL     OW20889   2.854   7.182   3.452 -0.0515  0.2465  0.2687
 6483SOL    HW120890   2.819   7.181   3.540 -2.9802  0.6864 -0.7891
 6483SOL    HW220891   2.875   7.274   3.435 -1.2562  0.4767 -0.0815
 6484SOL     OW20892   4.863   0.710   4.741  0.1112 -0.1694  0.0578
 6484SOL    HW120893   4.931   0.777   4.754 -0.2249  0.4635 -1.2633
 6484SOL    HW220894   4.850   0.708   4.646 -0.8906 -1.1268  0.2014
 6485SOL     OW20895   2.289   0.408   4.179 -0.3158 -0.0253 -0.4083
 6485SOL    HW120896   2.204   0.377   4.150 -0.5872  1.0103 -0.7704
 6485SOL    HW220897   2.335   0.329   4.209 -1.3432 -0.6091 -0.3303
 6486SOL     OW20898   0.268   1.067   3.578 -0.7643  0.5054  0.6683
 6486SOL    HW120899   0.313   1.023   3.650 -1.2137  0.5404  0.9762
 6486SOL    HW220900   0.221   1.140   3.620 -2.9982 -0.8778  0.7685
 6487SOL     OW20901   1.946   1.106   4.206 -0.1526  0.8542 -0.2551
 6487SOL    HW120902   1.931   1.041   4.275 -0.4639  0.4193 -0.7257
 6487SOL    HW220903   2.025   1.152   4.233  0.2049  0.1215 -0.0373
 6488SOL     OW20904   3.456   6.472   3.395  0.3811  0.0977  0.3078
 6488SOL    HW120905   3.386   6.460   3.459 -0.9606 -0.5260 -1.2000
 6488SOL    HW220906   3.496   6.385   3.387 -0.1233 -0.0796 -0.4053
 6489SOL     OW20907   2.301   1.243   4.340 -0.1040 -0.2404  0.6105
 6489SOL    HW120908   2.277   1.327   4.378  1.7863  0.7173 -0.1800
 6489SOL    HW220909   2.336   1.192   4.414  0.8162  0.5125  0.7087
 6490SOL     OW20910   2.325   0.024   3.799 -0.1651 -0.4890 -0.1739
 6490SOL    HW120911   2.408  -0.011   3.766  0.2741 -2.1552  2.4325
 6490SOL    HW220912   2.351   0.100   3.852 -0.4633 -0.2661 -0.3404
 6491SOL     OW20913   3.127   5.681   3.304  0.1559 -0.7164 -0.2862
 6491SOL    HW120914   3.155   5.607   3.358 -2.6909 -0.8671  1.1454
 6491SOL    HW220915   3.173   5.756   3.343  1.8235 -1.4415 -0.7457
 6492SOL     OW20916   3.000   0.756   2.585  0.4798  0.0340  0.4959
 6492SOL    HW120917   3.058   0.820   2.625  1.0797 -1.5629  2.3480
 6492SOL    HW220918   2.956   0.714   2.659  0.8017 -2.2974 -0.5376
 6493SOL     OW20919   1.957   6.835   3.086 -0.2722 -0.4294 -0.3672
 6493SOL    HW120920   1.905   6.765   3.127  0.4474 -0.5028  0.4272
 6493SOL    HW220921   2.039   6.836   3.134 -0.8291  2.0212  0.7092
 6494SOL     OW20922   3.720   2.049   3.200 -0.2660  0.3785 -0.5130
 6494SOL    HW120923   3.775   2.001   3.262  1.2316 -0.4085 -2.3658
 6494SOL    HW220924   3.650   2.086   3.254 -0.0992 -1.8271  1.3632
 6495SOL     OW20925   5.097   1.034   2.955  0.3249  0.1930 -0.4827
 6495SOL    HW120926   5.157   0.963   2.981  0.2579  0.1133 -0.5430
 6495SOL    HW220927   5.151   1.094   2.904  0.0952 -0.4899 -1.5765
 6496SOL     OW20928   3.404   7.433   3.915  0.1029 -0.0289  0.3101
 6496SOL    HW120929   3.433   7.349   3.952  0.4727  0.0479  0.1977
 6496SOL    HW220930   3.344   7.409   3.845  1.9918 -0.2929 -1.3010
 6497SOL     OW20931   3.731   0.266   3.095 -0.2238 -0.8235 -0.6814
 6497SOL    HW120932   3.722   0.199   3.162 -0.3995 -1.0292 -0.9087
 6497SOL    HW220933   3.656   0.324   3.108 -0.2396 -0.8442 -0.6811
 6498SOL     OW20934   3.377   0.009   2.519 -0.2331 -0.4035 -0.4114
 6498SOL    HW120935   3.431   0.088   2.526  0.5959 -0.8710 -1.2058
 6498SOL    HW220936   3.329   0.020   2.437 -2.5625  0.6977  1.0052
 6499SOL     OW20937   1.463   6.868   2.697  0.3456  0.2539 -0.6027
 6499SOL    HW120938   1.402   6.798   2.672 -0.2158  0.3625  0.4066
 6499SOL    HW220939   1.536   6.823   2.739 -0.5152  0.3147  1.0278
 6500SOL     OW20940   2.611   0.940   2.231  0.4818 -0.2082  0.3102
 6500SOL    HW120941   2.549   0.892   2.285 -2.1815  0.5690 -1.7992
 6500SOL    HW220942   2.662   0.992   2.293  0.0960 -2.0498  2.2633
 6501SOL     OW20943   1.296   0.801   3.600  0.2355  0.1502 -0.2113
 6501SOL    HW120944   1.344   0.815   3.682  1.2590  1.1057 -0.9539
 6501SOL    HW220945   1.309   0.881   3.550 -1.3513  0.0373 -0.8457
 6502SOL     OW20946   5.090   1.925   2.693  0.2919  0.3271 -0.1848
 6502SOL    HW120947   5.148   1.867   2.643 -0.4686 -0.5350 -0.0957
 6502SOL    HW220948   5.033   1.964   2.628 -0.1072 -0.1046 -0.1008
 6503SOL     OW20949   1.865   2.653   1.530  0.1491 -0.1222  0.3197
 6503SOL    HW120950   1.896   2.678   1.617  1.1920  0.7552 -0.2831
 6503SOL    HW220951   1.796   2.716   1.510 -0.1364 -0.3650  0.5316
 6504SOL     OW20952   1.541   1.922   3.762  0.0176  0.3817  0.3578
 6504SOL    HW120953   1.480   1.976   3.812 -0.8560 -1.0817  0.9436
 6504SOL    HW220954   1.572   1.856   3.825 -1.9670 -2.2185 -1.1546
 6505SOL     OW20955   2.400   7.271   1.937 -0.3336 -0.0056 -0.5323
 6505SOL    HW120956   2.310   7.302   1.944 -0.5484 -0.5740 -0.7442
 6505SOL    HW220957   2.398   7.182   1.971  0.4333  0.4525  0.8098
 6506SOL     OW20958   1.700   1.887   3.993 -0.0864  0.2955  0.3961
 6506SOL    HW120959   1.721   1.794   3.987 -1.0470  0.0948 -0.0230
 6506SOL    HW220960   1.703   1.906   4.087  1.8201  0.2772  0.3849
 6507SOL     OW20961   0.361   1.497   1.846  0.2005 -0.6866  0.1947
 6507SOL    HW120962   0.303   1.573   1.858  0.1968 -0.6844  0.1614
 6507SOL    HW220963   0.314   1.439   1.786  1.2006  0.3314 -1.6623
 6508SOL     OW20964   3.224   0.056   2.299 -0.4978  0.0025  0.3195
 6508SOL    HW120965   3.171  -0.017   2.267  0.5303 -0.3180 -0.7467
 6508SOL    HW220966   3.169   0.133   2.286 -0.6467 -0.2943 -0.9573
 6509SOL     OW20967   2.308   7.833   3.571  0.1484 -0.2061  0.5195
 6509SOL    HW120968   2.327   7.871   3.656 -0.2092 -0.2748  0.6349
 6509SOL    HW220969   2.222   7.792   3.582 -0.1486  0.2439 -0.0187
 6510SOL     OW20970   1.986   1.962   2.704  0.1900 -0.2876  0.1190
 6510SOL    HW120971   1.981   1.890   2.767 -0.6479  0.6552  1.1915
 6510SOL    HW220972   2.075   1.996   2.713  0.8772 -1.6769 -1.0105
 6511SOL     OW20973   3.441   2.501   2.485  0.0443  0.1744  0.4223
 6511SOL    HW120974   3.409   2.433   2.544 -0.1471  0.7199  0.9525
 6511SOL    HW220975   3.490   2.453   2.418  0.6320 -0.4258  1.2595
 6512SOL     OW20976   1.484   7.245   3.464 -0.0658  0.4856 -0.0325
 6512SOL    HW120977   1.502   7.336   3.488  1.2738  0.0102  0.9099
 6512SOL    HW220978   1.560   7.219   3.412  0.1016 -0.4157  0.6424
 6513SOL     OW20979   2.439   0.486   3.960  0.2783 -0.6551  0.2085
 6513SOL    HW120980   2.353   0.490   3.916  1.0587  2.1919 -1.3084
 6513SOL    HW220981   2.419   0.499   4.053 -0.9908 -0.9119 -0.0047
 6514SOL     OW20982   2.372   7.999   3.134 -0.0134  0.3980 -0.2315
 6514SOL    HW120983   2.342   7.956   3.214  0.8934 -0.1086 -0.1439
 6514SOL    HW220984   2.381   8.091   3.158  0.5526  0.1993  0.3612
 6515SOL     OW20985   1.049   1.878   3.377  0.0702 -0.1011  0.0606
 6515SOL    HW120986   1.125   1.931   3.355  1.4821 -1.5420  1.2520
 6515SOL    HW220987   1.016   1.848   3.292 -0.0755  1.6817 -0.5617
 6516SOL     OW20988   2.812   1.674   2.660 -0.0392  0.2176 -0.2168
 6516SOL    HW120989   2.763   1.690   2.741  0.0968  0.1207 -0.1151
 6516SOL    HW220990   2.853   1.589   2.674  1.2113  0.8724  0.2212
 6517SOL     OW20991   2.256   7.320   3.851  0.0177 -0.0766  0.3724
 6517SOL    HW120992   2.208   7.400   3.831 -1.8195 -1.0588  0.6313
 6517SOL    HW220993   2.315   7.308   3.776 -1.5749  0.1351 -0.9610
 6518SOL     OW20994   5.606   0.419   4.532 -0.4593 -0.1127 -0.3449
 6518SOL    HW120995   5.534   0.404   4.593 -0.5657  1.7415  0.0298
 6518SOL    HW220996   5.565   0.459   4.455  0.2679  2.1322  0.3707
 6519SOL     OW20997   2.137   6.420   2.996 -0.2626 -0.3196 -0.6108
 6519SOL    HW120998   2.168   6.399   3.084  2.0077  1.9478 -0.7228
 6519SOL    HW220999   2.212   6.401   2.939 -1.3640 -0.8435 -1.9231
 6520SOL     OW21000   0.926   0.668   3.807 -0.0021  0.2127 -0.1727
 6520SOL    HW121001   0.895   0.690   3.718 -0.8636 -2.7233 -0.6876
 6520SOL    HW221002   1.005   0.616   3.792  0.3275  0.4162  0.8304
 6521SOL     OW21003   2.700   0.328   2.748 -0.1807 -0.4016  0.1762
 6521SOL    HW121004   2.749   0.362   2.673  1.4125  1.5087  1.9222
 6521SOL    HW221005   2.661   0.406   2.788 -0.9058 -1.3404  1.3680
 6522SOL     OW21006   2.607   2.443   2.329  0.4681 -0.0382  0.5571
 6522SOL    HW121007   2.603   2.363   2.381  0.0499 -0.5303 -0.2221
 6522SOL    HW221008   2.627   2.512   2.393 -1.2581 -0.4356  1.5936
 6523SOL     OW21009   4.693   1.635   1.489  0.1292 -0.4548 -0.1156
 6523SOL    HW121010   4.719   1.650   1.580  2.0699  0.5758 -0.7873
 6523SOL    HW221011   4.676   1.541   1.484  0.2303 -0.5618  1.2622
 6524SOL     OW21012   1.700   0.334   5.074 -0.3705 -0.4186  0.1512
 6524SOL    HW121013   1.768   0.396   5.098 -1.3570  0.8220 -0.1461
 6524SOL    HW221014   1.631   0.347   5.139  0.2148 -2.6932  1.3425
 6525SOL     OW21015   1.529   1.871   1.465 -0.1878  0.1880  0.4373
 6525SOL    HW121016   1.460   1.854   1.401  1.7516 -2.9264 -1.0595
 6525SOL    HW221017   1.585   1.936   1.422  0.0875 -0.4902 -0.2587
 6526SOL     OW21018   0.597   7.426   2.735  0.4818 -0.0849 -0.1143
 6526SOL    HW121019   0.680   7.380   2.718  1.1356  1.2779 -0.7728
 6526SOL    HW221020   0.581   7.414   2.828  0.4764 -1.8705 -0.3183
 6527SOL     OW21021   5.116   3.665   3.114  0.0890  0.5482 -0.0048
 6527SOL    HW121022   5.103   3.716   3.194 -1.3370  0.2281  0.0021
 6527SOL    HW221023   5.184   3.601   3.137  1.1531  1.7490  0.2964
 6528SOL     OW21024   2.872   0.254   2.481  0.5626  0.3741  0.4737
 6528SOL    HW121025   2.914   0.181   2.436  0.4052 -0.0817  1.0593
 6528SOL    HW221026   2.911   0.332   2.442  2.8237 -0.0252  1.7801
 6529SOL     OW21027   4.249   1.748   2.583 -0.2664 -0.2928  0.0692
 6529SOL    HW121028   4.198   1.821   2.545  0.2969 -0.9443 -2.0996
 6529SOL    HW221029   4.184   1.679   2.595 -0.6370  0.2410  1.2975
 6530SOL     OW21030   3.544   0.892   3.313  0.1155  0.2441  0.9270
 6530SOL    HW121031   3.508   0.968   3.266  1.2175  0.2641  0.0614
 6530SOL    HW221032   3.551   0.824   3.246  0.3718 -0.1948  1.3981
 6531SOL     OW21033   3.356   0.910   2.920 -0.5056 -0.8396 -0.6094
 6531SOL    HW121034   3.285   0.969   2.893  0.2747  0.5971  0.3606
 6531SOL    HW221035   3.420   0.916   2.849 -0.4122 -0.4777 -0.4976
 6532SOL     OW21036   1.550   0.758   3.385  0.0269  0.8009  0.8184
 6532SOL    HW121037   1.527   0.838   3.337  0.4679 -0.1013 -1.0021
 6532SOL    HW221038   1.598   0.789   3.461  1.4971  2.2632 -0.6099
 6533SOL     OW21039   4.455   1.283   4.607  0.0096 -0.1837 -0.1378
 6533SOL    HW121040   4.430   1.275   4.700  2.7867  1.5246  0.8850
 6533SOL    HW221041   4.461   1.193   4.576 -0.6165 -0.8184  1.4452
 6534SOL     OW21042   3.433   5.817   4.639 -0.5489  0.7750 -0.1136
 6534SOL    HW121043   3.423   5.727   4.671 -1.7713  0.3119 -1.6406
 6534SOL    HW221044   3.402   5.871   4.711 -0.6155 -0.0649  0.5116
 6535SOL     OW21045   3.272   0.596   3.793  0.2826  0.2848 -0.6012
 6535SOL    HW121046   3.262   0.526   3.857 -2.5355  0.4667 -0.6882
 6535SOL    HW221047   3.310   0.669   3.843 -1.8307  0.4172  0.9704
 6536SOL     OW21048   1.797   2.188   3.039 -0.5238 -0.6074 -0.5337
 6536SOL    HW121049   1.887   2.166   3.013  0.4285  2.3276 -0.0906
 6536SOL    HW221050   1.798   2.188   3.135 -0.7773  0.0979 -0.5206
 6537SOL     OW21051   2.243   6.840   1.893  0.4590 -0.9011  0.0213
 6537SOL    HW121052   2.275   6.750   1.899 -0.2575 -1.0861  4.3893
 6537SOL    HW221053   2.313   6.894   1.930 -0.3666 -0.0877  0.4626
 6538SOL     OW21054   3.625   0.536   3.002  0.2790  0.5610 -0.0539
 6538SOL    HW121055   3.539   0.498   3.018  0.4607  0.7395  1.5913
 6538SOL    HW221056   3.676   0.466   2.960 -0.3120  0.0537  0.0690
 6539SOL     OW21057   3.107   7.801   4.544  0.7866 -0.0920 -0.1693
 6539SOL    HW121058   3.151   7.746   4.609  1.6084  1.0542  0.2724
 6539SOL    HW221059   3.150   7.777   4.461  1.1191 -0.1525  0.0164
 6540SOL     OW21060   1.946   7.810   5.189  0.1081 -0.5401  0.1315
 6540SOL    HW121061   1.950   7.876   5.120 -0.3236  1.0481  1.5596
 6540SOL    HW221062   1.878   7.841   5.249 -0.4183 -2.5159  0.6526
 6541SOL     OW21063   2.169   1.139   1.310  0.3089  0.2905 -0.3276
 6541SOL    HW121064   2.123   1.220   1.333  1.0019  0.4297  0.6466
 6541SOL    HW221065   2.258   1.167   1.287  0.4821 -0.1665 -0.2298
 6542SOL     OW21066   2.206   1.232   2.256  0.0679  0.3351  0.2166
 6542SOL    HW121067   2.215   1.254   2.349 -0.4490  1.7512 -0.0581
 6542SOL    HW221068   2.253   1.301   2.210 -1.6808  0.9922 -0.6703
 6543SOL     OW21069   2.358   1.713   2.011 -0.4144  0.8362 -0.3961
 6543SOL    HW121070   2.344   1.782   1.946  1.0555  0.1971 -1.4619
 6543SOL    HW221071   2.282   1.718   2.069 -1.7044  1.5317 -2.0720
 6544SOL     OW21072   2.364   2.108   4.293  0.3159  0.3284  0.7720
 6544SOL    HW121073   2.458   2.122   4.285  0.3621 -0.1332  0.4943
 6544SOL    HW221074   2.343   2.043   4.226 -0.5057  1.7185 -0.3821
 6545SOL     OW21075   1.570   7.853   3.457  0.4683 -0.4589 -0.1531
 6545SOL    HW121076   1.518   7.909   3.515  0.0216 -0.2132 -0.7849
 6545SOL    HW221077   1.649   7.834   3.508  0.3213  0.1834  0.3358
 6546SOL     OW21078   1.726   0.719   5.388  0.5027 -0.1275 -0.3568
 6546SOL    HW121079   1.752   0.757   5.304 -0.7584 -0.6043 -0.9906
 6546SOL    HW221080   1.635   0.695   5.376  0.9752 -2.5349  0.2856
 6547SOL     OW21081   3.678   0.559   4.254  0.0570 -0.1857 -0.4913
 6547SOL    HW121082   3.727   0.588   4.331 -1.2305  0.3063  0.1666
 6547SOL    HW221083   3.622   0.489   4.285  0.0679 -0.4982 -1.1566
 6548SOL     OW21084   2.632   6.742   2.313 -0.1256 -0.0346  0.1941
 6548SOL    HW121085   2.643   6.661   2.364  0.9104 -2.0906 -2.9501
 6548SOL    HW221086   2.539   6.744   2.291  0.1201 -1.4417 -1.1536
 6549SOL     OW21087   4.872   1.410   3.263 -0.0493 -0.5226 -0.2590
 6549SOL    HW121088   4.833   1.492   3.233  1.3618 -0.0605 -0.8754
 6549SOL    HW221089   4.883   1.358   3.184  1.9546 -0.0406 -0.3420
 6550SOL     OW21090   2.782   1.968   4.269  0.1752  0.3295  0.1640
 6550SOL    HW121091   2.838   1.908   4.220 -1.1766 -2.2843  1.5852
 6550SOL    HW221092   2.753   1.917   4.345 -2.0409  2.4132  0.8374
 6551SOL     OW21093   3.478   2.349   3.663  0.4844 -0.3069  0.1717
 6551SOL    HW121094   3.563   2.306   3.672  0.1045 -1.1272 -0.0603
 6551SOL    HW221095   3.498   2.442   3.656  1.2938 -0.3751  1.3493
 6552SOL     OW21096   2.203   3.702   4.097  0.2065 -0.6670 -0.1227
 6552SOL    HW121097   2.210   3.737   4.009 -4.2961  3.2869  0.6617
 6552SOL    HW221098   2.246   3.767   4.152 -1.0101 -0.6380  0.8423
 6553SOL     OW21099   1.062   7.779   1.633 -0.6408  0.6220  0.1003
 6553SOL    HW121100   1.052   7.856   1.688  3.2633  0.5292  1.2123
 6553SOL    HW221101   1.041   7.705   1.690  1.9614  0.6153  1.1969
 6554SOL     OW21102   2.209   1.272   3.835 -0.0914 -0.2445 -0.1384
 6554SOL    HW121103   2.244   1.355   3.805  1.5966 -1.0671 -0.5759
 6554SOL    HW221104   2.140   1.251   3.772  1.3411 -0.4742 -1.7013
 6555SOL     OW21105   1.602   1.507   2.924  0.1339 -0.2810 -0.0116
 6555SOL    HW121106   1.680   1.519   2.978  0.3797  0.4053 -0.5080
 6555SOL    HW221107   1.529   1.518   2.985  0.4170 -0.6835  0.4079
 6556SOL     OW21108   2.214   0.851   1.572  0.1181  0.2989 -0.0971
 6556SOL    HW121109   2.145   0.793   1.539 -2.2373  1.3464  2.5249
 6556SOL    HW221110   2.291   0.795   1.580 -0.9070 -1.4006 -1.4679
 6557SOL     OW21111   2.501   1.756   3.829  0.1684  0.2780 -0.7096
 6557SOL    HW121112   2.596   1.754   3.840  0.1265 -1.2026 -0.4129
 6557SOL    HW221113   2.487   1.805   3.747  1.3016 -0.9175 -1.6634
 6558SOL     OW21114   3.063   0.340   3.746  0.0987 -0.1224  0.0033
 6558SOL    HW121115   3.119   0.300   3.812  1.0737  1.3714  0.1279
 6558SOL    HW221116   3.087   0.296   3.664 -1.2116 -2.0767  0.5976
 6559SOL     OW21117   2.281   7.436   2.803 -0.2091  0.2875 -0.3339
 6559SOL    HW121118   2.326   7.394   2.876  0.0236 -1.2548 -1.3256
 6559SOL    HW221119   2.244   7.364   2.752 -1.6250  1.4025 -0.9491
 6560SOL     OW21120   2.599   1.367   3.897 -0.1730 -0.2916 -0.1071
 6560SOL    HW121121   2.573   1.440   3.841  0.1602  1.0596  1.4353
 6560SOL    HW221122   2.544   1.375   3.975  0.3946 -1.2385  0.4148
 6561SOL     OW21123   2.149   0.145   1.567 -1.0067  0.3363 -0.3032
 6561SOL    HW121124   2.088   0.201   1.616 -1.1180 -1.1421  1.3584
 6561SOL    HW221125   2.108   0.058   1.569  1.2931 -0.8074  1.2184
 6562SOL     OW21126   3.016   2.262   2.195 -0.0489 -0.2211 -0.2410
 6562SOL    HW121127   3.073   2.203   2.146 -0.6075 -0.7049 -0.3259
 6562SOL    HW221128   2.955   2.204   2.240  0.7312  0.1884  1.4092
 6563SOL     OW21129   1.491   2.359   3.166 -0.1675  0.2255  0.0689
 6563SOL    HW121130   1.555   2.331   3.232 -1.7522 -0.5093  1.3797
 6563SOL    HW221131   1.529   2.331   3.083 -0.1313 -3.0155  1.0280
 6564SOL     OW21132   2.905   7.388   3.768  0.6032  0.2391 -0.1334
 6564SOL    HW121133   2.872   7.478   3.768  0.9947  0.4822 -3.5735
 6564SOL    HW221134   2.843   7.339   3.714  1.5295 -1.1269 -0.0096
 6565SOL     OW21135   2.759   1.216   3.304  0.2949  0.0827 -0.6369
 6565SOL    HW121136   2.837   1.250   3.350 -0.2958  0.0751  0.4089
 6565SOL    HW221137   2.773   1.240   3.213  1.0834  0.9170 -0.3183
 6566SOL     OW21138   0.590   1.393   2.193  0.6677  0.0349  0.0743
 6566SOL    HW121139   0.581   1.334   2.118  0.9378 -1.6714  1.3119
 6566SOL    HW221140   0.587   1.335   2.269 -0.3176  1.7662  1.4349
 6567SOL     OW21141   4.750   2.230   3.486 -0.1011  0.1127  0.7732
 6567SOL    HW121142   4.822   2.196   3.539 -0.8637  0.4214  2.0505
 6567SOL    HW221143   4.734   2.318   3.521 -2.2746 -0.6062  1.7812
 6568SOL     OW21144   3.666   7.139   4.946 -0.0164 -0.7375 -0.1015
 6568SOL    HW121145   3.578   7.172   4.966  0.0684  0.7639 -1.9449
 6568SOL    HW221146   3.725   7.205   4.982  0.3285 -1.0835 -0.0234
 6569SOL     OW21147   2.445   0.040   2.494  0.4360  0.4120 -0.6088
 6569SOL    HW121148   2.505   0.107   2.460  2.3315 -1.2214 -0.6657
 6569SOL    HW221149   2.494  -0.001   2.566 -1.5403  0.4934  0.8487
 6570SOL     OW21150   1.935   1.269   2.623  0.0073 -0.2691 -0.0771
 6570SOL    HW121151   2.025   1.254   2.652 -0.5547  0.2316  2.0694
 6570SOL    HW221152   1.917   1.196   2.563  1.4339 -1.0664  0.4169
 6571SOL     OW21153   2.984   0.695   3.059 -0.6789  0.4587 -0.4045
 6571SOL    HW121154   2.923   0.766   3.082  0.5185  1.4283 -0.0970
 6571SOL    HW221155   2.966   0.627   3.124 -0.2136  1.4847  0.8700
 6572SOL     OW21156   2.207   1.049   3.316 -0.0158 -0.7638 -0.2084
 6572SOL    HW121157   2.133   1.048   3.255 -0.4920 -1.0092  0.3622
 6572SOL    HW221158   2.171   1.016   3.398  1.1236 -2.5797 -0.3684
 6573SOL     OW21159   3.665   1.200   3.042 -0.3152 -0.4812 -0.2140
 6573SOL    HW121160   3.663   1.219   2.948 -0.3957 -1.0624 -0.3372
 6573SOL    HW221161   3.735   1.136   3.052  0.5774  0.5528  0.3270
 6574SOL     OW21162   0.925   2.423   4.323 -0.2102  0.4473  0.0003
 6574SOL    HW121163   0.951   2.407   4.414  1.9771  1.9234 -0.2713
 6574SOL    HW221164   0.956   2.512   4.305 -3.8403  1.6652 -1.1212
 6575SOL     OW21165   3.715   0.750   3.147 -0.4201  0.6411  0.6190
 6575SOL    HW121166   3.691   0.670   3.100  3.5957 -0.5013  0.1785
 6575SOL    HW221167   3.739   0.812   3.077  1.6744  0.3211  1.0120
 6576SOL     OW21168   1.630   3.071   3.080  0.6702 -0.1160  0.1367
 6576SOL    HW121169   1.701   3.116   3.034  0.5479  0.4824  0.5293
 6576SOL    HW221170   1.671   3.038   3.160  0.1817  1.5394  1.1107
 6577SOL     OW21171   4.023   6.419   4.414  0.3155  0.2509 -0.0130
 6577SOL    HW121172   4.091   6.479   4.385  1.1939 -0.4210  0.6022
 6577SOL    HW221173   4.010   6.360   4.340  1.6972 -0.7158  0.4713
 6578SOL     OW21174   1.559   0.316   2.717 -0.3052  0.0155 -0.1062
 6578SOL    HW121175   1.651   0.336   2.735 -0.9299  1.7191  1.4285
 6578SOL    HW221176   1.541   0.240   2.773  0.0580 -0.0917 -0.1274
 6579SOL     OW21177   3.035   7.410   4.031 -0.0698  0.2836  0.2861
 6579SOL    HW121178   2.983   7.418   3.952 -0.0106 -2.5908 -0.1564
 6579SOL    HW221179   3.075   7.323   4.025  1.5116  0.7558  2.5499
 6580SOL     OW21180   3.310   0.145   3.599  0.0765 -0.7041  0.1916
 6580SOL    HW121181   3.299   0.059   3.640  2.9897 -1.1866  0.1799
 6580SOL    HW221182   3.403   0.148   3.574 -0.2985  1.8372 -1.2439
 6581SOL     OW21183   0.447   7.444   2.516  0.1065  0.3153 -0.2375
 6581SOL    HW121184   0.505   7.496   2.460  0.3865  1.0352  0.7049
 6581SOL    HW221185   0.491   7.441   2.601 -0.3308 -0.7369 -0.0290
 6582SOL     OW21186   3.820   0.803   2.392  0.0330 -0.0245  0.1228
 6582SOL    HW121187   3.809   0.879   2.448 -0.3203 -0.7179  1.0294
 6582SOL    HW221188   3.738   0.797   2.342 -0.0615  0.0320  0.2693
 6583SOL     OW21189   7.952   6.924   3.174  0.0150  0.2990 -0.0725
 6583SOL    HW121190   7.927   6.925   3.266 -0.4929 -0.8265 -0.1857
 6583SOL    HW221191   7.870   6.906   3.127  0.1197  1.5852 -0.8152
 6584SOL     OW21192   3.725   6.911   3.799 -0.0675  0.1010  0.1052
 6584SOL    HW121193   3.677   6.904   3.881  0.8780  0.7557  0.7236
 6584SOL    HW221194   3.796   6.847   3.806  0.0107  0.1479 -0.2057
 6585SOL     OW21195   3.253   2.128   2.390  0.0478  0.4399  0.4804
 6585SOL    HW121196   3.241   2.174   2.473 -0.9690  1.1244 -0.0217
 6585SOL    HW221197   3.293   2.193   2.332  1.2674 -0.1984  0.5670
 6586SOL     OW21198   2.223   1.326   2.555  0.0778 -0.3201  0.0740
 6586SOL    HW121199   2.241   1.305   2.647 -0.8956 -0.4418  0.2519
 6586SOL    HW221200   2.236   1.420   2.548 -1.3716 -0.0367  0.7404
 6587SOL     OW21201   3.044   0.723   4.299  0.5189 -0.3057 -0.2822
 6587SOL    HW121202   3.101   0.775   4.243  0.7833  1.0271  1.1437
 6587SOL    HW221203   2.956   0.759   4.285  0.4736 -0.4620 -0.3952
 6588SOL     OW21204   3.140   3.069   1.772  0.0675  0.0885 -0.2387
 6588SOL    HW121205   3.217   3.069   1.829  0.0148 -1.2381 -0.1312
 6588SOL    HW221206   3.067   3.054   1.832 -0.2841  1.2477 -0.3543
 6589SOL     OW21207   0.568   7.231   3.763 -0.0632  0.3008  0.3674
 6589SOL    HW121208   0.562   7.147   3.809 -1.2843  0.3557  0.3309
 6589SOL    HW221209   0.535   7.213   3.675  0.6805  0.5850  0.0192
 6590SOL     OW21210   5.361   1.688   3.398 -0.0711  0.5956  0.3072
 6590SOL    HW121211   5.313   1.618   3.442  0.0925  0.3458  0.0956
 6590SOL    HW221212   5.296   1.757   3.384 -0.3842  0.2455 -0.0106
 6591SOL     OW21213   1.615   0.732   3.936 -0.2358 -0.5501 -0.7523
 6591SOL    HW121214   1.526   0.764   3.951  0.0448 -0.6010  1.3760
 6591SOL    HW221215   1.666   0.811   3.916 -0.2061 -0.0215  1.1415
 6592SOL     OW21216   4.690   7.211   4.718 -0.0408 -0.5122 -0.3464
 6592SOL    HW121217   4.634   7.159   4.661 -0.4293 -1.5514  0.9240
 6592SOL    HW221218   4.705   7.156   4.794  0.9455  0.5955  0.3087
 6593SOL     OW21219   2.942   0.919   2.039 -0.2243 -0.5519  0.1605
 6593SOL    HW121220   2.891   0.841   2.015 -1.2401  0.4150 -0.9659
 6593SOL    HW221221   3.010   0.924   1.972 -1.6574  0.8546 -1.2817
 6594SOL     OW21222   1.977   6.505   2.639  0.0919  0.4226 -0.0481
 6594SOL    HW121223   1.941   6.547   2.717  0.7342  1.9126 -0.5172
 6594SOL    HW221224   2.063   6.474   2.666  0.5137  1.3610 -0.2589
 6595SOL     OW21225   2.745   0.090   4.454  0.0751 -0.1296 -0.5677
 6595SOL    HW121226   2.677   0.056   4.397 -0.4541  1.4555 -0.9268
 6595SOL    HW221227   2.805   0.016   4.467 -1.5057 -1.4436 -0.5236
 6596SOL     OW21228   2.273   2.790   3.469  0.0062  0.0530  0.5266
 6596SOL    HW121229   2.291   2.803   3.376  3.1050 -0.4108  0.9522
 6596SOL    HW221230   2.191   2.837   3.484 -0.5190  0.2682 -2.3704
 6597SOL     OW21231   2.941   2.713   1.659 -0.5035 -0.6418  0.8692
 6597SOL    HW121232   3.023   2.736   1.702 -1.5541  0.2387  2.4938
 6597SOL    HW221233   2.949   2.751   1.571  0.5339  0.0438  1.2396
 6598SOL     OW21234   2.212   7.789   2.719 -0.1680  0.0585  0.1050
 6598SOL    HW121235   2.274   7.770   2.790 -0.8457 -0.3056  0.6158
 6598SOL    HW221236   2.130   7.750   2.749 -1.0314  1.7997  0.1310
 6599SOL     OW21237   0.509   0.114   2.581  0.3599  0.1181  0.2093
 6599SOL    HW121238   0.443   0.090   2.647 -1.3367  0.8117 -1.1460
 6599SOL    HW221239   0.465   0.098   2.498  2.7842 -1.6767 -0.8368
 6600SOL     OW21240   2.001   0.657   4.287 -0.5554 -0.3031  0.0136
 6600SOL    HW121241   2.075   0.599   4.305 -1.7005 -1.7221  0.2951
 6600SOL    HW221242   2.032   0.744   4.312  1.7148 -0.5020 -1.7915
 6601SOL     OW21243   4.487   1.071   3.556  0.1959  0.5796 -0.0970
 6601SOL    HW121244   4.487   1.018   3.636  1.8329 -0.6328 -0.8473
 6601SOL    HW221245   4.543   1.146   3.578 -0.2447  0.8154  0.2341
 6602SOL     OW21246   1.779   0.317   3.532 -0.2859  0.0228 -0.0360
 6602SOL    HW121247   1.810   0.400   3.567  1.2058 -0.4548 -0.1721
 6602SOL    HW221248   1.796   0.323   3.438  1.9645 -1.2724  0.2223
 6603SOL     OW21249   1.942   0.092   1.207 -0.1625  0.0469  0.1262
 6603SOL    HW121250   1.875   0.158   1.222 -0.4734 -0.2481  0.0290
 6603SOL    HW221251   1.984   0.118   1.125 -1.2460 -0.6768 -0.6829
 6604SOL     OW21252   1.866   2.779   3.189 -0.3985 -0.2290  0.2139
 6604SOL    HW121253   1.895   2.859   3.146 -0.4041 -0.3700 -0.0536
 6604SOL    HW221254   1.818   2.809   3.266 -1.2453  0.0480 -0.4154
 6605SOL     OW21255   3.820   0.559   5.840  0.0736 -0.3337  0.0547
 6605SOL    HW121256   3.897   0.526   5.886  0.5118  0.3636 -0.1670
 6605SOL    HW221257   3.785   0.628   5.897 -0.9624 -1.2886  0.6198
 6606SOL     OW21258   3.541   7.004   1.512  0.1798 -0.4125 -1.1050
 6606SOL    HW121259   3.488   6.965   1.442  0.5717 -0.4024 -1.4096
 6606SOL    HW221260   3.524   6.949   1.588  0.0673 -0.6680 -1.3133
 6607SOL     OW21261   2.718   0.812   3.395 -0.3514 -0.0699  0.3018
 6607SOL    HW121262   2.689   0.733   3.441 -0.1840 -0.4278 -0.2072
 6607SOL    HW221263   2.642   0.870   3.397 -0.8214 -0.6558 -0.2468
 6608SOL     OW21264   0.638   0.936   2.137  0.3826  0.1492 -0.3104
 6608SOL    HW121265   0.613   0.955   2.047 -0.1065 -0.5800 -0.3355
 6608SOL    HW221266   0.734   0.934   2.135  0.4830  2.2966 -0.3490
 6609SOL     OW21267   1.375   0.081   0.829  0.0784  0.2404  0.3166
 6609SOL    HW121268   1.396   0.076   0.923 -0.3898 -0.8308  0.3687
 6609SOL    HW221269   1.444   0.031   0.786 -0.1459  0.0627  0.1595
 6610SOL     OW21270   3.387   0.979   2.586 -0.1266 -0.7957 -0.5985
 6610SOL    HW121271   3.460   0.991   2.647  0.1172 -1.3388 -0.7760
 6610SOL    HW221272   3.428   0.972   2.500 -0.2594 -2.5107 -0.5500
 6611SOL     OW21273   1.042   7.305   4.217 -0.4019 -0.5507 -0.0350
 6611SOL    HW121274   0.976   7.375   4.224 -1.4653 -1.5099 -0.1051
 6611SOL    HW221275   0.994   7.231   4.179  0.3375 -1.7506  1.2553
 6612SOL     OW21276   3.727   7.362   3.112 -0.0015 -0.3072 -0.4621
 6612SOL    HW121277   3.759   7.290   3.166 -1.0692 -0.3136  0.1907
 6612SOL    HW221278   3.799   7.381   3.052  0.4193 -1.6940 -0.4254
 6613SOL     OW21279   2.431   1.558   3.312  0.0437  0.2988 -0.3812
 6613SOL    HW121280   2.525   1.577   3.304  0.0857  0.4839  0.4512
 6613SOL    HW221281   2.422   1.523   3.401 -0.7082  0.4523 -0.3984
 6614SOL     OW21282   4.526   1.384   1.517 -0.3609 -0.0424 -0.6148
 6614SOL    HW121283   4.491   1.458   1.567 -2.7223 -1.8123  0.5588
 6614SOL    HW221284   4.555   1.321   1.584  1.2209 -0.3940 -1.5735
 6615SOL     OW21285   0.667   7.550   1.994 -0.2168 -0.0930  0.1257
 6615SOL    HW121286   0.624   7.633   2.011 -0.6035 -0.5029  1.2643
 6615SOL    HW221287   0.759   7.565   2.014  0.0922  0.5787 -1.5929
 6616SOL     OW21288   3.730   7.296   2.583  0.7496 -0.0162  0.6186
 6616SOL    HW121289   3.786   7.264   2.654  1.0272 -0.6791  0.1160
 6616SOL    HW221290   3.732   7.226   2.518 -0.6340 -0.0278  0.5579
 6617SOL     OW21291   2.709   0.021   3.389 -0.2504  0.6048  0.0574
 6617SOL    HW121292   2.798   0.009   3.355 -0.6748  0.0948 -0.9069
 6617SOL    HW221293   2.677   0.101   3.346  0.4885  2.0788  2.0673
 6618SOL     OW21294   1.383   1.674   2.609  0.1445 -0.3714  0.1273
 6618SOL    HW121295   1.441   1.676   2.533 -0.8329 -2.7604 -0.7593
 6618SOL    HW221296   1.302   1.715   2.578  0.2782  0.1183  0.4076
 6619SOL     OW21297   2.395   7.228   4.420  0.2178 -0.3321 -0.2058
 6619SOL    HW121298   2.484   7.193   4.419  0.3086 -0.2182  1.3268
 6619SOL    HW221299   2.371   7.236   4.327  1.6883 -0.6196 -0.6358
 6620SOL     OW21300   2.193   7.049   6.337  0.5348 -0.6919 -0.0659
 6620SOL    HW121301   2.251   7.119   6.307  1.5479 -0.8905  1.3224
 6620SOL    HW221302   2.246   6.969   6.330  0.3261 -0.9267  0.9016
 6621SOL     OW21303   2.399   7.327   4.093  0.3060  0.1127 -0.1726
 6621SOL    HW121304   2.435   7.415   4.081 -1.6271  0.7842 -1.5606
 6621SOL    HW221305   2.374   7.299   4.005 -0.4016 -1.2440  0.4283
 6622SOL     OW21306   2.287   0.186   6.290  0.0719  0.2000 -0.9161
 6622SOL    HW121307   2.349   0.259   6.284 -1.6322  1.8253 -0.0051
 6622SOL    HW221308   2.240   0.188   6.207  0.9135 -0.7718 -1.4408
 6623SOL     OW21309   3.054   2.379   3.099  0.1368  0.4120 -0.3705
 6623SOL    HW121310   2.995   2.447   3.132  1.5422  1.6921 -0.3828
 6623SOL    HW221311   3.041   2.380   3.004  0.6705  1.1818 -0.4404
 6624SOL     OW21312   5.204   0.448   4.495 -0.2493  1.0464  0.0149
 6624SOL    HW121313   5.269   0.381   4.474  0.0028  0.9197  1.1054
 6624SOL    HW221314   5.255   0.526   4.512 -0.5169  1.4200 -0.8775
 6625SOL     OW21315   5.783   2.870   2.718 -0.4701 -0.1949  0.1833
 6625SOL    HW121316   5.744   2.943   2.669  1.3961  0.7435  0.0064
 6625SOL    HW221317   5.861   2.847   2.669  0.2060 -0.7743  1.4663
 6626SOL     OW21318   4.292   0.583   5.792 -0.0648 -0.0404  0.4396
 6626SOL    HW121319   4.339   0.565   5.873 -0.1018 -1.5669  0.1461
 6626SOL    HW221320   4.360   0.590   5.726 -0.1076  0.0361  0.4035
 6627SOL     OW21321   2.614   0.134   5.031  0.1477 -0.4714  0.1673
 6627SOL    HW121322   2.599   0.040   5.033 -1.4702 -0.2877 -0.9749
 6627SOL    HW221323   2.533   0.170   4.993  2.0693  1.0852 -2.8278
 6628SOL     OW21324   3.873   2.496   3.075 -0.0169 -0.0664  0.7928
 6628SOL    HW121325   3.906   2.580   3.105  0.5550 -0.3384  0.9450
 6628SOL    HW221326   3.842   2.452   3.155  1.1800 -0.6463  0.9691
 6629SOL     OW21327   2.587   7.560   5.833  0.7425 -0.3133  0.2091
 6629SOL    HW121328   2.604   7.555   5.927  1.8858  0.3588  0.0618
 6629SOL    HW221329   2.553   7.474   5.810 -1.2798  0.0762  1.5361
 6630SOL     OW21330   1.517   3.410   5.273  0.2862 -0.0935  0.0211
 6630SOL    HW121331   1.428   3.437   5.298 -0.3952 -0.4963 -1.8299
 6630SOL    HW221332   1.554   3.487   5.230  1.3176  0.4769  1.8303
 6631SOL     OW21333   2.640   0.307   4.139 -0.9033 -0.3267  0.2193
 6631SOL    HW121334   2.583   0.304   4.216 -0.3158 -0.1234  0.6671
 6631SOL    HW221335   2.642   0.399   4.113 -0.8734 -0.3533  0.1246
 6632SOL     OW21336   7.839   0.052   4.606 -0.1028  0.2587  0.5528
 6632SOL    HW121337   7.929   0.084   4.608 -0.5236  1.7307 -1.0527
 6632SOL    HW221338   7.817   0.050   4.513 -1.9161  0.5383  0.9448
 6633SOL     OW21339   3.501   7.846   4.655 -0.7698 -0.1765  0.4238
 6633SOL    HW121340   3.460   7.780   4.712 -0.5223 -0.2142  0.5579
 6633SOL    HW221341   3.560   7.894   4.713 -1.0696  0.2696  0.3629
 6634SOL     OW21342   7.448   1.644   5.865  1.2461 -0.1601  0.2841
 6634SOL    HW121343   7.428   1.557   5.899  0.4160 -0.1455 -0.1618
 6634SOL    HW221344   7.398   1.703   5.921  0.9013 -0.0497 -0.1395
 6635SOL     OW21345   1.652   0.070   4.233  0.1751  0.1122 -0.2901
 6635SOL    HW121346   1.624  -0.008   4.281 -0.7550  0.6992  0.1490
 6635SOL    HW221347   1.686   0.128   4.301 -0.2406  0.5591 -0.4593
 6636SOL     OW21348   1.148   1.300   3.391  0.3239 -0.1196  0.3169
 6636SOL    HW121349   1.077   1.283   3.329  0.9808  1.1246 -0.8177
 6636SOL    HW221350   1.122   1.380   3.437  0.4169 -0.3534  0.7863
 6637SOL     OW21351   2.654   2.598   5.642  0.3139 -0.4802  0.3087
 6637SOL    HW121352   2.692   2.638   5.563 -1.2410  0.4070 -0.0424
 6637SOL    HW221353   2.630   2.510   5.614 -2.4927  0.5986 -1.0524
 6638SOL     OW21354   2.805   1.585   4.657  0.2176  0.0907  0.1253
 6638SOL    HW121355   2.894   1.586   4.623  0.4406  0.8489  0.7188
 6638SOL    HW221356   2.815   1.591   4.752 -0.4672  0.1279  0.2018
 6639SOL     OW21357   4.077   2.488   4.211  1.0143 -0.4432 -0.8693
 6639SOL    HW121358   4.094   2.574   4.174  1.8949 -0.7738 -1.2445
 6639SOL    HW221359   4.083   2.501   4.306 -0.0152  0.1419 -0.8723
 6640SOL     OW21360   3.310   7.075   5.644  0.3372  0.2353 -0.0362
 6640SOL    HW121361   3.402   7.091   5.664  0.6743 -2.2260  0.7361
 6640SOL    HW221362   3.263   7.111   5.719  0.8930 -0.8235  0.8361
 6641SOL     OW21363   2.111   7.753   6.406  0.1076 -0.0298  0.0368
 6641SOL    HW121364   2.173   7.739   6.334  0.5198 -1.4604  0.6313
 6641SOL    HW221365   2.137   7.836   6.445 -0.4734  1.0477 -1.7848
 6642SOL     OW21366   2.844   7.835   4.560  0.4628 -0.3251  0.5245
 6642SOL    HW121367   2.826   7.871   4.647  1.3254  1.6184 -0.0447
 6642SOL    HW221368   2.939   7.833   4.554  0.4167 -0.7306 -0.2703
 6643SOL     OW21369   1.767   0.061   4.678 -0.2622  0.3979 -0.2707
 6643SOL    HW121370   1.783   0.037   4.587  1.7852 -0.5636  0.2861
 6643SOL    HW221371   1.791  -0.017   4.729 -0.8242  1.0915  1.1309
 6644SOL     OW21372   2.260   0.327   4.486 -0.0425 -0.8692  0.4416
 6644SOL    HW121373   2.164   0.320   4.479 -0.0787  0.1097 -0.2334
 6644SOL    HW221374   2.279   0.417   4.463  0.8759 -0.4142  2.7033
 6645SOL     OW21375   3.997   7.676   3.594  0.5819 -0.5040  0.5586
 6645SOL    HW121376   3.947   7.696   3.673  0.2056 -0.7030  0.3797
 6645SOL    HW221377   3.930   7.648   3.531  1.0362 -2.0032  0.7000
 6646SOL     OW21378   2.910   0.121   4.964  0.9278 -0.2123 -0.2229
 6646SOL    HW121379   2.823   0.135   5.000  0.3091 -1.0703 -1.3366
 6646SOL    HW221380   2.966   0.110   5.040 -0.1913 -1.1234  0.4901
 6647SOL     OW21381   2.773   7.941   4.802  0.5883 -0.4130  0.1428
 6647SOL    HW121382   2.698   7.921   4.858  0.0258  1.6375  0.2258
 6647SOL    HW221383   2.815   8.016   4.844  1.6999 -0.4657 -0.8134
 6648SOL     OW21384   2.287   1.407   3.083 -0.4699  0.5775  0.0931
 6648SOL    HW121385   2.341   1.445   3.152 -0.3828  0.4849  0.0769
 6648SOL    HW221386   2.340   1.335   3.048 -0.9604 -0.0783  0.6593
 6649SOL     OW21387   3.370   7.736   4.999 -0.3344  0.6865  0.2104
 6649SOL    HW121388   3.291   7.753   5.049 -1.1487  0.2632 -0.8849
 6649SOL    HW221389   3.421   7.675   5.052 -2.6831 -2.4367 -0.8134
 6650SOL     OW21390   3.287   0.054   4.861  0.6888  0.4171 -0.3920
 6650SOL    HW121391   3.240   0.088   4.784  0.0820  0.5539  0.0356
 6650SOL    HW221392   3.361   0.006   4.824 -2.0382 -3.5179 -1.3598
 6651SOL     OW21393   2.423   7.354   3.032 -0.1703  0.5257 -0.1433
 6651SOL    HW121394   2.377   7.394   3.106  0.4609  0.3852  0.3311
 6651SOL    HW221395   2.515   7.351   3.059 -0.0053  0.0037 -0.7288
 6652SOL     OW21396   3.680   1.330   4.426 -0.0260  0.1538 -0.0415
 6652SOL    HW121397   3.642   1.416   4.444  2.4298  1.5786 -1.0926
 6652SOL    HW221398   3.749   1.320   4.491  0.1749 -0.6913 -0.3690
 6653SOL     OW21399   0.759   2.223   6.810 -0.6664  0.0302 -0.3430
 6653SOL    HW121400   0.824   2.243   6.743 -0.3538 -1.4496 -0.5141
 6653SOL    HW221401   0.737   2.308   6.848  1.8693  0.5115  0.2058
 6654SOL     OW21402   3.310   7.654   4.757 -0.1210 -0.4745 -0.1825
 6654SOL    HW121403   3.327   7.670   4.850  2.0140 -1.3112 -0.3771
 6654SOL    HW221404   3.256   7.575   4.757 -1.5410  0.4499  0.3616
 6655SOL     OW21405   1.900   0.160   2.519  0.3173 -0.0721  0.2480
 6655SOL    HW121406   1.952   0.140   2.442  0.0886 -2.3734  0.6260
 6655SOL    HW221407   1.922   0.091   2.582 -2.9867 -1.0603  0.5100
 6656SOL     OW21408   2.861   2.730   2.789  0.1750 -0.0832  0.0825
 6656SOL    HW121409   2.911   2.729   2.708  0.1280  1.2241  0.0105
 6656SOL    HW221410   2.927   2.728   2.858  0.1863 -3.3913  0.1128
 6657SOL     OW21411   4.439   6.431   3.072 -0.0380 -0.1312  0.2651
 6657SOL    HW121412   4.380   6.473   3.135 -1.5227 -0.0529 -1.1194
 6657SOL    HW221413   4.476   6.357   3.120 -1.3248 -0.2182  1.1816
 6658SOL     OW21414   1.980   2.518   4.557  0.1246 -0.2274 -0.0976
 6658SOL    HW121415   1.980   2.613   4.545 -0.2566 -0.2719 -0.4752
 6658SOL    HW221416   2.054   2.501   4.615  0.2647  0.2886 -0.1211
 6659SOL     OW21417   3.798   7.910   4.494 -0.2165 -0.2284 -0.3763
 6659SOL    HW121418   3.726   7.912   4.557 -1.1774 -0.1440 -1.4343
 6659SOL    HW221419   3.768   7.965   4.422  1.8737  1.6817  0.1282
 6660SOL     OW21420   3.919   0.275   5.741 -0.5858 -0.1398 -0.1454
 6660SOL    HW121421   3.881   0.360   5.722  2.1316  1.2181  0.0715
 6660SOL    HW221422   3.899   0.259   5.833  2.0047  2.1580  0.9678
 6661SOL     OW21423   2.295   1.563   3.825 -0.1978  0.1034  0.4971
 6661SOL    HW121424   2.230   1.606   3.880 -0.1400  0.1820  0.5045
 6661SOL    HW221425   2.369   1.625   3.822 -0.2117  0.1116  0.3105
 6662SOL     OW21426   4.215   7.787   4.443  0.1174 -0.3610  0.0742
 6662SOL    HW121427   4.272   7.783   4.366  1.0038  1.5431  0.5476
 6662SOL    HW221428   4.259   7.733   4.508  0.6542 -0.0389 -0.0139
 6663SOL     OW21429   1.032   7.244   2.862  0.2556 -0.1259 -0.0905
 6663SOL    HW121430   1.028   7.227   2.956 -0.4349  1.3609  0.1677
 6663SOL    HW221431   1.074   7.165   2.826 -2.0711 -2.0463  1.0985
 6664SOL     OW21432   1.553   7.063   4.715  0.3564 -0.2090  0.1286
 6664SOL    HW121433   1.541   7.093   4.805 -0.4625 -2.6583  0.8915
 6664SOL    HW221434   1.518   7.135   4.662 -1.9801  0.0531  1.8579
 6665SOL     OW21435   1.741   1.614   6.614 -0.0198  0.1126  0.4018
 6665SOL    HW121436   1.822   1.662   6.629  0.0028 -0.1215  1.0235
 6665SOL    HW221437   1.673   1.667   6.655 -0.0756 -0.0873  0.5686
 6666SOL     OW21438   2.433   7.555   3.492  0.1998 -0.1623  0.6018
 6666SOL    HW121439   2.376   7.526   3.420  0.0630 -1.2872  1.1438
 6666SOL    HW221440   2.477   7.632   3.457  3.2634 -2.9026 -2.3216
 6667SOL     OW21441   3.691   1.878   4.257  0.5322 -0.1470  0.6120
 6667SOL    HW121442   3.647   1.883   4.172  0.1253  1.0008  0.8769
 6667SOL    HW221443   3.737   1.794   4.255  0.4441 -0.1862 -0.7045
 6668SOL     OW21444   1.577   1.267   3.201 -0.0611 -0.0534 -1.0890
 6668SOL    HW121445   1.670   1.265   3.180  0.5729 -1.6156  1.4134
 6668SOL    HW221446   1.534   1.222   3.129  1.2709 -0.4254 -1.6732
 6669SOL     OW21447   2.798   0.642   3.985  0.5712 -0.5597 -0.0841
 6669SOL    HW121448   2.866   0.704   3.958  1.0463 -0.0688  1.9994
 6669SOL    HW221449   2.843   0.557   3.989  1.1259 -0.2433  1.2520
 6670SOL     OW21450   2.814   7.854   6.232  0.0242 -0.6539 -0.1984
 6670SOL    HW121451   2.745   7.911   6.267  1.9745  1.7768 -0.0053
 6670SOL    HW221452   2.841   7.897   6.151  0.5676 -2.1758 -0.8629
 6671SOL     OW21453   2.377   2.885   4.369 -0.2059  0.3390  0.2021
 6671SOL    HW121454   2.386   2.890   4.464  0.4843  1.7859  0.0876
 6671SOL    HW221455   2.373   2.977   4.340  0.6014 -0.0449 -1.2476
 6672SOL     OW21456   4.032   0.995   4.306  0.1956  0.1525  0.2426
 6672SOL    HW121457   4.116   1.015   4.266  0.4427  0.5950  0.9499
 6672SOL    HW221458   3.983   1.077   4.301 -0.6292 -0.3912 -1.1569
 6673SOL     OW21459   2.731   0.994   5.059 -0.2394  0.3767  0.2388
 6673SOL    HW121460   2.725   0.934   5.133 -0.9067 -0.3169 -0.3582
 6673SOL    HW221461   2.646   1.038   5.057 -0.7420 -0.5848 -0.9014
 6674SOL     OW21462   1.236   0.207   2.398 -0.4066 -0.0431 -0.6062
 6674SOL    HW121463   1.300   0.263   2.443 -0.2620 -0.5116 -0.2324
 6674SOL    HW221464   1.199   0.152   2.467 -1.7961  0.7587 -0.6753
 6675SOL     OW21465   5.291   2.052   4.569 -0.0480 -0.2260  0.4773
 6675SOL    HW121466   5.256   2.135   4.536 -0.5723 -0.1195  1.2748
 6675SOL    HW221467   5.385   2.055   4.550 -0.0453  0.6060  0.6221
 6676SOL     OW21468   2.763   1.725   5.142 -0.8227 -0.3219 -0.2372
 6676SOL    HW121469   2.780   1.814   5.173 -1.5857 -0.3143  0.1837
 6676SOL    HW221470   2.725   1.680   5.218 -1.4713 -0.6913 -0.7731
 6677SOL     OW21471   3.281   1.440   3.610 -0.2089 -0.1661 -0.2387
 6677SOL    HW121472   3.371   1.466   3.590  0.5659 -1.1970  1.6284
 6677SOL    HW221473   3.288   1.392   3.693 -2.5198 -0.0346  0.0980
 6678SOL     OW21474   4.246   1.680   3.813 -0.2637  0.3458 -0.3621
 6678SOL    HW121475   4.339   1.662   3.822 -0.3958 -0.0869  0.1675
 6678SOL    HW221476   4.231   1.682   3.719  0.4442  1.2931 -0.4702
 6679SOL     OW21477   1.186   7.488   3.788 -0.1579 -0.0838  0.1257
 6679SOL    HW121478   1.121   7.420   3.805 -0.0136 -0.4184 -0.6111
 6679SOL    HW221479   1.267   7.454   3.826 -0.0256 -0.4491 -0.4729
 6680SOL     OW21480   2.085   1.065   2.847 -0.3995  0.3896 -0.7835
 6680SOL    HW121481   2.143   0.993   2.871  1.0075  1.3658 -1.1144
 6680SOL    HW221482   2.010   1.023   2.806  0.0636 -0.9219 -0.3413
 6681SOL     OW21483   3.422   7.440   4.417  0.3399 -0.2778 -0.2025
 6681SOL    HW121484   3.387   7.418   4.504  2.2555 -0.4022  0.5891
 6681SOL    HW221485   3.439   7.535   4.421 -0.4969 -0.0963 -0.8051
 6682SOL     OW21486   3.060   2.102   5.407  0.0394  0.2434 -0.2514
 6682SOL    HW121487   2.972   2.140   5.405  0.0773  0.3492  0.1440
 6682SOL    HW221488   3.107   2.153   5.473  0.9243  1.3334 -1.6638
 6683SOL     OW21489   2.961   2.627   6.370  0.0894 -0.3372  0.1325
 6683SOL    HW121490   2.954   2.550   6.313 -0.6725  1.8523 -2.9864
 6683SOL    HW221491   2.894   2.614   6.437  1.1053 -3.1011  0.7339
 6684SOL     OW21492   3.099   2.026   4.018  0.0086 -0.1465 -0.0040
 6684SOL    HW121493   3.027   2.050   3.960 -0.0809 -1.2265 -0.3709
 6684SOL    HW221494   3.064   1.955   4.073  0.1716  0.6741  1.2070
 6685SOL     OW21495   5.091   7.730   7.188 -0.7057  0.0211  0.0360
 6685SOL    HW121496   5.082   7.705   7.280 -1.4294  1.0459  0.2515
 6685SOL    HW221497   5.179   7.699   7.164 -0.5233 -0.2992  1.0520
 6686SOL     OW21498   2.107   0.918   4.346  0.0640  0.0417 -0.5860
 6686SOL    HW121499   2.140   0.918   4.436  0.2849 -0.4455 -0.6616
 6686SOL    HW221500   2.184   0.941   4.293  0.1434 -0.5181 -0.7161
 6687SOL     OW21501   2.764   5.843   5.707  0.2485  0.5925  0.2188
 6687SOL    HW121502   2.729   5.756   5.689  1.3238  0.6164 -2.3814
 6687SOL    HW221503   2.700   5.903   5.670  1.7719  0.6918 -2.4968
 6688SOL     OW21504   3.205   2.258   5.230 -0.2114 -0.1747 -0.2061
 6688SOL    HW121505   3.166   2.199   5.294  0.6534  0.0458  0.5508
 6688SOL    HW221506   3.195   2.213   5.147 -1.0408 -0.6280  0.1197
 6689SOL     OW21507   3.429   7.958   6.582 -0.0710  0.0641  0.2637
 6689SOL    HW121508   3.507   7.930   6.630 -0.1934 -0.5482  0.1046
 6689SOL    HW221509   3.366   7.888   6.594 -0.5899  0.5439  0.3609
 6690SOL     OW21510   0.473   2.759   6.595  0.3668  0.1096 -0.0909
 6690SOL    HW121511   0.422   2.840   6.604  1.2818  0.4943  2.7656
 6690SOL    HW221512   0.557   2.779   6.637  1.1623 -1.8879 -0.6254
 6691SOL     OW21513   1.903   6.721   2.843 -0.0298  0.1913  0.7284
 6691SOL    HW121514   1.883   6.781   2.915 -0.5240 -0.0476  0.7914
 6691SOL    HW221515   1.818   6.697   2.808  0.2152  0.3617  0.0134
 6692SOL     OW21516   4.653   0.615   4.870 -0.3626 -0.0375 -0.7193
 6692SOL    HW121517   4.620   0.543   4.817  0.5608 -1.2234  0.2418
 6692SOL    HW221518   4.733   0.643   4.826 -0.3000 -0.1326 -0.6661
 6693SOL     OW21519   3.736   2.215   2.670 -0.2891 -0.7705 -0.0524
 6693SOL    HW121520   3.803   2.176   2.614 -0.4436 -0.8613 -0.1766
 6693SOL    HW221521   3.779   2.289   2.711 -0.5771  0.1614 -1.3733
 6694SOL     OW21522   2.269   6.425   3.401  0.2847  0.0176  0.0375
 6694SOL    HW121523   2.347   6.413   3.347 -0.2383 -0.8432 -0.5411
 6694SOL    HW221524   2.210   6.353   3.376 -0.7712  0.7510  0.3341
 6695SOL     OW21525   4.068   1.292   5.605 -0.1034 -0.3676 -0.5783
 6695SOL    HW121526   4.114   1.228   5.550 -1.1121 -1.5848 -0.0526
 6695SOL    HW221527   4.058   1.247   5.689  0.0502  0.8828  0.1183
 6696SOL     OW21528   3.196   7.840   5.551  0.1518 -0.0409  0.3423
 6696SOL    HW121529   3.262   7.910   5.549 -0.6869  0.7682  0.2585
 6696SOL    HW221530   3.186   7.819   5.644 -0.0389  0.3956  0.4246
 6697SOL     OW21531   4.181   1.402   4.702 -0.2973  0.2182 -0.4772
 6697SOL    HW121532   4.120   1.460   4.747  0.4124  1.0150 -0.5310
 6697SOL    HW221533   4.181   1.434   4.611  0.7247  0.6565 -0.3231
 6698SOL     OW21534   4.093   7.722   5.850  0.5859 -0.1745 -0.3399
 6698SOL    HW121535   4.002   7.735   5.823  0.5331 -0.6460 -0.4062
 6698SOL    HW221536   4.088   7.705   5.944  0.4663 -1.5012 -0.5699
 6699SOL     OW21537   1.187   1.073   2.812 -0.0558  1.0582  0.0025
 6699SOL    HW121538   1.224   1.129   2.744  0.7164  1.2774  0.5893
 6699SOL    HW221539   1.187   1.128   2.891 -1.3484  0.9575  0.0891
 6700SOL     OW21540   1.251   1.528   3.003 -0.0207  0.3323 -0.6419
 6700SOL    HW121541   1.298   1.536   3.087  0.0623  2.3060 -0.8447
 6700SOL    HW221542   1.226   1.617   2.981  1.1263  0.0519 -3.3975
 6701SOL     OW21543   2.228   0.491   4.903 -0.5021  0.1388 -0.0106
 6701SOL    HW121544   2.304   0.433   4.907  0.2641  0.6491 -3.6540
 6701SOL    HW221545   2.249   0.563   4.962  0.7966 -0.8635  0.7966
 6702SOL     OW21546   3.105   6.945   3.588 -0.1630 -0.1211  0.1943
 6702SOL    HW121547   3.197   6.927   3.572 -0.2588 -2.4074  1.6617
 6702SOL    HW221548   3.103   7.033   3.627  1.1856  0.5913 -1.2781
 6703SOL     OW21549   2.737   7.464   4.961 -0.0392  0.2015 -0.1550
 6703SOL    HW121550   2.791   7.392   4.994  0.3361  0.1384 -0.8866
 6703SOL    HW221551   2.758   7.469   4.868 -0.8444  0.5794 -0.3240
 6704SOL     OW21552   1.802   0.382   4.296  0.0029  0.6296 -0.0638
 6704SOL    HW121553   1.867   0.443   4.262  0.6773 -0.6234 -1.1048
 6704SOL    HW221554   1.719   0.431   4.293  0.7231  1.8944  0.3181
 6705SOL     OW21555   4.939   0.524   4.485 -0.5344  0.1021  0.2642
 6705SOL    HW121556   5.026   0.486   4.480 -0.5558  0.1501 -0.5216
 6705SOL    HW221557   4.926   0.566   4.400 -1.8070 -0.9564 -0.1035
 6706SOL     OW21558   3.272   1.734   4.235  0.1338  0.5971  0.1061
 6706SOL    HW121559   3.261   1.826   4.258  1.2846  0.4391  1.4059
 6706SOL    HW221560   3.318   1.735   4.151  1.5870  1.2374  0.8749
 6707SOL     OW21561   4.757   0.930   4.263 -0.1164 -0.1039 -0.3464
 6707SOL    HW121562   4.708   1.007   4.291  1.1199  0.6180 -0.0956
 6707SOL    HW221563   4.815   0.910   4.337  0.2953 -0.6490 -0.8071
 6708SOL     OW21564   1.509   2.230   3.811  0.2419  0.3543  0.0623
 6708SOL    HW121565   1.431   2.187   3.845 -1.1908  1.8561 -1.1894
 6708SOL    HW221566   1.511   2.314   3.856  1.3219  0.2263  0.2825
 6709SOL     OW21567   4.335   1.766   3.172  0.2345  0.0280  0.5448
 6709SOL    HW121568   4.325   1.752   3.078 -1.4876 -3.0926  1.0765
 6709SOL    HW221569   4.381   1.689   3.204 -0.8671  0.1100  2.5022
 6710SOL     OW21570   2.434   7.525   2.599 -0.0827 -0.1744  0.3981
 6710SOL    HW121571   2.391   7.504   2.682  0.4076 -0.1252  0.6666
 6710SOL    HW221572   2.476   7.610   2.615  0.6286 -0.5068  0.3405
 6711SOL     OW21573   2.288   0.675   5.176  0.1044  0.7871 -0.2140
 6711SOL    HW121574   2.278   0.589   5.216  0.5112  1.0171  0.3981
 6711SOL    HW221575   2.218   0.728   5.214 -1.7511  0.1147 -2.4271
 6712SOL     OW21576   4.605   2.050   4.674 -0.5976 -0.1316  0.0597
 6712SOL    HW121577   4.576   2.116   4.738 -0.2701 -0.4854  0.5818
 6712SOL    HW221578   4.527   2.034   4.620 -1.0524 -0.2273  0.7203
 6713SOL     OW21579   2.151   1.493   5.541 -0.1021 -0.7111 -0.3101
 6713SOL    HW121580   2.082   1.440   5.581 -1.2496  0.3725 -0.7839
 6713SOL    HW221581   2.183   1.550   5.611 -0.7696 -0.1538 -0.4488
 6714SOL     OW21582   4.377   1.285   4.890  0.5003  0.2946 -0.3528
 6714SOL    HW121583   4.375   1.365   4.941 -2.7242 -0.3281  0.7101
 6714SOL    HW221584   4.301   1.290   4.832  0.1464 -1.9799 -0.2059
 6715SOL     OW21585   3.557   2.221   4.205  0.0032  0.3961  0.1251
 6715SOL    HW121586   3.638   2.238   4.158 -0.4180 -0.5540 -1.0016
 6715SOL    HW221587   3.543   2.298   4.260  2.0112  0.2827  0.8677
 6716SOL     OW21588   2.024   0.251   6.044  0.6162  0.0019  0.8465
 6716SOL    HW121589   1.983   0.191   5.981  1.0902  0.8794 -0.3339
 6716SOL    HW221590   1.952   0.281   6.099  0.0166 -0.0438  0.0993
 6717SOL     OW21591   4.244   6.684   5.651  0.6724  0.2624  0.0439
 6717SOL    HW121592   4.227   6.758   5.594 -0.2263  0.9151  1.1161
 6717SOL    HW221593   4.224   6.607   5.598 -0.4368  0.8637 -0.4314
 6718SOL     OW21594   3.389   2.261   4.002 -0.4258 -0.1992  0.3873
 6718SOL    HW121595   3.401   2.349   3.965  0.0481 -0.5504 -0.3107
 6718SOL    HW221596   3.450   2.257   4.075 -1.2516  0.4438  1.1265
 6719SOL     OW21597   1.380   3.317   3.925 -0.0155 -0.3346 -0.1324
 6719SOL    HW121598   1.388   3.348   3.834 -0.4877 -1.2591 -0.4939
 6719SOL    HW221599   1.395   3.396   3.977  0.6171  0.1454 -0.9994
 6720SOL     OW21600   4.219   1.102   5.084 -0.2600  1.4394 -0.7878
 6720SOL    HW121601   4.303   1.147   5.079 -0.1497  1.4224  0.4870
 6720SOL    HW221602   4.188   1.118   5.173 -0.5912 -0.3124 -0.5373
 6721SOL     OW21603   3.957   7.128   4.579 -0.1244 -0.4715 -0.4573
 6721SOL    HW121604   3.922   7.199   4.524  1.5992  0.2563 -0.6678
 6721SOL    HW221605   3.879   7.089   4.618 -1.1802  1.1468 -0.8142
 6722SOL     OW21606   1.616   1.459   6.064 -0.6454 -0.2725 -0.6022
 6722SOL    HW121607   1.562   1.459   6.143 -1.0253 -0.9009 -0.8596
 6722SOL    HW221608   1.706   1.450   6.096 -0.7095  0.4939 -0.1901
 6723SOL     OW21609   3.442   0.889   5.030  0.1629 -0.4001 -0.0760
 6723SOL    HW121610   3.393   0.967   5.055 -0.3080 -0.7215  0.0185
 6723SOL    HW221611   3.376   0.828   4.997  0.5548 -0.6685 -0.3816
 6724SOL     OW21612   2.182   2.890   4.741  0.3279  0.0601 -0.2051
 6724SOL    HW121613   2.126   2.854   4.672 -1.9688  1.3815  0.8278
 6724SOL    HW221614   2.203   2.979   4.712 -1.1058  0.8203  0.9546
 6725SOL     OW21615   0.664   0.189   3.220  0.1033  0.0320 -0.1559
 6725SOL    HW121616   0.616   0.267   3.247 -0.0737 -0.2443  0.3275
 6725SOL    HW221617   0.617   0.116   3.260  1.7557 -0.1565  1.5558
 6726SOL     OW21618   2.729   1.597   3.318 -0.1313 -0.0774  0.2678
 6726SOL    HW121619   2.815   1.558   3.334  0.4794  1.6657  1.4326
 6726SOL    HW221620   2.704   1.636   3.401 -1.0207  1.3919 -0.6383
 6727SOL     OW21621   3.135   2.125   3.142 -0.1915  0.3475 -0.6927
 6727SOL    HW121622   3.132   2.216   3.112  2.1979  0.2090 -1.6004
 6727SOL    HW221623   3.149   2.131   3.236 -0.3306  0.9138 -0.7032
 6728SOL     OW21624   3.146   7.716   6.280  0.4235 -0.3306  0.3553
 6728SOL    HW121625   3.070   7.774   6.281  0.3449 -0.4343  0.3869
 6728SOL    HW221626   3.206   7.752   6.345  0.6622  0.1033 -0.0945
 6729SOL     OW21627   2.498   7.576   4.021  0.4140  0.4349  0.0991
 6729SOL    HW121628   2.580   7.615   4.051 -0.1703  0.5879  1.5422
 6729SOL    HW221629   2.478   7.622   3.939  0.6086  1.9822  0.8954
 6730SOL     OW21630   3.613   1.048   5.428  0.0600 -0.2565  0.0099
 6730SOL    HW121631   3.526   1.076   5.456 -0.3141 -1.5122  0.1734
 6730SOL    HW221632   3.597   1.005   5.343  0.3322 -1.4794  0.5576
 6731SOL     OW21633   4.040   6.239   4.826 -0.5498  0.6401  0.2453
 6731SOL    HW121634   4.039   6.192   4.909 -1.1474  1.5966  0.7989
 6731SOL    HW221635   3.999   6.323   4.845  0.4303  1.3757 -0.7220
 6732SOL     OW21636   1.674   6.502   4.371 -0.6568 -0.1292  0.2187
 6732SOL    HW121637   1.713   6.587   4.390 -0.4988  0.0252 -0.7757
 6732SOL    HW221638   1.742   6.454   4.324 -1.7822  0.3307 -2.0257
 6733SOL     OW21639   2.910   7.926   4.189 -0.8079  0.5608  0.4759
 6733SOL    HW121640   2.933   7.842   4.228 -4.5604 -1.2742 -0.7247
 6733SOL    HW221641   2.937   7.991   4.254  2.1516 -1.4899  1.4877
 6734SOL     OW21642   4.373   0.630   4.056  0.0477 -0.3120 -0.3838
 6734SOL    HW121643   4.357   0.535   4.059 -0.4377 -0.2260  2.7633
 6734SOL    HW221644   4.302   0.667   4.108  0.9326  1.6875 -0.5374
 6735SOL     OW21645   3.910   6.641   6.314  0.2578 -0.0812 -0.0547
 6735SOL    HW121646   3.873   6.559   6.282  1.1155 -0.9227  1.0292
 6735SOL    HW221647   3.995   6.616   6.350  0.3966  1.2332  0.5706
 6736SOL     OW21648   3.856   6.641   5.024 -0.0018  0.0607  0.1762
 6736SOL    HW121649   3.810   6.725   5.023  0.1037  0.1631  1.8350
 6736SOL    HW221650   3.920   6.649   5.095 -1.3143 -2.0935  1.7111
 6737SOL     OW21651   2.906   1.204   6.942  0.0917 -0.5129  0.4045
 6737SOL    HW121652   2.982   1.247   6.902  0.4465 -1.1740  0.3566
 6737SOL    HW221653   2.836   1.269   6.935 -0.4965 -1.3106 -3.3006
 6738SOL     OW21654   1.378   0.128   4.193 -0.0363 -0.1667  0.0967
 6738SOL    HW121655   1.343   0.158   4.110 -0.3405  0.2197  0.3596
 6738SOL    HW221656   1.472   0.115   4.177  0.1049  0.8804 -0.0484
 6739SOL     OW21657   2.910   0.417   3.952 -0.6261 -0.1200  0.6060
 6739SOL    HW121658   2.940   0.369   4.030 -0.8361 -0.6709  0.3487
 6739SOL    HW221659   2.945   0.367   3.878 -1.3042 -0.1761  0.3230
 6740SOL     OW21660   2.543   7.119   3.261 -0.1119 -1.2494 -0.9870
 6740SOL    HW121661   2.604   7.173   3.310 -0.6046  0.1529 -1.8382
 6740SOL    HW221662   2.563   7.029   3.286  0.9880 -0.6918  0.1949
 6741SOL     OW21663   4.696   6.352   2.862  0.3374  0.4665 -0.0970
 6741SOL    HW121664   4.656   6.422   2.811  0.2739  1.6862  1.5685
 6741SOL    HW221665   4.676   6.373   2.953  0.5910 -1.5552  0.4783
 6742SOL     OW21666   2.290   1.515   4.433 -0.0639 -0.0895 -0.1656
 6742SOL    HW121667   2.339   1.525   4.352 -2.5395  3.2956 -1.4898
 6742SOL    HW221668   2.316   1.590   4.487 -0.6992 -0.5830  0.8752
 6743SOL     OW21669   2.820   3.154   4.835 -0.0258  0.1888 -0.4123
 6743SOL    HW121670   2.806   3.111   4.751  0.7957  1.9389 -1.4922
 6743SOL    HW221671   2.915   3.159   4.844 -0.0457 -1.4136  1.4287
 6744SOL     OW21672   5.461   0.420   5.516  0.8774  0.5040 -0.4787
 6744SOL    HW121673   5.416   0.478   5.578  0.6492 -0.3901  0.2103
 6744SOL    HW221674   5.549   0.457   5.508  0.4585  1.4724 -0.7720
 6745SOL     OW21675   2.394   7.975   5.328  0.2348  0.3830  0.4993
 6745SOL    HW121676   2.436   7.924   5.397 -0.0301 -1.8071 -0.8372
 6745SOL    HW221677   2.341   7.911   5.280  0.7560  1.6714 -2.0142
 6746SOL     OW21678   2.217   0.625   2.303 -0.4931  0.0554  0.1660
 6746SOL    HW121679   2.202   0.574   2.382  0.6215  2.1534  1.8072
 6746SOL    HW221680   2.175   0.709   2.320 -0.7493  0.3571 -1.7331
 6747SOL     OW21681   3.276   0.026   4.441 -0.0706 -0.4312  0.7710
 6747SOL    HW121682   3.213  -0.037   4.475 -0.0708 -1.1465 -0.4778
 6747SOL    HW221683   3.340  -0.028   4.394  1.7276  0.2263  2.3408
 6748SOL     OW21684   2.691   2.587   4.037 -0.2987 -0.3196 -0.2399
 6748SOL    HW121685   2.778   2.614   4.008 -0.3545 -0.4503 -0.5342
 6748SOL    HW221686   2.706   2.512   4.094 -0.1183  0.4967  0.8199
 6749SOL     OW21687   3.754   6.991   4.717  0.1275  0.0239 -0.8229
 6749SOL    HW121688   3.830   6.933   4.723 -0.3248 -0.4366  1.2434
 6749SOL    HW221689   3.731   7.009   4.808 -1.0430  1.7664 -1.4183
 6750SOL     OW21690   2.231   7.654   4.135 -0.3087 -0.2419 -0.1086
 6750SOL    HW121691   2.203   7.587   4.073  0.6564 -1.7156  0.9987
 6750SOL    HW221692   2.320   7.630   4.159 -1.2266 -0.8373  3.2505
 6751SOL     OW21693   3.895   0.713   6.820 -0.2420  0.3387  0.7540
 6751SOL    HW121694   3.990   0.723   6.816  0.4062 -3.4546  2.1927
 6751SOL    HW221695   3.873   0.662   6.741 -1.4300  2.5252 -0.4180
 6752SOL     OW21696   2.675   2.437   5.312  0.3868 -0.0306  0.3934
 6752SOL    HW121697   2.744   2.387   5.355  2.2766  2.2262  0.1346
 6752SOL    HW221698   2.713   2.523   5.296 -1.7353  0.6073 -1.8378
 6753SOL     OW21699   0.265   1.085   2.802 -0.0462 -0.0002  0.4169
 6753SOL    HW121700   0.309   1.002   2.819  1.3139  0.9930  2.1066
 6753SOL    HW221701   0.275   1.134   2.883 -1.4211  1.5615 -0.3070
 6754SOL     OW21702   1.934   3.361   3.533 -0.2760 -0.2397 -0.4220
 6754SOL    HW121703   2.009   3.302   3.544  2.2608  2.3610 -2.3352
 6754SOL    HW221704   1.962   3.443   3.574 -1.8089  0.9753 -1.6950
 6755SOL     OW21705   2.482   7.933   6.121  0.6721 -0.1616 -0.2226
 6755SOL    HW121706   2.522   7.948   6.206 -1.0751  1.0721  0.4558
 6755SOL    HW221707   2.484   8.019   6.078  1.5882 -0.7783 -1.4826
 6756SOL     OW21708   4.427   1.006   4.510  0.1344  0.0417  0.2848
 6756SOL    HW121709   4.397   0.970   4.426  1.4280 -0.8110  0.1543
 6756SOL    HW221710   4.467   0.932   4.554 -1.3556  0.2580  2.0968
 6757SOL     OW21711   0.917   6.925   4.377 -0.3760 -0.3694  0.2269
 6757SOL    HW121712   0.995   6.881   4.342 -1.2188 -0.0904 -2.1779
 6757SOL    HW221713   0.909   7.004   4.324 -1.7364  0.1128  1.1183
 6758SOL     OW21714   2.844   6.924   5.304  0.2017  0.0314 -0.3616
 6758SOL    HW121715   2.857   6.997   5.243 -1.8987  0.6812 -0.1281
 6758SOL    HW221716   2.925   6.919   5.354  0.8547  1.3944 -1.2337
 6759SOL     OW21717   4.934   0.801   5.201  0.1668  0.4259  0.0295
 6759SOL    HW121718   5.009   0.761   5.156 -0.3833  1.0569 -1.5213
 6759SOL    HW221719   4.858   0.751   5.169 -0.1716  0.3569  0.9151
 6760SOL     OW21720   1.766   7.431   3.336  0.3258  0.0114  0.4527
 6760SOL    HW121721   1.732   7.344   3.321  0.7726  0.0865 -1.2296
 6760SOL    HW221722   1.710   7.489   3.284  2.7077  0.1506 -2.2606
 6761SOL     OW21723   2.984   0.670   3.777 -0.2070  0.0694 -0.2207
 6761SOL    HW121724   2.965   0.583   3.812  2.0025 -0.9464 -1.3478
 6761SOL    HW221725   3.076   0.665   3.750 -0.9531  1.6624 -3.4865
 6762SOL     OW21726   1.403   7.922   7.220  0.0926  0.2542 -0.3701
 6762SOL    HW121727   1.470   7.857   7.197  1.3413  1.6738 -0.8960
 6762SOL    HW221728   1.425   7.948   7.309 -1.1691 -0.9206  0.3154
 6763SOL     OW21729   4.084   0.154   4.124  0.0184  0.1785  0.0763
 6763SOL    HW121730   4.007   0.210   4.129 -0.2201 -0.0746 -0.5477
 6763SOL    HW221731   4.107   0.153   4.031  0.6540  0.0881  0.2279
 6764SOL     OW21732   1.734   1.350   7.268  0.0837  0.5539  0.0654
 6764SOL    HW121733   1.749   1.276   7.209  0.6908  1.3337 -0.7866
 6764SOL    HW221734   1.791   1.333   7.343 -0.5385 -0.3394  0.3550
 6765SOL     OW21735   2.261   7.733   4.943  0.4925  0.4192 -0.4684
 6765SOL    HW121736   2.249   7.753   5.035  0.7465  1.1892 -0.5937
 6765SOL    HW221737   2.213   7.801   4.896 -0.6515 -0.6582 -0.9123
 6766SOL     OW21738   3.284   1.237   4.698 -0.3603  0.3289  0.1736
 6766SOL    HW121739   3.333   1.283   4.630  2.5365 -1.4022  0.9106
 6766SOL    HW221740   3.316   1.274   4.780 -1.0411 -0.1683  0.6795
 6767SOL     OW21741   6.302   6.766   5.943  0.3917 -0.2416  0.0396
 6767SOL    HW121742   6.222   6.803   5.978  0.0161 -1.2516  0.3044
 6767SOL    HW221743   6.324   6.695   6.004  1.2684 -0.2279 -0.2402
 6768SOL     OW21744   1.375   7.131   3.769 -0.9378 -0.6501 -0.4249
 6768SOL    HW121745   1.393   7.208   3.824 -3.3694  0.1807 -0.6735
 6768SOL    HW221746   1.392   7.161   3.680  0.8064 -1.3099 -0.3550
 6769SOL     OW21747   4.818   2.708   4.748 -0.0913 -0.1824 -0.1320
 6769SOL    HW121748   4.760   2.734   4.820  0.7089 -1.0511  0.8501
 6769SOL    HW221749   4.884   2.777   4.745  0.0485 -0.3010  0.1743
 6770SOL     OW21750   2.449   1.704   4.591  0.2381  0.0187  0.0323
 6770SOL    HW121751   2.473   1.627   4.643  0.6514  0.3122  0.2843
 6770SOL    HW221752   2.528   1.725   4.541 -0.4266 -0.7950 -1.4116
 6771SOL     OW21753   2.405   1.048   4.539 -0.2939  0.5084  0.4170
 6771SOL    HW121754   2.466   1.040   4.612  0.7611 -0.5652 -0.5264
 6771SOL    HW221755   2.327   1.001   4.567 -0.5199  1.4489  1.4413
 6772SOL     OW21756   4.328   7.845   4.701 -0.2461 -0.2720 -0.0403
 6772SOL    HW121757   4.233   7.853   4.701 -0.1482  1.9177 -1.7191
 6772SOL    HW221758   4.344   7.753   4.680 -1.9909 -0.6642  0.2253
 6773SOL     OW21759   5.027   2.678   2.942 -0.2058 -0.2841  0.3234
 6773SOL    HW121760   5.025   2.772   2.958  0.2623 -0.3618  0.8794
 6773SOL    HW221761   5.050   2.640   3.027 -2.3133 -1.0361  0.6082
 6774SOL     OW21762   3.114   1.278   4.353 -0.2545 -0.0334 -0.0932
 6774SOL    HW121763   3.085   1.194   4.388 -0.0353 -1.1493 -2.3686
 6774SOL    HW221764   3.210   1.271   4.353 -0.2056  0.5621  0.4433
 6775SOL     OW21765   2.353   3.016   6.861  0.3639  0.3841 -0.4240
 6775SOL    HW121766   2.417   2.962   6.815  0.5831  0.3655 -0.0992
 6775SOL    HW221767   2.318   3.074   6.793 -1.7529 -1.8272 -1.3947
 6776SOL     OW21768   0.479   7.023   3.195 -0.2503  0.0942 -0.2726
 6776SOL    HW121769   0.509   7.026   3.286  1.4207  0.5502 -0.7983
 6776SOL    HW221770   0.386   7.002   3.201  0.5059 -3.7572  1.4611
 6777SOL     OW21771   2.407   1.374   4.106  0.5196 -0.5790 -0.3423
 6777SOL    HW121772   2.314   1.369   4.131 -0.1963 -0.2024 -2.6772
 6777SOL    HW221773   2.445   1.436   4.168 -0.7937 -0.6894  0.6187
 6778SOL     OW21774   1.954   0.844   4.725  0.1061 -0.1588  0.2786
 6778SOL    HW121775   1.963   0.749   4.716 -1.0021 -0.3704  1.1109
 6778SOL    HW221776   1.950   0.859   4.819  0.4805  0.7418  0.1611
 6779SOL     OW21777   2.918   2.913   3.509 -0.6412 -0.9558 -0.3644
 6779SOL    HW121778   2.986   2.981   3.513 -1.2190  0.1822 -4.7361
 6779SOL    HW221779   2.875   2.917   3.594  2.6763  0.4583  1.4394
 6780SOL     OW21780   3.903   7.451   4.046 -0.4225 -0.5778 -0.1124
 6780SOL    HW121781   3.942   7.449   4.133 -1.4192 -0.0680  0.3591
 6780SOL    HW221782   3.819   7.496   4.058 -0.4362 -0.2247 -1.3875
 6781SOL     OW21783   2.840   7.169   5.670 -0.6446  0.1044  0.0930
 6781SOL    HW121784   2.908   7.236   5.674 -1.0671  0.4869  1.3088
 6781SOL    HW221785   2.883   7.089   5.703 -0.2890 -0.1192 -0.8689
 6782SOL     OW21786   2.429   1.827   4.088  0.3618 -0.4439  0.3366
 6782SOL    HW121787   2.457   1.805   4.000 -0.7670 -1.7785  0.2720
 6782SOL    HW221788   2.443   1.747   4.139 -0.8080 -0.3299  0.8902
 6783SOL     OW21789   1.941   2.201   5.382  0.2788 -0.2543 -0.3788
 6783SOL    HW121790   1.876   2.204   5.453  1.0590  0.7404  0.3340
 6783SOL    HW221791   1.917   2.274   5.325  0.6693  0.0359 -0.1816
 6784SOL     OW21792   1.871   7.649   1.638 -0.1554  0.0523 -0.1947
 6784SOL    HW121793   1.954   7.634   1.594 -0.2182  1.1046 -0.7094
 6784SOL    HW221794   1.805   7.627   1.573 -0.3217 -1.7891  0.5518
 6785SOL     OW21795   2.497   1.587   4.237  0.6355  0.0508  0.1030
 6785SOL    HW121796   2.549   1.587   4.317  0.9608  3.0361  0.0144
 6785SOL    HW221797   2.558   1.615   4.169 -0.1018 -0.5332 -0.8128
 6786SOL     OW21798   4.515   2.080   3.100 -0.0959 -0.1608 -0.2525
 6786SOL    HW121799   4.550   2.159   3.059  1.9434 -1.9738 -2.3527
 6786SOL    HW221800   4.560   2.074   3.184  0.7376  0.2793 -0.6461
 6787SOL     OW21801   3.889   1.928   4.609  0.5281  0.5084 -0.3231
 6787SOL    HW121802   3.899   1.990   4.682  0.3066  0.8420 -0.5724
 6787SOL    HW221803   3.895   1.982   4.530  0.6123  0.1712 -0.5491
 6788SOL     OW21804   1.779   2.211   4.360  0.1633  0.3047 -0.0555
 6788SOL    HW121805   1.740   2.144   4.416  1.8985 -0.7232 -0.0034
 6788SOL    HW221806   1.768   2.292   4.408 -1.3199 -0.0277  0.2239
 6789SOL     OW21807   1.890   5.283   4.055  0.0533 -0.1593  0.1549
 6789SOL    HW121808   1.923   5.373   4.053 -0.0854 -0.1204 -0.6267
 6789SOL    HW221809   1.940   5.238   3.986 -0.7353 -0.3772 -0.2807
 6790SOL     OW21810   2.138   0.960   4.954 -0.1508 -0.3878  0.3677
 6790SOL    HW121811   2.075   1.030   4.969 -0.0248 -0.6884  2.7353
 6790SOL    HW221812   2.223   1.003   4.961 -0.0573 -0.2655 -1.2463
 6791SOL     OW21813   2.800   0.591   4.461 -0.6817 -0.3331 -0.8541
 6791SOL    HW121814   2.803   0.635   4.376 -0.6814 -1.6620 -1.5641
 6791SOL    HW221815   2.724   0.533   4.456 -1.8979  1.0080  0.8120
 6792SOL     OW21816   2.298   5.848   3.461  0.1740 -0.2336 -0.4957
 6792SOL    HW121817   2.338   5.932   3.487  1.0390 -0.5257 -0.8247
 6792SOL    HW221818   2.228   5.834   3.524  0.7677  0.1813  0.2747
 6793SOL     OW21819   2.292   0.658   6.792  0.5016  0.7665  0.4605
 6793SOL    HW121820   2.217   0.715   6.773  0.9730  1.8099  1.6468
 6793SOL    HW221821   2.341   0.655   6.710 -0.6264  0.3475 -0.2292
 6794SOL     OW21822   3.584   0.182   3.529  0.0492  1.0293 -0.1177
 6794SOL    HW121823   3.648   0.244   3.564 -0.0430  1.5847 -0.9165
 6794SOL    HW221824   3.613   0.097   3.562 -0.7088  1.6363  2.2985
 6795SOL     OW21825   2.459   6.576   4.631 -0.8451 -0.1941 -0.4116
 6795SOL    HW121826   2.542   6.532   4.612  0.2699  1.8824 -0.6793
 6795SOL    HW221827   2.401   6.551   4.559  0.5473  0.7029 -1.9241
 6796SOL     OW21828   3.823   7.191   2.849 -0.2840 -0.2598 -0.7434
 6796SOL    HW121829   3.815   7.277   2.890 -0.9879 -0.9389  0.6081
 6796SOL    HW221830   3.758   7.137   2.894 -0.6544 -1.2146 -2.3559
 6797SOL     OW21831   1.108   7.132   4.482 -0.2730  0.2061  0.1269
 6797SOL    HW121832   1.136   7.041   4.475  0.7872  0.4335  1.0818
 6797SOL    HW221833   1.140   7.173   4.402  1.1431  0.1935  0.6641
 6798SOL     OW21834   2.332   0.755   4.014  0.0864  0.0272 -0.1749
 6798SOL    HW121835   2.246   0.718   3.995 -1.3448  2.1348  1.6866
 6798SOL    HW221836   2.322   0.849   3.999  1.9519  0.3735  0.4356
 6799SOL     OW21837   3.955   7.768   4.324  0.5320  0.0751  0.4361
 6799SOL    HW121838   3.912   7.810   4.399 -1.1193 -0.3153 -0.2325
 6799SOL    HW221839   4.048   7.767   4.347  0.4249  2.4513  1.2413
 6800SOL     OW21840   4.068   2.339   4.851 -0.2368 -0.0703 -0.1192
 6800SOL    HW121841   3.982   2.361   4.814  0.5029  3.5674 -0.0705
 6800SOL    HW221842   4.079   2.401   4.923  2.0939 -1.0543  0.4490
 6801SOL     OW21843   2.616   7.537   5.477 -0.4330  0.7424 -0.0263
 6801SOL    HW121844   2.532   7.517   5.519 -0.0478  1.1891  0.9860
 6801SOL    HW221845   2.646   7.454   5.442  0.0235 -0.0448  2.0564
 6802SOL     OW21846   2.291   0.181   4.731 -0.3378 -0.0227 -0.3500
 6802SOL    HW121847   2.268   0.216   4.645 -0.0033  0.9934 -0.0337
 6802SOL    HW221848   2.386   0.188   4.735 -0.3509 -0.0943  0.0963
 6803SOL     OW21849   2.489   1.470   4.705  0.0600  0.4040 -0.7417
 6803SOL    HW121850   2.469   1.424   4.623 -1.2770  1.4004 -1.0103
 6803SOL    HW221851   2.442   1.420   4.772  1.9980 -1.0335 -0.3691
 6804SOL     OW21852   3.450   1.063   4.454  0.5429 -0.2052  0.2040
 6804SOL    HW121853   3.435   1.154   4.427 -3.0834 -0.5727  0.4101
 6804SOL    HW221854   3.509   1.070   4.529  0.7369  1.9253 -0.0733
 6805SOL     OW21855   3.064   7.173   4.567 -0.9899 -0.0489  0.0023
 6805SOL    HW121856   3.061   7.148   4.474 -2.0086  0.4413 -0.1166
 6805SOL    HW221857   3.149   7.216   4.578  0.6145 -2.9712  0.0963
 6806SOL     OW21858   3.601   7.587   6.135  0.1309  0.2421 -0.2165
 6806SOL    HW121859   3.689   7.554   6.152  0.7143 -0.0359 -3.2665
 6806SOL    HW221860   3.572   7.540   6.057 -1.6482  2.2639 -0.8640
 6807SOL     OW21861   5.397   1.093   4.650  0.4583  0.2448 -0.2760
 6807SOL    HW121862   5.334   1.165   4.647  0.4635  0.2637  0.0114
 6807SOL    HW221863   5.438   1.101   4.736  0.0143 -0.4822  0.0118
 6808SOL     OW21864   5.341   0.698   4.112  0.2100  0.5010 -0.6231
 6808SOL    HW121865   5.379   0.779   4.146  1.4958 -1.2780  2.5888
 6808SOL    HW221866   5.417   0.646   4.083 -0.3861 -0.4165 -0.5820
 6809SOL     OW21867   1.755   1.240   4.437 -0.1854  0.8856 -0.5960
 6809SOL    HW121868   1.748   1.227   4.532  0.5190  2.1822 -0.3532
 6809SOL    HW221869   1.723   1.157   4.400 -2.2286  1.0028  0.7060
 6810SOL     OW21870   2.876   1.343   3.807  0.4559 -0.6094  0.0032
 6810SOL    HW121871   2.900   1.419   3.860  1.5679 -1.3664  0.6181
 6810SOL    HW221872   2.780   1.337   3.815  0.3890  0.5438  0.1781
 6811SOL     OW21873   2.873   1.362   3.528  0.1534  0.2319  0.3285
 6811SOL    HW121874   2.886   1.328   3.617  0.2432  0.5417  0.4349
 6811SOL    HW221875   2.961   1.365   3.491  0.1017 -0.0190  0.1823
 6812SOL     OW21876   3.222   1.763   3.498  0.0498  0.3286 -0.0619
 6812SOL    HW121877   3.148   1.789   3.443 -1.7198 -0.6870  1.6987
 6812SOL    HW221878   3.297   1.762   3.438 -1.2032  1.9565 -1.8016
 6813SOL     OW21879   2.673   7.607   4.688  0.3729  0.0596 -0.4419
 6813SOL    HW121880   2.652   7.641   4.775 -0.9704  0.4216 -0.8875
 6813SOL    HW221881   2.651   7.678   4.628 -1.8735 -1.2624 -1.3425
 6814SOL     OW21882   1.180   0.218   4.486 -0.3432 -0.4968 -0.3427
 6814SOL    HW121883   1.140   0.168   4.415 -0.6574  0.3690 -0.7880
 6814SOL    HW221884   1.234   0.284   4.441 -1.3571  0.7329  0.1778
 6815SOL     OW21885   3.688   0.099   4.354  0.5803 -0.1691  0.4862
 6815SOL    HW121886   3.702   0.100   4.259  1.0597 -0.8300  0.5483
 6815SOL    HW221887   3.731   0.179   4.385 -0.7690  0.7893 -0.0010
 6816SOL     OW21888   3.596   1.503   4.086 -0.1621 -0.0678  0.8378
 6816SOL    HW121889   3.667   1.505   4.022 -1.3927 -0.3797 -0.6231
 6816SOL    HW221890   3.637   1.524   4.169  1.1617  2.7472 -0.3809
 6817SOL     OW21891   3.433   7.139   5.127 -0.2329 -0.1645 -0.3216
 6817SOL    HW121892   3.390   7.214   5.169  2.6087  2.0877 -1.0793
 6817SOL    HW221893   3.509   7.122   5.183  0.2889 -1.1176 -1.2995
 6818SOL     OW21894   1.793   1.250   5.290  0.1835  0.1304  0.0670
 6818SOL    HW121895   1.750   1.336   5.293 -0.5513 -0.2565  1.5578
 6818SOL    HW221896   1.883   1.268   5.319 -0.2353  0.2886  1.3700
 6819SOL     OW21897   3.129   0.133   3.939  0.5851  0.0256  0.1430
 6819SOL    HW121898   3.151   0.040   3.937 -0.8873 -0.3641  0.5378
 6819SOL    HW221899   3.033   0.134   3.941  0.5734  1.5685 -0.4134
 6820SOL     OW21900   2.555   0.606   4.219  0.2873  0.7989  0.2766
 6820SOL    HW121901   2.526   0.685   4.265 -2.1615 -0.3807  0.8951
 6820SOL    HW221902   2.558   0.538   4.286 -0.2441 -0.2362 -0.7168
 6821SOL     OW21903   1.213   2.130   7.156  0.5475  0.6171 -0.2824
 6821SOL    HW121904   1.184   2.092   7.239 -2.6327  0.5477 -1.2726
 6821SOL    HW221905   1.283   2.191   7.180  2.0808 -1.8141  1.9805
 6822SOL     OW21906   3.662   0.038   6.119  0.2301  0.2300 -0.0100
 6822SOL    HW121907   3.725  -0.034   6.114 -0.0320 -0.0749  0.7981
 6822SOL    HW221908   3.645   0.048   6.213 -0.9405  0.2861 -0.2165
 6823SOL     OW21909   2.139   6.677   5.658  0.2417  0.4251  0.6603
 6823SOL    HW121910   2.074   6.747   5.650 -0.4700 -0.2321  0.5749
 6823SOL    HW221911   2.208   6.714   5.713  0.6224  1.7264 -0.6210
 6824SOL     OW21912   3.969   7.722   6.452 -0.1662  0.0892 -0.5213
 6824SOL    HW121913   3.879   7.749   6.431 -0.7114 -1.5794 -0.4851
 6824SOL    HW221914   3.960   7.631   6.482  1.6807 -0.4971 -1.6232
 6825SOL     OW21915   1.285   3.231   6.597 -0.5764 -0.1951 -0.1658
 6825SOL    HW121916   1.284   3.156   6.656 -0.3337  1.0562  1.5154
 6825SOL    HW221917   1.200   3.273   6.610  0.3157  1.3472  1.0605
 6826SOL     OW21918   2.909   7.726   3.374  0.3418 -0.0904  0.2529
 6826SOL    HW121919   2.932   7.819   3.378  0.2962 -0.0379 -0.6316
 6826SOL    HW221920   2.988   7.683   3.344  1.0376 -0.6274  2.6182
 6827SOL     OW21921   3.248   7.894   3.998  0.0312 -0.0241  0.2856
 6827SOL    HW121922   3.253   7.803   3.968  2.2754 -0.3603  1.4531
 6827SOL    HW221923   3.246   7.889   4.093 -1.7367  1.1392  0.3546
 6828SOL     OW21924   3.773   6.557   4.146 -0.0110 -0.5472  0.4518
 6828SOL    HW121925   3.762   6.475   4.098  0.6496 -0.5183  0.2432
 6828SOL    HW221926   3.846   6.601   4.103 -0.6372  0.3562  0.2947
 6829SOL     OW21927   2.937   6.263   5.462 -0.0104 -0.0009 -0.0469
 6829SOL    HW121928   2.950   6.178   5.420 -0.4764 -0.7558  1.2537
 6829SOL    HW221929   2.954   6.246   5.555 -1.5758  0.9833  0.4489
 6830SOL     OW21930   2.925   3.529   5.528 -0.7256 -0.2586 -0.0509
 6830SOL    HW121931   3.005   3.563   5.570  0.8625 -0.4168 -2.6927
 6830SOL    HW221932   2.926   3.436   5.547  0.2642 -0.4183 -0.7946
 6831SOL     OW21933   0.639   2.769   8.193  0.2128  0.3048 -0.3238
 6831SOL    HW121934   0.658   2.760   8.099 -0.1767  0.9232 -0.4700
 6831SOL    HW221935   0.547   2.792   8.197  0.4185  1.0971  0.1564
 6832SOL     OW21936   2.168   6.978   7.797  0.2732  0.2651  0.1105
 6832SOL    HW121937   2.261   6.964   7.816  0.1897 -0.7467 -0.1907
 6832SOL    HW221938   2.168   7.049   7.732  0.8731 -0.1368 -0.3407
 6833SOL     OW21939   1.914   0.543   6.331 -0.1391 -0.4213 -0.1272
 6833SOL    HW121940   1.925   0.515   6.422  1.3481 -0.6008 -0.3220
 6833SOL    HW221941   1.867   0.471   6.289 -1.9970  0.2343  0.7593
 6834SOL     OW21942   2.577   0.650   6.750  0.3465 -0.4037  0.6316
 6834SOL    HW121943   2.556   0.731   6.797 -0.1699  0.4207 -0.9328
 6834SOL    HW221944   2.644   0.676   6.687 -1.7432 -0.4319 -1.8022
 6835SOL     OW21945   3.125   3.318   7.674  0.0989 -0.2305 -0.3058
 6835SOL    HW121946   3.063   3.386   7.703  0.2431  0.3275 -1.2766
 6835SOL    HW221947   3.209   3.346   7.709  0.5451  1.2131 -2.3627
 6836SOL     OW21948   2.355   7.915   5.805 -0.0081  0.5461 -0.2899
 6836SOL    HW121949   2.444   7.949   5.792 -0.0074  1.0624  0.9449
 6836SOL    HW221950   2.314   7.979   5.863 -0.7917 -0.3407  0.1491
 6837SOL     OW21951   3.556   0.840   5.644 -0.3182 -0.3280 -0.0375
 6837SOL    HW121952   3.588   0.927   5.620  1.0621 -0.9974 -0.7315
 6837SOL    HW221953   3.525   0.803   5.561 -0.8447 -0.5326  0.2483
 6838SOL     OW21954   2.676   0.863   7.868 -0.8712  0.0683 -0.5908
 6838SOL    HW121955   2.593   0.905   7.891 -0.7094  0.3060 -0.4324
 6838SOL    HW221956   2.654   0.805   7.796 -0.9226  1.1422 -1.4648
 6839SOL     OW21957   2.791   1.300   9.832  0.0608  0.9455 -0.9865
 6839SOL    HW121958   2.697   1.321   9.832 -0.3707 -0.7786 -2.0738
 6839SOL    HW221959   2.795   1.212   9.869  1.5452  1.8424  1.2695
 6840SOL     OW21960   4.730   7.688   7.521  0.0672 -0.2833  0.0010
 6840SOL    HW121961   4.711   7.693   7.427  1.2160 -1.7544 -0.3457
 6840SOL    HW221962   4.671   7.752   7.560 -0.3286  0.4812 -1.7333
 6841SOL     OW21963   3.263   1.228   7.627 -0.1973 -0.0948  0.0619
 6841SOL    HW121964   3.247   1.149   7.576 -2.5514  0.4350 -0.1153
 6841SOL    HW221965   3.295   1.196   7.711  1.0624 -1.0969 -0.7658
 6842SOL     OW21966   7.680   1.025   5.899  0.2308  0.1479 -0.0035
 6842SOL    HW121967   7.639   0.969   5.834  0.7056 -0.3355  0.1099
 6842SOL    HW221968   7.615   1.095   5.915 -1.3538 -1.5245  1.4567
 6843SOL     OW21969   2.568   3.305   5.783 -0.6549  0.8180 -0.1403
 6843SOL    HW121970   2.549   3.218   5.817  4.2153 -0.0698  1.0092
 6843SOL    HW221971   2.630   3.291   5.712  2.0917  3.2426  1.5373
 6844SOL     OW21972   2.677   7.557   7.252 -0.1325  0.1132  0.2445
 6844SOL    HW121973   2.632   7.607   7.320  0.6300  0.6997  0.3281
 6844SOL    HW221974   2.740   7.618   7.214  1.5742 -1.0532  1.0689
 6845SOL     OW21975   3.377   2.618   4.993 -0.8051  0.6277  0.7976
 6845SOL    HW121976   3.456   2.660   5.028 -1.0090  0.4163  1.5285
 6845SOL    HW221977   3.411   2.544   4.942 -0.4957  1.0545  0.3762
 6846SOL     OW21978   2.259   2.239   5.698 -0.2754 -0.4684 -0.0664
 6846SOL    HW121979   2.252   2.203   5.786  0.2748  2.4859  1.2979
 6846SOL    HW221980   2.291   2.328   5.710  0.8029 -0.2482 -3.3476
 6847SOL     OW21981   2.809   1.395   7.318  0.1859  0.4117 -0.4296
 6847SOL    HW121982   2.886   1.340   7.304 -1.3808 -1.7275 -1.2354
 6847SOL    HW221983   2.793   1.391   7.413  0.4605 -0.0236 -0.3999
 6848SOL     OW21984   2.308   0.540   8.174 -0.2290 -0.0106 -0.0485
 6848SOL    HW121985   2.308   0.593   8.254 -0.0593 -0.1906  0.0717
 6848SOL    HW221986   2.359   0.592   8.111  0.0799 -0.1027  0.1200
 6849SOL     OW21987   3.590   1.622   4.380  0.4115 -0.1638  0.9676
 6849SOL    HW121988   3.626   1.633   4.469  2.4585 -0.2705  0.2137
 6849SOL    HW221989   3.631   1.692   4.329 -1.2424  0.2989  0.2027
 6850SOL     OW21990   2.232   0.990   7.117  0.2667 -0.2751  0.9542
 6850SOL    HW121991   2.203   1.079   7.099 -0.2661 -0.6288 -0.0667
 6850SOL    HW221992   2.325   0.997   7.135  0.2581  0.4684  0.7137
 6851SOL     OW21993   3.316   1.439   4.083  0.6371 -0.1406 -0.2801
 6851SOL    HW121994   3.405   1.473   4.072  0.1371  0.7682 -1.8217
 6851SOL    HW221995   3.266   1.514   4.116  0.2897 -0.4377 -0.1263
 6852SOL     OW21996   3.353   0.066   5.566  0.1257  0.1014 -0.5355
 6852SOL    HW121997   3.444   0.062   5.595  0.5147  1.4728 -1.4210
 6852SOL    HW221998   3.307   0.110   5.637  0.6037  1.2983 -0.9239
 6853SOL     OW21999   2.262   0.273   8.115  0.4127  0.3672 -0.5286
 6853SOL    HW122000   2.344   0.278   8.065  1.5051  2.9232  1.3063
 6853SOL    HW222001   2.243   0.364   8.137 -3.0281 -0.1389 -0.9525
 6854SOL     OW22002   5.350   1.363   4.093  0.3782 -0.2194  0.7741
 6854SOL    HW122003   5.311   1.372   4.006  1.1847  2.9301  0.6160
 6854SOL    HW222004   5.442   1.344   4.076  0.4915  0.1807  0.9290
 6855SOL     OW22005   1.845   0.015   6.852 -0.0956 -0.0897 -0.3483
 6855SOL    HW122006   1.760   0.053   6.874  0.9139  1.6539  0.7636
 6855SOL    HW222007   1.831  -0.080   6.856 -2.0048  0.1617 -0.3308
 6856SOL     OW22008   3.200   2.738   5.906  0.1534 -0.0598  0.6030
 6856SOL    HW122009   3.104   2.738   5.905  0.1019 -1.4410 -2.0988
 6856SOL    HW222010   3.223   2.710   5.995 -1.9164  0.2108  1.2752
 6857SOL     OW22011   3.056   0.423   6.431  0.6051 -0.1711 -0.3756
 6857SOL    HW122012   3.033   0.512   6.459 -0.8650 -0.0422 -1.8372
 6857SOL    HW222013   3.057   0.427   6.335 -2.0503 -2.2426 -0.6358
 6858SOL     OW22014   2.622   1.496   8.965 -0.3381 -0.7945 -0.5713
 6858SOL    HW122015   2.547   1.552   8.987  0.0676 -0.2437 -0.5902
 6858SOL    HW222016   2.618   1.425   9.030 -1.4704 -1.3282 -1.2025
 6859SOL     OW22017   2.933   0.632   7.326  0.2015  0.4017 -0.2712
 6859SOL    HW122018   3.019   0.597   7.349 -0.5648 -0.7481  1.0324
 6859SOL    HW222019   2.949   0.723   7.303  1.5267  0.8039  1.9704
 6860SOL     OW22020   2.348   0.242   5.006  0.3098 -0.0055  0.2724
 6860SOL    HW122021   2.296   0.222   5.084  0.1224  0.1091  0.1781
 6860SOL    HW222022   2.291   0.218   4.933 -0.3397  1.8437  0.1302
 6861SOL     OW22023   1.664   6.313   4.597  0.1812  0.0446 -0.3967
 6861SOL    HW122024   1.754   6.289   4.575  0.3629  1.0378 -0.7977
 6861SOL    HW222025   1.644   6.386   4.538 -0.2195  1.0908  0.9748
 6862SOL     OW22026   1.320   7.527   9.777 -0.9206  0.0833  0.7328
 6862SOL    HW122027   1.408   7.553   9.749 -1.8724  2.1506 -0.6228
 6862SOL    HW222028   1.293   7.461   9.714 -0.4797 -0.3029  0.9437
 6863SOL     OW22029   3.254   2.554   5.245  0.6740 -0.2850 -0.0251
 6863SOL    HW122030   3.264   2.580   5.154  0.5143 -0.7093 -0.1661
 6863SOL    HW222031   3.226   2.463   5.241  1.3222 -0.5154  0.4580
 6864SOL     OW22032   1.615   0.480   8.100  0.0048 -0.2721 -0.2774
 6864SOL    HW122033   1.669   0.485   8.179 -0.7655 -1.0060  0.3156
 6864SOL    HW222034   1.644   0.400   8.056  1.1065  0.6399 -1.2707
 6865SOL     OW22035   2.246   2.172   7.651 -0.0570 -0.2118 -0.0096
 6865SOL    HW122036   2.338   2.149   7.635 -0.0960  0.1090 -0.7258
 6865SOL    HW222037   2.250   2.255   7.698 -0.0030  1.2645 -2.4902
 6866SOL     OW22038   3.949   1.267   4.278  0.3032 -0.0318 -0.3511
 6866SOL    HW122039   3.870   1.276   4.331  0.1139 -2.6838 -0.0944
 6866SOL    HW222040   4.012   1.327   4.318 -0.3904 -0.6755  1.8139
 6867SOL     OW22041   3.506   1.339   6.257 -0.3108 -0.0619  0.2184
 6867SOL    HW122042   3.598   1.311   6.261  0.2393  1.4186 -1.0679
 6867SOL    HW222043   3.510   1.435   6.262 -1.8414 -0.0015  0.7416
 6868SOL     OW22044   3.783   0.020   5.031 -0.2335  0.1965  0.5158
 6868SOL    HW122045   3.697   0.024   5.073 -0.1749  0.8931  0.5766
 6868SOL    HW222046   3.771  -0.040   4.957 -1.1942  1.4792 -0.4218
 6869SOL     OW22047   1.080   6.126   6.173 -0.4054 -0.6856  0.3736
 6869SOL    HW122048   1.005   6.078   6.138  0.2117 -0.8346 -0.7856
 6869SOL    HW222049   1.106   6.077   6.250 -0.9776 -1.1057  0.3077
 6870SOL     OW22050   3.001   1.236   4.108 -0.3060 -0.3731 -0.1095
 6870SOL    HW122051   3.085   1.281   4.118  0.0062 -0.5142 -1.8232
 6870SOL    HW222052   3.001   1.169   4.176  0.7923 -0.1244  0.1501
 6871SOL     OW22053   2.887   7.232   7.859  0.2411  0.6955 -0.4334
 6871SOL    HW122054   2.822   7.202   7.924  1.3160  0.1066  0.3962
 6871SOL    HW222055   2.834   7.254   7.782 -0.7763 -2.1027 -0.6673
 6872SOL     OW22056   2.867   0.751   5.315  0.0632 -0.1455 -0.4618
 6872SOL    HW122057   2.945   0.801   5.292  0.1180 -0.5714 -1.2361
 6872SOL    HW222058   2.899   0.685   5.376 -0.1420  1.1903  1.1533
 6873SOL     OW22059   3.166   0.567   5.751  0.4811 -0.1798 -0.6922
 6873SOL    HW122060   3.242   0.522   5.789  0.2942  0.8210  0.9523
 6873SOL    HW222061   3.198   0.655   5.731 -0.0548  0.0294 -0.6395
 6874SOL     OW22062   2.054   1.244   6.982 -0.1987 -0.2987 -0.5053
 6874SOL    HW122063   1.969   1.243   6.938 -1.3001 -0.9173  1.4961
 6874SOL    HW222064   2.116   1.216   6.915 -1.5954 -0.1186 -1.9449
 6875SOL     OW22065   3.177   7.947   5.091 -0.0639  0.4506  0.2679
 6875SOL    HW122066   3.198   7.986   5.006  0.1166  0.3981  0.2884
 6875SOL    HW222067   3.216   8.007   5.155  1.8579 -0.7335  0.2572
 6876SOL     OW22068   2.670   1.127   8.370  0.5677  0.1708 -0.0689
 6876SOL    HW122069   2.651   1.211   8.410  1.6863  0.1896  0.4327
 6876SOL    HW222070   2.761   1.109   8.391  1.0430 -0.1095 -2.0900
 6877SOL     OW22071   1.700   2.090   7.117  0.4394  0.1271 -0.9350
 6877SOL    HW122072   1.763   2.017   7.107 -0.4156 -0.4580 -2.4642
 6877SOL    HW222073   1.720   2.148   7.043  1.9357  2.1588  0.9547
 6878SOL     OW22074   2.634   1.625   5.842  0.0155 -0.4373  0.1764
 6878SOL    HW122075   2.682   1.704   5.819 -0.1204 -0.0469  1.1670
 6878SOL    HW222076   2.547   1.638   5.805 -1.0302  1.3558  2.9445
 6879SOL     OW22077   3.068   7.861   7.307 -0.0699  0.4356  0.2510
 6879SOL    HW122078   3.011   7.819   7.242  0.3055  0.0461  0.1659
 6879SOL    HW222079   3.070   7.800   7.380  1.8974 -0.5900 -0.5812
 6880SOL     OW22080   2.448   7.889   7.776  0.5541  0.1961  0.0922
 6880SOL    HW122081   2.423   7.938   7.698  0.2889 -0.2013 -0.0726
 6880SOL    HW222082   2.524   7.838   7.750 -0.5264 -1.2092 -0.3976
 6881SOL     OW22083   1.817   0.194   7.355 -0.3809 -0.2087 -0.2976
 6881SOL    HW122084   1.764   0.241   7.420 -0.5745 -1.6763  0.6548
 6881SOL    HW222085   1.761   0.191   7.277  0.2917  2.5757 -1.0180
 6882SOL     OW22086   2.784   2.465   7.442 -0.1404 -0.3864 -0.4735
 6882SOL    HW122087   2.780   2.392   7.503  1.4550  0.7612  1.0915
 6882SOL    HW222088   2.815   2.539   7.494 -0.0166  0.9989 -2.3862
 6883SOL     OW22089   3.373   1.123   7.875  0.2432 -0.2743 -0.1448
 6883SOL    HW122090   3.446   1.066   7.853  0.4404  0.0098 -0.2393
 6883SOL    HW222091   3.328   1.079   7.947  0.2565 -0.6589 -0.3734
 6884SOL     OW22092   3.744   7.023   6.285  0.6758 -0.1974 -0.1804
 6884SOL    HW122093   3.673   7.080   6.313 -0.0792 -0.2042 -1.9351
 6884SOL    HW222094   3.760   6.965   6.359  0.0208  0.9016  0.8545
 6885SOL     OW22095   2.343   0.880   6.239  0.2213 -0.0101  0.5097
 6885SOL    HW122096   2.426   0.925   6.250  1.0592 -0.9379 -1.4987
 6885SOL    HW222097   2.325   0.840   6.324  1.5956  0.5933  1.1009
 6886SOL     OW22098   1.750   2.318   6.374  0.1080 -0.0517  0.3601
 6886SOL    HW122099   1.844   2.308   6.360  0.3011  1.7502  0.1254
 6886SOL    HW222100   1.743   2.361   6.459 -0.6035 -1.5440  1.0924
 6887SOL     OW22101   3.013   1.283   4.722  0.0645  0.2731  0.1285
 6887SOL    HW122102   3.017   1.360   4.666 -1.5383 -0.4114 -1.0022
 6887SOL    HW222103   3.092   1.233   4.700 -1.0533 -0.5225 -2.4166
 6888SOL     OW22104   2.394   2.695   7.799  0.2183  0.3449  0.2870
 6888SOL    HW122105   2.432   2.631   7.859 -0.6858  0.0093  0.5174
 6888SOL    HW222106   2.361   2.765   7.855  0.9872  0.9123  0.0501
 6889SOL     OW22107   3.449   1.242   5.727 -0.0545 -0.1236 -0.1085
 6889SOL    HW122108   3.359   1.212   5.713  0.7274 -2.6993 -0.1919
 6889SOL    HW222109   3.445   1.290   5.809 -1.3542 -1.0814  0.4400
 6890SOL     OW22110   3.332   0.946   5.985 -0.6597  0.2414 -0.6620
 6890SOL    HW122111   3.314   1.014   6.051 -0.7649 -1.3304  1.0159
 6890SOL    HW222112   3.251   0.941   5.934 -0.7207  1.2283 -0.6879
 6891SOL     OW22113   4.441   1.691   4.632  0.1308  0.3590  0.3875
 6891SOL    HW122114   4.416   1.626   4.567  0.3820  1.1248 -0.4875
 6891SOL    HW222115   4.365   1.749   4.639 -0.1348 -0.0774  1.2461
 6892SOL     OW22116   3.249   1.460   2.813  0.0814  0.2406  0.2693
 6892SOL    HW122117   3.288   1.421   2.734 -1.0624  0.7827 -0.5890
 6892SOL    HW222118   3.312   1.528   2.839  0.3380  0.2457 -0.3434
 6893SOL     OW22119   2.889   7.968   6.695 -0.8343 -0.0388 -0.2924
 6893SOL    HW122120   2.822   8.032   6.716 -1.3941 -1.1560  1.5455
 6893SOL    HW222121   2.965   8.020   6.670 -1.5707  1.3019  0.1639
 6894SOL     OW22122   3.677   0.774   6.190 -0.3524  0.0783  0.5401
 6894SOL    HW122123   3.711   0.783   6.101  1.5992  1.7064  1.3670
 6894SOL    HW222124   3.613   0.844   6.198  0.1511  0.5291  0.6859
 6895SOL     OW22125   2.822   0.610   7.851 -0.0287  0.5703  0.2408
 6895SOL    HW122126   2.904   0.659   7.857  0.2247  0.1805 -0.0628
 6895SOL    HW222127   2.791   0.626   7.762  1.7178 -2.4379 -1.0453
 6896SOL     OW22128   2.098   0.198   7.836 -0.2061  0.5609  0.0841
 6896SOL    HW122129   2.169   0.262   7.829  2.1235 -1.2355  4.2234
 6896SOL    HW222130   2.113   0.137   7.763  2.2432  0.5233  0.5568
 6897SOL     OW22131   4.535   0.512   6.587  0.3998  0.2781 -0.3391
 6897SOL    HW122132   4.536   0.550   6.675 -1.7956 -1.0510  0.3326
 6897SOL    HW222133   4.592   0.436   6.594  0.0171  0.0203  0.0168
 6898SOL     OW22134   0.837   0.044   5.616 -0.4309  0.4066  0.0154
 6898SOL    HW122135   0.873  -0.034   5.571 -0.8671  0.0985  0.1938
 6898SOL    HW222136   0.821   0.106   5.545 -2.0156 -0.4253 -0.4035
 6899SOL     OW22137   3.690   1.884   7.204 -0.2057  0.1239 -0.0929
 6899SOL    HW122138   3.749   1.809   7.199 -0.2618  0.1432 -1.3615
 6899SOL    HW222139   3.705   1.921   7.291 -0.1879 -1.3514  0.5637
 6900SOL     OW22140   2.412   1.430   6.624 -0.9201  0.0916  0.1718
 6900SOL    HW122141   2.367   1.492   6.681 -0.6048  0.1607  0.3434
 6900SOL    HW222142   2.359   1.350   6.631 -1.4745  0.4116 -0.2538
 6901SOL     OW22143   3.442   2.828   6.378  0.2823  0.8757 -0.1099
 6901SOL    HW122144   3.503   2.851   6.448 -0.0238 -0.7704  0.7461
 6901SOL    HW222145   3.358   2.816   6.423  0.2341 -0.8949 -0.6060
 6902SOL     OW22146   2.370   1.205   6.184  0.3962  0.1674  0.1168
 6902SOL    HW122147   2.374   1.168   6.096  1.6363  0.5976 -0.0248
 6902SOL    HW222148   2.362   1.129   6.242 -2.0257 -0.0672 -0.4004
 6903SOL     OW22149   2.627   5.500   6.730  0.1963 -0.2186  0.5557
 6903SOL    HW122150   2.686   5.546   6.669  1.6591 -1.5846  0.8818
 6903SOL    HW222151   2.586   5.432   6.676 -1.6151  1.0966  0.1846
 6904SOL     OW22152   3.481   0.276   4.950 -0.4609 -0.2733  0.1398
 6904SOL    HW122153   3.573   0.260   4.928 -0.5823 -0.8564  0.0454
 6904SOL    HW222154   3.439   0.191   4.941 -0.4881 -0.6218  2.8492
 6905SOL     OW22155   4.756   0.141   5.535  0.3008 -0.0545  0.3431
 6905SOL    HW122156   4.812   0.080   5.487  1.6493  2.9651 -2.2915
 6905SOL    HW222157   4.811   0.174   5.606  0.7158  0.4816 -0.2248
 6906SOL     OW22158   1.752   0.031   6.595  0.5133  0.1944  0.4823
 6906SOL    HW122159   1.714  -0.055   6.574  1.1893  0.0241 -0.1146
 6906SOL    HW222160   1.751   0.036   6.690  1.1695 -0.8204  0.5613
 6907SOL     OW22161   4.633   1.086   4.813 -0.4459  0.2225 -0.0802
 6907SOL    HW122162   4.560   1.141   4.840 -2.1402 -0.9523 -1.9473
 6907SOL    HW222163   4.692   1.084   4.889 -2.7324  0.5581  1.8019
 6908SOL     OW22164   2.028   7.100   6.105 -0.3413  0.1499  0.0008
 6908SOL    HW122165   2.084   7.068   6.175 -1.3727  0.2483  0.8974
 6908SOL    HW222166   2.070   7.069   6.025  2.3728  2.3066  0.4294
 6909SOL     OW22167   0.979   1.876   6.895  0.5770 -0.1886 -0.0577
 6909SOL    HW122168   1.038   1.951   6.904  1.4127 -0.7178 -0.9163
 6909SOL    HW222169   0.931   1.872   6.978  1.6301  0.3647  0.5894
 6910SOL     OW22170   2.202   1.566   6.822 -0.5485 -0.1782 -0.2061
 6910SOL    HW122171   2.134   1.631   6.804 -2.7484 -2.6721 -1.5542
 6910SOL    HW222172   2.165   1.483   6.793  2.7238 -1.8713 -0.0435
 6911SOL     OW22173   2.928   2.701   7.581  0.2049 -0.4826 -0.0961
 6911SOL    HW122174   2.841   2.736   7.561  0.8448  0.6177 -1.1220
 6911SOL    HW222175   2.952   2.743   7.664  0.7959  1.2804 -1.1141
 6912SOL     OW22176   3.931   7.152   5.674 -0.2015 -0.0759 -0.2855
 6912SOL    HW122177   3.887   7.125   5.755 -0.5388 -0.4445 -0.5899
 6912SOL    HW222178   4.022   7.167   5.701 -0.4396  0.4210  0.2906
 6913SOL     OW22179   3.402   0.323   6.121 -0.6176 -0.0110 -0.3804
 6913SOL    HW122180   3.411   0.232   6.091  0.5660 -0.1965  0.4834
 6913SOL    HW222181   3.353   0.316   6.203 -0.0870  0.0721 -0.0518
 6914SOL     OW22182   2.891   0.782   5.982 -0.0530  0.1832 -0.9764
 6914SOL    HW122183   2.796   0.792   5.981  0.0059  1.1464 -3.1730
 6914SOL    HW222184   2.907   0.702   5.931  0.2721 -1.5436  1.6382
 6915SOL     OW22185   2.794   0.033   7.610 -0.0946  0.2994  0.2715
 6915SOL    HW122186   2.764   0.058   7.523 -2.5917 -0.3203  0.8905
 6915SOL    HW222187   2.793  -0.063   7.609 -0.4864  0.2936  1.0958
 6916SOL     OW22188   2.562   7.894   4.972 -0.0832  0.7491 -0.1306
 6916SOL    HW122189   2.469   7.905   4.987 -0.1830 -0.4293  0.1913
 6916SOL    HW222190   2.585   7.813   5.017  0.5485 -0.4322 -2.3873
 6917SOL     OW22191   3.351   7.383   6.367 -0.5480 -0.3996  0.3467
 6917SOL    HW122192   3.324   7.462   6.415  1.9196 -0.8551  2.7855
 6917SOL    HW222193   3.345   7.313   6.432  1.7223 -1.3141 -0.3377
 6918SOL     OW22194   2.674   0.433   5.034 -0.1037 -0.4117 -0.2074
 6918SOL    HW122195   2.687   0.342   5.061  0.9989 -0.0747  0.4682
 6918SOL    HW222196   2.717   0.440   4.948  1.7101 -0.0408  0.6828
 6919SOL     OW22197   3.650   2.366   5.344  0.4057 -0.2042 -0.8270
 6919SOL    HW122198   3.614   2.441   5.296  0.4926  0.8175  0.6391
 6919SOL    HW222199   3.597   2.292   5.315 -1.5215  0.8883 -0.3245
 6920SOL     OW22200   3.048   1.480   4.519  0.1827  0.2928 -0.3592
 6920SOL    HW122201   3.140   1.507   4.525  0.4163 -0.6934  0.7982
 6920SOL    HW222202   3.047   1.416   4.448  0.8295 -1.3037  1.0149
 6921SOL     OW22203   1.463   1.750   5.720 -0.2544  0.1720 -0.0494
 6921SOL    HW122204   1.557   1.736   5.717 -0.3797 -0.6737 -0.3564
 6921SOL    HW222205   1.452   1.836   5.761  0.6198 -0.0504  0.6801
 6922SOL     OW22206   3.905   7.521   4.655  0.2156  0.4165  0.2535
 6922SOL    HW122207   3.903   7.478   4.569 -1.0198  2.1665 -0.6465
 6922SOL    HW222208   3.815   7.550   4.669  0.3782  0.0708  2.2247
 6923SOL     OW22209   2.653   7.171   4.455  0.5584 -0.2409  0.1054
 6923SOL    HW122210   2.690   7.085   4.479  0.8107  0.1453  1.1762
 6923SOL    HW222211   2.647   7.218   4.539  0.0500  0.6448 -0.4177
 6924SOL     OW22212   3.468   0.627   6.716  0.0993  0.0777 -0.5831
 6924SOL    HW122213   3.419   0.601   6.638  0.1808  1.6187 -1.1911
 6924SOL    HW222214   3.546   0.572   6.714 -0.7224 -1.1367 -0.5980
 6925SOL     OW22215   2.069   7.693   7.141 -0.6726  0.3618 -0.2058
 6925SOL    HW122216   2.038   7.616   7.189 -0.6213  1.6828  2.1400
 6925SOL    HW222217   1.992   7.749   7.133 -0.3134  0.8628 -0.2152
 6926SOL     OW22218   3.056   2.874   6.301 -0.6601  0.0647  0.2055
 6926SOL    HW122219   3.060   2.865   6.206 -1.2540  0.5891  0.1233
 6926SOL    HW222220   3.005   2.799   6.331 -0.1497 -0.3074  0.1489
 6927SOL     OW22221   1.107   0.422   7.583 -0.0861 -0.0578 -0.3403
 6927SOL    HW122222   1.091   0.387   7.495 -0.4321  1.1323 -0.7605
 6927SOL    HW222223   1.039   0.381   7.637  0.0898 -0.7486 -0.6213
 6928SOL     OW22224   2.960   2.245   4.934  0.4930 -0.3015 -0.3358
 6928SOL    HW122225   3.056   2.243   4.940  0.5700 -1.3439 -1.5618
 6928SOL    HW222226   2.941   2.207   4.849 -0.9634  1.4139 -0.8314
 6929SOL     OW22227   3.465   0.146   7.451 -0.5296  0.1042 -0.0406
 6929SOL    HW122228   3.502   0.232   7.429 -0.2276  0.5929  2.1766
 6929SOL    HW222229   3.485   0.091   7.375  0.8517  1.5298 -0.7617
 6930SOL     OW22230   3.592   1.087   7.607 -0.4842  0.0868  0.0398
 6930SOL    HW122231   3.527   1.032   7.650 -0.8443  0.2594 -0.2782
 6930SOL    HW222232   3.568   1.085   7.514  0.7815 -0.9402 -0.2850
 6931SOL     OW22233   3.337   0.697   7.512 -0.6449  0.4439 -0.1953
 6931SOL    HW122234   3.296   0.614   7.534  0.6125 -0.2842 -0.4647
 6931SOL    HW222235   3.411   0.704   7.572  0.5235  0.3108 -1.5454
 6932SOL     OW22236   2.056   2.652   6.514  0.8348 -0.0227 -0.3335
 6932SOL    HW122237   2.060   2.674   6.421  1.3089  0.4415 -0.2082
 6932SOL    HW222238   2.026   2.733   6.556  0.6125 -0.2346 -0.0814
 6933SOL     OW22239   2.798   7.552   6.820 -0.8455 -0.2367 -0.0361
 6933SOL    HW122240   2.880   7.541   6.773 -0.8010  0.0370 -0.0252
 6933SOL    HW222241   2.769   7.463   6.841 -1.0775 -0.3777 -0.9344
 6934SOL     OW22242   2.802   0.572   7.104 -0.2196 -0.2926  0.0916
 6934SOL    HW122243   2.757   0.643   7.058  0.3184  0.8668  1.2711
 6934SOL    HW222244   2.806   0.602   7.195  0.3179 -1.7006  0.5566
 6935SOL     OW22245   2.075   1.382   6.687  0.1269  0.1519 -0.0595
 6935SOL    HW122246   2.014   1.316   6.654 -0.3815  0.3763  0.4259
 6935SOL    HW222247   2.049   1.463   6.642  0.1141  0.2346  0.0984
 6936SOL     OW22248   1.146   1.076   6.158 -0.0607 -0.3180 -0.4915
 6936SOL    HW122249   1.147   1.102   6.250 -0.5624  2.3782 -1.1769
 6936SOL    HW222250   1.229   1.029   6.146 -0.1946 -1.1429  1.3897
 6937SOL     OW22251   2.899   1.916   4.806 -0.1526  0.0204 -0.1569
 6937SOL    HW122252   2.963   1.974   4.766  0.2065 -0.7167 -0.6798
 6937SOL    HW222253   2.944   1.831   4.811 -0.4301 -0.0658  1.1944
 6938SOL     OW22254   3.380   2.052   5.615 -0.2900 -0.0180 -0.2695
 6938SOL    HW122255   3.353   2.120   5.554  0.8758  0.1754 -0.5878
 6938SOL    HW222256   3.420   1.985   5.560  1.4808  0.5079  0.3075
 6939SOL     OW22257   3.957   7.867   4.079  0.7862 -0.5379 -0.0722
 6939SOL    HW122258   3.943   7.837   4.169  1.0956  0.4838  0.3201
 6939SOL    HW222259   3.904   7.946   4.071  1.2916 -0.2403 -0.5770
 6940SOL     OW22260   3.011   0.869   8.913 -0.2571  0.5579  0.7112
 6940SOL    HW122261   2.933   0.835   8.958 -0.4832  1.3243  0.9170
 6940SOL    HW222262   3.084   0.842   8.969 -0.4514  0.6390  1.0102
 6941SOL     OW22263   2.252   3.175   7.456  0.4767 -0.2662 -0.0231
 6941SOL    HW122264   2.176   3.129   7.490  1.0573 -0.3398  1.2473
 6941SOL    HW222265   2.231   3.193   7.365 -1.0192 -0.3570  0.2810
 6942SOL     OW22266   2.016   2.215   6.376 -0.3643  0.3892 -0.1311
 6942SOL    HW122267   2.058   2.219   6.290 -1.2881  1.3640 -0.5504
 6942SOL    HW222268   2.088   2.219   6.439  0.3042 -0.1643 -0.8468
 6943SOL     OW22269   3.631   0.122   7.720 -0.2787 -1.0088  0.0655
 6943SOL    HW122270   3.579   0.194   7.756  0.0820 -1.0399  0.6667
 6943SOL    HW222271   3.580   0.090   7.645  0.8268  1.6060 -1.9410
 6944SOL     OW22272   2.565   0.638   8.339 -0.3774  0.2068  0.6285
 6944SOL    HW122273   2.618   0.699   8.287 -1.7119  0.4738 -0.4806
 6944SOL    HW222274   2.626   0.599   8.401  0.7325  1.8531  0.6114
 6945SOL     OW22275   0.916   0.432   7.141  0.1634  0.6519 -0.1874
 6945SOL    HW122276   0.982   0.484   7.095  1.8207 -2.5790 -1.7912
 6945SOL    HW222277   0.833   0.457   7.101  1.0004  1.3754 -1.5515
 6946SOL     OW22278   3.256   1.065   6.934 -0.1828 -0.2266 -0.2750
 6946SOL    HW122279   3.197   1.113   6.876  0.7606  1.7447  0.3039
 6946SOL    HW222280   3.285   0.990   6.883 -4.0460 -2.0111 -0.1872
 6947SOL     OW22281   3.137   7.334   7.281 -0.7180 -0.6690  0.5546
 6947SOL    HW122282   3.215   7.279   7.274 -0.9256 -1.0072  0.8591
 6947SOL    HW222283   3.094   7.325   7.196 -0.9224 -1.2440  0.7122
 6948SOL     OW22284   1.432   7.425   7.367  0.3835  0.3766  0.3209
 6948SOL    HW122285   1.450   7.406   7.459 -0.4103  0.6831  0.5467
 6948SOL    HW222286   1.426   7.339   7.325  0.1831  0.2223  0.6626
 6949SOL     OW22287   0.537   0.775   6.279 -0.0338 -0.1625 -0.1034
 6949SOL    HW122288   0.550   0.843   6.213 -1.5273  0.1678 -0.1010
 6949SOL    HW222289   0.466   0.721   6.244 -0.4737 -0.3068  0.9653
 6950SOL     OW22290   2.418   7.022   4.852 -0.1178 -0.6115 -0.0801
 6950SOL    HW122291   2.430   6.927   4.850  1.3337 -0.4392 -0.5543
 6950SOL    HW222292   2.497   7.057   4.811 -1.6640  0.7182 -2.1826
 6951SOL     OW22293   2.768   4.678   8.372 -0.0885 -0.2937 -0.0100
 6951SOL    HW122294   2.681   4.709   8.347 -0.6052 -1.3370  0.4554
 6951SOL    HW222295   2.799   4.630   8.296 -0.2484 -0.5943  0.1152
 6952SOL     OW22296   2.549   6.510   6.203  0.0952  0.0137 -0.1315
 6952SOL    HW122297   2.558   6.563   6.282 -0.2948 -0.4452  0.2248
 6952SOL    HW222298   2.639   6.498   6.173  0.6159 -2.5289  2.0621
 6953SOL     OW22299   2.573   6.997   6.419  0.3123  0.9674  0.0261
 6953SOL    HW122300   2.643   7.026   6.361  0.7621 -0.1595 -0.0275
 6953SOL    HW222301   2.606   7.012   6.507 -0.1605  2.1997  0.0024
 6954SOL     OW22302   3.306   1.078   5.462 -0.6527  0.0419 -0.5839
 6954SOL    HW122303   3.274   1.096   5.550  0.7797 -0.5737  0.0905
 6954SOL    HW222304   3.284   1.156   5.411 -1.1285  0.5682  0.4183
 6955SOL     OW22305   3.297   1.249   6.466 -0.3476  0.2907  0.0636
 6955SOL    HW122306   3.383   1.264   6.426 -0.2715  0.9625  0.4662
 6955SOL    HW222307   3.241   1.317   6.428  0.0538  1.8461  2.1023
 6956SOL     OW22308   2.622   2.967   7.177  0.2717  0.3524  0.1772
 6956SOL    HW122309   2.593   2.999   7.262 -0.6528  0.3900 -0.1387
 6956SOL    HW222310   2.566   3.012   7.114 -0.0150 -0.7341 -0.3629
 6957SOL     OW22311   3.212   2.676   8.069  0.1056 -0.2241 -0.3835
 6957SOL    HW122312   3.264   2.695   7.991 -0.5281  0.2602 -0.6970
 6957SOL    HW222313   3.259   2.605   8.112  1.6801  0.9684 -0.0442
 6958SOL     OW22314   1.881   0.516   5.146  0.5587 -0.3247 -0.0703
 6958SOL    HW122315   1.912   0.550   5.229 -0.8227  0.9495 -0.0332
 6958SOL    HW222316   1.918   0.575   5.080 -0.9170  0.6356 -0.0890
 6959SOL     OW22317   4.820   0.439   5.269 -0.5855  0.0740 -0.0024
 6959SOL    HW122318   4.785   0.373   5.329 -1.3499  0.3867 -0.0889
 6959SOL    HW222319   4.897   0.474   5.313 -0.5246 -0.4521  0.3111
 6960SOL     OW22320   4.085   0.462   7.263  0.3843  0.3161 -0.0031
 6960SOL    HW122321   4.129   0.413   7.195 -0.5138  1.1232 -1.2087
 6960SOL    HW222322   4.028   0.523   7.216  1.1785  2.2599  1.4146
 6961SOL     OW22323   0.931   7.752   5.476  0.2917  0.3306  0.5677
 6961SOL    HW122324   0.943   7.661   5.449 -0.4530  0.3257  0.2190
 6961SOL    HW222325   1.012   7.796   5.449  1.3164 -0.5206  2.1140
 6962SOL     OW22326   3.927   1.274   3.510 -0.2822  0.2675  0.3522
 6962SOL    HW122327   3.888   1.208   3.567  0.8234 -1.4316 -0.7546
 6962SOL    HW222328   4.021   1.255   3.512  0.0769  1.8854  0.0621
 6963SOL     OW22329   3.672   1.318   8.370  0.3190  0.0227 -0.6191
 6963SOL    HW122330   3.758   1.348   8.340  0.5370 -1.5819 -1.7545
 6963SOL    HW222331   3.619   1.397   8.373  1.7737  1.0239 -0.0785
 6964SOL     OW22332   3.215   3.034   4.288  0.5768 -0.3932  0.3136
 6964SOL    HW122333   3.298   3.039   4.335  0.8176 -1.7619  0.0890
 6964SOL    HW222334   3.216   3.109   4.229  2.0122 -0.8252 -0.2478
 6965SOL     OW22335   1.708   0.696   6.227 -0.4946 -0.2747  0.4934
 6965SOL    HW122336   1.788   0.645   6.241 -0.3463 -0.5624 -1.1164
 6965SOL    HW222337   1.729   0.784   6.259  0.8158 -0.1105 -0.7100
 6966SOL     OW22338   0.949   2.239   7.089  0.2034  0.0222  0.0350
 6966SOL    HW122339   1.040   2.248   7.060  0.0758 -1.4919 -0.9419
 6966SOL    HW222340   0.897   2.263   7.013 -0.2514  1.0222  0.6329
 6967SOL     OW22341   2.424   7.674   5.654 -0.1407 -0.0113 -0.3393
 6967SOL    HW122342   2.367   7.732   5.705  0.3008  0.8877 -0.8576
 6967SOL    HW222343   2.480   7.632   5.720 -0.3946  0.2105  0.0243
 6968SOL     OW22344   2.588   2.783   6.414  0.2189  0.2177 -0.2346
 6968SOL    HW122345   2.627   2.870   6.410  0.3645  0.1870  0.4169
 6968SOL    HW222346   2.647   2.733   6.470  1.0224 -0.7838 -1.9016
 6969SOL     OW22347   3.396   0.222   5.220  0.1561 -0.3738  0.5826
 6969SOL    HW122348   3.415   0.280   5.146  0.1673  1.2451  1.7991
 6969SOL    HW222349   3.307   0.191   5.203  0.4978 -0.7660 -0.5626
 6970SOL     OW22350   2.938   0.914   7.283  0.2389  0.0829 -0.0574
 6970SOL    HW122351   2.894   0.989   7.322  0.2949 -0.5217  1.2076
 6970SOL    HW222352   3.027   0.916   7.318  0.1716 -0.7001  0.1797
 6971SOL     OW22353   4.406   7.704   7.756  0.1798 -0.6243 -0.5969
 6971SOL    HW122354   4.436   7.794   7.768 -0.4532 -0.4075 -0.5694
 6971SOL    HW222355   4.483   7.650   7.771  0.4934 -0.0990 -0.3071
 6972SOL     OW22356   3.059   7.103   6.110 -0.5113 -0.6818  0.8718
 6972SOL    HW122357   3.066   7.119   6.205 -0.8936  1.5719  0.5776
 6972SOL    HW222358   2.966   7.107   6.092 -0.5002 -1.8399  0.4791
 6973SOL     OW22359   3.952   1.459   7.324  0.5333  0.1958 -0.3206
 6973SOL    HW122360   4.019   1.415   7.270  0.8015  0.3699 -0.1302
 6973SOL    HW222361   3.875   1.402   7.317 -0.6425  1.8802 -3.7063
 6974SOL     OW22362   3.209   2.296   7.031 -0.2046  0.6043 -0.4573
 6974SOL    HW122363   3.184   2.379   7.072 -0.7553  0.3171 -0.1965
 6974SOL    HW222364   3.227   2.238   7.105 -1.9853 -0.1604 -0.5802
 6975SOL     OW22365   2.698   0.186   8.810 -0.3136  0.4507 -0.1211
 6975SOL    HW122366   2.661   0.175   8.722 -1.4483  0.3906  0.3526
 6975SOL    HW222367   2.650   0.124   8.864 -1.2138  2.0175  0.9740
 6976SOL     OW22368   3.587   1.552   5.125  0.1225 -0.1939 -0.3357
 6976SOL    HW122369   3.510   1.497   5.107  0.7919 -1.0831 -0.5588
 6976SOL    HW222370   3.622   1.572   5.038 -0.6707  1.4336 -0.3127
 6977SOL     OW22371   2.654   7.713   7.682 -0.1252  0.1796  0.0081
 6977SOL    HW122372   2.671   7.679   7.770  1.2273  1.5649  0.3240
 6977SOL    HW222373   2.728   7.680   7.630 -1.3352 -1.3224 -0.8581
 6978SOL     OW22374   3.099   0.870   6.727 -0.1138  0.4963 -0.9726
 6978SOL    HW122375   3.097   0.801   6.660  1.6759  0.0258 -0.5796
 6978SOL    HW222376   3.192   0.885   6.744 -0.5026  2.0198 -0.0185
 6979SOL     OW22377   4.599   0.229   5.358 -0.7151  0.1140 -0.4351
 6979SOL    HW122378   4.653   0.197   5.431  0.2639 -0.1977 -1.2744
 6979SOL    HW222379   4.575   0.149   5.310  1.2710  0.5009 -2.2244
 6980SOL     OW22380   3.167   2.547   2.312 -0.6515 -0.1385  0.3407
 6980SOL    HW122381   3.196   2.456   2.307 -1.4264 -0.3306 -1.5324
 6980SOL    HW222382   3.092   2.545   2.371  0.0063 -0.5035  1.1895
 6981SOL     OW22383   2.119   4.572   6.139 -0.7332 -0.4839 -0.7382
 6981SOL    HW122384   2.169   4.517   6.199 -0.0957  0.0984 -0.7346
 6981SOL    HW222385   2.139   4.537   6.052  1.0522  0.8142 -0.8828
 6982SOL     OW22386   3.231   0.624   4.786 -0.2696  0.0604 -1.1977
 6982SOL    HW122387   3.191   0.604   4.701 -1.7792 -1.1660 -0.2367
 6982SOL    HW222388   3.159   0.654   4.840  0.4602 -0.2785  0.0005
 6983SOL     OW22389   0.719   1.889   7.598  0.0619 -0.3054 -0.3230
 6983SOL    HW122390   0.681   1.891   7.510 -0.4471  0.4542 -0.0991
 6983SOL    HW222391   0.644   1.875   7.656  0.2759  0.0211  0.0406
 6984SOL     OW22392   2.897   2.276   8.717 -0.0678  1.0421 -0.5384
 6984SOL    HW122393   2.986   2.309   8.726  0.4758 -0.3130 -0.6259
 6984SOL    HW222394   2.889   2.209   8.786 -0.2136 -0.4577 -1.9536
 6985SOL     OW22395   4.249   0.878   5.801  0.3329  0.5427  0.1697
 6985SOL    HW122396   4.319   0.815   5.782 -0.4267 -0.3501  0.2784
 6985SOL    HW222397   4.248   0.935   5.724  1.2181  0.6130  0.1928
 6986SOL     OW22398   1.760   4.115   4.649 -0.5621  0.3218  0.2003
 6986SOL    HW122399   1.697   4.163   4.597  0.2644  0.5381 -0.6230
 6986SOL    HW222400   1.845   4.150   4.623 -0.0970  0.1409  1.3847
 6987SOL     OW22401   2.187   0.414   5.774 -0.5734  0.3330  0.0190
 6987SOL    HW122402   2.169   0.431   5.866 -2.2764 -0.3406 -0.1501
 6987SOL    HW222403   2.276   0.380   5.773 -0.4375  0.5951  1.3892
 6988SOL     OW22404   1.219   0.652   6.108 -0.3257  0.1738 -0.0240
 6988SOL    HW122405   1.261   0.633   6.191  0.5282 -1.1337 -0.7212
 6988SOL    HW222406   1.291   0.682   6.051 -0.7015 -0.0456 -0.6197
 6989SOL     OW22407   2.035   2.608   8.302 -0.7496  0.5618  0.1440
 6989SOL    HW122408   1.979   2.671   8.257 -0.5237  1.3933  0.9786
 6989SOL    HW222409   1.975   2.540   8.333 -0.8490 -0.2513 -1.7335
 6990SOL     OW22410   2.134   2.488   5.322  0.1517  0.1098  0.4458
 6990SOL    HW122411   2.209   2.545   5.313  0.5978 -0.4340  0.6597
 6990SOL    HW222412   2.133   2.463   5.414  1.3857 -2.1184 -0.0827
 6991SOL     OW22413   2.842   2.370   6.571  0.4202 -0.3359 -0.4059
 6991SOL    HW122414   2.796   2.297   6.613 -0.1548  0.1487 -0.1825
 6991SOL    HW222415   2.934   2.346   6.575  0.6422  0.6302  3.0778
 6992SOL     OW22416   5.590   0.629   3.991  0.0138 -0.1316 -0.3912
 6992SOL    HW122417   5.593   0.538   3.960  0.6771 -0.5986  0.9506
 6992SOL    HW222418   5.681   0.659   3.986 -0.3579  0.8481 -1.8424
 6993SOL     OW22419   1.133   1.076   8.128  0.4352 -0.1164  0.5035
 6993SOL    HW122420   1.168   0.996   8.090 -2.7994 -0.6483 -1.7547
 6993SOL    HW222421   1.199   1.143   8.108  3.2082 -2.0496  2.4546
 6994SOL     OW22422   3.994   1.747   5.084 -0.0989 -0.3083 -0.0620
 6994SOL    HW122423   3.926   1.804   5.047  2.2806  1.5817 -1.8368
 6994SOL    HW222424   3.995   1.768   5.177 -0.2427  1.5264 -0.4440
 6995SOL     OW22425   1.932   1.661   9.120  0.4582 -0.3154  0.2627
 6995SOL    HW122426   1.920   1.572   9.153 -0.8406 -1.2050 -2.3757
 6995SOL    HW222427   2.022   1.662   9.087 -0.2957 -1.6049 -2.0796
 6996SOL     OW22428   4.826   2.265   4.381 -0.2847  0.5485 -0.3485
 6996SOL    HW122429   4.836   2.292   4.472  2.0382  1.4620 -0.8035
 6996SOL    HW222430   4.777   2.336   4.340 -0.3040  0.6998 -0.0659
 6997SOL     OW22431   1.845   3.372   5.650  0.2704  0.3030 -0.0980
 6997SOL    HW122432   1.835   3.285   5.614 -0.6991 -1.0534  3.0575
 6997SOL    HW222433   1.899   3.419   5.586  0.0459 -2.2645 -2.3541
 6998SOL     OW22434   1.474   0.370   6.533 -0.3311  0.5831 -0.2201
 6998SOL    HW122435   1.379   0.356   6.530  0.0028 -2.1887 -0.1250
 6998SOL    HW222436   1.495   0.376   6.626 -0.4059  1.3130 -0.2447
 6999SOL     OW22437   3.024   1.810   5.663 -0.0031  0.0660 -0.5763
 6999SOL    HW122438   2.986   1.833   5.578 -0.5689  2.2708  0.2030
 6999SOL    HW222439   3.068   1.889   5.692 -0.4167 -0.3967  1.4961
 7000SOL     OW22440   4.155   1.069   5.354  0.8858 -0.2017 -0.3201
 7000SOL    HW122441   4.105   0.997   5.392 -1.5152  1.5344  0.0153
 7000SOL    HW222442   4.241   1.063   5.395  0.1563 -1.7381  1.1002
 7001SOL     OW22443   2.978   7.452   6.427  0.5654 -0.2345 -0.4098
 7001SOL    HW122444   3.039   7.475   6.357  1.2807 -1.2626 -0.1494
 7001SOL    HW222445   2.892   7.478   6.394  1.0123  0.2307 -1.2366
 7002SOL     OW22446   2.474   0.818   4.345  0.2423  0.2876 -0.2318
 7002SOL    HW122447   2.440   0.858   4.265  2.3334 -0.5302 -1.5881
 7002SOL    HW222448   2.472   0.889   4.410 -2.2292  0.7599 -0.7128
 7003SOL     OW22449   2.847   7.950   6.977 -0.1121  0.2688 -0.2356
 7003SOL    HW122450   2.842   8.022   7.040  0.6549 -0.6287  0.9056
 7003SOL    HW222451   2.938   7.953   6.945  0.2623 -0.8437  0.6671
 7004SOL     OW22452   1.781   6.965   4.602  0.1752  0.2782  0.4869
 7004SOL    HW122453   1.798   7.049   4.558 -0.0851 -0.6766 -1.5490
 7004SOL    HW222454   1.700   6.980   4.651  0.5951  1.4469  0.8677
 7005SOL     OW22455   2.927   2.399   7.141  0.3080  0.0909  0.1598
 7005SOL    HW122456   3.021   2.412   7.144  0.5835 -1.6040  0.1498
 7005SOL    HW222457   2.893   2.443   7.219  0.7597  2.8128 -1.0620
 7006SOL     OW22458   2.621   7.972   6.824  0.3952  0.1143 -0.0034
 7006SOL    HW122459   2.577   8.041   6.874 -2.8801 -1.7059 -0.0856
 7006SOL    HW222460   2.692   7.943   6.880 -1.9307 -0.5032  2.8552
 7007SOL     OW22461   1.840   0.822   5.142  0.1115  0.2330  0.0441
 7007SOL    HW122462   1.934   0.822   5.158  0.4163 -0.0409 -1.6106
 7007SOL    HW222463   1.831   0.828   5.047 -1.5553  0.7357  0.1892
 7008SOL     OW22464   2.892   0.320   8.195 -0.4015  0.6991  0.4459
 7008SOL    HW122465   2.929   0.387   8.254  1.1852 -0.4523  0.8293
 7008SOL    HW222466   2.798   0.338   8.195 -0.1021  2.5503  1.0059
 7009SOL     OW22467   1.368   7.940   6.924 -0.0699 -0.1310  0.6396
 7009SOL    HW122468   1.285   7.892   6.926 -0.2755  0.2434  1.7381
 7009SOL    HW222469   1.393   7.948   7.016 -0.4129  2.5059  0.5741
 7010SOL     OW22470   1.797   2.065   6.007 -0.1098  0.1005  0.1676
 7010SOL    HW122471   1.737   2.088   6.078  1.1258 -0.4939  1.4365
 7010SOL    HW222472   1.847   2.145   5.991  0.2646 -0.0440  0.6227
 7011SOL     OW22473   2.532   0.655   5.643  0.3614 -0.5745 -0.0731
 7011SOL    HW122474   2.516   0.589   5.575 -0.4035  0.7116 -1.1726
 7011SOL    HW222475   2.574   0.727   5.597  0.5356  0.0130  0.9875
 7012SOL     OW22476   1.849   1.919   7.461 -1.0168 -0.7731  0.6020
 7012SOL    HW122477   1.780   1.978   7.430  0.1426  0.5527  0.4333
 7012SOL    HW222478   1.888   1.883   7.381  0.9999  1.5111  0.4259
 7013SOL     OW22479   2.243   7.650   8.457 -0.2840  0.3250  0.2788
 7013SOL    HW122480   2.242   7.560   8.423  0.2645  0.4191 -0.0085
 7013SOL    HW222481   2.285   7.701   8.387 -2.0863  1.1164 -0.2969
 7014SOL     OW22482   2.962   2.659   4.228 -0.2771 -0.4237  0.5820
 7014SOL    HW122483   2.961   2.754   4.217 -0.9073 -0.4566  0.2730
 7014SOL    HW222484   2.962   2.624   4.139 -0.2798 -0.7084  0.6914
 7015SOL     OW22485   1.490   0.719   8.046  0.7106 -0.0136 -0.0026
 7015SOL    HW122486   1.538   0.743   7.967 -0.0836 -0.0621 -0.5115
 7015SOL    HW222487   1.531   0.638   8.076 -0.9177 -1.7593 -2.1508
 7016SOL     OW22488   2.098   7.249   7.266 -0.5919 -0.0994  0.2607
 7016SOL    HW122489   2.096   7.242   7.171 -0.6763 -1.1724  0.3255
 7016SOL    HW222490   2.174   7.197   7.293 -0.4442  0.3657  0.7695
 7017SOL     OW22491   3.685   1.489   4.875  0.1012 -0.1689  0.3801
 7017SOL    HW122492   3.704   1.512   4.784  0.3353 -0.6887  0.2928
 7017SOL    HW222493   3.754   1.427   4.899 -0.0077 -0.0997  0.8848
 7018SOL     OW22494   2.622   0.529   5.919 -0.0382 -0.3859  1.6607
 7018SOL    HW122495   2.554   0.576   5.872  1.0134 -0.1086  0.3376
 7018SOL    HW222496   2.704   0.570   5.890  0.7269 -1.0955  2.7338
 7019SOL     OW22497   3.858   7.663   5.376  0.1986  0.1978  0.1857
 7019SOL    HW122498   3.940   7.612   5.374 -0.2642 -0.5810  0.5813
 7019SOL    HW222499   3.883   7.748   5.410  1.2017  0.6272 -1.5145
 7020SOL     OW22500   4.800   1.462   6.626 -0.1570 -0.1426 -0.4781
 7020SOL    HW122501   4.757   1.533   6.672 -2.2152 -0.8089 -1.2673
 7020SOL    HW222502   4.736   1.432   6.562  1.1301 -1.8507 -1.0563
 7021SOL     OW22503   2.335   2.678   5.336  0.5584 -0.2328  0.2088
 7021SOL    HW122504   2.301   2.745   5.394  0.7855  0.2675 -0.2337
 7021SOL    HW222505   2.376   2.726   5.264 -0.1146 -0.8410 -0.6053
 7022SOL     OW22506   2.144   2.215   5.180  0.8240  0.0376 -0.3933
 7022SOL    HW122507   2.148   2.311   5.184  0.5463  0.0363 -0.0902
 7022SOL    HW222508   2.102   2.189   5.261  3.0845 -0.4839  0.7072
 7023SOL     OW22509   1.431   2.402   6.353  0.0894 -0.6199 -0.7061
 7023SOL    HW122510   1.495   2.334   6.373  0.3489 -0.1896 -0.0416
 7023SOL    HW222511   1.388   2.371   6.273  3.1790  0.4924 -2.9976
 7024SOL     OW22512   3.517   7.533   5.143  0.4853 -0.7528 -0.2921
 7024SOL    HW122513   3.512   7.514   5.237  0.9996 -2.4186 -0.5682
 7024SOL    HW222514   3.594   7.589   5.134  0.4471 -0.6017  0.2757
 7025SOL     OW22515   1.399   1.561   6.778  0.0387 -0.0236 -0.1551
 7025SOL    HW122516   1.322   1.536   6.727 -0.3814 -0.9764  0.9347
 7025SOL    HW222517   1.367   1.571   6.867  0.9463  0.7849  0.0955
 7026SOL     OW22518   1.386   2.894   7.688  0.3026 -0.3336  0.2106
 7026SOL    HW122519   1.374   2.945   7.768 -0.2366  0.0467 -0.1030
 7026SOL    HW222520   1.354   2.951   7.618  1.4260 -0.3808 -0.3626
 7027SOL     OW22521   1.904   2.577   7.764 -0.2988  0.6988 -0.2880
 7027SOL    HW122522   1.969   2.522   7.808 -1.4396  1.4418  2.5713
 7027SOL    HW222523   1.821   2.531   7.776 -0.8055  1.4667 -0.7564
 7028SOL     OW22524   2.149   1.765   5.822 -0.1050  0.6535  0.3969
 7028SOL    HW122525   2.055   1.782   5.828 -0.1464  0.9379 -0.8392
 7028SOL    HW222526   2.191   1.843   5.857 -0.3033 -0.2057  2.7024
 7029SOL     OW22527   2.041   1.596   8.466  0.2139 -0.0867 -0.3421
 7029SOL    HW122528   2.064   1.688   8.453 -2.7929  0.6796 -1.1377
 7029SOL    HW222529   2.019   1.564   8.378  1.6477 -1.7402 -0.1502
 7030SOL     OW22530   0.818   1.064   6.227 -0.0452 -0.0455 -0.2047
 7030SOL    HW122531   0.730   1.029   6.221 -0.2635  0.3572  0.4735
 7030SOL    HW222532   0.875   0.987   6.231 -0.2533 -0.3154 -1.7966
 7031SOL     OW22533   3.470   2.405   4.407  0.7259  0.4014 -0.6494
 7031SOL    HW122534   3.469   2.500   4.396  1.6554  0.3859 -0.8744
 7031SOL    HW222535   3.377   2.381   4.409  0.4698  1.1016 -2.4072
 7032SOL     OW22536   2.550   7.700   7.429  0.0933 -0.5794 -0.4123
 7032SOL    HW122537   2.582   7.710   7.519  0.4504 -0.1033 -0.5906
 7032SOL    HW222538   2.484   7.631   7.435  0.0057 -0.4438  0.2423
 7033SOL     OW22539   2.348   1.974   6.189 -0.2096 -0.2405 -0.1670
 7033SOL    HW122540   2.424   2.013   6.232 -0.7017  1.2612 -0.5974
 7033SOL    HW222541   2.385   1.902   6.138  0.6905 -0.5690  0.8991
 7034SOL     OW22542   1.852   1.009   6.709 -0.0170  0.3120 -0.0923
 7034SOL    HW122543   1.828   1.073   6.775 -1.5080 -0.8990  0.6189
 7034SOL    HW222544   1.864   1.059   6.629 -0.4071  1.5420  0.6029
 7035SOL     OW22545   4.672   7.309   7.364  0.0155 -0.2574  0.1592
 7035SOL    HW122546   4.716   7.278   7.285 -1.0627  0.8481 -0.9105
 7035SOL    HW222547   4.740   7.305   7.432  0.6980 -2.1078 -0.5835
 7036SOL     OW22548   2.886   0.622   6.199 -0.4516 -0.4831 -0.8007
 7036SOL    HW122549   2.919   0.694   6.146  0.4025  0.5535  1.0615
 7036SOL    HW222550   2.958   0.559   6.202 -0.2753 -0.2628 -0.3818
 7037SOL     OW22551   2.251   1.833   6.969  0.6203 -0.2764  0.3177
 7037SOL    HW122552   2.282   1.749   6.934  1.1853 -0.9343  2.2465
 7037SOL    HW222553   2.247   1.819   7.063  2.2197  2.3476  0.8578
 7038SOL     OW22554   3.127   6.045   4.094  0.2207 -0.1166 -0.3336
 7038SOL    HW122555   3.123   6.005   4.181 -0.1156 -1.0998 -0.7850
 7038SOL    HW222556   3.050   6.011   4.048  0.9499 -0.4372 -1.3546
 7039SOL     OW22557   2.538   7.481   6.098  0.5346 -0.6801 -0.4546
 7039SOL    HW122558   2.520   7.438   6.182 -0.7155 -0.5775 -0.6524
 7039SOL    HW222559   2.470   7.447   6.040 -0.8521  1.9456 -0.4908
 7040SOL     OW22560   2.524   7.845   6.578 -0.0976 -0.9537 -0.1379
 7040SOL    HW122561   2.576   7.844   6.659  1.1791 -1.7617 -0.9364
 7040SOL    HW222562   2.458   7.913   6.593  0.4233 -0.7379  1.3820
 7041SOL     OW22563   2.343   7.673   4.514  0.3664 -0.8815  0.2490
 7041SOL    HW122564   2.421   7.638   4.471  0.0812 -1.1660 -0.0440
 7041SOL    HW222565   2.358   7.657   4.608  1.2510  0.2610  0.3287
 7042SOL     OW22566   1.751   3.121   5.491  0.0513 -0.4968  0.2768
 7042SOL    HW122567   1.825   3.062   5.481 -0.5176 -1.2159  0.2853
 7042SOL    HW222568   1.741   3.163   5.405 -1.3892 -2.6104 -0.6733
 7043SOL     OW22569   3.276   1.668   8.130  0.4323  0.3346  0.2076
 7043SOL    HW122570   3.189   1.707   8.125 -0.1656 -1.0486 -2.9299
 7043SOL    HW222571   3.264   1.588   8.182 -0.6374 -0.6511 -1.4321
 7044SOL     OW22572   1.985   1.185   7.962  0.3454  0.5248  0.0388
 7044SOL    HW122573   1.969   1.091   7.973 -0.1805  0.3730 -1.6758
 7044SOL    HW222574   2.041   1.190   7.884 -0.6987  1.6974 -0.6653
 7045SOL     OW22575   2.946   0.778   9.260  0.1038 -0.0467 -0.0654
 7045SOL    HW122576   2.889   0.726   9.203 -0.7146  1.2520 -0.4708
 7045SOL    HW222577   2.988   0.713   9.317  2.2896 -1.6618 -3.1639
 7046SOL     OW22578   0.908   1.978   8.640 -0.1798  0.2670  0.0212
 7046SOL    HW122579   0.845   2.038   8.601  0.2307 -0.2754 -1.5602
 7046SOL    HW222580   0.992   2.002   8.600 -0.2244 -2.2294 -1.8411
 7047SOL     OW22581   3.073   2.551   8.344 -0.2932  0.5746  0.5168
 7047SOL    HW122582   3.125   2.500   8.406  0.5996  0.5656 -0.2110
 7047SOL    HW222583   3.129   2.625   8.321 -0.9243  1.0013  0.3182
 7048SOL     OW22584   2.240   2.526   7.525 -0.1621  0.5363 -0.3277
 7048SOL    HW122585   2.237   2.511   7.620  1.4017 -1.7872 -0.5547
 7048SOL    HW222586   2.329   2.502   7.500 -1.4535 -2.3490 -2.8247
 7049SOL     OW22587   6.008   1.627   8.307 -0.0426 -0.5077  0.4411
 7049SOL    HW122588   6.066   1.604   8.380  2.2914  0.4592 -1.0322
 7049SOL    HW222589   5.985   1.718   8.323 -1.7717 -1.0489  1.3439
 7050SOL     OW22590   2.321   2.332   8.885  0.0495 -0.8014 -0.2682
 7050SOL    HW122591   2.298   2.319   8.793  0.8727 -1.6352 -0.3763
 7050SOL    HW222592   2.377   2.410   8.884  1.1143 -1.5482 -0.6721
 7051SOL     OW22593   5.691   6.939   9.680 -0.2359 -0.3028 -0.3432
 7051SOL    HW122594   5.782   6.967   9.682 -1.0461  2.6991 -0.7699
 7051SOL    HW222595   5.693   6.850   9.715  2.8134 -0.3204 -0.2647
 7052SOL     OW22596   0.888   1.510   7.181 -0.5314 -0.6760  0.1597
 7052SOL    HW122597   0.798   1.520   7.211 -0.5995 -0.6655 -0.0455
 7052SOL    HW222598   0.921   1.433   7.227  0.4320  1.1918  2.8309
 7053SOL     OW22599   1.758   1.209  10.019  0.0980 -0.4588 -0.0601
 7053SOL    HW122600   1.840   1.160  10.011 -0.8916 -2.4218  0.9962
 7053SOL    HW222601   1.737   1.234   9.929  1.5448 -0.3992 -0.4203
 7054SOL     OW22602   3.427   3.048   8.939  0.0701  0.1650 -0.1692
 7054SOL    HW122603   3.477   3.126   8.912  1.1160  0.1420  1.5895
 7054SOL    HW222604   3.462   3.026   9.025 -1.3990 -1.2616  0.0925
 7055SOL     OW22605   1.912   1.340   9.512  0.3162  0.1095 -0.7547
 7055SOL    HW122606   1.932   1.383   9.429  0.3143 -1.5373 -1.6522
 7055SOL    HW222607   1.841   1.279   9.491 -1.8676  1.8508  1.1468
 7056SOL     OW22608   1.554   0.683  10.036 -0.5289  0.0285 -0.0026
 7056SOL    HW122609   1.476   0.627  10.038  0.3825 -1.4427 -2.0580
 7056SOL    HW222610   1.519   0.772  10.039 -2.1608 -0.6118  1.0763
 7057SOL     OW22611   6.697   0.259   9.374  0.0706  0.3891  0.3019
 7057SOL    HW122612   6.742   0.227   9.296  1.5979  0.4680  1.1332
 7057SOL    HW222613   6.656   0.341   9.345  1.1899  0.7722 -0.2596
 7058SOL     OW22614   3.182   2.857   9.352 -1.0950 -0.2992  0.2195
 7058SOL    HW122615   3.117   2.792   9.326 -0.1952 -0.6376 -1.3099
 7058SOL    HW222616   3.264   2.807   9.357 -0.9729  0.0244  2.5401
 7059SOL     OW22617   4.245   6.901   8.959 -0.3816  0.5660 -0.5134
 7059SOL    HW122618   4.292   6.843   8.900  0.4686  1.8749 -1.1692
 7059SOL    HW222619   4.260   6.864   9.046 -0.7130 -0.7425 -0.9927
 7060SOL     OW22620   2.354   0.709   7.063 -0.2520  0.5731  0.2302
 7060SOL    HW122621   2.306   0.791   7.076  0.2078  0.9989 -0.6252
 7060SOL    HW222622   2.333   0.684   6.973  0.2274  0.1572  0.2341
 7061SOL     OW22623   2.871   0.943   6.857 -0.1901  0.4737  0.2546
 7061SOL    HW122624   2.954   0.912   6.820  0.6877  2.2365  0.6287
 7061SOL    HW222625   2.889   1.034   6.882 -1.9128  0.5402  1.3910
 7062SOL     OW22626   1.705   1.705   9.476 -0.5098  0.0908 -0.3111
 7062SOL    HW122627   1.732   1.760   9.550 -2.3147  0.7382 -0.0852
 7062SOL    HW222628   1.784   1.656   9.453  1.1086  2.5317 -0.3234
 7063SOL     OW22629   2.906   1.053   8.756 -0.4018  0.0458 -0.2859
 7063SOL    HW122630   2.867   1.122   8.811 -0.1591 -0.2143  0.2258
 7063SOL    HW222631   2.948   0.994   8.819 -0.5469 -0.5313 -0.7288
 7064SOL     OW22632   3.252   6.714  10.539  0.0386  0.4293 -0.3838
 7064SOL    HW122633   3.267   6.668  10.456  0.5430  1.2054 -0.7411
 7064SOL    HW222634   3.334   6.707  10.586 -0.8948 -1.8962  1.0572
 7065SOL     OW22635   3.017   1.719   9.443  0.0800 -0.0228  0.3009
 7065SOL    HW122636   3.067   1.718   9.525 -1.0362  0.6878  0.9997
 7065SOL    HW222637   2.936   1.764   9.464 -0.5982 -0.5907 -0.9923
 7066SOL     OW22638   4.366   2.700   8.750 -0.0937 -0.3105 -0.0500
 7066SOL    HW122639   4.299   2.655   8.699  0.2579  0.9277 -1.6968
 7066SOL    HW222640   4.316   2.753   8.813 -0.5871 -0.7663 -0.0499
 7067SOL     OW22641   2.147   7.764   7.447 -0.0541  0.3494 -0.1121
 7067SOL    HW122642   2.181   7.691   7.396 -2.4541 -1.1301  0.2082
 7067SOL    HW222643   2.076   7.801   7.394 -0.3509  0.9808  0.6813
 7068SOL     OW22644   4.587   0.093   9.430  0.6580 -0.7045  0.2682
 7068SOL    HW122645   4.664   0.065   9.381  0.8274 -0.4944  0.4112
 7068SOL    HW222646   4.593   0.189   9.431 -0.4636 -0.5957 -1.1043
 7069SOL     OW22647   4.249   1.816   8.691 -0.0466  0.2796 -0.1537
 7069SOL    HW122648   4.162   1.799   8.656 -0.0185  0.1033 -0.1365
 7069SOL    HW222649   4.270   1.739   8.743 -0.1326  0.5823  0.3437
 7070SOL     OW22650   7.767   7.059  10.568  0.0182  0.5759 -0.2595
 7070SOL    HW122651   7.751   6.974  10.529  0.2736 -0.1144  1.0681
 7070SOL    HW222652   7.825   7.104  10.506  0.5343 -0.5249 -0.5947
 7071SOL     OW22653   3.528   1.502   9.559 -0.1054  0.1154 -0.2086
 7071SOL    HW122654   3.511   1.596   9.546 -1.1124  0.1558  1.1477
 7071SOL    HW222655   3.575   1.498   9.642 -0.6392 -0.6067  0.0742
 7072SOL     OW22656   2.542   2.153   7.203 -0.3118  0.0926  0.1607
 7072SOL    HW122657   2.596   2.121   7.276  0.3971 -0.2051 -0.4826
 7072SOL    HW222658   2.571   2.243   7.189  0.5370 -0.2750 -0.6237
 7073SOL     OW22659   3.161   1.009   8.376 -0.0477  0.1778 -0.3732
 7073SOL    HW122660   3.217   1.080   8.408  0.0956 -0.5152  0.9840
 7073SOL    HW222661   3.188   0.932   8.426 -1.1866 -0.5217 -0.7864
 7074SOL     OW22662   0.634   7.401   8.918  0.1089  0.3524  0.6250
 7074SOL    HW122663   0.714   7.352   8.937  0.1847  0.4026  0.4381
 7074SOL    HW222664   0.565   7.334   8.916  0.5116 -0.0516 -1.6404
 7075SOL     OW22665   2.839   2.694   5.439  0.4327 -0.0986  0.1792
 7075SOL    HW122666   2.849   2.789   5.443  0.7897 -0.1339  0.1401
 7075SOL    HW222667   2.841   2.673   5.346 -0.8783 -0.0205  0.1125
 7076SOL     OW22668   2.584   2.423   7.272 -0.0041  0.0108 -0.9100
 7076SOL    HW122669   2.665   2.431   7.323 -2.0038  1.8612  2.3436
 7076SOL    HW222670   2.584   2.499   7.214  0.2638  0.4215 -0.3774
 7077SOL     OW22671   2.502   1.671   8.573  0.2405 -0.1195 -0.1283
 7077SOL    HW122672   2.429   1.610   8.576  0.9213 -0.9796 -0.6053
 7077SOL    HW222673   2.469   1.747   8.525 -0.6964  0.0142  0.7110
 7078SOL     OW22674   1.886   1.365   8.422  0.1320  0.8200  0.1375
 7078SOL    HW122675   1.886   1.451   8.463 -1.1459  0.6630  0.4781
 7078SOL    HW222676   1.858   1.381   8.332  1.6496  0.9811 -0.3416
 7079SOL     OW22677   4.621   1.882   9.224 -0.4886  0.3372 -0.3249
 7079SOL    HW122678   4.675   1.918   9.294 -1.8134  3.6551 -0.8032
 7079SOL    HW222679   4.683   1.848   9.160  0.7713 -1.7634  1.8461
 7080SOL     OW22680   2.754   2.286   6.980 -0.2733  0.5545 -0.4800
 7080SOL    HW122681   2.805   2.345   7.036 -0.4202  0.0591  0.1860
 7080SOL    HW222682   2.785   2.198   7.004 -2.3434  0.1445  0.8847
 7081SOL     OW22683   3.825   0.552   7.598  0.1441  0.2156  0.3447
 7081SOL    HW122684   3.808   0.490   7.527  0.9115  0.1665  0.1944
 7081SOL    HW222685   3.913   0.585   7.580  0.5074 -0.0805  1.4848
 7082SOL     OW22686   3.000   3.795   7.507 -0.0674  0.0480 -0.3110
 7082SOL    HW122687   3.059   3.863   7.475 -0.4345  0.9163  0.7743
 7082SOL    HW222688   3.056   3.738   7.560  0.5411 -1.3929 -2.3741
 7083SOL     OW22689   1.588   7.586   9.736  0.1407  0.7679 -0.3629
 7083SOL    HW122690   1.637   7.659   9.698 -3.1020  2.3778 -1.8528
 7083SOL    HW222691   1.615   7.510   9.684  0.4863  1.7446 -1.6897
 7084SOL     OW22692   2.702   0.606   8.768 -0.1210  0.1658  0.0835
 7084SOL    HW122693   2.619   0.560   8.753 -0.1765  0.6545 -1.2314
 7084SOL    HW222694   2.758   0.540   8.809 -1.2891 -0.0361  1.4426
 7085SOL     OW22695   4.498   0.902   8.306 -0.2005 -0.4458 -0.0089
 7085SOL    HW122696   4.538   0.880   8.391 -2.0642 -2.5198  0.4439
 7085SOL    HW222697   4.571   0.930   8.252  1.2960 -0.5457  1.8300
 7086SOL     OW22698   4.630   7.920   9.097  0.3489 -0.4571  0.3146
 7086SOL    HW122699   4.579   7.852   9.052  1.4183 -1.0514 -0.0502
 7086SOL    HW222700   4.600   8.002   9.058  2.2435 -1.0171 -2.6951
 7087SOL     OW22701   3.044   0.582   6.945 -0.0906  0.0515 -0.2976
 7087SOL    HW122702   2.986   0.576   7.021  0.3371 -1.1267 -0.0348
 7087SOL    HW222703   3.061   0.676   6.934 -1.2461  0.3309  0.2199
 7088SOL     OW22704   3.285   7.569   7.373 -0.1411  0.3839 -0.6766
 7088SOL    HW122705   3.329   7.484   7.366 -0.6155  0.1992 -1.4938
 7088SOL    HW222706   3.356   7.633   7.369  0.3352  0.0220  1.0195
 7089SOL     OW22707   0.474   1.897  10.691  0.3955  0.1759  0.6415
 7089SOL    HW122708   0.395   1.924  10.646  0.9627  0.3597 -0.2680
 7089SOL    HW222709   0.513   1.979  10.722  1.4613  0.3561 -1.0217
 7090SOL     OW22710   2.912   0.351   7.920 -0.2363  0.7171  0.1222
 7090SOL    HW122711   2.872   0.437   7.906 -2.3639 -0.4043 -1.2496
 7090SOL    HW222712   2.903   0.335   8.014 -1.1267  1.4031  0.1691
 7091SOL     OW22713   3.849   0.785  10.495  0.2064  0.2513  0.4059
 7091SOL    HW122714   3.834   0.724  10.566 -0.3026  0.1514  0.2173
 7091SOL    HW222715   3.823   0.737  10.416 -0.1700  0.6965  0.2540
 7092SOL     OW22716   2.650   2.190   6.642  0.2011 -0.1904 -0.0804
 7092SOL    HW122717   2.589   2.211   6.712 -1.0647 -1.0108 -0.9069
 7092SOL    HW222718   2.682   2.102   6.664  1.2074  0.2780  0.4102
 7093SOL     OW22719   4.126   7.472   7.923 -0.6711  0.3173  0.1596
 7093SOL    HW122720   4.194   7.497   7.985  0.0706 -0.9467 -0.1042
 7093SOL    HW222721   4.064   7.545   7.923 -0.9187  0.1992  2.6852
 7094SOL     OW22722   2.843   3.027   9.717  0.2656 -0.1841  0.6612
 7094SOL    HW122723   2.752   3.005   9.737 -0.3309  1.6752  0.1373
 7094SOL    HW222724   2.876   2.951   9.669 -1.6608 -0.0547 -0.9752
 7095SOL     OW22725   2.917   2.160   7.496 -0.5303 -1.0456  0.2550
 7095SOL    HW122726   2.967   2.223   7.444  0.2927 -1.3795  0.6197
 7095SOL    HW222727   2.880   2.211   7.568  1.1948 -1.1666  1.2860
 7096SOL     OW22728   4.379   7.414   8.646  0.0933  0.5533 -0.4405
 7096SOL    HW122729   4.426   7.439   8.726 -0.7748 -2.7378  1.3247
 7096SOL    HW222730   4.288   7.406   8.674 -0.1802 -0.9508 -1.6389
 7097SOL     OW22731   3.667   2.188   9.003  0.3187  0.0147 -0.4087
 7097SOL    HW122732   3.605   2.239   9.055 -1.5992  0.4903 -2.9330
 7097SOL    HW222733   3.752   2.228   9.022 -0.6462  1.8708  0.3459
 7098SOL     OW22734   1.999   1.979   6.968 -0.1178 -0.7516 -0.2318
 7098SOL    HW122735   2.004   2.063   6.922  0.8537  0.1316  1.4023
 7098SOL    HW222736   2.088   1.945   6.966 -0.2359 -1.1031  0.2390
 7099SOL     OW22737   3.511   0.398   8.563 -0.4385 -0.1224  0.6148
 7099SOL    HW122738   3.465   0.374   8.483 -1.6764 -2.0979  1.8120
 7099SOL    HW222739   3.459   0.469   8.601 -1.3796 -0.9512  0.9303
 7100SOL     OW22740   3.867   0.049   8.977  0.2937 -0.3031 -0.8257
 7100SOL    HW122741   3.782   0.058   9.019  0.0190 -0.6477 -1.3013
 7100SOL    HW222742   3.919   0.122   9.012  0.5789 -1.4276  1.2518
 7101SOL     OW22743   3.816   1.559   8.583  0.4207  0.0352  0.1198
 7101SOL    HW122744   3.802   1.469   8.554 -0.1161  0.2353 -0.2650
 7101SOL    HW222745   3.778   1.613   8.514 -1.4394  0.5183  1.4424
 7102SOL     OW22746   2.632   0.038   9.820 -1.1174  0.4054 -0.0788
 7102SOL    HW122747   2.717   0.002   9.793 -1.5445 -0.0309 -0.8856
 7102SOL    HW222748   2.605   0.093   9.746 -1.2806  0.9969  0.4137
 7103SOL     OW22749   2.067   1.780   5.356 -0.2762 -0.0284  0.1303
 7103SOL    HW122750   2.047   1.821   5.272  2.4445 -0.4924 -0.8384
 7103SOL    HW222751   2.159   1.756   5.350  0.0779  0.0862  3.3520
 7104SOL     OW22752   3.591   2.706   7.568  0.0892 -0.0502  0.3580
 7104SOL    HW122753   3.676   2.718   7.609  0.8210 -0.2317 -1.0536
 7104SOL    HW222754   3.582   2.779   7.507 -0.7249 -0.0805  0.4290
 7105SOL     OW22755   3.757   6.942   8.790  0.1809  0.2742 -0.1388
 7105SOL    HW122756   3.808   6.896   8.724  2.0118  0.4138  1.0821
 7105SOL    HW222757   3.814   6.944   8.867 -1.8874  0.0217  1.4937
 7106SOL     OW22758   2.735   2.911   9.067  0.1097  0.5244 -0.3054
 7106SOL    HW122759   2.656   2.947   9.026 -0.6197  0.6594  1.1593
 7106SOL    HW222760   2.780   2.988   9.103 -1.3184  0.1177  2.6093
 7107SOL     OW22761   2.889   2.987   7.085  0.3797  0.2437  0.3089
 7107SOL    HW122762   2.929   3.071   7.109 -0.1685  0.6752 -0.2626
 7107SOL    HW222763   2.821   2.973   7.150  0.3989  0.3032  0.3418
 7108SOL     OW22764   3.477   1.514   8.359  0.2747  0.0508  0.1019
 7108SOL    HW122765   3.506   1.591   8.311  1.8024 -0.1593  0.6439
 7108SOL    HW222766   3.429   1.549   8.434 -0.1283  0.4308 -0.3255
 7109SOL     OW22767   4.652   0.589   8.657 -0.2578  0.0795 -0.3733
 7109SOL    HW122768   4.600   0.581   8.736 -0.6756 -0.8693 -0.7203
 7109SOL    HW222769   4.698   0.505   8.650  0.0833  0.3044 -0.9147
 7110SOL     OW22770   2.145   0.353   9.455 -0.2368 -1.1430 -0.1753
 7110SOL    HW122771   2.125   0.444   9.434  0.4685 -0.7905  0.6227
 7110SOL    HW222772   2.104   0.302   9.385  0.8952 -0.1193 -1.6304
 7111SOL     OW22773   2.127   2.025  10.854  0.2619  0.5013  0.0400
 7111SOL    HW122774   2.041   1.982  10.859 -0.4011  1.6617 -0.7878
 7111SOL    HW222775   2.188   1.962  10.891 -0.5856 -1.3506 -1.5244
 7112SOL     OW22776   1.508   2.509   8.717  0.3400 -0.9709 -0.4427
 7112SOL    HW122777   1.559   2.569   8.662 -2.3678 -1.2264 -3.5193
 7112SOL    HW222778   1.542   2.422   8.697  0.1421 -0.9618 -0.8243
 7113SOL     OW22779   3.857   0.902   9.542 -0.1814 -0.2387  0.3392
 7113SOL    HW122780   3.765   0.879   9.526  0.2646 -0.2355 -2.8781
 7113SOL    HW222781   3.866   0.991   9.509  0.9687 -0.1561  0.8179
 7114SOL     OW22782   3.447   7.295   7.766 -0.0227 -0.0032 -0.9133
 7114SOL    HW122783   3.355   7.318   7.754 -0.3672 -1.3362 -0.9325
 7114SOL    HW222784   3.454   7.272   7.859 -0.0950 -1.4740 -1.2471
 7115SOL     OW22785   0.779   7.113   9.422  0.2284  0.7634 -0.0380
 7115SOL    HW122786   0.753   7.156   9.340 -0.6415  2.0126  0.8764
 7115SOL    HW222787   0.749   7.023   9.411 -0.1970  1.0010 -0.9559
 7116SOL     OW22788   3.372   2.113   7.351 -0.3405  0.5281 -0.2906
 7116SOL    HW122789   3.351   2.182   7.414 -1.0249  0.4768 -0.4482
 7116SOL    HW222790   3.441   2.151   7.296 -1.2316  1.4014 -0.8603
 7117SOL     OW22791   3.976   1.829   7.898  0.2600 -0.4601  0.4716
 7117SOL    HW122792   3.918   1.903   7.883 -0.8003 -0.8365  2.4411
 7117SOL    HW222793   3.975   1.816   7.993 -1.2772 -4.2694  0.1185
 7118SOL     OW22794   3.520   2.202   7.139 -0.4001  0.2646  0.3251
 7118SOL    HW122795   3.488   2.290   7.161  0.0509  0.5782 -0.2448
 7118SOL    HW222796   3.614   2.214   7.126 -0.5932  0.0591 -1.5089
 7119SOL     OW22797   4.950   7.758   9.464  0.1481 -0.4329 -0.0294
 7119SOL    HW122798   5.029   7.777   9.412  0.5476  1.0495  1.0545
 7119SOL    HW222799   4.878   7.778   9.405  0.5688 -0.7768 -0.6815
 7120SOL     OW22800   3.263   1.918   9.300  0.4401  0.4379  0.3008
 7120SOL    HW122801   3.192   1.897   9.239  0.0971  1.3040  0.3811
 7120SOL    HW222802   3.285   2.009   9.279  0.9338  0.4522  0.8705
 7121SOL     OW22803   3.750   0.838   7.203 -0.5246  0.6463 -0.3269
 7121SOL    HW122804   3.726   0.930   7.213 -1.7478  0.3770 -0.6960
 7121SOL    HW222805   3.739   0.820   7.110 -0.5227  0.0607 -0.2196
 7122SOL     OW22806   2.424   0.825   8.114 -0.2864 -0.0190  0.2037
 7122SOL    HW122807   2.412   0.838   8.020 -1.9733  0.1943  0.4030
 7122SOL    HW222808   2.497   0.882   8.137  2.0687 -2.1963 -1.4185
 7123SOL     OW22809   2.070   0.899   7.623 -0.4081  0.4761 -0.0420
 7123SOL    HW122810   2.161   0.869   7.621 -0.6069 -0.8030  3.1563
 7123SOL    HW222811   2.075   0.989   7.656 -0.3112  0.0499  1.1492
 7124SOL     OW22812   1.934   7.463   9.945  0.0118  0.2575 -0.1179
 7124SOL    HW122813   1.977   7.444   9.861 -0.0656 -1.7178  0.2375
 7124SOL    HW222814   1.943   7.557   9.956  2.3744  0.2151 -1.1021
 7125SOL     OW22815   4.041   7.850   8.814  0.1219  0.4352 -0.7230
 7125SOL    HW122816   4.075   7.826   8.900 -1.6050 -1.4873 -0.5121
 7125SOL    HW222817   4.000   7.936   8.828 -2.3227 -0.9171  1.0657
 7126SOL     OW22818   3.349   0.584   8.715  0.8514 -0.2921  0.0441
 7126SOL    HW122819   3.428   0.574   8.769  0.7485  0.3169  0.3176
 7126SOL    HW222820   3.278   0.592   8.779  0.5120 -1.1771 -0.2021
 7127SOL     OW22821   3.827   0.512   7.853  0.4902  0.2780  0.4367
 7127SOL    HW122822   3.883   0.436   7.842  0.7496  0.5313 -0.0445
 7127SOL    HW222823   3.801   0.535   7.764 -0.7096 -0.0768  0.6819
 7128SOL     OW22824   3.040   2.029   7.736  0.0046 -0.2790  0.2375
 7128SOL    HW122825   3.030   2.060   7.646 -1.0555 -0.1021  0.3945
 7128SOL    HW222826   3.130   1.997   7.741  0.0246 -0.4670 -0.9370
 7129SOL     OW22827   4.323   0.842   6.437  0.0786  0.0262 -0.2042
 7129SOL    HW122828   4.348   0.750   6.442  0.5791  0.0419 -1.8887
 7129SOL    HW222829   4.402   0.888   6.410 -0.9378  0.4811 -2.6300
 7130SOL     OW22830   2.988   1.522   6.604 -0.2216 -0.3475  0.4289
 7130SOL    HW122831   2.964   1.578   6.678 -1.0381 -2.1282  1.5968
 7130SOL    HW222832   3.079   1.498   6.622  0.9348  2.3070 -1.2858
 7131SOL     OW22833   1.371   1.482   7.547 -0.1846  0.1684 -0.4867
 7131SOL    HW122834   1.276   1.484   7.556 -0.3328  0.9309 -1.9814
 7131SOL    HW222835   1.393   1.563   7.501  1.3413  0.6681  1.0145
 7132SOL     OW22836   2.694   2.040   7.403  0.1483  0.3850 -0.5473
 7132SOL    HW122837   2.774   2.083   7.433  0.4838 -0.7551  0.2525
 7132SOL    HW222838   2.723   1.954   7.371 -0.9270 -0.7513  1.3547
 7133SOL     OW22839   4.697   0.258   6.859  0.1139 -0.5983  0.5456
 7133SOL    HW122840   4.792   0.269   6.867  0.0397 -0.8066  1.9819
 7133SOL    HW222841   4.684   0.164   6.870 -0.1262 -0.8360 -1.4759
 7134SOL     OW22842   4.101   0.108   7.912  0.6442 -0.4174  0.5522
 7134SOL    HW122843   4.062   0.143   7.832  2.4577 -0.0947 -0.2420
 7134SOL    HW222844   4.114   0.184   7.968  0.7729 -0.4240  0.5314
 7135SOL     OW22845   2.835   1.679   9.110  0.8071 -0.3130  0.0137
 7135SOL    HW122846   2.910   1.625   9.134  0.4283 -0.2960  1.3315
 7135SOL    HW222847   2.760   1.635   9.151  0.2981  0.4247 -0.1150
 7136SOL     OW22848   2.296   1.926  10.173  0.1004 -0.6961  0.0823
 7136SOL    HW122849   2.237   1.861  10.212 -0.2223  0.1428  1.0308
 7136SOL    HW222850   2.350   1.875  10.112 -0.7512 -1.6941  0.1264
 7137SOL     OW22851   5.554   2.790   8.597 -0.3399  0.4552  0.0220
 7137SOL    HW122852   5.567   2.793   8.502 -1.3634  1.1831 -0.1139
 7137SOL    HW222853   5.493   2.717   8.610  0.9572 -0.6221  0.2945
 7138SOL     OW22854   2.596   1.761   8.079  0.1996  0.3450 -0.2051
 7138SOL    HW122855   2.507   1.725   8.083 -0.0363  0.8847 -0.4577
 7138SOL    HW222856   2.648   1.692   8.039  0.0550 -0.2831  0.6781
 7139SOL     OW22857   3.439   1.493   7.916 -0.0490 -0.2111  0.1102
 7139SOL    HW122858   3.477   1.449   7.840  0.0000 -0.3257  0.2001
 7139SOL    HW222859   3.436   1.585   7.891  3.9374  0.5159  1.5036
 7140SOL     OW22860   5.301   7.863   8.900  0.4864  0.3689 -0.5380
 7140SOL    HW122861   5.359   7.911   8.841  0.4349  1.3076  0.1467
 7140SOL    HW222862   5.270   7.929   8.962 -0.4224 -0.3489 -0.2035
 7141SOL     OW22863   3.016   2.089   9.982 -0.8460 -0.3825 -0.0654
 7141SOL    HW122864   3.080   2.084   9.911 -0.0618  1.6184  0.4614
 7141SOL    HW222865   3.001   2.182   9.995 -3.1377 -0.7706  0.5140
 7142SOL     OW22866   2.243   2.228   6.977  0.0063  0.0144  0.2892
 7142SOL    HW122867   2.174   2.204   6.915  0.8983 -0.1527 -0.6709
 7142SOL    HW222868   2.254   2.151   7.032  1.6518 -1.2474 -1.6580
 7143SOL     OW22869   3.097   2.336   7.412  0.2099  0.4093 -0.1105
 7143SOL    HW122870   3.190   2.325   7.435  1.1843  1.0917 -3.2452
 7143SOL    HW222871   3.076   2.424   7.441  1.1552  0.9693 -1.0443
 7144SOL     OW22872   4.573   0.849   8.553  0.1490  0.1266  0.0249
 7144SOL    HW122873   4.648   0.904   8.576 -1.2560  1.5202  1.4952
 7144SOL    HW222874   4.600   0.760   8.577  1.6526  0.4443 -0.3713
 7145SOL     OW22875   0.912   2.067   9.208 -0.5389  0.3750 -0.0918
 7145SOL    HW122876   0.908   2.160   9.227 -1.6090  0.1565  0.8282
 7145SOL    HW222877   0.838   2.050   9.150 -0.7617 -0.0091  0.2923
 7146SOL     OW22878   3.359   2.606   7.665 -0.1673  0.0587  0.1209
 7146SOL    HW122879   3.436   2.645   7.625 -1.0252  0.2235 -1.4660
 7146SOL    HW222880   3.341   2.660   7.742 -0.3052  1.7577 -1.0481
 7147SOL     OW22881   2.743   7.104   8.034 -0.5375  0.4228  0.3854
 7147SOL    HW122882   2.716   7.029   7.982 -0.4332  1.0079 -0.5366
 7147SOL    HW222883   2.783   7.066   8.113  1.3185 -0.5473 -0.9404
 7148SOL     OW22884   2.148   1.395   8.981  0.7240 -0.4457 -0.2210
 7148SOL    HW122885   2.145   1.344   8.899 -0.2674 -0.0846 -0.4297
 7148SOL    HW222886   2.188   1.478   8.956  1.0003 -0.5714 -0.1997
 7149SOL     OW22887   4.620   0.866   9.885 -0.0713  0.7575  0.3009
 7149SOL    HW122888   4.713   0.852   9.897 -0.2690  0.2230  1.3850
 7149SOL    HW222889   4.608   0.961   9.898  0.4142  0.9496 -0.6177
 7150SOL     OW22890   4.519   1.574   7.344 -0.3157  0.3180 -0.0526
 7150SOL    HW122891   4.425   1.591   7.337 -0.3577 -0.2731 -1.2395
 7150SOL    HW222892   4.536   1.510   7.275  1.1571  1.1986 -0.5307
 7151SOL     OW22893   2.197   3.278  10.551  0.0718  0.2425 -0.0306
 7151SOL    HW122894   2.242   3.350  10.506  0.8098 -0.3171 -0.1975
 7151SOL    HW222895   2.223   3.200  10.503 -0.1515 -0.2185  0.5908
 7152SOL     OW22896   2.883   0.795   8.595 -0.5756  0.2296 -0.0223
 7152SOL    HW122897   2.810   0.740   8.622 -0.8005  0.3955 -0.2876
 7152SOL    HW222898   2.946   0.787   8.666 -0.2493 -1.0190 -0.4111
 7153SOL     OW22899   4.405   0.786   9.329  0.3817  0.0420 -0.1124
 7153SOL    HW122900   4.416   0.878   9.304 -4.0929  1.2473  1.3884
 7153SOL    HW222901   4.380   0.789   9.421  0.6198 -2.8189  0.1437
 7154SOL     OW22902   4.878   0.310   9.426 -0.0456 -0.4965 -0.0554
 7154SOL    HW122903   4.832   0.389   9.455  0.0166 -0.7555  0.7905
 7154SOL    HW222904   4.970   0.327   9.448 -0.0496 -0.8459  0.2409
 7155SOL     OW22905   2.094   1.841   9.316  0.4101 -0.2084 -0.0348
 7155SOL    HW122906   2.019   1.898   9.299  0.2046 -0.9363 -1.7390
 7155SOL    HW222907   2.124   1.815   9.229  1.0024 -2.0437  0.6819
 7156SOL     OW22908   2.053   2.204   9.251 -0.1759 -0.1705  0.0490
 7156SOL    HW122909   2.102   2.256   9.315  2.5101 -2.2202 -0.1972
 7156SOL    HW222910   2.119   2.165   9.195 -2.2280 -1.6647 -1.4996
 7157SOL     OW22911   2.641   1.316   6.663  0.1612 -0.2066  0.9068
 7157SOL    HW122912   2.638   1.327   6.758  0.6508  0.1634  0.8861
 7157SOL    HW222913   2.573   1.375   6.629  0.2311 -0.0642  1.0110
 7158SOL     OW22914   4.415   1.076   5.955 -0.4891 -0.3560 -0.1051
 7158SOL    HW122915   4.335   1.034   5.925  0.2775 -0.3980 -2.2539
 7158SOL    HW222916   4.477   1.004   5.968 -0.5488 -0.2574  0.8147
 7159SOL     OW22917   1.503   1.032  10.456  0.3822 -0.9676 -0.0707
 7159SOL    HW122918   1.561   1.108  10.464  1.4081 -1.7928  0.6577
 7159SOL    HW222919   1.489   1.004  10.547  0.0869 -1.7035 -0.3410
 7160SOL     OW22920   2.155   1.362  10.786  0.3995 -0.0777 -0.2718
 7160SOL    HW122921   2.223   1.428  10.779  2.2858 -1.9364 -0.5666
 7160SOL    HW222922   2.199   1.284  10.820 -1.4432 -1.5477 -1.0080
 7161SOL     OW22923   2.294   7.995   8.135 -0.5136  0.3339  0.2970
 7161SOL    HW122924   2.267   8.086   8.126 -1.3172  0.1492  0.7686
 7161SOL    HW222925   2.216   7.944   8.114 -0.4380 -0.2181  1.2654
 7162SOL     OW22926   5.010   1.523  10.370  0.4999  0.3131  0.2142
 7162SOL    HW122927   5.095   1.479  10.367  0.1829 -0.3226  0.2475
 7162SOL    HW222928   4.988   1.539  10.278 -0.2843 -1.4243  0.0549
 7163SOL     OW22929   2.291   0.697   8.412 -0.2964  0.2427 -0.2315
 7163SOL    HW122930   2.386   0.687   8.407 -0.4472 -1.0580 -1.2957
 7163SOL    HW222931   2.274   0.784   8.377  0.5133  0.5375  0.0913
 7164SOL     OW22932   3.047   0.665   5.503  0.1080 -0.4547 -0.0453
 7164SOL    HW122933   3.078   0.575   5.509  1.0357 -0.4771 -3.1873
 7164SOL    HW222934   3.120   0.713   5.464 -0.8546  1.3730  0.2760
 7165SOL     OW22935   2.183   0.897   8.247  0.3728  0.4511  0.6171
 7165SOL    HW122936   2.217   0.976   8.289  0.2368  0.5588  0.5269
 7165SOL    HW222937   2.252   0.871   8.186  0.7907 -0.0022  1.2720
 7166SOL     OW22938   3.015   1.430   8.960 -0.5070  0.7980 -0.1970
 7166SOL    HW122939   3.082   1.468   8.902 -1.9287  0.7173 -2.0060
 7166SOL    HW222940   3.034   1.467   9.046  1.3275  1.4496 -0.8258
 7167SOL     OW22941   4.654   1.702   8.173 -0.1462  0.0500  0.0670
 7167SOL    HW122942   4.599   1.683   8.249 -1.9989  2.9399 -0.3763
 7167SOL    HW222943   4.598   1.684   8.098  0.1923  1.0946 -0.4551
 7168SOL     OW22944   4.174   1.083   9.331  0.4694  0.2199 -0.5350
 7168SOL    HW122945   4.168   1.016   9.264 -1.6573  1.9166 -2.2062
 7168SOL    HW222946   4.099   1.067   9.388  0.2658  0.8407 -0.6209
 7169SOL     OW22947   2.209   7.208   8.980  0.2225  0.4022 -0.3721
 7169SOL    HW122948   2.261   7.150   8.924  0.0210  1.9907 -2.3286
 7169SOL    HW222949   2.248   7.295   8.967 -1.3912  1.2156  0.0101
 7170SOL     OW22950   3.339   0.951   6.342 -0.3361 -0.8260  0.4463
 7170SOL    HW122951   3.297   1.022   6.391 -2.6407 -1.6991 -0.1729
 7170SOL    HW222952   3.396   0.996   6.280 -0.6327  0.4258  1.0427
 7171SOL     OW22953   3.280   2.308   7.839  0.3977 -0.1287  0.2947
 7171SOL    HW122954   3.272   2.256   7.759 -0.6972  0.3660  0.0650
 7171SOL    HW222955   3.330   2.385   7.813 -0.1563  0.1416  0.0327
 7172SOL     OW22956   4.133   7.921   8.425 -0.0937  0.4061  0.0734
 7172SOL    HW122957   4.103   7.990   8.485 -1.8552  0.3415 -0.6729
 7172SOL    HW222958   4.145   7.845   8.481  1.5678  1.1998  0.8605
 7173SOL     OW22959   5.962   0.852   9.783  0.1194 -0.1838 -0.8566
 7173SOL    HW122960   6.009   0.882   9.706 -0.5002  3.0834 -0.0923
 7173SOL    HW222961   5.876   0.828   9.751 -0.8589  3.1290 -1.0877
 7174SOL     OW22962   5.435   0.296   8.905  0.2051 -0.1680  0.2107
 7174SOL    HW122963   5.524   0.304   8.940  0.9631 -1.4187 -1.2803
 7174SOL    HW222964   5.420   0.378   8.859 -0.0228  0.6522  1.6563
 7175SOL     OW22965   4.863   7.480   9.501 -0.3399  0.4707  0.0823
 7175SOL    HW122966   4.777   7.439   9.488 -0.9653  1.9800 -0.7639
 7175SOL    HW222967   4.852   7.536   9.577  0.5069 -0.8534  1.2204
 7176SOL     OW22968   3.225   0.473   7.591 -0.3233 -0.4416 -0.4699
 7176SOL    HW122969   3.204   0.401   7.651 -0.8847 -0.8035 -1.0863
 7176SOL    HW222970   3.196   0.442   7.505  0.2751  0.1552 -0.8967
 7177SOL     OW22971   1.801   2.160   8.272  0.3564  0.1137 -0.2259
 7177SOL    HW122972   1.809   2.065   8.270 -0.7960 -0.0189  0.5554
 7177SOL    HW222973   1.808   2.187   8.180 -2.4818 -1.0367 -0.8937
 7178SOL     OW22974   3.481   3.314   9.064 -0.2915 -0.7104 -0.4043
 7178SOL    HW122975   3.536   3.259   9.008  0.6680  1.4285 -1.6869
 7178SOL    HW222976   3.412   3.345   9.005 -0.4122  0.0219  0.1179
 7179SOL     OW22977   2.990   1.819   9.735 -0.2399 -0.3096 -0.6719
 7179SOL    HW122978   2.931   1.851   9.804 -2.0421  2.1401 -3.0715
 7179SOL    HW222979   3.030   1.740   9.771 -1.4152  0.5397  2.9168
 7180SOL     OW22980   2.974   0.125   8.769 -0.3886  0.2157 -0.0474
 7180SOL    HW122981   2.879   0.115   8.772 -0.4417  0.4367 -0.7159
 7180SOL    HW222982   2.990   0.170   8.686  0.4710 -1.6668 -0.9461
 7181SOL     OW22983   2.167   1.673   7.203  0.2336  0.1475  0.3013
 7181SOL    HW122984   2.128   1.618   7.135  0.8066 -0.0020  0.0799
 7181SOL    HW222985   2.229   1.614   7.247 -0.0927  0.2630  0.9112
 7182SOL     OW22986   2.456   1.039   9.914 -0.3111  0.4199 -0.3172
 7182SOL    HW122987   2.415   1.106   9.858 -2.4195  1.2588  2.0283
 7182SOL    HW222988   2.541   1.077   9.938 -1.3044  2.1890  0.6612
 7183SOL     OW22989   4.122   1.316   7.173 -0.3611  0.4706  0.7355
 7183SOL    HW122990   4.210   1.342   7.199 -0.6278  0.5089  1.6414
 7183SOL    HW222991   4.130   1.223   7.151  0.4320  1.0692 -1.7633
 7184SOL     OW22992   2.601   1.178   8.708  0.2319  0.1998  0.0306
 7184SOL    HW122993   2.656   1.228   8.768 -1.7020  0.9298  1.2834
 7184SOL    HW222994   2.582   1.238   8.636  0.7586  0.0610 -0.2313
 7185SOL     OW22995   1.589   2.846   8.652  0.6519 -0.1288  0.0959
 7185SOL    HW122996   1.637   2.791   8.714  0.9531  0.2731  0.2209
 7185SOL    HW222997   1.657   2.885   8.597  0.6280  1.6732  1.2555
 7186SOL     OW22998   0.867   1.889   7.142 -0.4168 -0.3561  0.0170
 7186SOL    HW122999   0.892   1.927   7.226  0.3519 -0.6792 -0.0507
 7186SOL    HW223000   0.780   1.851   7.157 -0.9044  0.8264  0.2650
 7187SOL     OW23001   2.456   2.558  10.500  0.3189  0.4350  0.4209
 7187SOL    HW123002   2.450   2.470  10.464  0.3798  0.0919  1.2132
 7187SOL    HW223003   2.432   2.547  10.592 -1.5733  1.5768  0.1113
 7188SOL     OW23004   2.921   1.829   8.349  0.5112  0.2423 -0.0330
 7188SOL    HW123005   2.846   1.803   8.403  0.2690  0.7902 -0.0887
 7188SOL    HW223006   2.982   1.868   8.411  1.5373 -1.7672  0.2855
 7189SOL     OW23007   3.523   7.234   8.412  0.0863  0.2930  0.3730
 7189SOL    HW123008   3.569   7.227   8.496  0.0799 -0.2312  0.3332
 7189SOL    HW223009   3.436   7.266   8.436  0.4980  1.4223  0.4354
 7190SOL     OW23010   3.196   1.831   8.611  0.8738  0.3890  0.0528
 7190SOL    HW123011   3.115   1.781   8.612  1.6173 -0.8398  0.5268
 7190SOL    HW223012   3.190   1.883   8.530 -0.1074 -0.1223 -0.2267
 7191SOL     OW23013   4.348   1.541   9.080 -0.5348 -0.0410  0.0567
 7191SOL    HW123014   4.349   1.447   9.097 -0.7871 -0.1280 -0.3906
 7191SOL    HW223015   4.375   1.581   9.163 -0.8901 -0.4860  0.3912
 7192SOL     OW23016   4.103   1.234   9.058 -0.2356  0.4362 -0.1117
 7192SOL    HW123017   4.177   1.232   9.119 -0.0159  1.2404 -0.3417
 7192SOL    HW223018   4.034   1.277   9.107 -0.3910  0.1588 -0.0824
 7193SOL     OW23019   4.067   1.204   8.288  0.6713 -0.2572 -0.4322
 7193SOL    HW123020   4.054   1.294   8.316  0.0953  0.0927 -1.7203
 7193SOL    HW223021   3.989   1.184   8.236  1.1084 -1.2698 -0.7294
 7194SOL     OW23022   1.632   2.542   9.105 -0.3135 -0.2742  0.0480
 7194SOL    HW123023   1.720   2.520   9.137  0.2564 -0.0046 -1.2826
 7194SOL    HW223024   1.591   2.589   9.178  0.5799 -0.5464  0.7441
 7195SOL     OW23025   2.357   1.168   9.040 -0.7646 -0.8448  1.0899
 7195SOL    HW123026   2.288   1.234   9.046 -0.0858 -0.1111  0.8771
 7195SOL    HW223027   2.353   1.138   8.949 -0.2100 -0.1510  0.8333
 7196SOL     OW23028   4.677   7.236   8.710  0.3018 -0.6699  0.5509
 7196SOL    HW123029   4.734   7.236   8.788  0.2469  0.2532  0.5940
 7196SOL    HW223030   4.737   7.222   8.637  0.6668  0.8243  0.5476
 7197SOL     OW23031   6.240   2.863   8.212  0.1868  0.2975 -0.0783
 7197SOL    HW123032   6.316   2.861   8.154  1.1156  0.7865  1.1038
 7197SOL    HW223033   6.242   2.779   8.257  0.7787  0.8119  0.8809
 7198SOL     OW23034   0.465   1.515  10.026 -0.2634 -0.9110 -0.2241
 7198SOL    HW123035   0.502   1.520   9.938  0.5894  0.9733  0.1934
 7198SOL    HW223036   0.396   1.582  10.027  0.4471 -0.1533  0.8350
 7199SOL     OW23037   2.675   2.285   9.994 -0.0222  0.1788 -0.8130
 7199SOL    HW123038   2.620   2.313   9.921  0.1977 -0.3849 -1.2022
 7199SOL    HW223039   2.620   2.224  10.044 -0.3855  1.0270 -0.1532
 7200SOL     OW23040   1.503   0.367   9.130  0.3387 -0.1067 -0.0306
 7200SOL    HW123041   1.489   0.380   9.036 -0.7275 -0.9963 -0.0079
 7200SOL    HW223042   1.510   0.273   9.141  1.4029  0.0380  0.6715
 7201SOL     OW23043   2.141   1.375   9.666 -0.4155  0.2705  0.2303
 7201SOL    HW123044   2.207   1.340   9.606  1.2027 -0.0589  2.1037
 7201SOL    HW223045   2.065   1.392   9.610  0.5118 -1.3165 -1.6650
 7202SOL     OW23046   3.188   3.141   8.010  0.0246 -0.0190  0.1124
 7202SOL    HW123047   3.281   3.155   7.994 -0.4378  1.4803 -1.7568
 7202SOL    HW223048   3.159   3.087   7.936 -0.6512 -0.1118  0.4358
 7203SOL     OW23049   3.061   1.547   7.055  0.2371  0.0020 -0.2776
 7203SOL    HW123050   3.030   1.478   7.114 -1.5262  1.9784  1.2609
 7203SOL    HW223051   3.149   1.567   7.086  1.2703 -2.2283 -1.4855
 7204SOL     OW23052   3.213   7.956   6.004 -0.0878  0.6897 -0.1372
 7204SOL    HW123053   3.228   7.984   6.094 -1.7890 -0.9863  0.7247
 7204SOL    HW223054   3.149   8.019   5.969 -1.8155 -0.4063  0.9013
 7205SOL     OW23055   3.422   1.867   7.469  0.0912  0.0872  0.9782
 7205SOL    HW123056   3.419   1.939   7.406  1.4676 -0.3280  0.3985
 7205SOL    HW223057   3.512   1.834   7.463 -0.3022 -1.1822  1.7941
 7206SOL     OW23058   3.948   1.217   9.526 -0.2104  0.0891  0.1121
 7206SOL    HW123059   3.875   1.207   9.465 -0.6235 -0.8543  0.7493
 7206SOL    HW223060   4.001   1.287   9.488  0.1365 -1.2022 -1.9402
 7207SOL     OW23061   2.902   2.097   8.936 -0.6863 -0.2405  0.5398
 7207SOL    HW123062   2.851   2.166   8.979 -0.6741  0.0723  0.0624
 7207SOL    HW223063   2.839   2.025   8.923 -1.2946  0.4997 -0.9138
 7208SOL     OW23064   2.733   3.441   7.557  0.4577  0.3262  0.1873
 7208SOL    HW123065   2.741   3.365   7.500 -1.2647  0.9287 -0.9398
 7208SOL    HW223066   2.689   3.507   7.503  1.2256  1.8661  1.3706
 7209SOL     OW23067   1.104   2.542   9.089  0.6337  0.1146  0.4332
 7209SOL    HW123068   1.060   2.457   9.086 -0.4189  0.5340  2.0519
 7209SOL    HW223069   1.188   2.528   9.046 -0.0306 -1.4024 -0.4512
 7210SOL     OW23070   3.434   1.404  10.382 -0.0924 -0.1032  0.5301
 7210SOL    HW123071   3.477   1.482  10.345  0.2323 -0.8117 -0.6437
 7210SOL    HW223072   3.498   1.367  10.442  0.4274 -0.3939 -0.1873
 7211SOL     OW23073   4.505   1.673   8.613 -0.3545 -0.4337  0.1583
 7211SOL    HW123074   4.545   1.758   8.630  0.2469 -0.5108 -0.7630
 7211SOL    HW223075   4.415   1.682   8.642 -0.1340  0.3310  0.6151
 7212SOL     OW23076   3.251   2.187   8.657 -0.1031  0.3517  0.3279
 7212SOL    HW123077   3.214   2.142   8.733 -1.1983  0.6942  0.0217
 7212SOL    HW223078   3.303   2.120   8.613 -1.0396 -0.3980  0.3303
 7213SOL     OW23079   4.514   1.768   7.638  0.3359  0.0912 -0.3009
 7213SOL    HW123080   4.564   1.704   7.587 -1.0563 -0.1960 -1.3679
 7213SOL    HW223081   4.562   1.850   7.626  0.7827 -0.2507 -0.9485
 7214SOL     OW23082   4.065   0.909   8.308  0.0849  0.0801 -0.4564
 7214SOL    HW123083   3.994   0.868   8.356  0.6677 -0.6021 -0.1561
 7214SOL    HW223084   4.041   1.002   8.303 -0.5151 -0.0382  0.1774
 7215SOL     OW23085   1.154   2.331   8.667 -0.3181 -0.1069 -0.5396
 7215SOL    HW123086   1.233   2.293   8.630  0.1531 -0.5628  0.8444
 7215SOL    HW223087   1.155   2.304   8.759 -2.3481 -0.5434 -0.5857
 7216SOL     OW23088   3.100   1.149   9.002 -0.1980 -0.1525 -0.5831
 7216SOL    HW123089   3.105   1.238   8.967  0.5958 -0.2181 -0.6641
 7216SOL    HW223090   3.007   1.132   9.013 -0.3249  1.0019  0.2188
 7217SOL     OW23091   3.893   6.234   9.484 -0.1407 -0.0163  0.0200
 7217SOL    HW123092   3.934   6.154   9.517  0.0722  0.0518 -0.0787
 7217SOL    HW223093   3.919   6.239   9.392 -1.2119 -0.5192 -0.3318
 7218SOL     OW23094   2.927   1.291   7.668 -0.1944  0.2563  0.0253
 7218SOL    HW123095   2.906   1.262   7.757  0.1304  0.2255  0.0924
 7218SOL    HW223096   3.018   1.320   7.673 -0.5267  1.3580 -0.0216
 7219SOL     OW23097   3.650   7.296   8.969 -0.2968 -0.2378  0.4165
 7219SOL    HW123098   3.581   7.270   9.030 -1.1545  1.1388  0.0480
 7219SOL    HW223099   3.610   7.360   8.911  1.0964  0.0854 -0.2468
 7220SOL     OW23100   2.777   0.415   7.621  0.1716  0.2720 -0.4894
 7220SOL    HW123101   2.748   0.363   7.696 -0.2795  1.9542  0.5607
 7220SOL    HW223102   2.695   0.440   7.577  0.4430 -0.9649 -1.7715
 7221SOL     OW23103   1.168   3.414   7.926 -0.0948 -0.2658 -0.1799
 7221SOL    HW123104   1.237   3.398   7.989 -0.5637 -1.3247  0.0856
 7221SOL    HW223105   1.088   3.382   7.968 -0.6396  0.2819 -0.7594
 7222SOL     OW23106   3.550   0.193   8.902 -0.7232 -0.1432  0.1523
 7222SOL    HW123107   3.505   0.234   8.976  0.3109 -0.2566  0.8823
 7222SOL    HW223108   3.622   0.254   8.882 -1.2694  0.1242 -1.0927
 7223SOL     OW23109   3.131   0.816   8.005 -0.0258  0.2374 -0.1723
 7223SOL    HW123110   3.163   0.878   8.070 -1.3235 -2.2422  3.1448
 7223SOL    HW223111   3.052   0.857   7.969  0.6356  1.6189 -0.0877
 7224SOL     OW23112   4.049   0.687   7.882  0.6018 -0.4179  0.2469
 7224SOL    HW123113   4.137   0.661   7.909  0.0999 -1.4378  0.9652
 7224SOL    HW223114   3.991   0.645   7.946 -0.3542  1.2242  0.5132
 7225SOL     OW23115   3.788   1.723   9.202 -0.5814  0.4456 -0.3034
 7225SOL    HW123116   3.856   1.679   9.149 -0.5246 -0.4483  0.4690
 7225SOL    HW223117   3.756   1.794   9.147  0.7711  0.6909 -0.8124
 7226SOL     OW23118   2.201   3.154   6.676 -0.2257 -0.0413  0.6392
 7226SOL    HW123119   2.121   3.183   6.719 -1.4167 -1.0018 -0.8401
 7226SOL    HW223120   2.222   3.224   6.615 -0.6697 -0.3548  0.1221
 7227SOL     OW23121   3.528   7.938   8.801  0.3967  0.3808 -0.3108
 7227SOL    HW123122   3.589   7.933   8.728  0.1472  1.3418 -0.6019
 7227SOL    HW223123   3.525   8.031   8.823 -1.5821  0.4843 -0.8404
 7228SOL     OW23124   3.671   1.477   5.882 -0.6515  0.3597 -0.1544
 7228SOL    HW123125   3.625   1.561   5.887 -1.0693  0.0948  0.6029
 7228SOL    HW223126   3.701   1.471   5.791 -2.2786  0.4672 -0.7316
 7229SOL     OW23127   2.412   1.013   8.389 -0.2738 -0.3609 -0.3557
 7229SOL    HW123128   2.413   0.949   8.460 -0.6715  1.0460  0.9780
 7229SOL    HW223129   2.497   1.056   8.393 -0.1029 -0.6051 -1.0848
 7230SOL     OW23130   4.774   0.153  10.180  0.0316 -0.9659 -0.8473
 7230SOL    HW123131   4.761   0.227  10.121  1.5208 -0.6344 -0.8057
 7230SOL    HW223132   4.776   0.192  10.268  1.8798 -0.8548 -0.8942
 7231SOL     OW23133   4.692   1.017   8.135 -0.2157 -0.1448 -0.7154
 7231SOL    HW123134   4.673   1.043   8.044  2.4547  0.0694 -1.3004
 7231SOL    HW223135   4.784   0.991   8.133 -0.5241 -1.6531  1.6486
 7232SOL     OW23136   3.907   2.495   6.558  0.0672 -0.3008 -0.1653
 7232SOL    HW123137   3.841   2.449   6.609  0.3017  0.3878  0.7946
 7232SOL    HW223138   3.858   2.564   6.513  0.1653  0.5012  0.9055
 7233SOL     OW23139   2.891   2.466   7.945  0.2107 -0.4484  0.1239
 7233SOL    HW123140   2.850   2.506   7.869  0.4637  0.7561  0.6014
 7233SOL    HW223141   2.875   2.528   8.016 -1.1566 -2.1230  1.3802
 7234SOL     OW23142   3.716   6.731   7.662 -0.2370  0.1556 -0.2085
 7234SOL    HW123143   3.728   6.782   7.583  0.7856 -0.0040 -0.1695
 7234SOL    HW223144   3.800   6.736   7.707 -1.0800  1.0566  1.3552
 7235SOL     OW23145   2.250   1.325   7.167 -0.1696  0.2768  0.0185
 7235SOL    HW123146   2.184   1.310   7.099  0.3597  0.3735 -0.5250
 7235SOL    HW223147   2.326   1.360   7.120  0.5405 -0.5430  0.5173
 7236SOL     OW23148   3.385   0.614   6.130  0.4926 -0.4831  0.5139
 7236SOL    HW123149   3.399   0.610   6.036  1.0279  0.5555  0.5421
 7236SOL    HW223150   3.414   0.528   6.162  0.3594 -0.8215 -0.2487
 7237SOL     OW23151   3.009   1.520   9.253 -0.1117 -0.1574 -0.1384
 7237SOL    HW123152   3.017   1.586   9.322 -0.2701 -0.4697  0.1839
 7237SOL    HW223153   3.036   1.438   9.295 -1.2994 -0.5566 -0.1122
 7238SOL     OW23154   0.167   0.244   7.588  0.0672 -0.5212 -0.1958
 7238SOL    HW123155   0.124   0.315   7.635  0.1484 -0.8152  0.3292
 7238SOL    HW223156   0.243   0.284   7.546 -0.0494 -0.2432 -0.1401
 7239SOL     OW23157   1.653   1.015  10.155 -0.1692  0.3592  0.6284
 7239SOL    HW123158   1.677   1.074  10.084  0.2581 -0.5711 -0.0171
 7239SOL    HW223159   1.728   1.016  10.214 -0.5655  1.2112  1.1441
 7240SOL     OW23160   3.926   1.450   8.297 -0.4264  0.3840 -0.2182
 7240SOL    HW123161   3.886   1.509   8.233 -0.1082  1.3593  0.4664
 7240SOL    HW223162   3.997   1.501   8.336 -1.2291  0.1623  1.6185
 7241SOL     OW23163   2.329   6.120   8.166  0.4156  0.0260  0.0494
 7241SOL    HW123164   2.379   6.170   8.101  0.1907  0.6546  0.3652
 7241SOL    HW223165   2.366   6.146   8.250  0.8550 -0.9495  0.1855
 7242SOL     OW23166   3.290   0.998   8.770 -0.3487 -0.4937 -0.6418
 7242SOL    HW123167   3.244   0.982   8.853  3.1378  1.0198  1.8197
 7242SOL    HW223168   3.289   1.094   8.761  2.7434 -0.3093 -0.0529
 7243SOL     OW23169   2.671   7.859   8.597 -0.4975  0.0533  0.3409
 7243SOL    HW123170   2.593   7.807   8.617 -0.9744 -1.0290 -3.5097
 7243SOL    HW223171   2.744   7.798   8.609 -0.6347 -0.1474  0.1684
 7244SOL     OW23172   1.363   0.749   9.267  0.1812  0.3695  0.3276
 7244SOL    HW123173   1.405   0.677   9.314 -1.0947 -0.2554  0.5564
 7244SOL    HW223174   1.394   0.740   9.177 -0.6141 -1.0120  0.1575
 7245SOL     OW23175   3.681   0.091   8.377 -0.2522 -0.1505  0.0685
 7245SOL    HW123176   3.602   0.139   8.350 -0.1790  1.2491  2.1439
 7245SOL    HW223177   3.753   0.145   8.346 -0.1223 -0.2534  0.1948
 7246SOL     OW23178   3.187   0.494   8.088  0.2014  0.1684  0.2001
 7246SOL    HW123179   3.199   0.472   7.995 -0.3446  1.6351 -0.2620
 7246SOL    HW223180   3.149   0.582   8.086 -1.1988 -0.3548  1.7956
 7247SOL     OW23181   2.424   1.904   8.450 -0.2614 -0.2785 -0.4103
 7247SOL    HW123182   2.496   1.965   8.433  0.7387 -1.3942 -0.2984
 7247SOL    HW223183   2.382   1.892   8.364  0.7074 -0.8719 -0.8129
 7248SOL     OW23184   3.166   2.535   9.355 -0.6929  0.3001  0.4458
 7248SOL    HW123185   3.147   2.550   9.448  1.4137 -0.8999  1.1153
 7248SOL    HW223186   3.254   2.571   9.343 -1.1184  0.8600 -1.2346
 7249SOL     OW23187   3.913   0.537   6.596 -0.0322  0.8683 -0.3884
 7249SOL    HW123188   3.871   0.608   6.548  0.7586  0.4215 -1.8183
 7249SOL    HW223189   3.911   0.463   6.536 -0.5661 -0.2594  0.9533
 7250SOL     OW23190   2.820   0.468   8.429  0.6143  0.2365 -0.4913
 7250SOL    HW123191   2.872   0.546   8.449 -0.6507  0.2290  3.9069
 7250SOL    HW223192   2.870   0.396   8.466  0.4615 -0.6800 -2.0193
 7251SOL     OW23193   3.676   1.172   9.026 -0.2943 -0.1262  0.4699
 7251SOL    HW123194   3.637   1.125   9.100  1.2642 -1.3996  0.5490
 7251SOL    HW223195   3.747   1.223   9.065  0.1542 -0.3381 -0.0571
 7252SOL     OW23196   1.828   2.275   8.033 -0.2691 -0.1353  0.3363
 7252SOL    HW123197   1.816   2.370   8.038 -0.4791 -0.1875  1.0390
 7252SOL    HW223198   1.916   2.264   7.998 -0.5300  0.3083 -0.4705
 7253SOL     OW23199   3.010   2.814   7.831 -0.1353 -0.3110  0.1287
 7253SOL    HW123200   3.081   2.761   7.866 -0.1361  1.0703  2.4282
 7253SOL    HW223201   3.050   2.900   7.815 -0.5718 -0.4007 -1.7294
 7254SOL     OW23202   0.865   1.522   9.961  0.4494 -0.0015 -0.3943
 7254SOL    HW123203   0.934   1.526   9.896 -1.0316 -0.3054 -2.0501
 7254SOL    HW223204   0.859   1.429   9.984 -0.2772 -0.1818 -1.2603
 7255SOL     OW23205   2.810   1.952   8.123  0.8361 -0.0197  0.3232
 7255SOL    HW123206   2.849   1.905   8.197  0.9810 -1.6784 -0.7622
 7255SOL    HW223207   2.727   1.906   8.106  1.4271 -0.5420 -1.3679
 7256SOL     OW23208   2.458   7.366  10.302  0.1585  0.4806  0.4104
 7256SOL    HW123209   2.550   7.362  10.330  0.2119  0.7640  0.2757
 7256SOL    HW223210   2.442   7.281  10.260  0.8367  1.0536 -1.0495
 7257SOL     OW23211   1.378   2.169   9.679 -0.3593  0.0939 -0.1930
 7257SOL    HW123212   1.350   2.111   9.608 -0.0897 -0.8117  0.4396
 7257SOL    HW223213   1.310   2.161   9.745 -0.0727  0.1323  0.1058
 7258SOL     OW23214   4.841   1.956  10.037  0.1736 -0.2642 -0.3579
 7258SOL    HW123215   4.903   2.019  10.000  0.1619 -0.1216 -0.1397
 7258SOL    HW223216   4.880   1.929  10.120 -0.5596  0.6692  0.3304
 7259SOL     OW23217   3.260   7.050  10.436 -0.0771  0.0241  0.6857
 7259SOL    HW123218   3.310   6.974  10.409  0.6153  0.9028 -0.6021
 7259SOL    HW223219   3.176   7.015  10.464  0.0503 -1.1733 -0.3491
 7260SOL     OW23220   1.622   1.273  10.500 -0.4654  0.0157 -0.3241
 7260SOL    HW123221   1.614   1.351  10.556 -2.8305  1.3683 -2.3684
 7260SOL    HW223222   1.654   1.307  10.417  0.3119 -1.5430 -0.6827
 7261SOL     OW23223   2.268   0.918  10.584  0.2934  0.2566  0.6359
 7261SOL    HW123224   2.328   0.894  10.655  0.7428  0.9731  0.5034
 7261SOL    HW223225   2.311   0.991  10.540  1.1135 -1.4987 -1.7393
 7262SOL     OW23226   2.269   1.517   8.563 -1.0588  0.2674  0.1132
 7262SOL    HW123227   2.279   1.434   8.516 -1.0359 -0.3684  1.1971
 7262SOL    HW223228   2.183   1.550   8.536 -1.7289 -0.8663  0.8058
 7263SOL     OW23229   4.110   7.177  10.072  0.0174 -0.3849 -0.0202
 7263SOL    HW123230   4.040   7.228  10.030  1.2862  3.2563  1.8961
 7263SOL    HW223231   4.158   7.139   9.999  0.6860  3.6300 -1.9654
 7264SOL     OW23232   1.827   2.926  12.025 -0.1763  0.4433 -0.4792
 7264SOL    HW123233   1.863   3.015  12.028 -2.2735  1.3669 -0.4725
 7264SOL    HW223234   1.758   2.930  11.959  0.2560 -1.4532 -1.1079
 7265SOL     OW23235   7.965   0.598  11.061 -0.0936  0.1766 -0.0779
 7265SOL    HW123236   7.894   0.661  11.048  1.9304  2.7014  0.3715
 7265SOL    HW223237   7.999   0.581  10.973  0.3111  0.9216 -0.0716
 7266SOL     OW23238   3.980   0.196  11.413  0.1545 -0.1121 -0.3723
 7266SOL    HW123239   3.988   0.178  11.319 -0.7433 -2.4359 -0.0626
 7266SOL    HW223240   3.912   0.136  11.443  0.5501  0.4613  1.8169
 7267SOL     OW23241   4.165   0.367   9.988  0.2631  0.6772 -0.9461
 7267SOL    HW123242   4.108   0.420   9.933 -0.3543  2.7920  1.5149
 7267SOL    HW223243   4.203   0.430  10.050  1.6861 -1.3842  0.3952
 7268SOL     OW23244   4.256   7.033   8.583  0.0627  0.6494  0.0399
 7268SOL    HW123245   4.231   7.065   8.496  1.9846  1.1626 -0.3672
 7268SOL    HW223246   4.251   6.938   8.576  0.7956  0.6605 -0.8459
 7269SOL     OW23247   2.625   1.616  10.054  0.4065  0.0241  0.6480
 7269SOL    HW123248   2.694   1.624  10.120  0.1032 -1.3692  1.1752
 7269SOL    HW223249   2.569   1.545  10.087 -1.1146  0.9266  0.0876
 7270SOL     OW23250   2.879   3.153  11.809  0.5179  0.4208  0.1344
 7270SOL    HW123251   2.967   3.185  11.825  1.0697 -0.6054 -0.6945
 7270SOL    HW223252   2.822   3.213  11.857  1.6075  1.5482  0.0548
 7271SOL     OW23253   0.881   3.784  11.402 -0.4928  0.7669  0.0582
 7271SOL    HW123254   0.896   3.777  11.496 -0.7733 -0.0849  0.0537
 7271SOL    HW223255   0.799   3.833  11.395 -0.3699  0.9983  0.2558
 7272SOL     OW23256   1.871   3.246  10.920  0.7416  0.1913  0.0407
 7272SOL    HW123257   1.935   3.239  10.849  0.0859 -1.8702 -0.4009
 7272SOL    HW223258   1.801   3.186  10.896 -0.9495  1.6611  0.9976
 7273SOL     OW23259   3.577   0.767  10.123  0.2392 -0.3402  0.2739
 7273SOL    HW123260   3.605   0.696  10.065  0.7934  0.4897 -0.4967
 7273SOL    HW223261   3.648   0.831  10.119 -0.0109  0.0334  1.3762
 7274SOL     OW23262   2.777   1.823   9.539 -0.2978  0.6829  0.3180
 7274SOL    HW123263   2.736   1.797   9.622 -1.0991  1.7831  0.3052
 7274SOL    HW223264   2.775   1.919   9.542  0.7758  0.7345 -0.4466
 7275SOL     OW23265   5.320   7.518   9.323  0.1431 -0.2837  0.1178
 7275SOL    HW123266   5.338   7.526   9.417  1.1962 -1.7139  0.0683
 7275SOL    HW223267   5.224   7.517   9.317  0.0621 -0.3694  1.1876
 7276SOL     OW23268   3.846   0.245  10.823 -0.0508  0.3902  0.5759
 7276SOL    HW123269   3.846   0.177  10.756 -1.1489  0.1060  0.8362
 7276SOL    HW223270   3.926   0.231  10.873  0.5044  0.2634 -0.3220
 7277SOL     OW23271   3.666   2.543   8.972 -0.5699  0.3118  0.5715
 7277SOL    HW123272   3.757   2.572   8.960  0.8579 -3.9854 -0.7645
 7277SOL    HW223273   3.613   2.612   8.932  2.3931  1.1021 -2.3852
 7278SOL     OW23274   1.710   2.740   8.883 -0.2614 -0.6817  0.0782
 7278SOL    HW123275   1.703   2.673   8.950  0.4400  0.5882  1.4686
 7278SOL    HW223276   1.792   2.785   8.902 -0.5053  0.2967 -1.0734
 7279SOL     OW23277   3.998   1.466   9.345 -0.1411 -0.3215 -0.4461
 7279SOL    HW123278   3.911   1.426   9.349  0.2686 -1.1480  1.1119
 7279SOL    HW223279   3.990   1.535   9.279 -2.2523  0.2717  0.3477
 7280SOL     OW23280   2.623   1.638   9.397 -0.1525  0.1100  0.8175
 7280SOL    HW123281   2.701   1.692   9.404 -0.6057  0.8957  0.0282
 7280SOL    HW223282   2.553   1.699   9.374 -0.2160 -1.0425 -2.6949
 7281SOL     OW23283   3.278   7.744   9.510  0.3798 -0.3021 -0.8835
 7281SOL    HW123284   3.185   7.754   9.491  0.1585  1.1400  0.6741
 7281SOL    HW223285   3.280   7.711   9.600  1.3458  0.8338 -0.4558
 7282SOL     OW23286   2.472   7.451  10.905  0.0764 -0.3787 -0.1338
 7282SOL    HW123287   2.403   7.417  10.961 -0.1232 -1.1937 -0.8415
 7282SOL    HW223288   2.431   7.460  10.819  0.9047 -1.1357 -0.6321
 7283SOL     OW23289   1.515   1.579  11.584  0.3324  0.3255 -0.2694
 7283SOL    HW123290   1.499   1.485  11.597  1.3404  0.3494  1.4044
 7283SOL    HW223291   1.519   1.615  11.672  0.7405  1.8185 -0.8744
 7284SOL     OW23292   3.314   7.761   8.763  0.0139 -0.1322  0.4707
 7284SOL    HW123293   3.393   7.804   8.793 -0.6917  1.4752  0.1281
 7284SOL    HW223294   3.292   7.699   8.833  0.7858  0.4309  1.2268
 7285SOL     OW23295   2.370   2.096  10.733  0.3336 -0.1123  0.5251
 7285SOL    HW123296   2.322   2.172  10.700  1.3479  0.0214 -0.7040
 7285SOL    HW223297   2.422   2.130  10.805  0.8734  0.3957 -0.0946
 7286SOL     OW23298   3.609   7.258   9.587  0.2445 -0.2762 -0.4528
 7286SOL    HW123299   3.619   7.245   9.493  0.4146  0.0943 -0.4886
 7286SOL    HW223300   3.624   7.351   9.600  3.1936 -0.7566  0.3026
 7287SOL     OW23301   2.362   2.549   9.984  0.1482  0.0078  0.1168
 7287SOL    HW123302   2.432   2.551   9.918 -0.0810  0.1312 -0.1232
 7287SOL    HW223303   2.387   2.617  10.046 -0.1919  0.6387 -0.4194
 7288SOL     OW23304   3.594   7.215  11.889  0.3477 -0.1675 -0.5357
 7288SOL    HW123305   3.615   7.300  11.928 -3.8379  0.4250  0.9640
 7288SOL    HW223306   3.584   7.233  11.796 -1.9833  1.5113 -0.0541
 7289SOL     OW23307   1.891   0.353  10.057 -0.4145 -0.2230  0.2379
 7289SOL    HW123308   1.830   0.282  10.077  0.5520 -0.9757  0.5608
 7289SOL    HW223309   1.968   0.309  10.021  0.5819  0.5841  1.3453
 7290SOL     OW23310   3.792   2.822   9.977 -0.4264 -0.3230 -1.1110
 7290SOL    HW123311   3.822   2.791   9.891  1.3021  0.4025 -0.8127
 7290SOL    HW223312   3.828   2.910   9.985 -2.0149  0.2951 -0.3306
 7291SOL     OW23313   2.451   7.394   8.913 -0.8394 -1.1833  0.1222
 7291SOL    HW123314   2.371   7.365   8.869 -1.3622  0.7418 -0.3063
 7291SOL    HW223315   2.516   7.401   8.843 -0.9650 -0.5262  0.0635
 7292SOL     OW23316   1.543   0.343   9.892 -0.0952  0.2202 -0.0962
 7292SOL    HW123317   1.566   0.262   9.847  2.1006  0.5873  0.2535
 7292SOL    HW223318   1.594   0.411   9.847 -0.8555  1.2006  0.4721
 7293SOL     OW23319   3.998   0.918   8.808 -0.0310  0.1348  0.1329
 7293SOL    HW123320   3.928   0.889   8.867 -0.6567  1.3607  0.0189
 7293SOL    HW223321   3.982   1.011   8.796  0.2836 -0.0106 -1.6880
 7294SOL     OW23322   4.291   1.606   8.827  0.2269  0.4097  0.0100
 7294SOL    HW123323   4.279   1.518   8.792  0.2352 -0.0548  1.1271
 7294SOL    HW223324   4.320   1.592   8.918  0.0850  1.5585  0.2482
 7295SOL     OW23325   1.005   2.293  10.561  0.0158 -0.0616  0.3646
 7295SOL    HW123326   1.056   2.350  10.618 -1.0331  0.4826  0.7860
 7295SOL    HW223327   1.064   2.271  10.489  0.9390  0.2805  1.0085
 7296SOL     OW23328   2.474   1.641  11.012  0.0480  0.1411 -0.1871
 7296SOL    HW123329   2.507   1.724  10.979 -0.8420  0.2714 -0.7802
 7296SOL    HW223330   2.552   1.590  11.032  0.6570  1.6742  1.6532
 7297SOL     OW23331   5.354   0.541   9.979 -0.1612 -0.5698 -0.6181
 7297SOL    HW123332   5.399   0.486   9.915 -0.4568 -1.9779  0.3244
 7297SOL    HW223333   5.261   0.521   9.967 -0.5317  1.6272 -1.9282
 7298SOL     OW23334   4.139   7.412   9.644  0.2734 -0.2607 -0.1009
 7298SOL    HW123335   4.070   7.441   9.584  1.0815  1.9365 -0.0352
 7298SOL    HW223336   4.096   7.406   9.729 -0.7900 -3.0230 -0.7265
 7299SOL     OW23337   2.942   2.388  10.409  0.1166 -0.2715 -0.5143
 7299SOL    HW123338   2.891   2.465  10.384 -1.6496 -0.6900  1.4923
 7299SOL    HW223339   2.995   2.416  10.483 -0.4235 -0.9129  0.1323
 7300SOL     OW23340   2.254   1.267  11.787  0.0091  0.8645  0.1843
 7300SOL    HW123341   2.325   1.331  11.778  0.4775  0.5347  1.2986
 7300SOL    HW223342   2.298   1.183  11.801 -0.6045  0.2802 -1.2652
 7301SOL     OW23343   3.609   2.130   9.339 -0.3898 -0.0349  0.5434
 7301SOL    HW123344   3.649   2.060   9.390  0.0060  0.9550  1.6105
 7301SOL    HW223345   3.680   2.190   9.319 -0.4907 -0.4745 -1.3622
 7302SOL     OW23346   6.288   1.794   8.825  0.1744  0.0893 -1.3212
 7302SOL    HW123347   6.251   1.823   8.742 -0.5542 -0.6726 -1.2757
 7302SOL    HW223348   6.314   1.874   8.869 -1.9555  0.7160 -1.1102
 7303SOL     OW23349   4.327   1.000   8.689  0.0085 -0.7499  0.1481
 7303SOL    HW123350   4.405   1.006   8.633  0.5665  1.0495  1.0563
 7303SOL    HW223351   4.260   1.049   8.641 -0.2064 -1.2058 -0.0246
 7304SOL     OW23352   3.219   1.198  10.623  0.3984 -0.3375 -0.3595
 7304SOL    HW123353   3.290   1.146  10.586  0.3192  0.4682 -1.6806
 7304SOL    HW223354   3.154   1.204  10.554 -0.4161 -0.0218  0.4105
 7305SOL     OW23355   2.065   2.119   9.642  0.2472  0.4241 -0.0536
 7305SOL    HW123356   2.117   2.051   9.685  0.8268 -0.1694 -1.6247
 7305SOL    HW223357   2.054   2.186   9.709  0.7462 -0.6431  1.1458
 7306SOL     OW23358   1.607   2.956  10.856  0.5415  0.2977 -0.0579
 7306SOL    HW123359   1.639   2.866  10.860 -0.4216 -0.0636 -0.2427
 7306SOL    HW223360   1.613   2.979  10.764 -3.5471 -1.2601 -0.9338
 7307SOL     OW23361   4.093   2.280   9.973 -0.3694 -0.1469 -0.1907
 7307SOL    HW123362   4.153   2.213  10.007 -0.4798  0.4993  1.3956
 7307SOL    HW223363   4.148   2.335   9.918  0.2180 -0.2970  0.2271
 7308SOL     OW23364   1.948   2.229  10.815 -0.3961  0.0672 -0.5712
 7308SOL    HW123365   1.876   2.179  10.853 -1.9471  1.1584 -1.9653
 7308SOL    HW223366   2.017   2.164  10.801 -1.3027 -1.1200  0.2499
 7309SOL     OW23367   0.183   2.927  11.349  0.1213 -0.2021  0.4136
 7309SOL    HW123368   0.239   2.940  11.426  0.4528  1.1910 -0.0533
 7309SOL    HW223369   0.096   2.912  11.386  0.3211  0.2178  1.0663
 7310SOL     OW23370   2.114   2.214  11.115  0.3736  0.4396 -0.3056
 7310SOL    HW123371   2.207   2.190  11.109  0.5360  1.0017 -0.0926
 7310SOL    HW223372   2.072   2.166  11.044  0.3955 -1.8589  1.1037
 7311SOL     OW23373   2.090   2.272   9.965 -0.0066  1.1144 -0.0576
 7311SOL    HW123374   2.069   2.349  10.017  1.4891  0.7108  1.2106
 7311SOL    HW223375   2.025   2.207   9.993 -0.3095  1.4378  0.0038
 7312SOL     OW23376   2.376   2.326   8.596  0.3684 -0.6582 -0.6108
 7312SOL    HW123377   2.470   2.338   8.579  0.1644 -1.1379 -2.2162
 7312SOL    HW223378   2.333   2.365   8.521 -0.6838 -1.3613 -0.3907
 7313SOL     OW23379   2.460   0.245  10.243  0.5422  0.7355 -0.4764
 7313SOL    HW123380   2.475   0.287  10.328 -0.6365  0.7708 -0.2660
 7313SOL    HW223381   2.546   0.244  10.201  1.3718 -0.2409  1.1453
 7314SOL     OW23382   1.785   1.353   9.773  0.4684 -0.2494 -0.4344
 7314SOL    HW123383   1.697   1.388   9.761  1.7559  3.2809 -0.9965
 7314SOL    HW223384   1.820   1.345   9.684  0.5071 -2.4585 -0.2723
 7315SOL     OW23385   1.810   2.539   8.053 -0.3616 -0.1282 -0.4789
 7315SOL    HW123386   1.803   2.524   8.147  0.9504  0.3237 -0.2911
 7315SOL    HW223387   1.792   2.633   8.042  1.0645  0.1718 -0.4625
 7316SOL     OW23388   2.822   1.257   8.896 -0.2011  0.0303 -0.1729
 7316SOL    HW123389   2.756   1.277   8.962  0.4635  0.7021  0.2990
 7316SOL    HW223390   2.882   1.331   8.898 -0.3874  0.2625 -1.8338
 7317SOL     OW23391   1.460   2.763  11.396 -0.1033  0.4078 -0.2956
 7317SOL    HW123392   1.505   2.679  11.400 -2.4979 -0.9405  0.3811
 7317SOL    HW223393   1.488   2.809  11.475  2.2519  0.8677 -1.3364
 7318SOL     OW23394   3.570   1.350  11.492 -0.1616  0.0690 -0.4773
 7318SOL    HW123395   3.527   1.365  11.576  0.5124 -0.1874 -0.0761
 7318SOL    HW223396   3.648   1.406  11.495  0.4971 -0.8403 -0.4343
 7319SOL     OW23397   5.052   0.422  10.067 -0.8560  0.6922  0.1760
 7319SOL    HW123398   4.992   0.482  10.111 -0.5487  1.9618 -1.0498
 7319SOL    HW223399   4.995   0.362  10.019 -1.2157  2.1601 -1.3311
 7320SOL     OW23400   2.956   1.397  10.905 -0.3178  0.3611 -0.0922
 7320SOL    HW123401   3.039   1.437  10.879 -0.2360  0.9185  0.9533
 7320SOL    HW223402   2.966   1.305  10.883  1.0462  0.1961  1.0647
 7321SOL     OW23403   5.578   0.846   8.780  0.4595 -0.4865  0.3053
 7321SOL    HW123404   5.587   0.782   8.709  4.0150 -2.0779  1.9354
 7321SOL    HW223405   5.520   0.804   8.844 -0.1141 -0.4650 -0.1936
 7322SOL     OW23406   2.405   6.562  11.930  0.4030  0.0573  0.4829
 7322SOL    HW123407   2.391   6.479  11.885  1.3143 -0.3854  0.9743
 7322SOL    HW223408   2.376   6.545  12.020 -0.0229  0.4738  0.4230
 7323SOL     OW23409   1.885   2.359   9.727 -0.7232  0.1098 -0.1711
 7323SOL    HW123410   1.824   2.417   9.772 -1.1497  0.3684 -1.0564
 7323SOL    HW223411   1.833   2.282   9.704 -0.5887  0.1037 -0.4698
 7324SOL     OW23412   2.019   1.394  11.830 -0.3078  0.1116 -0.5150
 7324SOL    HW123413   2.101   1.351  11.807  1.3441  2.0271  1.3238
 7324SOL    HW223414   2.018   1.396  11.925 -2.2126  0.6762 -0.4959
 7325SOL     OW23415   3.518   0.551   9.700 -0.9269  0.3909 -0.4063
 7325SOL    HW123416   3.535   0.622   9.638 -3.3349  1.0042 -0.4826
 7325SOL    HW223417   3.423   0.539   9.697 -0.7930 -1.5506  1.0356
 7326SOL     OW23418   3.673   1.588   9.762 -0.2746  0.4502 -0.4246
 7326SOL    HW123419   3.656   1.531   9.836 -0.8627  1.1698  0.0080
 7326SOL    HW223420   3.769   1.595   9.759 -0.2406  0.2499  0.1343
 7327SOL     OW23421   2.924   0.918  11.774  0.2784 -0.1458 -0.5221
 7327SOL    HW123422   2.877   0.838  11.797  1.4776 -0.9220 -0.6354
 7327SOL    HW223423   2.963   0.899  11.689  2.4738 -0.3574  0.4431
 7328SOL     OW23424   2.339   1.793   9.411 -0.9899  0.2198 -0.3255
 7328SOL    HW123425   2.251   1.817   9.381 -1.1858 -2.2353 -2.0428
 7328SOL    HW223426   2.397   1.824   9.341 -0.5455  1.0976  0.4105
 7329SOL     OW23427   3.314   0.925   9.526 -0.4680 -0.2185  0.2807
 7329SOL    HW123428   3.231   0.972   9.531 -0.4063 -0.0706 -0.0677
 7329SOL    HW223429   3.375   0.979   9.577 -0.6164 -0.4044  0.6649
 7330SOL     OW23430   3.774   1.772  11.017  0.1947  0.3591 -0.2324
 7330SOL    HW123431   3.852   1.822  11.040 -0.3937  0.9056  0.6183
 7330SOL    HW223432   3.718   1.778  11.094 -0.4708 -0.4672 -0.6394
 7331SOL     OW23433   2.785   2.758   9.874  0.0614 -0.1084  0.5551
 7331SOL    HW123434   2.841   2.759   9.796 -0.3207  2.2944  0.2186
 7331SOL    HW223435   2.846   2.771   9.947  0.4605 -2.6942  0.7743
 7332SOL     OW23436   3.507   2.627   9.840 -0.0128  0.1405 -0.4210
 7332SOL    HW123437   3.597   2.595   9.833  0.4011  1.5067 -1.7109
 7332SOL    HW223438   3.455   2.562   9.793  0.3233 -0.4854  0.0533
 7333SOL     OW23439   2.908   2.431   9.992 -0.1308  0.0784 -0.3118
 7333SOL    HW123440   2.890   2.521   9.966 -1.2804  0.1699  0.6864
 7333SOL    HW223441   2.821   2.392  10.004  0.2673 -0.0981  2.7301
 7334SOL     OW23442   3.979   1.710  10.477  0.1794  0.4786  0.2644
 7334SOL    HW123443   3.971   1.778  10.543  0.5313 -0.3694  1.1969
 7334SOL    HW223444   4.000   1.631  10.526  0.7117 -0.1166 -0.8851
 7335SOL     OW23445   3.560   7.884   9.664  0.7333  0.4208  0.1747
 7335SOL    HW123446   3.626   7.953   9.656  1.0845  0.1194  0.4264
 7335SOL    HW223447   3.484   7.918   9.617  1.2304  0.5726 -0.5488
 7336SOL     OW23448   3.265   7.386   9.842  0.0397 -0.2576  0.6150
 7336SOL    HW123449   3.217   7.349   9.768  0.4133 -0.3794  0.4283
 7336SOL    HW223450   3.263   7.317   9.909 -1.3811  0.3236  1.2096
 7337SOL     OW23451   2.928   2.060   9.260 -0.2210  0.2721 -0.3385
 7337SOL    HW123452   2.934   2.099   9.347 -1.2319 -0.6763  0.1845
 7337SOL    HW223453   2.905   2.133   9.202 -0.2946  0.7788  0.3217
 7338SOL     OW23454   1.997   0.974  10.597 -0.0464  0.3890  0.1479
 7338SOL    HW123455   1.984   0.879  10.599 -0.9507  0.4703 -0.9309
 7338SOL    HW223456   2.092   0.986  10.594  0.0572 -0.4953 -0.2340
 7339SOL     OW23457   4.197   0.350  10.315  0.3110 -0.0509 -0.3551
 7339SOL    HW123458   4.241   0.403  10.249  2.2687  2.0894  2.4604
 7339SOL    HW223459   4.179   0.267  10.270  2.4155  0.8952 -3.2435
 7340SOL     OW23460   2.388   2.893  10.745  0.0976  0.3031 -0.0157
 7340SOL    HW123461   2.339   2.826  10.792  0.3444  1.3726  1.8766
 7340SOL    HW223462   2.422   2.950  10.814 -0.0338  2.3231 -1.5384
 7341SOL     OW23463   2.502   1.380  10.167  0.2798  0.0774  0.0966
 7341SOL    HW123464   2.407   1.372  10.165  0.3573 -1.3004 -1.5662
 7341SOL    HW223465   2.523   1.403  10.257 -1.5285 -1.3994  0.9771
 7342SOL     OW23466   4.483   2.206   9.728 -0.0541 -0.3093 -0.2759
 7342SOL    HW123467   4.459   2.177   9.640 -2.1943 -2.1109  0.8063
 7342SOL    HW223468   4.474   2.302   9.724  0.2995 -0.3182 -2.0991
 7343SOL     OW23469   2.467   2.983  10.196 -0.4889  0.1069  0.0518
 7343SOL    HW123470   2.541   3.041  10.212  0.1785 -0.5001 -0.7633
 7343SOL    HW223471   2.505   2.895  10.195 -1.3862 -0.2950  0.6419
 7344SOL     OW23472   3.988   1.754   8.648  0.1303  0.1101  0.3129
 7344SOL    HW123473   3.939   1.757   8.730 -2.3146  1.2730 -1.0878
 7344SOL    HW223474   3.939   1.693   8.592  1.4252 -0.2302 -0.5029
 7345SOL     OW23475   3.339   1.216  10.189 -0.2748  0.3803 -0.0914
 7345SOL    HW123476   3.273   1.175  10.246 -0.9019  1.8765  0.2918
 7345SOL    HW223477   3.395   1.266  10.249  0.5943 -0.0263 -0.5387
 7346SOL     OW23478   1.607   7.262   9.931  0.0012 -0.0418 -0.3044
 7346SOL    HW123479   1.637   7.320   9.862 -0.9500 -0.1398 -0.8144
 7346SOL    HW223480   1.540   7.207   9.890 -1.4087  0.6430  0.9391
 7347SOL     OW23481   4.316   1.050  10.644  0.3189  0.3662  1.0872
 7347SOL    HW123482   4.272   0.965  10.638 -0.0217  0.6013 -0.0763
 7347SOL    HW223483   4.344   1.057  10.735  1.3087 -1.4806  0.9777
 7348SOL     OW23484   4.141   0.819  10.564 -0.0672 -0.6234 -0.3337
 7348SOL    HW123485   4.048   0.838  10.558  0.3229  1.2772 -1.3334
 7348SOL    HW223486   4.171   0.817  10.473  1.1324  0.4401  0.0023
 7349SOL     OW23487   4.843   7.088   8.937 -0.2272 -0.5214  0.5523
 7349SOL    HW123488   4.784   7.036   8.992 -0.7773 -1.6580 -1.0398
 7349SOL    HW223489   4.875   7.027   8.872  1.4252  0.4928  0.3590
 7350SOL     OW23490   1.643   2.122  10.469  0.0890  0.5307 -0.2724
 7350SOL    HW123491   1.711   2.187  10.484 -0.4570  0.8498  0.9437
 7350SOL    HW223492   1.675   2.070  10.395  1.2992  1.1287 -0.1931
 7351SOL     OW23493   4.098   2.276   9.212  0.2163 -0.0696 -0.5725
 7351SOL    HW123494   4.067   2.308   9.127  1.6707  1.8301 -0.4325
 7351SOL    HW223495   4.112   2.182   9.198 -1.8553 -0.2772 -1.6992
 7352SOL     OW23496   3.677   7.491  11.420  0.2971  0.4660  0.1352
 7352SOL    HW123497   3.693   7.558  11.486 -2.1578 -1.1802  2.5892
 7352SOL    HW223498   3.740   7.422  11.440 -1.1070 -0.4686  1.4966
 7353SOL     OW23499   1.654   2.779  11.601 -0.1249  1.0787  0.1088
 7353SOL    HW123500   1.730   2.722  11.613 -0.7470  0.0723 -0.6069
 7353SOL    HW223501   1.640   2.819  11.688  0.7154  0.6409  0.4510
 7354SOL     OW23502   1.597   2.469  11.654 -0.1405 -0.3647  0.7484
 7354SOL    HW123503   1.585   2.508  11.567  1.6015 -1.5522 -0.0880
 7354SOL    HW223504   1.512   2.479  11.697 -1.3236 -0.5140 -1.4112
 7355SOL     OW23505   4.206   7.037   9.846  0.3904 -0.4105 -0.0814
 7355SOL    HW123506   4.245   6.949   9.844 -0.0278 -0.6482  1.3786
 7355SOL    HW223507   4.183   7.054   9.754  0.0520 -2.0238 -0.3378
 7356SOL     OW23508   3.747   0.304   8.723 -0.0962 -0.7391  0.3601
 7356SOL    HW123509   3.787   0.225   8.688  0.1653 -0.3524 -0.2272
 7356SOL    HW223510   3.662   0.309   8.680 -1.6083 -2.4908  2.8635
 7357SOL     OW23511   1.607   0.322  11.278 -0.2956 -0.0883 -0.6342
 7357SOL    HW123512   1.574   0.397  11.328 -0.1678 -1.1433  1.1124
 7357SOL    HW223513   1.543   0.253  11.293 -1.2715  0.0389 -3.5280
 7358SOL     OW23514   3.331   0.869  10.103  0.3965  0.1506 -0.1611
 7358SOL    HW123515   3.424   0.843  10.104 -0.0248 -1.5009  0.4154
 7358SOL    HW223516   3.316   0.905  10.191  0.4619  0.2753 -0.2019
 7359SOL     OW23517   4.580   0.295   8.716 -0.0974 -1.1739 -0.2473
 7359SOL    HW123518   4.494   0.311   8.678  0.2267 -0.0253 -0.5496
 7359SOL    HW223519   4.640   0.296   8.641  0.2653 -1.2816  0.0337
 7360SOL     OW23520   3.264   2.395   8.479 -0.4278  0.3126  0.4124
 7360SOL    HW123521   3.247   2.327   8.544  1.3074 -1.3805 -0.8013
 7360SOL    HW223522   3.358   2.412   8.486 -0.3374  0.5983 -1.1354
 7361SOL     OW23523   2.580   1.941   9.275 -0.1390 -0.6301  0.6740
 7361SOL    HW123524   2.669   1.968   9.251  0.0745 -0.3381  1.7290
 7361SOL    HW223525   2.545   2.016   9.325 -0.7907 -0.9441  0.6967
 7362SOL     OW23526   3.955   7.111   9.372 -0.2792  0.0928  0.2678
 7362SOL    HW123527   3.949   7.156   9.288 -2.1699 -0.7242 -0.0978
 7362SOL    HW223528   3.868   7.073   9.385 -0.0949  0.2951  2.6586
 7363SOL     OW23529   1.790   0.000  11.732 -0.3590 -0.2473  0.1848
 7363SOL    HW123530   1.707  -0.041  11.757 -0.5958  0.9175  1.4743
 7363SOL    HW223531   1.764   0.088  11.704  0.5719  0.8625  2.5565
 7364SOL     OW23532   2.343   1.161  11.254  0.1714  0.4354  0.1432
 7364SOL    HW123533   2.287   1.084  11.240  0.9220  0.0990 -1.1818
 7364SOL    HW223534   2.385   1.144  11.339 -2.3221  1.1079  1.5915
 7365SOL     OW23535   3.814   1.644   8.133  0.2964 -0.0341  0.1628
 7365SOL    HW123536   3.720   1.628   8.141  0.2893 -0.2320 -0.3201
 7365SOL    HW223537   3.842   1.589   8.061  0.6842  0.4408 -0.0551
 7366SOL     OW23538   3.749   0.711   0.167 -0.0330  0.3366  0.0784
 7366SOL    HW123539   3.674   0.657   0.189  0.3261 -0.4397 -0.5231
 7366SOL    HW223540   3.807   0.704   0.243 -0.7689  1.3554  0.7645
 7367SOL     OW23541   4.614   0.513  11.317 -0.4107  0.2455  0.2040
 7367SOL    HW123542   4.647   0.521  11.407  1.4665 -1.4778 -0.2685
 7367SOL    HW223543   4.692   0.500  11.264 -1.5665  0.3048 -1.5725
 7368SOL     OW23544   3.488   3.724  11.198 -0.0663 -0.1173 -0.4430
 7368SOL    HW123545   3.513   3.778  11.123 -0.9467  1.1797  0.1573
 7368SOL    HW223546   3.486   3.635  11.163  0.4258  0.3505 -1.7324
 7369SOL     OW23547   3.641   2.154   9.681  0.7058 -0.0574  0.1038
 7369SOL    HW123548   3.585   2.186   9.752 -1.6156 -3.0586 -0.1529
 7369SOL    HW223549   3.708   2.102   9.725 -1.8465 -3.5498  0.3019
 7370SOL     OW23550   3.731   0.665   8.440 -1.0630  0.4323  0.2584
 7370SOL    HW123551   3.639   0.677   8.461 -1.0074  1.2492  0.0870
 7370SOL    HW223552   3.732   0.596   8.373 -1.7549  1.8023 -1.2393
 7371SOL     OW23553   0.470   0.242  11.084 -0.5571  0.3470  0.1101
 7371SOL    HW123554   0.396   0.214  11.138  0.2555  2.1224  2.3154
 7371SOL    HW223555   0.542   0.185  11.112 -0.5861 -0.0071 -0.5270
 7372SOL     OW23556   3.020   1.471  10.581 -0.2622  0.9258  0.6318
 7372SOL    HW123557   3.065   1.549  10.549  1.5622 -0.1153  0.5019
 7372SOL    HW223558   3.087   1.423  10.631 -0.9088 -1.1959 -0.3965
 7373SOL     OW23559   3.790   0.940  10.079  0.3133 -0.1457  0.3200
 7373SOL    HW123560   3.792   0.997  10.156 -0.2547 -1.0595  1.0201
 7373SOL    HW223561   3.882   0.920  10.062  0.3760 -0.9909  1.5574
 7374SOL     OW23562   0.578   1.729  10.909  0.6058  0.0061 -0.3066
 7374SOL    HW123563   0.544   1.778  10.835  0.8433  1.1843  0.3450
 7374SOL    HW223564   0.622   1.794  10.963  1.4058 -1.0149  0.3135
 7375SOL     OW23565   3.374   0.335   9.390  0.1794 -0.6978  0.1037
 7375SOL    HW123566   3.404   0.406   9.333 -0.6644 -1.2635 -1.1111
 7375SOL    HW223567   3.297   0.300   9.345 -0.1268 -1.6102  1.2829
 7376SOL     OW23568   3.385   2.694   9.399 -0.0747  0.2998 -0.0319
 7376SOL    HW123569   3.393   2.746   9.479  0.7318 -0.9615  0.7487
 7376SOL    HW223570   3.469   2.649   9.391 -0.6475 -0.6947 -0.8058
 7377SOL     OW23571   1.305   7.884   9.615 -0.9041 -0.0601  0.5493
 7377SOL    HW123572   1.267   7.869   9.702 -1.6253  0.8470  0.4073
 7377SOL    HW223573   1.323   7.796   9.582  0.0698 -0.4035  1.9052
 7378SOL     OW23574   3.242   0.135  11.300  0.0281  0.3783  0.2645
 7378SOL    HW123575   3.230   0.046  11.267 -0.4184  1.0537 -1.5021
 7378SOL    HW223576   3.154   0.174  11.294  0.3578  1.1459  0.3923
 7379SOL     OW23577   3.233   3.554  11.431 -0.1005  0.3888 -0.1076
 7379SOL    HW123578   3.248   3.528  11.340  1.1318  2.8838 -0.6977
 7379SOL    HW223579   3.310   3.522  11.478  0.1449  0.6683 -0.3143
 7380SOL     OW23580   2.079   2.531  10.795 -0.1425 -0.1153  0.2513
 7380SOL    HW123581   2.008   2.475  10.828 -0.7792  0.2998 -0.3574
 7380SOL    HW223582   2.112   2.576  10.872 -0.2471 -0.6359  0.6098
 7381SOL     OW23583   5.104   5.975   8.597  0.0056 -0.9942 -0.2591
 7381SOL    HW123584   5.113   5.893   8.549  0.9306 -1.6251  0.9029
 7381SOL    HW223585   5.079   5.948   8.686 -1.7913  0.1277 -0.3801
 7382SOL     OW23586   4.153   7.185   7.944  0.3331  0.4824 -0.1916
 7382SOL    HW123587   4.162   7.278   7.967  2.5402  0.4473 -0.6219
 7382SOL    HW223588   4.063   7.162   7.967 -0.7422  3.0937 -1.4056
 7383SOL     OW23589   1.988   1.690  10.037 -0.4121  0.6221  0.0687
 7383SOL    HW123590   2.065   1.714  10.088  0.1433 -2.2752  0.7847
 7383SOL    HW223591   2.001   1.597  10.015 -2.8871  0.4934 -1.2753
 7384SOL     OW23592   1.941   0.614  10.130 -0.4419  0.4677  0.3097
 7384SOL    HW123593   1.996   0.601  10.206 -1.7633 -0.1099  1.2179
 7384SOL    HW223594   1.909   0.526  10.108 -1.5511  0.8544  0.2674
 7385SOL     OW23595   2.557   7.124  11.215 -0.1015  0.0610  0.3196
 7385SOL    HW123596   2.517   7.210  11.225 -0.7788  0.1047 -2.1491
 7385SOL    HW223597   2.625   7.121  11.282  0.8558  3.0471 -0.3759
 7386SOL     OW23598   5.261   6.187  10.627 -0.4428  0.3175 -0.6004
 7386SOL    HW123599   5.175   6.161  10.595 -0.6966  0.0938  0.2421
 7386SOL    HW223600   5.323   6.150  10.564 -0.8317 -1.6277  0.0874
 7387SOL     OW23601   3.537   1.651  10.291 -0.6389 -0.3524 -0.0743
 7387SOL    HW123602   3.630   1.670  10.283 -0.7191 -0.0934 -0.4089
 7387SOL    HW223603   3.507   1.638  10.201 -1.6737  3.1252 -0.3779
 7388SOL     OW23604   2.841   3.241  10.588  0.0971 -0.1331  0.1350
 7388SOL    HW123605   2.835   3.146  10.579 -2.2783 -0.0101 -0.3191
 7388SOL    HW223606   2.811   3.274  10.503  0.4248  1.0214  0.4532
 7389SOL     OW23607   1.075   0.747  10.342  0.9286  0.2665  0.3055
 7389SOL    HW123608   1.021   0.677  10.306  0.1297  0.8269  0.3761
 7389SOL    HW223609   1.083   0.811  10.271  0.2733  0.8597  0.7479
 7390SOL     OW23610   3.109   2.341  10.182 -0.0628  0.1113  0.6661
 7390SOL    HW123611   3.047   2.362  10.112  0.3162 -0.8210  0.0313
 7390SOL    HW223612   3.057   2.347  10.263 -1.2543 -1.5688  0.0896
 7391SOL     OW23613   2.467   1.849  10.845  0.2961  0.3638 -0.3288
 7391SOL    HW123614   2.557   1.876  10.833 -0.6447  2.5718 -3.6125
 7391SOL    HW223615   2.416   1.904  10.785 -3.0331 -2.0449 -0.0223
 7392SOL     OW23616   1.189   0.958  11.228  0.0566  0.1170  0.3765
 7392SOL    HW123617   1.151   1.039  11.263 -2.4930 -0.4628 -0.8829
 7392SOL    HW223618   1.149   0.888  11.279  1.7574 -0.4544  1.0211
 7393SOL     OW23619   3.067   0.324  10.610  0.2556  0.2214 -0.0614
 7393SOL    HW123620   3.117   0.266  10.553  0.9968 -0.7307  1.4916
 7393SOL    HW223621   3.085   0.412  10.576  0.3605 -0.3393 -1.5013
 7394SOL     OW23622   3.641   2.579   9.376 -0.0233  0.4623  0.4400
 7394SOL    HW123623   3.719   2.609   9.330 -0.3394  1.0095  0.2655
 7394SOL    HW223624   3.673   2.557   9.464  0.5647 -0.5213  0.0052
 7395SOL     OW23625   2.800   1.223   9.465  0.0037  0.1060 -0.4959
 7395SOL    HW123626   2.889   1.197   9.440  0.3206  0.5261  0.1899
 7395SOL    HW223627   2.783   1.175   9.546  0.1316  1.0826  0.1173
 7396SOL     OW23628   3.114   7.403   9.053 -0.3385  0.0150  1.2007
 7396SOL    HW123629   3.039   7.400   9.113 -0.4029 -2.4936  1.1199
 7396SOL    HW223630   3.183   7.355   9.098  0.7976  1.1063  0.6899
 7397SOL     OW23631   2.687   1.935  11.195 -0.0739 -0.0280  0.1155
 7397SOL    HW123632   2.699   1.932  11.100 -0.2125 -1.9173  0.1268
 7397SOL    HW223633   2.592   1.928  11.207 -0.2027  1.7932  0.3763
 7398SOL     OW23634   3.544   7.009  11.645  0.1433 -0.0237  0.5215
 7398SOL    HW123635   3.511   6.977  11.562  0.0197 -0.1684  0.6276
 7398SOL    HW223636   3.554   7.104  11.632  1.0415 -0.1749  0.0299
 7399SOL     OW23637   0.038   2.698  10.958  0.4441  0.0561  0.4981
 7399SOL    HW123638   0.032   2.790  10.983  0.7619  0.4304 -0.7517
 7399SOL    HW223639  -0.037   2.684  10.899  0.1530 -0.6050  1.0085
 7400SOL     OW23640   2.527   1.830   8.814  0.2927 -0.1699  0.4727
 7400SOL    HW123641   2.539   1.800   8.724 -0.1672  0.8818  0.0415
 7400SOL    HW223642   2.462   1.900   8.807  2.5081  2.1044  1.1399
 7401SOL     OW23643   2.786   0.971   9.622  0.0348 -0.2461 -0.1555
 7401SOL    HW123644   2.736   0.920   9.687 -0.5541 -1.2655 -1.3600
 7401SOL    HW223645   2.757   0.936   9.537  0.9355  0.9124 -0.9679
 7402SOL     OW23646   1.652   0.706  10.519  0.3972  0.2751  0.0547
 7402SOL    HW123647   1.665   0.728  10.427 -1.2670 -0.1901 -0.3314
 7402SOL    HW223648   1.576   0.758  10.546  2.1281  2.0840  1.8367
 7403SOL     OW23649   2.359   1.054   8.799  0.5479 -0.4610 -0.1177
 7403SOL    HW123650   2.446   1.084   8.773 -0.3246 -0.3239 -3.3907
 7403SOL    HW223651   2.360   0.960   8.783  0.3107 -0.5743  0.5163
 7404SOL     OW23652   3.499   6.873  10.417 -0.0233  0.5700 -0.1639
 7404SOL    HW123653   3.554   6.951  10.404  0.8127  0.3370  1.7090
 7404SOL    HW223654   3.557   6.800  10.397  0.1273  0.3542  0.9790
 7405SOL     OW23655   1.189   1.330  10.569  0.7685  0.1904 -0.0837
 7405SOL    HW123656   1.137   1.403  10.601 -0.5141 -1.2020  1.1569
 7405SOL    HW223657   1.274   1.340  10.613  0.1850  0.2546  1.0628
 7406SOL     OW23658   2.650   1.813  10.394 -0.4195  0.1518 -0.0497
 7406SOL    HW123659   2.719   1.774  10.340 -0.4578  0.5171 -0.3725
 7406SOL    HW223660   2.610   1.739  10.439 -1.1259 -0.3210 -1.3859
 7407SOL     OW23661   0.385   0.497  12.170  0.6855  0.0828 -0.7285
 7407SOL    HW123662   0.445   0.562  12.206 -0.9468  0.6819  1.0597
 7407SOL    HW223663   0.309   0.499  12.228 -1.2137 -0.4426 -3.0256
 7408SOL     OW23664   3.873   7.948  10.232 -0.3891  0.1762 -0.2097
 7408SOL    HW123665   3.876   7.933  10.326 -0.5856  1.6732  0.0651
 7408SOL    HW223666   3.929   7.880  10.194 -0.8182 -0.8322  0.9237
 7409SOL     OW23667   3.423   1.272   9.381  0.4122  0.7653  0.2044
 7409SOL    HW123668   3.432   1.285   9.475 -1.9997  0.8182  0.4965
 7409SOL    HW223669   3.385   1.353   9.348 -1.6624 -0.2975 -0.2431
 7410SOL     OW23670   2.007   4.189  11.426 -0.0040  0.4568  0.4309
 7410SOL    HW123671   1.986   4.274  11.464  0.8382  0.6395  0.4994
 7410SOL    HW223672   2.102   4.190  11.416 -0.0461 -0.2547 -0.0975
 7411SOL     OW23673   2.519   7.544  10.615  0.7987 -0.5673 -0.3374
 7411SOL    HW123674   2.432   7.523  10.581  0.8757 -0.0205 -0.8831
 7411SOL    HW223675   2.558   7.601  10.549  1.3173 -0.2574  0.2239
 7412SOL     OW23676   1.233   1.395  11.611  0.0126 -0.0765 -0.2742
 7412SOL    HW123677   1.253   1.469  11.669  1.6886 -0.8743  0.2433
 7412SOL    HW223678   1.286   1.411  11.533  1.4044 -1.3143  0.3563
 7413SOL     OW23679   1.668   1.952  10.246  0.1534 -0.0960 -0.2280
 7413SOL    HW123680   1.738   1.936  10.183  0.6562  1.5159 -0.1086
 7413SOL    HW223681   1.594   1.981  10.192 -0.3191 -1.3610 -0.3080
 7414SOL     OW23682   3.836   1.396   9.073 -0.0562 -0.0652  0.8515
 7414SOL    HW123683   3.901   1.465   9.064 -0.4573  0.2758  0.5133
 7414SOL    HW223684   3.778   1.426   9.143 -0.0950 -0.1710  0.8661
 7415SOL     OW23685   4.028   1.601   9.060 -0.3350  0.6472  0.3747
 7415SOL    HW123686   4.049   1.593   8.967 -0.6163 -1.9832  0.4679
 7415SOL    HW223687   4.110   1.630   9.101  0.4018 -0.2066 -0.4486
 7416SOL     OW23688   4.226   7.551   9.029  0.3552  0.2082 -0.3132
 7416SOL    HW123689   4.233   7.483   8.962  2.4469 -0.4320  0.4633
 7416SOL    HW223690   4.146   7.598   9.008 -0.7403 -1.9826 -1.3679
 7417SOL     OW23691   3.151   1.477  10.299 -0.1218 -0.9545 -0.1662
 7417SOL    HW123692   3.145   1.541  10.370 -0.4845 -0.1571 -0.9008
 7417SOL    HW223693   3.238   1.437  10.310  1.9006  2.4213 -1.9336
 7418SOL     OW23694   3.111   1.829  10.101  0.1524 -0.7138 -0.0315
 7418SOL    HW123695   3.043   1.895  10.089  2.0680  1.2451 -0.8914
 7418SOL    HW223696   3.064   1.747  10.110 -2.3955  0.7980  1.6613
 7419SOL     OW23697   3.233   0.571   9.707  0.4492 -0.3076 -0.4280
 7419SOL    HW123698   3.268   0.632   9.772  1.6034 -1.6818  0.3176
 7419SOL    HW223699   3.150   0.610   9.680  0.5101  0.9210  0.9770
 7420SOL     OW23700   2.662   2.349   8.554 -0.3087 -0.2801 -0.2471
 7420SOL    HW123701   2.693   2.389   8.473 -0.6845 -0.6268 -0.5659
 7420SOL    HW223702   2.741   2.311   8.594  0.0650  0.7947  0.0852
 7421SOL     OW23703   0.748   1.556  10.564 -0.3138  0.4512 -0.0319
 7421SOL    HW123704   0.698   1.588  10.488  0.0932  1.7339  0.2061
 7421SOL    HW223705   0.688   1.498  10.609 -0.8872  0.3851 -0.8458
 7422SOL     OW23706   3.406   0.967  10.574 -0.1336  0.1068  0.7139
 7422SOL    HW123707   3.494   0.932  10.581  0.5390  1.8370  1.5148
 7422SOL    HW223708   3.365   0.944  10.658  0.1422  0.7731  1.0379
 7423SOL     OW23709   2.267   2.350  10.682 -0.0383  0.7638 -0.3093
 7423SOL    HW123710   2.342   2.409  10.675 -0.7328  1.6524 -0.4765
 7423SOL    HW223711   2.197   2.405  10.718  0.2240 -0.7812  2.9917
 7424SOL     OW23712   4.116   1.330   9.938 -0.4852  0.0358 -0.0564
 7424SOL    HW123713   4.088   1.411   9.981 -0.7905 -0.2413  0.2730
 7424SOL    HW223714   4.037   1.296   9.896 -0.3934 -0.1750 -0.0599
 7425SOL     OW23715   3.868   2.959  11.566 -0.3775 -0.1494 -0.4578
 7425SOL    HW123716   3.843   2.883  11.514 -0.6994 -0.3196 -0.0572
 7425SOL    HW223717   3.793   3.018  11.560 -0.9728 -0.7351  0.8877
 7426SOL     OW23718   2.225   1.660  10.575  0.2269  0.5003 -0.3674
 7426SOL    HW123719   2.293   1.604  10.612 -0.2864 -0.9229 -1.4622
 7426SOL    HW223720   2.205   1.621  10.490 -1.0613  1.6272 -0.6313
 7427SOL     OW23721   2.171   3.552  10.090 -0.4183 -0.1611  0.1287
 7427SOL    HW123722   2.183   3.466  10.130 -0.1275  0.1668  0.7547
 7427SOL    HW223723   2.198   3.614  10.157 -0.3520  0.4139 -0.4182
 7428SOL     OW23724   1.762   0.198  10.819  0.0354 -0.0820  0.2371
 7428SOL    HW123725   1.770   0.155  10.734  1.4951 -0.7408  0.6824
 7428SOL    HW223726   1.832   0.160  10.872  0.1376  1.4410  1.2501
 7429SOL     OW23727   3.214   0.680  12.230 -0.0892 -0.2945  0.2521
 7429SOL    HW123728   3.183   0.615  12.168  1.4561 -2.2049  1.3505
 7429SOL    HW223729   3.154   0.673  12.304 -1.4718  1.4416 -0.6344
 7430SOL     OW23730   3.938   1.577   9.744  0.2858 -0.7783 -0.4228
 7430SOL    HW123731   3.999   1.519   9.699 -1.7218 -0.4836 -3.9120
 7430SOL    HW223732   3.985   1.660   9.751  1.3281 -1.3711 -0.2135
 7431SOL     OW23733   2.481   0.016  10.568  0.2221 -0.7052 -0.0613
 7431SOL    HW123734   2.552  -0.040  10.537  1.8983  0.1681  1.9322
 7431SOL    HW223735   2.505   0.104  10.538 -1.0436 -0.6463 -0.9750
 7432SOL     OW23736   3.477   2.269   9.905 -0.5570 -0.6567  0.4214
 7432SOL    HW123737   3.414   2.326   9.861 -0.7940 -0.4820  0.9754
 7432SOL    HW223738   3.438   2.253   9.991 -0.9995 -2.4979 -0.0848
 7433SOL     OW23739   2.547   2.435   9.295  0.4594  0.2673 -0.3366
 7433SOL    HW123740   2.476   2.420   9.233 -0.2878 -1.3455  0.8556
 7433SOL    HW223741   2.587   2.517   9.265 -1.3553  0.7868 -1.5282
 7434SOL     OW23742   2.904   1.534   9.734  0.1175 -0.1315 -0.2404
 7434SOL    HW123743   2.828   1.591   9.747 -1.2530 -1.4747 -1.8647
 7434SOL    HW223744   2.872   1.447   9.757  0.3787 -1.0987 -3.1110
 7435SOL     OW23745   2.575   2.056  10.131  0.0072 -0.2229  0.0605
 7435SOL    HW123746   2.505   1.991  10.131 -0.8799  0.7060  0.4453
 7435SOL    HW223747   2.586   2.079  10.223  1.3066 -0.8545  0.0792
 7436SOL     OW23748   3.689   6.964  11.219 -0.1688  0.1919 -0.1883
 7436SOL    HW123749   3.618   6.990  11.278  0.8573 -0.6178  1.4648
 7436SOL    HW223750   3.708   7.044  11.169 -1.5170  0.7113  0.0733
 7437SOL     OW23751   2.646   0.875  11.127 -0.4483  0.2766  0.1872
 7437SOL    HW123752   2.614   0.865  11.217  0.2021  1.3645  0.5596
 7437SOL    HW223753   2.623   0.965  11.104  0.1458  0.2736 -0.4300
 7438SOL     OW23754   3.231   1.667   0.274 -0.1345 -0.1815  0.5701
 7438SOL    HW123755   3.321   1.676   0.305  0.0863 -0.8757  0.1754
 7438SOL    HW223756   3.201   1.583   0.310 -0.1279 -0.6370 -0.4359
 7439SOL     OW23757   3.463   7.012  11.371  0.0953 -0.3748  0.1306
 7439SOL    HW123758   3.407   6.934  11.379 -0.5842 -0.3713 -3.2221
 7439SOL    HW223759   3.403   7.083  11.350  1.1753 -0.2119 -2.7734
 7440SOL     OW23760   3.269   7.782   8.479  0.3823 -1.0281 -0.3488
 7440SOL    HW123761   3.357   7.811   8.456 -0.2009  2.4291  1.1899
 7440SOL    HW223762   3.271   7.769   8.574 -1.2978  1.7234  0.1559
 7441SOL     OW23763   3.488   3.031   9.448  0.2881  0.3225  0.1548
 7441SOL    HW123764   3.456   3.119   9.466  0.6813  0.6139 -0.5131
 7441SOL    HW223765   3.452   2.977   9.518 -1.6568  0.6288 -0.5579
 7442SOL     OW23766   4.016   0.017   9.653 -0.3427  0.1619  0.3837
 7442SOL    HW123767   3.962   0.042   9.728  0.2501  0.4981  0.7003
 7442SOL    HW223768   3.992  -0.074   9.635 -0.4750  0.0795  0.9847
 7443SOL     OW23769   4.629   0.622   1.587  0.9378  0.6357  0.5718
 7443SOL    HW123770   4.655   0.714   1.599  0.2157  0.7914  1.0198
 7443SOL    HW223771   4.703   0.582   1.542  0.3819  1.9621 -1.7202
 7444SOL     OW23772   3.561   1.849  11.771  0.1236 -0.1981 -0.1298
 7444SOL    HW123773   3.571   1.881  11.681  1.4752  1.0852  0.4526
 7444SOL    HW223774   3.469   1.866  11.792  0.3625  1.7284 -0.4657
 7445SOL     OW23775   1.327   1.894  11.083 -0.7379 -0.1224  0.1189
 7445SOL    HW123776   1.250   1.920  11.133 -0.9945 -0.4025 -0.1269
 7445SOL    HW223777   1.304   1.911  10.992 -0.0832  0.8723  0.1200
 7446SOL     OW23778   2.063   1.688   9.727  0.8586  0.0978  0.5858
 7446SOL    HW123779   2.155   1.694   9.703  1.0769 -0.0799  1.3385
 7446SOL    HW223780   2.064   1.681   9.823  0.1599 -1.6661  0.5115
 7447SOL     OW23781   1.156   1.511   9.790 -0.1934  0.1419 -0.5288
 7447SOL    HW123782   1.160   1.589   9.736 -1.8442  0.7248  0.1298
 7447SOL    HW223783   1.247   1.482   9.798  0.3428  1.4756 -1.5077
 7448SOL     OW23784   4.439   1.661   9.295 -0.5938 -0.0180  0.0769
 7448SOL    HW123785   4.491   1.741   9.291 -1.4215  0.5307 -0.0389
 7448SOL    HW223786   4.364   1.684   9.349 -1.7634 -0.1511 -1.4330
 7449SOL     OW23787   1.668   1.893  11.516 -0.3064  0.6184  0.1478
 7449SOL    HW123788   1.592   1.925  11.469  0.0542  0.6811 -0.3967
 7449SOL    HW223789   1.700   1.819  11.465  0.0176  0.6117  0.3501
 7450SOL     OW23790   2.406   0.430   9.770  0.3961 -0.2183  0.6609
 7450SOL    HW123791   2.374   0.360   9.713 -0.0980  1.2725 -0.9598
 7450SOL    HW223792   2.334   0.449   9.829 -1.1160  1.6910 -1.6142
 7451SOL     OW23793   2.098   2.520  10.082 -0.0516 -0.5428 -0.4067
 7451SOL    HW123794   2.111   2.526  10.177 -0.6325 -1.6995 -0.2365
 7451SOL    HW223795   2.182   2.545  10.045  0.1143  0.1606  0.4009
 7452SOL     OW23796   4.712   0.620  10.428 -0.3458 -0.5877  0.2954
 7452SOL    HW123797   4.676   0.708  10.415  0.1005 -0.6212 -1.2956
 7452SOL    HW223798   4.763   0.627  10.509  0.5936  0.9182 -0.3988
 7453SOL     OW23799   4.009   6.990  10.675  0.2479  0.0670 -0.5328
 7453SOL    HW123800   3.916   7.011  10.669  0.8417  3.1053 -0.3520
 7453SOL    HW223801   4.038   7.032  10.756  1.4388 -2.5388  0.5075
 7454SOL     OW23802   3.531   2.917   9.181  0.5842  0.3799  0.0216
 7454SOL    HW123803   3.614   2.872   9.199  0.4299  0.7263  1.7388
 7454SOL    HW223804   3.514   2.968   9.260 -2.1319 -1.0438  0.4571
 7455SOL     OW23805   2.591   6.991  11.806 -0.2891  0.1533 -0.0426
 7455SOL    HW123806   2.656   7.034  11.862  0.5550 -1.8308  0.6081
 7455SOL    HW223807   2.513   6.984  11.861 -0.1972  0.2146  0.0959
 7456SOL     OW23808   0.451   3.880  11.192 -0.2508  0.3795  0.6158
 7456SOL    HW123809   0.387   3.819  11.158  0.4500  0.8261 -1.6803
 7456SOL    HW223810   0.532   3.829  11.198 -0.2247  0.4681  1.0874
 7457SOL     OW23811   2.102   2.645  11.068 -0.4476  0.1603 -0.4092
 7457SOL    HW123812   2.092   2.574  11.131  2.6413  0.2413  0.3146
 7457SOL    HW223813   2.053   2.718  11.105 -0.9669 -0.6300  0.4804
 7458SOL     OW23814   4.013   0.144   9.938  0.3070  0.2215 -0.1994
 7458SOL    HW123815   3.946   0.212   9.937  1.2134  1.2021  1.4571
 7458SOL    HW223816   4.096   0.192   9.931  0.9549 -0.7390  0.6456
 7459SOL     OW23817   1.928   0.873  10.058  0.6161  0.2155  0.0104
 7459SOL    HW123818   1.914   0.918  10.141 -0.1415  0.4288 -0.2272
 7459SOL    HW223819   1.914   0.781  10.078  1.4557  0.1524  0.3411
 7460SOL     OW23820   2.743   2.620   9.133 -0.3113 -0.0123  0.3481
 7460SOL    HW123821   2.712   2.707   9.107  1.0323  0.5448  0.5509
 7460SOL    HW223822   2.808   2.597   9.067  0.0668 -0.4217  0.8526
 7461SOL     OW23823   4.188   7.777  10.268 -0.6633  0.0124  0.2361
 7461SOL    HW123824   4.172   7.857  10.219  0.1522 -0.4760 -0.8563
 7461SOL    HW223825   4.109   7.724  10.253 -0.4079 -0.1421 -0.5649
 7462SOL     OW23826   2.316   7.444   9.391 -0.2156  0.3251 -0.3963
 7462SOL    HW123827   2.308   7.486   9.306  2.4463 -0.4231 -1.1461
 7462SOL    HW223828   2.268   7.362   9.382  1.4503 -0.5634 -1.8786
 7463SOL     OW23829   3.685   7.465   8.277  0.1587 -0.3330  0.5186
 7463SOL    HW123830   3.611   7.405   8.282  0.5325 -0.9037 -0.6644
 7463SOL    HW223831   3.650   7.542   8.233  0.4638 -0.9240 -0.7760
 7464SOL     OW23832   1.089   1.014   9.890 -0.0058  0.1471  0.6226
 7464SOL    HW123833   1.138   1.017   9.807  0.4438  1.3046  0.9079
 7464SOL    HW223834   1.049   1.100   9.897  0.4960  0.2934  1.9226
 7465SOL     OW23835   4.401   1.671   8.040 -0.2249 -0.3325  0.2937
 7465SOL    HW123836   4.397   1.665   7.945  1.3990  0.8869  0.1112
 7465SOL    HW223837   4.340   1.604   8.071 -0.6705 -0.8453 -1.5906
 7466SOL     OW23838   1.621   1.301  10.895 -0.0658 -0.2753  0.6994
 7466SOL    HW123839   1.612   1.225  10.953 -0.3798  1.1264  2.5835
 7466SOL    HW223840   1.687   1.275  10.831 -0.5426 -2.3058  0.9812
 7467SOL     OW23841   1.609   0.599  11.927 -0.4298 -0.1481 -0.2622
 7467SOL    HW123842   1.552   0.557  11.991  2.3372 -1.6882  1.3838
 7467SOL    HW223843   1.577   0.568  11.842  0.3537 -4.3888  0.7495
 7468SOL     OW23844   1.594   1.752  10.802 -0.1706 -0.1298  0.0743
 7468SOL    HW123845   1.682   1.767  10.836 -0.3080  2.0028 -0.3668
 7468SOL    HW223846   1.548   1.709  10.873  0.4351  1.3682  1.4432
 7469SOL     OW23847   3.554   1.402   0.956  0.1779 -0.6118  0.1765
 7469SOL    HW123848   3.497   1.357   0.894 -2.1881  0.8624  1.1151
 7469SOL    HW223849   3.627   1.435   0.903 -1.0447 -0.5810 -1.5740
 7470SOL     OW23850   3.000   0.525  11.115  0.3070  0.0290  0.5532
 7470SOL    HW123851   3.017   0.531  11.209  1.5058 -0.7345  0.4070
 7470SOL    HW223852   2.943   0.448  11.106 -0.0694  0.2882  0.6698
 7471SOL     OW23853   1.437   0.406   0.120 -0.2580  0.5711  0.0710
 7471SOL    HW123854   1.432   0.442   0.032 -0.1713 -1.0321 -0.6156
 7471SOL    HW223855   1.516   0.352   0.120  0.8754  2.1202  1.7669
 7472SOL     OW23856   5.688   2.795  12.402  0.8200  0.8409  0.5013
 7472SOL    HW123857   5.593   2.795  12.396  0.8645  2.0096 -0.7119
 7472SOL    HW223858   5.708   2.860  12.469  0.7603 -0.2396  1.6035
 7473SOL     OW23859   0.750   1.257  11.603 -0.2134  0.3411 -0.2698
 7473SOL    HW123860   0.782   1.282  11.690  1.4476 -0.2010 -0.6916
 7473SOL    HW223861   0.822   1.280  11.544 -0.9256 -0.2189 -1.3706
 7474SOL     OW23862   2.696   0.305   0.932  0.0602  0.3047 -0.4076
 7474SOL    HW123863   2.644   0.363   0.987 -0.5343 -1.3074  0.8061
 7474SOL    HW223864   2.641   0.228   0.920  0.6975  0.0896 -2.2474
 7475SOL     OW23865   1.112   1.131   2.209  0.2157  0.5648  0.6698
 7475SOL    HW123866   1.124   1.226   2.209  0.1666  0.5815 -0.4117
 7475SOL    HW223867   1.190   1.097   2.253  1.4845  0.9848 -1.1385
 7476SOL     OW23868   2.404   7.990  10.992  0.4126 -0.1740 -0.1003
 7476SOL    HW123869   2.351   8.056  10.948  0.6121 -0.8273 -1.3630
 7476SOL    HW223870   2.486   7.988  10.943  0.9651 -0.3520  0.8025
 7477SOL     OW23871   2.159   2.555  10.352 -0.3876 -0.8713 -0.2156
 7477SOL    HW123872   2.082   2.595  10.392 -0.5466 -3.5336  2.4527
 7477SOL    HW223873   2.229   2.568  10.417  0.6144 -1.2152 -1.1972
 7478SOL     OW23874   1.254   0.874  12.356 -0.2953  0.3505 -0.7096
 7478SOL    HW123875   1.265   0.796  12.302  0.0970  0.2586 -0.4954
 7478SOL    HW223876   1.174   0.857  12.406  0.3511 -0.3660  0.1008
 7479SOL     OW23877   0.449   2.400  11.804  0.4391  0.9238 -0.5229
 7479SOL    HW123878   0.445   2.307  11.782  0.6655  0.7078  0.2905
 7479SOL    HW223879   0.437   2.445  11.721 -0.4135  0.1758 -0.8171
 7480SOL     OW23880   1.695   2.652  10.211 -0.3156 -0.1676 -0.0546
 7480SOL    HW123881   1.625   2.709  10.180  0.5102  0.2885 -1.1638
 7480SOL    HW223882   1.655   2.565  10.215 -1.3360  0.3281  0.7840
 7481SOL     OW23883   2.691   0.273  12.470  0.0122 -0.1575 -0.2464
 7481SOL    HW123884   2.660   0.342  12.412 -1.3978  0.4436  1.1496
 7481SOL    HW223885   2.690   0.194  12.415 -0.7953  0.4702 -1.1737
 7482SOL     OW23886   3.398   2.167   9.567  0.3234 -0.3298 -0.1961
 7482SOL    HW123887   3.473   2.114   9.595  0.5079  0.6721  1.3424
 7482SOL    HW223888   3.415   2.188   9.476  2.3105  0.4606  0.3019
 7483SOL     OW23889   1.153   2.552  10.590 -0.2063  0.6401 -0.1800
 7483SOL    HW123890   1.234   2.513  10.559  0.4100  0.4147  1.6247
 7483SOL    HW223891   1.167   2.647  10.580  0.0267  0.5793 -0.4507
 7484SOL     OW23892   2.815   2.185  11.285  0.1669  0.0860  0.0588
 7484SOL    HW123893   2.778   2.097  11.276  0.3036 -0.0268  0.5547
 7484SOL    HW223894   2.774   2.220  11.364 -0.6298  0.8489 -0.6804
 7485SOL     OW23895   3.472   1.894   8.889  0.0285 -0.4947  0.0307
 7485SOL    HW123896   3.417   1.972   8.899 -0.0410 -0.5526  0.0944
 7485SOL    HW223897   3.431   1.828   8.944  0.1562 -0.5413  0.0692
 7486SOL     OW23898   1.903   7.010   0.145 -0.2684 -0.0357 -0.2851
 7486SOL    HW123899   1.863   7.019   0.059 -2.4056  0.6824  0.6968
 7486SOL    HW223900   1.911   6.916   0.159 -0.7175 -0.1727 -0.9083
 7487SOL     OW23901   3.730   0.966  11.069  0.2852 -0.0426  0.3179
 7487SOL    HW123902   3.784   0.899  11.110  0.2597  0.9338  2.0248
 7487SOL    HW223903   3.644   0.956  11.109 -0.0524  0.2056 -0.3325
 7488SOL     OW23904   2.733   7.091  10.956 -0.2338  0.0394  0.3092
 7488SOL    HW123905   2.740   7.006  10.913 -2.0515  1.0954 -2.2965
 7488SOL    HW223906   2.668   7.077  11.025 -1.1943 -0.4919 -0.6763
 7489SOL     OW23907   1.400   2.210   1.032  0.0339 -0.2195 -0.1680
 7489SOL    HW123908   1.393   2.116   1.049 -0.5444  0.0339  1.0666
 7489SOL    HW223909   1.438   2.215   0.944  0.3082 -1.6016 -0.1553
 7490SOL     OW23910   3.254   1.313  11.854 -0.0549  0.2863 -0.2983
 7490SOL    HW123911   3.291   1.340  11.938  0.4006  2.3001 -1.0875
 7490SOL    HW223912   3.214   1.228  11.871 -1.8597  1.5869  2.4883
 7491SOL     OW23913   3.589   0.832  12.197 -0.1762 -0.2091 -0.2268
 7491SOL    HW123914   3.532   0.783  12.256 -1.4864  1.6720  0.1561
 7491SOL    HW223915   3.674   0.834  12.242 -0.6016 -0.5610  0.6116
 7492SOL     OW23916   4.687   1.352  11.751  0.3500 -0.5383 -0.0002
 7492SOL    HW123917   4.633   1.297  11.695  0.5717 -0.5810 -0.1748
 7492SOL    HW223918   4.653   1.441  11.737 -0.1772 -0.6638  0.4822
 7493SOL     OW23919   3.478   7.908  12.387  0.7072  0.1734 -0.8792
 7493SOL    HW123920   3.559   7.898  12.338  0.5668 -0.6026 -0.9560
 7493SOL    HW223921   3.487   7.993  12.431  0.3366  1.4735 -3.1446
 7494SOL     OW23922   2.472   0.150   0.686 -0.1079  0.1470  0.9083
 7494SOL    HW123923   2.496   0.059   0.704  0.2463 -0.1686 -0.9963
 7494SOL    HW223924   2.383   0.158   0.721 -0.5515 -1.2410  0.1879
 7495SOL     OW23925   3.238   0.968  12.212 -0.3489  0.3367 -0.3715
 7495SOL    HW123926   3.305   1.008  12.269 -1.7825  0.3522  1.3771
 7495SOL    HW223927   3.239   0.875  12.235 -2.6069  0.7141  1.5411
 7496SOL     OW23928   2.035   7.152  11.520  0.2290  0.3529 -0.3619
 7496SOL    HW123929   2.082   7.204  11.454  0.3444 -0.4656 -0.9298
 7496SOL    HW223930   2.053   7.061  11.497 -1.2370  0.0182 -0.3195
 7497SOL     OW23931   1.533   2.654  12.415  0.1062 -0.1432  0.2591
 7497SOL    HW123932   1.554   2.564  12.391  2.1355  0.5803 -0.8400
 7497SOL    HW223933   1.582   2.709  12.353 -1.2105  1.7357  0.7759
 7498SOL     OW23934   1.987   0.331   1.707 -0.4998  0.0710  0.2901
 7498SOL    HW123935   2.013   0.334   1.799 -2.9425  1.1595  1.0324
 7498SOL    HW223936   1.922   0.260   1.703  1.3970 -1.7125 -1.2067
 7499SOL     OW23937   2.034   7.891  11.752 -0.6670 -0.3084 -0.0718
 7499SOL    HW123938   2.025   7.842  11.834 -1.4594  1.4793  0.9539
 7499SOL    HW223939   1.962   7.954  11.753  0.2829  0.8562 -1.3682
 7500SOL     OW23940   2.717   1.708   9.831 -0.4260  0.1062 -0.0139
 7500SOL    HW123941   2.765   1.788   9.853 -0.7512  0.0185  1.0293
 7500SOL    HW223942   2.680   1.678   9.914  0.4421 -1.6325 -0.2268
 7501SOL     OW23943   2.298   0.216  11.385  0.2567 -0.4720 -0.7307
 7501SOL    HW123944   2.291   0.277  11.459 -0.4929 -0.0304 -1.1537
 7501SOL    HW223945   2.288   0.129  11.424  0.1228 -0.2538 -0.2719
 7502SOL     OW23946   2.695   2.877   0.020  0.3716  0.7189 -0.1342
 7502SOL    HW123947   2.601   2.882   0.039  0.6488  1.2414  1.2274
 7502SOL    HW223948   2.718   2.786   0.038  0.2886  0.8030  0.4292
 7503SOL     OW23949   2.099   1.766  11.497  0.1446 -0.0095 -0.0781
 7503SOL    HW123950   2.181   1.717  11.486  0.2332 -0.1039  0.8930
 7503SOL    HW223951   2.122   1.856  11.474  0.5545 -0.0180  0.2721
 7504SOL     OW23952   3.754   7.844  12.258 -0.1400  0.1018 -0.2375
 7504SOL    HW123953   3.845   7.822  12.275  0.4475  2.3773 -0.1432
 7504SOL    HW223954   3.755   7.937  12.234 -2.5936  0.6509  1.3509
 7505SOL     OW23955   3.440   0.207  12.176  0.0624  0.5350 -0.7595
 7505SOL    HW123956   3.425   0.269  12.247 -0.2800 -1.1451  0.7054
 7505SOL    HW223957   3.358   0.206  12.127 -0.7426 -0.3594  0.5452
 7506SOL     OW23958   1.649   2.503  12.059  0.7009 -0.4926  0.1032
 7506SOL    HW123959   1.569   2.555  12.072  1.3806  0.3182  1.2558
 7506SOL    HW223960   1.715   2.566  12.033  1.3751 -0.8847  0.8266
 7507SOL     OW23961   3.547   2.391  10.590 -0.5853 -0.2869 -0.5895
 7507SOL    HW123962   3.494   2.461  10.552  0.6806  1.8933  1.3648
 7507SOL    HW223963   3.491   2.314  10.589 -2.2249  0.8473 -2.4073
 7508SOL     OW23964   1.795   1.487   0.301  0.6813 -0.1559 -0.4976
 7508SOL    HW123965   1.884   1.451   0.310  0.5161 -0.4083  0.1553
 7508SOL    HW223966   1.747   1.450   0.375 -0.1307 -0.4836 -1.1786
 7509SOL     OW23967   1.914   1.427  11.532  0.7574 -0.0266 -0.3415
 7509SOL    HW123968   1.934   1.402  11.622  2.8087  1.7512 -0.2059
 7509SOL    HW223969   2.000   1.435  11.490 -0.1232 -0.1022 -2.2626
 7510SOL     OW23970   2.684   1.812  12.347  0.2496  0.2343 -0.1809
 7510SOL    HW123971   2.605   1.773  12.385  0.1058 -0.5765 -1.2832
 7510SOL    HW223972   2.756   1.765  12.387  0.0717 -1.5399 -1.8222
 7511SOL     OW23973   1.863   1.851  11.708 -0.0099 -0.0515  0.4841
 7511SOL    HW123974   1.927   1.801  11.657  1.3309  1.8053  0.2749
 7511SOL    HW223975   1.800   1.881  11.643  1.1041  1.3984  0.0200
 7512SOL     OW23976   1.798   1.130   0.935 -0.2327 -0.5498  0.4627
 7512SOL    HW123977   1.855   1.141   1.011  2.9694  0.7393 -1.8948
 7512SOL    HW223978   1.762   1.217   0.920 -0.3677 -0.6519  0.1935
 7513SOL     OW23979   2.741   0.758  11.546 -0.1788  0.2845  0.5538
 7513SOL    HW123980   2.830   0.780  11.520 -0.3792  0.9536  0.4359
 7513SOL    HW223981   2.752   0.686  11.609  0.3318 -1.0170 -0.9519
 7514SOL     OW23982   3.310   7.222  10.804 -0.4522 -0.1677 -0.2434
 7514SOL    HW123983   3.267   7.278  10.739 -1.0409  0.4439  0.6588
 7514SOL    HW223984   3.238   7.175  10.846 -0.1195 -0.1260  0.3719
 7515SOL     OW23985   2.586   1.624  11.823  0.1514  0.2142  0.7068
 7515SOL    HW123986   2.678   1.644  11.808 -0.0364  0.9222  0.4828
 7515SOL    HW223987   2.546   1.708  11.845 -1.0750  0.5882 -2.3431
 7516SOL     OW23988   3.555   7.382  12.160  0.0653 -0.2220 -0.4353
 7516SOL    HW123989   3.576   7.421  12.075  0.1146  1.4984  0.3223
 7516SOL    HW223990   3.577   7.450  12.224 -1.1228 -1.0077  0.8812
 7517SOL     OW23991   2.752   7.249  12.455 -0.0270  0.1279 -0.0039
 7517SOL    HW123992   2.824   7.271  12.514  0.3083  0.2610 -0.4595
 7517SOL    HW223993   2.758   7.313  12.384 -1.4070  1.0048  0.6183
 7518SOL     OW23994   2.066   0.694   0.073  0.0606  0.1699  0.3806
 7518SOL    HW123995   2.103   0.770   0.028 -1.3716 -0.6142 -2.3212
 7518SOL    HW223996   2.099   0.618   0.024 -0.2368 -0.8475  1.7028
 7519SOL     OW23997   3.253   0.608  11.109  0.1828 -0.3513  0.1813
 7519SOL    HW123998   3.249   0.624  11.015 -0.8923  2.3536  0.5771
 7519SOL    HW223999   3.170   0.566  11.130  0.5894 -1.3161 -0.1172
 7520SOL     OW24000   2.540   1.534   9.637  0.1875 -0.3220  0.2485
 7520SOL    HW124001   2.603   1.571   9.699  0.4912 -0.2821 -0.0769
 7520SOL    HW224002   2.568   1.568   9.552  0.9524 -1.8950 -0.1743
 7521SOL     OW24003   3.925   7.315  10.915  0.0641  0.2376  0.1244
 7521SOL    HW124004   3.862   7.315  10.987 -0.5743  0.4533 -0.4387
 7521SOL    HW224005   3.976   7.234  10.929  0.7377  0.8570  1.4945
 7522SOL     OW24006   2.245   1.995   0.254 -0.5624  0.0166 -0.3241
 7522SOL    HW124007   2.171   1.944   0.224 -0.1596  0.2451 -1.7972
 7522SOL    HW224008   2.315   1.975   0.191 -0.0827  1.5405 -0.3151
 7523SOL     OW24009   4.160   2.232  11.577  0.1739  0.1489  0.1796
 7523SOL    HW124010   4.177   2.317  11.616  2.1811 -0.3068  0.4360
 7523SOL    HW224011   4.065   2.222  11.580 -0.2516  2.8977 -1.0216
 7524SOL     OW24012   2.013   6.874  11.343 -0.0347 -0.0683 -0.0805
 7524SOL    HW124013   2.012   6.829  11.428 -0.5125  1.0943  0.5588
 7524SOL    HW224014   1.991   6.806  11.280 -1.1595 -0.6613  0.9032
 7525SOL     OW24015   2.393   6.636  10.106  0.3593  0.5257  0.1952
 7525SOL    HW124016   2.351   6.566  10.156 -0.7915  0.5224 -0.7388
 7525SOL    HW224017   2.331   6.709  10.111  1.4840  1.4730  1.0480
 7526SOL     OW24018   4.688   7.787  10.826  0.2837  0.1119 -0.0750
 7526SOL    HW124019   4.605   7.747  10.852 -0.3892  1.8655  0.5851
 7526SOL    HW224020   4.754   7.739  10.876 -0.6029  0.5410  1.5816
 7527SOL     OW24021   2.180   6.296  12.307 -0.2264 -0.2205  0.0905
 7527SOL    HW124022   2.208   6.313  12.396  3.6113 -0.6304 -0.8651
 7527SOL    HW224023   2.180   6.201  12.299 -0.1179 -0.1786 -0.4647
 7528SOL     OW24024   4.707   1.084  12.346 -1.0300  0.5572 -0.2854
 7528SOL    HW124025   4.753   1.098  12.428 -0.2706  0.6638 -0.7179
 7528SOL    HW224026   4.616   1.072  12.371 -0.8829  1.0534  0.5334
 7529SOL     OW24027   3.264   0.951  10.345  0.2958  0.6033 -0.3276
 7529SOL    HW124028   3.191   0.940  10.407 -0.6804  1.1909 -1.3317
 7529SOL    HW224029   3.340   0.969  10.400  0.0647 -1.6464  0.8522
 7530SOL     OW24030   4.027   0.872  12.456 -0.5479  0.2798 -0.5673
 7530SOL    HW124031   4.096   0.840  12.515 -0.8462 -0.7291 -0.7348
 7530SOL    HW224032   4.029   0.967  12.465  1.8589  0.3934 -1.6739
 7531SOL     OW24033   2.211   0.884  12.437 -0.0915 -0.3265 -0.0765
 7531SOL    HW124034   2.241   0.849  12.353 -0.8878 -0.9157 -0.1226
 7531SOL    HW224035   2.188   0.975  12.418  0.6364 -0.1796 -0.2760
 7532SOL     OW24036   3.543   1.246  12.109 -0.4123 -0.0079  0.7071
 7532SOL    HW124037   3.609   1.313  12.092 -0.2431 -0.0869  1.0403
 7532SOL    HW224038   3.460   1.293  12.107 -0.4148 -0.0447 -0.4771
 7533SOL     OW24039   2.877   0.355  11.440 -0.1218  0.1010 -0.5199
 7533SOL    HW124040   2.790   0.352  11.480  0.0184 -0.4537 -0.2428
 7533SOL    HW224041   2.907   0.264  11.442  1.1127  0.4838  0.8433
 7534SOL     OW24042   4.245   7.699  11.190 -0.0986 -0.1768  0.4916
 7534SOL    HW124043   4.294   7.717  11.271 -0.2862  0.1798  0.5294
 7534SOL    HW224044   4.297   7.632  11.145  1.4931  1.5671 -0.4195
 7535SOL     OW24045   3.815   0.404   1.133 -0.1676 -0.0629 -0.0102
 7535SOL    HW124046   3.727   0.434   1.111 -1.3246 -1.2269  2.6287
 7535SOL    HW224047   3.831   0.437   1.221  1.7540 -0.4879 -0.1463
 7536SOL     OW24048   1.817   7.741  10.701  0.1141 -0.9262  0.5120
 7536SOL    HW124049   1.832   7.793  10.622  2.2955 -1.0579  0.7732
 7536SOL    HW224050   1.740   7.780  10.742  0.7397  1.1038 -0.1296
 7537SOL     OW24051   2.710   0.322   0.253 -0.4027 -0.1962  0.2243
 7537SOL    HW124052   2.717   0.301   0.160  2.2305  2.4560 -0.3357
 7537SOL    HW224053   2.618   0.308   0.275 -1.1473 -0.6573 -2.8187
 7538SOL     OW24054   2.817   7.587   0.371  0.6136  0.4514 -0.0421
 7538SOL    HW124055   2.888   7.629   0.418 -1.1750  1.6944  1.7427
 7538SOL    HW224056   2.751   7.655   0.362 -1.8386 -1.4814  1.6752
 7539SOL     OW24057   2.995   0.320   0.300 -0.5148  0.4851 -0.1562
 7539SOL    HW124058   2.913   0.272   0.308  0.7495 -1.8493 -0.0958
 7539SOL    HW224059   2.970   0.407   0.268 -2.9045 -0.4451 -1.0387
 7540SOL     OW24060   3.436   0.637  11.598  0.2522 -0.0179 -0.0407
 7540SOL    HW124061   3.391   0.575  11.541 -0.6756 -0.0115  0.6633
 7540SOL    HW224062   3.487   0.582  11.658 -2.7164 -0.3642  2.4291
 7541SOL     OW24063   3.315   0.514   0.150 -0.4512  0.2818  0.5285
 7541SOL    HW124064   3.258   0.578   0.193 -0.6795 -1.2601  2.6724
 7541SOL    HW224065   3.266   0.433   0.152  0.5082 -0.3518 -0.6169
 7542SOL     OW24066   1.093   0.436  11.772  0.3068 -0.2824  0.1179
 7542SOL    HW124067   1.007   0.397  11.784  0.5074 -0.9378 -0.5259
 7542SOL    HW224068   1.124   0.454  11.861 -2.4189  4.3775  0.4540
 7543SOL     OW24069   4.619   0.611  12.173  0.1200 -0.3785  0.4290
 7543SOL    HW124070   4.671   0.673  12.223 -0.6965  0.2245  0.5381
 7543SOL    HW224071   4.559   0.665  12.121 -1.3520 -1.0811  1.3430
 7544SOL     OW24072   2.251   1.536   0.654 -0.3127  0.2692  0.3027
 7544SOL    HW124073   2.278   1.602   0.590  0.4771  0.4636  0.8300
 7544SOL    HW224074   2.221   1.462   0.600  1.6955 -0.1420 -0.3391
 7545SOL     OW24075   3.740   1.050   2.551  0.0508  0.1360 -0.2205
 7545SOL    HW124076   3.707   1.137   2.529 -0.6348 -0.4054 -1.4779
 7545SOL    HW224077   3.830   1.049   2.518  0.0051  0.3159 -0.3536
 7546SOL     OW24078   1.193   2.101  11.573 -0.5562 -0.3306  0.7774
 7546SOL    HW124079   1.244   2.106  11.492  1.2036 -1.3060  1.7469
 7546SOL    HW224080   1.119   2.044  11.551  0.5823 -1.6504  0.1436
 7547SOL     OW24081   4.353   1.123   1.075 -0.3905  0.3299  0.5030
 7547SOL    HW124082   4.351   1.039   1.120 -3.2279  0.5476  0.9780
 7547SOL    HW224083   4.391   1.184   1.139 -2.4800  0.2309  1.9116
 7548SOL     OW24084   3.244   1.994  11.329 -0.1276 -0.9256 -0.0022
 7548SOL    HW124085   3.288   1.910  11.338  0.4809 -0.6124  0.0056
 7548SOL    HW224086   3.157   1.980  11.365 -0.0654 -1.5808 -0.1052
 7549SOL     OW24087   1.825   6.853   0.450  0.5876 -0.1859  0.0586
 7549SOL    HW124088   1.763   6.780   0.443  0.5216 -0.1848  0.5895
 7549SOL    HW224089   1.905   6.821   0.408  0.2470 -0.2108 -0.5732
 7550SOL     OW24090   1.570   1.147  12.297  0.5146 -0.3618 -0.2275
 7550SOL    HW124091   1.492   1.127  12.246 -1.1536  1.2791  1.5076
 7550SOL    HW224092   1.599   1.232  12.265  2.2248 -1.3294 -1.4635
 7551SOL     OW24093   2.805   0.967   0.053  0.0869  0.0402  0.4932
 7551SOL    HW124094   2.734   0.974   0.117  0.3265  0.7501  0.6968
 7551SOL    HW224095   2.763   0.980  -0.032  0.1397  1.9251  0.6933
 7552SOL     OW24096   2.829   0.199  10.442 -0.5480 -0.1754  0.5695
 7552SOL    HW124097   2.907   0.251  10.461 -0.4636  0.4119 -1.2397
 7552SOL    HW224098   2.861   0.109  10.437  0.2073  0.1353 -0.9053
 7553SOL     OW24099   5.073   0.757  11.828  0.5513 -0.4676  0.5231
 7553SOL    HW124100   5.010   0.687  11.810  0.2553  0.4031 -2.0872
 7553SOL    HW224101   5.029   0.813  11.891 -1.9398  0.7997 -2.1477
 7554SOL     OW24102   1.707   7.635  10.999 -0.3263 -0.7566  0.1822
 7554SOL    HW124103   1.693   7.679  11.083  1.1579 -0.3095  0.2083
 7554SOL    HW224104   1.645   7.678  10.940 -0.3591 -0.0713  0.6944
 7555SOL     OW24105   2.558   1.110  10.402 -0.5165 -0.3328 -0.0970
 7555SOL    HW124106   2.465   1.091  10.392 -0.6205  0.3717 -0.4987
 7555SOL    HW224107   2.599   1.068  10.327 -0.2391 -2.3496  1.0970
 7556SOL     OW24108   1.472   0.350  10.151 -0.0341 -0.1484 -0.2271
 7556SOL    HW124109   1.497   0.353  10.059 -0.9878  0.8831 -0.4694
 7556SOL    HW224110   1.426   0.267  10.161  1.5857 -1.0970 -0.2476
 7557SOL     OW24111   1.899   1.499  10.779  0.3091 -0.2257  0.4813
 7557SOL    HW124112   1.979   1.447  10.772  0.4066  0.0401 -0.4209
 7557SOL    HW224113   1.845   1.472  10.705  0.2379  0.7312  0.1638
 7558SOL     OW24114   1.935   0.746  11.471 -0.4065  0.3726  0.2182
 7558SOL    HW124115   1.998   0.678  11.447  1.1149  1.8079 -0.0246
 7558SOL    HW224116   1.924   0.737  11.565 -1.7833 -1.4464 -0.0513
 7559SOL     OW24117   1.312   1.663   1.770 -0.3491 -0.3474  0.4521
 7559SOL    HW124118   1.353   1.612   1.700  1.9662  1.0090  0.7250
 7559SOL    HW224119   1.374   1.659   1.842 -0.7448  1.6463  0.9698
 7560SOL     OW24120   1.892   7.854   0.828  0.2328  0.1478 -0.2607
 7560SOL    HW124121   1.880   7.781   0.888 -1.4267  0.2804 -0.3964
 7560SOL    HW224122   1.966   7.828   0.773  0.1163 -1.1048  0.1431
 7561SOL     OW24123   3.118   1.909  11.941 -0.0399 -0.6891 -0.1415
 7561SOL    HW124124   3.035   1.953  11.922 -0.9562 -2.5274 -0.5941
 7561SOL    HW224125   3.150   1.952  12.021  1.8773  4.4657 -3.1324
 7562SOL     OW24126   1.129   1.351   0.823  0.0382 -0.2270 -0.0965
 7562SOL    HW124127   1.154   1.278   0.766 -0.4524 -1.4860  1.2541
 7562SOL    HW224128   1.043   1.378   0.791 -0.0448 -0.6326 -0.2156
 7563SOL     OW24129   2.510   2.232  12.200  0.0390 -0.4568  0.3017
 7563SOL    HW124130   2.506   2.322  12.169 -0.8512 -1.0480 -1.4605
 7563SOL    HW224131   2.426   2.217  12.242 -0.5802 -0.9887 -1.0714
 7564SOL     OW24132   3.348   1.109   2.131 -0.4561 -0.2293  0.1436
 7564SOL    HW124133   3.303   1.184   2.169  0.1066 -1.1252  2.8424
 7564SOL    HW224134   3.364   1.051   2.206  4.1534 -0.4749 -0.7676
 7565SOL     OW24135   7.845   1.273   2.435  0.1481 -0.7599  0.3196
 7565SOL    HW124136   7.919   1.332   2.447  0.0906 -0.7842  0.7913
 7565SOL    HW224137   7.797   1.310   2.360 -0.1815  0.0946  0.9404
 7566SOL     OW24138   2.950   7.136  11.921 -0.6857 -0.0029  1.0384
 7566SOL    HW124139   2.965   7.220  11.877 -1.6726 -0.0529  0.5838
 7566SOL    HW224140   2.979   7.070  11.857 -3.9748 -0.1674 -0.4704
 7567SOL     OW24141   1.892   1.483  10.476  0.6063 -0.6210  0.2465
 7567SOL    HW124142   1.866   1.457  10.388  1.9741 -0.4683 -0.2162
 7567SOL    HW224143   1.886   1.579  10.475 -1.2515 -0.6802  0.9482
 7568SOL     OW24144   2.248   0.489   2.067  0.2499  0.4483  0.2434
 7568SOL    HW124145   2.247   0.559   2.002 -2.2770 -1.5263 -2.1138
 7568SOL    HW224146   2.219   0.530   2.148  1.3585  2.5683 -0.3631
 7569SOL     OW24147   2.315   1.665   0.408 -0.5562 -0.2212  0.1084
 7569SOL    HW124148   2.365   1.744   0.427  1.3502 -1.7236  1.8996
 7569SOL    HW224149   2.378   1.606   0.365 -2.1119 -0.5768 -1.8401
 7570SOL     OW24150   2.623   7.263  12.103 -0.8038 -0.1313  0.0420
 7570SOL    HW124151   2.643   7.291  12.013 -0.5111  0.7403  0.3631
 7570SOL    HW224152   2.697   7.207  12.127 -0.4141  0.3677  0.0454
 7571SOL     OW24153   0.872   0.823   0.218  0.6200 -0.0223  0.2323
 7571SOL    HW124154   0.832   0.906   0.192 -1.6229 -0.8951  0.6578
 7571SOL    HW224155   0.962   0.845   0.241  0.4559  2.0458 -0.9177
 7572SOL     OW24156   4.057   2.020   8.714 -0.1567  0.5414  0.0597
 7572SOL    HW124157   4.131   1.969   8.746  0.5464  2.3326  1.4892
 7572SOL    HW224158   4.006   1.958   8.663  1.0298 -1.3771  1.0529
 7573SOL     OW24159   4.286   2.426   1.540 -0.3528 -0.0057  0.7401
 7573SOL    HW124160   4.223   2.494   1.518 -0.3185  0.0638  0.8541
 7573SOL    HW224161   4.372   2.467   1.526 -0.3312  0.0825  1.1380
 7574SOL     OW24162   4.712   4.073   1.605 -0.0455  0.4038 -0.3886
 7574SOL    HW124163   4.772   4.072   1.679  0.2067 -1.4493 -0.5692
 7574SOL    HW224164   4.631   4.036   1.639 -1.0329  2.5207 -0.2489
 7575SOL     OW24165   0.280   3.330   0.893  0.8431  0.0337  0.2354
 7575SOL    HW124166   0.220   3.372   0.954  0.6812 -0.0411  0.1261
 7575SOL    HW224167   0.364   3.373   0.910  0.2922  1.8016 -1.2117
 7576SOL     OW24168   2.796   0.417  12.245 -0.2632 -0.7999 -0.2884
 7576SOL    HW124169   2.852   0.383  12.175  1.5531 -1.1772  1.2815
 7576SOL    HW224170   2.824   0.508  12.255 -0.3445 -0.8148  0.0854
 7577SOL     OW24171   3.913   0.059  11.126  0.1727 -0.1284 -0.2605
 7577SOL    HW124172   3.974   0.116  11.079  2.7460 -1.7367  0.9005
 7577SOL    HW224173   3.867   0.011  11.057  0.4178  0.9010 -1.1753
 7578SOL     OW24174   4.810   0.946  11.727  0.6377 -0.0207 -0.1302
 7578SOL    HW124175   4.786   0.888  11.799  0.8378  1.0457  0.8324
 7578SOL    HW224176   4.864   1.014  11.768  2.1664 -0.2848 -1.5680
 7579SOL     OW24177   2.452   1.284  11.028 -0.2090 -0.1346  0.0509
 7579SOL    HW124178   2.430   1.278  11.121 -0.7020  0.7400  0.0095
 7579SOL    HW224179   2.387   1.229  10.985 -1.8226  1.6641  0.0151
 7580SOL     OW24180   4.640   0.989  11.510  0.1901  0.5711 -0.3394
 7580SOL    HW124181   4.678   0.971  11.424 -0.8424 -0.1550 -0.6644
 7580SOL    HW224182   4.704   0.955  11.573  0.3546 -0.0868 -0.8569
 7581SOL     OW24183   3.098   7.954   0.591 -0.4336  0.3472  0.8667
 7581SOL    HW124184   3.011   7.989   0.577  0.6166  1.9247 -2.8008
 7581SOL    HW224185   3.152   8.030   0.610  1.0386  0.2858 -2.4636
 7582SOL     OW24186   3.438   1.454  11.720 -1.1217 -0.1214 -0.1511
 7582SOL    HW124187   3.372   1.520  11.700 -0.5010  0.6809  0.3799
 7582SOL    HW224188   3.389   1.383  11.761 -1.4362  1.3425  2.1828
 7583SOL     OW24189   4.669   0.760   0.028  0.1891 -0.2276 -0.3676
 7583SOL    HW124190   4.691   0.772   0.121 -0.3579 -3.2719  0.2621
 7583SOL    HW224191   4.580   0.792   0.020 -0.0287 -0.6076  0.3801
 7584SOL     OW24192   0.772   0.349   0.341  0.1826  0.1931  0.5349
 7584SOL    HW124193   0.730   0.432   0.365  1.1575  0.5993  0.8960
 7584SOL    HW224194   0.808   0.365   0.254  0.6837  0.2883  0.7507
 7585SOL     OW24195   4.513   0.683  11.112  0.0272 -0.0339 -0.4294
 7585SOL    HW124196   4.506   0.654  11.021 -1.2640  0.0890 -0.3818
 7585SOL    HW224197   4.537   0.604  11.161  3.3020  0.3793 -1.1658
 7586SOL     OW24198   3.052   1.540  10.050  0.0178 -0.3964  0.2674
 7586SOL    HW124199   3.100   1.505  10.125  2.2641  2.8874  0.5663
 7586SOL    HW224200   2.960   1.523  10.070  0.3547  1.5351  4.6385
 7587SOL     OW24201   3.305   1.916  11.733 -0.7079  0.6334 -0.2112
 7587SOL    HW124202   3.281   1.984  11.669 -1.3659 -0.7782 -1.5512
 7587SOL    HW224203   3.238   1.922  11.800 -0.5744  1.5047 -0.1396
 7588SOL     OW24204   2.725   7.978  11.566 -0.5871  0.2200  0.1927
 7588SOL    HW124205   2.799   8.034  11.590  0.5965 -1.5194  0.7848
 7588SOL    HW224206   2.648   8.035  11.574  0.6039  1.9031  0.1884
 7589SOL     OW24207   2.687   1.148  11.096  0.0194  0.0468  0.2035
 7589SOL    HW124208   2.757   1.183  11.152  0.6502 -1.8441  0.6917
 7589SOL    HW224209   2.620   1.216  11.096  1.3485  1.4208  0.6906
 7590SOL     OW24210   3.641   2.441   0.499  0.6447 -0.1185  0.1163
 7590SOL    HW124211   3.610   2.356   0.532 -1.3663 -0.0142 -1.3062
 7590SOL    HW224212   3.562   2.495   0.496  1.3688  0.8982 -1.6366
 7591SOL     OW24213   1.693   7.533  11.958  0.1225  0.4948 -0.2711
 7591SOL    HW124214   1.623   7.552  12.021 -0.5636  2.3553 -1.5122
 7591SOL    HW224215   1.773   7.556  12.005 -0.3359  1.2480  0.1781
 7592SOL     OW24216   2.752   1.473  11.584  0.0583 -0.5305  0.1868
 7592SOL    HW124217   2.679   1.457  11.645  1.1212 -0.8839  1.4048
 7592SOL    HW224218   2.830   1.467  11.638  1.0015  0.0299 -1.0689
 7593SOL     OW24219   2.576   0.268  10.482 -0.1417 -0.2345  0.3914
 7593SOL    HW124220   2.657   0.240  10.439 -0.1506  0.5670 -0.1613
 7593SOL    HW224221   2.602   0.344  10.535 -0.5943  0.2570 -0.0800
 7594SOL     OW24222   1.990   2.077  10.314 -0.3181 -0.6325 -0.0011
 7594SOL    HW124223   1.999   2.127  10.396 -0.6751  2.1148 -1.4996
 7594SOL    HW224224   1.935   2.133  10.258  0.4448 -2.0816 -2.3447
 7595SOL     OW24225   3.490   2.314  11.487  0.1963  0.6841  0.4501
 7595SOL    HW124226   3.430   2.365  11.432 -0.1105 -1.6832 -1.6068
 7595SOL    HW224227   3.433   2.270  11.551 -0.1786 -0.5100 -0.6507
 7596SOL     OW24228   4.045   0.867   0.631 -0.4644  0.1977  0.3224
 7596SOL    HW124229   4.003   0.913   0.558 -0.9293 -0.5256  0.1202
 7596SOL    HW224230   3.980   0.801   0.657  0.6357 -1.0894 -0.1281
 7597SOL     OW24231   3.688   0.780   0.929 -0.4139  0.1108  0.4589
 7597SOL    HW124232   3.605   0.824   0.948 -0.1934  0.7385  0.0132
 7597SOL    HW224233   3.736   0.784   1.011  0.4606  2.6360 -0.0954
 7598SOL     OW24234   4.178   0.116  12.467  0.7666  0.1841  0.6462
 7598SOL    HW124235   4.154   0.208  12.470 -0.6942 -0.0590 -1.5113
 7598SOL    HW224236   4.107   0.072  12.515  0.1645  0.0069 -0.3782
 7599SOL     OW24237   5.086   1.204   0.142 -0.0247  0.2300 -0.0505
 7599SOL    HW124238   5.060   1.262   0.071  0.6495  1.7517  0.8959
 7599SOL    HW224239   5.121   1.262   0.209 -0.6171 -1.1687  1.5283
 7600SOL     OW24240   3.747   0.836  12.423  0.2190  0.5272 -0.1480
 7600SOL    HW124241   3.819   0.899  12.426 -0.3270  1.1173  0.7762
 7600SOL    HW224242   3.746   0.796  12.510 -0.0078 -0.1393 -0.4445
 7601SOL     OW24243   2.246   0.569   1.234 -0.0043 -0.0283 -0.2079
 7601SOL    HW124244   2.179   0.513   1.275 -0.8040  0.9670 -0.1283
 7601SOL    HW224245   2.219   0.575   1.143 -1.3669  2.2054  0.2601
 7602SOL     OW24246   3.290   1.407  12.111 -0.0769 -0.1967  0.1721
 7602SOL    HW124247   3.248   1.487  12.080 -2.0668 -1.7563 -1.4365
 7602SOL    HW224248   3.242   1.383  12.191  0.1872 -0.0643  0.3727
 7603SOL     OW24249   3.659   1.117   9.871  0.6760 -0.2449 -0.1864
 7603SOL    HW124250   3.624   1.189   9.924 -1.8023 -0.2159 -1.7236
 7603SOL    HW224251   3.683   1.050   9.935  0.2625  0.7869  1.1094
 7604SOL     OW24252   3.027   0.578  11.380  0.3405 -0.8316  0.3609
 7604SOL    HW124253   2.995   0.660  11.418 -0.9898 -1.2373  0.1659
 7604SOL    HW224254   2.990   0.510  11.435  0.1686 -1.3559 -0.3931
 7605SOL     OW24255   2.313   1.780   0.795 -0.0033  0.5228  0.2585
 7605SOL    HW124256   2.270   1.696   0.778  1.6845 -0.2528 -0.3820
 7605SOL    HW224257   2.245   1.834   0.835 -1.2560 -0.9909  0.2613
 7606SOL     OW24258   4.987   7.615  12.356 -0.1768  0.1781 -0.4180
 7606SOL    HW124259   5.076   7.633  12.325  0.7332 -0.5148  1.5856
 7606SOL    HW224260   4.971   7.682  12.422 -1.0889  0.1896 -0.6426
 7607SOL     OW24261   2.995   0.105  11.592 -0.2794  0.0962 -0.0132
 7607SOL    HW124262   3.032   0.162  11.659  0.9955  0.7411 -1.2204
 7607SOL    HW224263   3.022   0.017  11.619  0.5152  0.3791  0.1604
 7608SOL     OW24264   3.922   1.735   0.163 -0.1461  0.2572  0.1989
 7608SOL    HW124265   3.923   1.732   0.068 -1.8530 -1.1384  0.1520
 7608SOL    HW224266   3.954   1.822   0.186  1.0583  0.3227 -1.5988
 7609SOL     OW24267   1.838   2.312  12.001 -0.1707  0.5861  0.0769
 7609SOL    HW124268   1.832   2.340  11.910  0.7043  0.7757  0.0713
 7609SOL    HW224269   1.770   2.362  12.046 -2.0692 -1.0473 -0.8074
 7610SOL     OW24270   3.717   7.687   1.123  0.2431  0.3783  0.2292
 7610SOL    HW124271   3.800   7.664   1.165  0.7674  1.8299  0.0514
 7610SOL    HW224272   3.681   7.603   1.093  1.7431 -0.2643  0.1257
 7611SOL     OW24273   4.342   0.580  11.618 -0.0431 -0.4835  0.4202
 7611SOL    HW124274   4.416   0.538  11.662  1.6340  0.7823 -1.0289
 7611SOL    HW224275   4.327   0.661  11.667  0.4386 -0.0889 -0.0761
 7612SOL     OW24276   2.143   1.587  12.469  0.1420 -0.3236 -0.2170
 7612SOL    HW124277   2.109   1.631  12.391 -0.7727 -1.9273 -0.7667
 7612SOL    HW224278   2.212   1.529  12.436  0.0897 -0.6415  0.2237
 7613SOL     OW24279   1.841   2.274  10.199 -0.1753 -0.0674  0.3068
 7613SOL    HW124280   1.808   2.363  10.183 -0.4699 -0.1868  0.2392
 7613SOL    HW224281   1.840   2.232  10.113  0.9724  0.1897  0.1500
 7614SOL     OW24282   4.124   1.397  11.832  0.3242  0.1994 -0.1231
 7614SOL    HW124283   4.189   1.331  11.856 -1.4786 -1.4651  0.3801
 7614SOL    HW224284   4.075   1.413  11.912  0.4127  1.8190 -0.3609
 7615SOL     OW24285   4.351   0.962   0.270 -0.1426  0.1003 -0.1293
 7615SOL    HW124286   4.323   1.038   0.322  0.0967 -0.9323  1.5848
 7615SOL    HW224287   4.444   0.978   0.255  0.2065 -0.4193  1.3176
 7616SOL     OW24288   1.999   7.996   0.119 -0.5033  0.2308  0.4235
 7616SOL    HW124289   1.927   7.937   0.145  0.5925 -1.7287 -0.6947
 7616SOL    HW224290   2.064   7.985   0.188 -0.1204 -0.2470 -0.0021
 7617SOL     OW24291   5.581   3.163  11.021  0.5558  0.0807 -0.0475
 7617SOL    HW124292   5.625   3.229  11.075  1.0502 -0.5217  0.3008
 7617SOL    HW224293   5.651   3.126  10.968  0.6851 -1.5522  1.1825
 7618SOL     OW24294   5.569   1.099   0.115 -0.0970  0.0055 -0.2637
 7618SOL    HW124295   5.537   1.176   0.068  1.3335  0.0379 -1.2465
 7618SOL    HW224296   5.648   1.073   0.068 -0.8196 -2.4139 -0.2744
 7619SOL     OW24297   3.734   2.076   0.059  0.2493 -0.1694 -0.2385
 7619SOL    HW124298   3.817   2.031   0.076 -0.1659 -0.1499  2.3037
 7619SOL    HW224299   3.759   2.166   0.041  0.8214 -0.2410  0.1556
 7620SOL     OW24300   2.771   0.822   0.341 -0.8858  0.3011 -0.1582
 7620SOL    HW124301   2.743   0.912   0.326 -0.3697  1.1300  3.0535
 7620SOL    HW224302   2.698   0.780   0.385 -1.3515 -1.1393 -2.1289
 7621SOL     OW24303   1.443   3.110   1.061  0.2779  0.3635 -0.0157
 7621SOL    HW124304   1.515   3.096   1.000 -0.7557  1.4228 -1.5355
 7621SOL    HW224305   1.450   3.202   1.087  0.9075 -0.1410  1.8019
 7622SOL     OW24306   4.154   3.463   1.064 -0.4961 -0.3382 -0.2242
 7622SOL    HW124307   4.195   3.441   1.148 -0.4549  0.1752 -0.1100
 7622SOL    HW224308   4.081   3.402   1.057 -0.2364 -0.6795 -0.0220
 7623SOL     OW24309   3.083   2.225  11.885 -0.3604 -0.1503  0.2021
 7623SOL    HW124310   3.005   2.200  11.936 -0.5231 -1.5648 -0.6869
 7623SOL    HW224311   3.156   2.210  11.945 -0.7880  2.8519  1.6753
 7624SOL     OW24312   4.269   1.943   2.012  0.6210 -0.3871 -0.0263
 7624SOL    HW124313   4.226   1.961   1.928 -1.1751  1.3428  1.1649
 7624SOL    HW224314   4.247   2.019   2.067  5.0265  0.4887  0.8482
 7625SOL     OW24315   3.746   2.996   0.260 -0.3709  0.1204  0.4893
 7625SOL    HW124316   3.805   2.920   0.256  0.5536  0.8584 -1.6114
 7625SOL    HW224317   3.664   2.964   0.222  1.0848  0.9021 -3.8666
 7626SOL     OW24318   0.891   1.558   1.660  0.3242  0.9375  0.4643
 7626SOL    HW124319   0.890   1.466   1.635 -2.1473  1.4576 -1.8416
 7626SOL    HW224320   0.924   1.558   1.749  1.7320 -2.0142  0.0627
 7627SOL     OW24321   2.549   1.837   0.402  0.0038 -0.1066 -0.0664
 7627SOL    HW124322   2.510   1.876   0.481  1.0111 -1.0978  0.9496
 7627SOL    HW224323   2.644   1.844   0.416  0.2941  1.7098 -2.2168
 7628SOL     OW24324   2.448   2.198   1.562  0.0258  0.1842  0.4871
 7628SOL    HW124325   2.402   2.245   1.493  0.3858  0.6473  0.5546
 7628SOL    HW224326   2.484   2.120   1.519 -1.5580 -0.6704  0.6246
 7629SOL     OW24327   1.668   3.108   0.849  0.1197  0.5770  0.0267
 7629SOL    HW124328   1.682   3.047   0.776  0.6617  0.8867 -0.1352
 7629SOL    HW224329   1.587   3.154   0.826 -0.9753 -0.9150  0.7499
 7630SOL     OW24330   2.673   2.217   0.990  0.2678 -0.0625  0.0237
 7630SOL    HW124331   2.764   2.190   1.000  0.1835  0.0169  1.0491
 7630SOL    HW224332   2.678   2.304   0.950  0.6571  0.0687  0.3505
 7631SOL     OW24333   1.957   2.069   1.771  0.3592 -0.2590  0.0167
 7631SOL    HW124334   1.922   2.139   1.825 -1.4770 -0.3588 -0.9627
 7631SOL    HW224335   2.006   2.113   1.702  2.1567 -0.1094  1.3367
 7632SOL     OW24336   3.518   1.185   0.588 -0.1344 -0.0175  0.1723
 7632SOL    HW124337   3.574   1.195   0.666  1.7410  0.9278 -1.2315
 7632SOL    HW224338   3.429   1.200   0.621  0.4325 -1.0302  2.3837
 7633SOL     OW24339   2.968   1.431   2.294 -0.6090 -0.1267 -0.1394
 7633SOL    HW124340   2.952   1.361   2.357 -0.4559  0.0994  0.1501
 7633SOL    HW224341   2.995   1.506   2.347 -0.9954  0.2221 -0.4265
 7634SOL     OW24342   2.466   1.560   1.523  0.6912 -0.2906 -0.3742
 7634SOL    HW124343   2.522   1.597   1.591 -0.2024  1.2960 -0.4573
 7634SOL    HW224344   2.506   1.588   1.441 -0.3366  1.1042 -0.4326
 7635SOL     OW24345   1.375   4.919  12.237 -0.0557  0.0272 -0.3420
 7635SOL    HW124346   1.382   5.010  12.266 -0.9804 -0.1361  0.4621
 7635SOL    HW224347   1.325   4.925  12.155  0.4319  0.2943 -0.6217
 7636SOL     OW24348   2.643   3.603   2.851  0.4661 -0.0792  0.3580
 7636SOL    HW124349   2.573   3.599   2.917 -0.2472  2.5174 -0.1164
 7636SOL    HW224350   2.713   3.652   2.894  1.8529 -2.2047  0.6406
 7637SOL     OW24351   3.484   2.348  11.897  0.1078 -0.9395  0.0567
 7637SOL    HW124352   3.526   2.394  11.823 -1.6233  0.7313  0.0565
 7637SOL    HW224353   3.558   2.318  11.951  1.3514 -0.1392 -1.1255
 7638SOL     OW24354   2.016   1.074   0.681  0.5471  0.0639 -0.0013
 7638SOL    HW124355   2.051   0.984   0.680  0.8694  0.0694  2.6149
 7638SOL    HW224356   2.028   1.103   0.771 -0.0413  2.5862 -0.6556
 7639SOL     OW24357   2.835   3.712   1.602 -0.1066 -0.2861  0.4356
 7639SOL    HW124358   2.766   3.762   1.558  0.1627 -0.8640 -0.6875
 7639SOL    HW224359   2.886   3.777   1.648 -0.7823  0.2706  0.4200
 7640SOL     OW24360   4.069   2.888   1.751  0.1716  0.0504  0.2540
 7640SOL    HW124361   4.081   2.809   1.804 -1.1540  0.1745  0.7538
 7640SOL    HW224362   4.112   2.957   1.800 -0.0652 -0.0543  0.6079
 7641SOL     OW24363   4.073   2.277  12.378 -0.3468  0.1562 -0.1422
 7641SOL    HW124364   4.082   2.181  12.374  2.5091  0.2512  1.3449
 7641SOL    HW224365   4.071   2.304  12.286  0.4141 -1.2555 -0.6162
 7642SOL     OW24366   1.844   3.081   0.590  0.1378 -0.3340 -0.0887
 7642SOL    HW124367   1.937   3.091   0.607 -0.2824 -0.1293  2.3839
 7642SOL    HW224368   1.806   3.166   0.611 -0.7895 -0.8395  0.3291
 7643SOL     OW24369   3.504   1.079   0.147  0.1052  0.1921  0.0319
 7643SOL    HW124370   3.454   1.156   0.175 -0.3271 -0.3067  0.6791
 7643SOL    HW224371   3.455   1.005   0.184  0.3164 -0.4124 -0.8757
 7644SOL     OW24372   2.649   1.545   0.547  0.7301  0.4206 -0.2755
 7644SOL    HW124373   2.702   1.624   0.540  0.9937  0.2510 -0.2165
 7644SOL    HW224374   2.665   1.513   0.636 -0.0121  0.7462 -0.0173
 7645SOL     OW24375   2.743   3.059   1.775 -0.1929  0.0642 -0.3851
 7645SOL    HW124376   2.666   3.100   1.736 -0.3780 -1.6037 -1.8690
 7645SOL    HW224377   2.808   3.055   1.705 -0.0845 -1.8718 -0.2349
 7646SOL     OW24378   2.626   2.061   2.034  0.4497  0.3007  0.2216
 7646SOL    HW124379   2.717   2.082   2.010  0.2622  2.0190  0.8131
 7646SOL    HW224380   2.574   2.094   1.961  0.2340  0.3948  0.4175
 7647SOL     OW24381   1.490   3.582   0.403  0.8811 -0.4137  0.3001
 7647SOL    HW124382   1.476   3.514   0.337 -1.2589 -0.4542  0.7393
 7647SOL    HW224383   1.459   3.662   0.362 -0.8657 -0.5100  1.3620
 7648SOL     OW24384   1.165   1.717   0.684  0.6348  0.1093  0.1276
 7648SOL    HW124385   1.116   1.798   0.698  0.2473 -0.1834  0.5018
 7648SOL    HW224386   1.100   1.647   0.696  0.8186 -0.2384 -0.8349
 7649SOL     OW24387   3.445   2.706   0.132 -0.3449  0.1001  0.2766
 7649SOL    HW124388   3.493   2.788   0.137  0.8109 -0.4456 -1.0377
 7649SOL    HW224389   3.357   2.728   0.161  0.0943  1.6710  0.5114
 7650SOL     OW24390   3.694   3.155   1.902  0.0594  0.1886  0.0080
 7650SOL    HW124391   3.727   3.187   1.985  0.2118  2.4358 -0.8628
 7650SOL    HW224392   3.749   3.196   1.836 -1.2975  0.0549 -1.2706
 7651SOL     OW24393   4.055   3.164  12.363  0.1226 -0.0622 -0.3341
 7651SOL    HW124394   4.112   3.120  12.300 -1.1737 -0.6942 -1.1053
 7651SOL    HW224395   4.080   3.129  12.448 -0.1883 -1.5617 -0.8317
 7652SOL     OW24396   4.367   3.054   2.325  0.6288 -0.1878 -0.0960
 7652SOL    HW124397   4.350   3.081   2.416  0.1883  1.7350 -0.6994
 7652SOL    HW224398   4.280   3.034   2.289  0.7447 -0.4273 -0.2435
 7653SOL     OW24399   1.111   2.282   0.325  0.0366  0.0542  0.1270
 7653SOL    HW124400   1.083   2.217   0.389  2.8149 -0.6318  0.7877
 7653SOL    HW224401   1.122   2.232   0.244  0.4950  0.0537  0.1879
 7654SOL     OW24402   1.089   2.363   1.183  0.4221 -0.3077  0.6838
 7654SOL    HW124403   1.082   2.445   1.232 -0.2736 -0.0529  0.1818
 7654SOL    HW224404   1.015   2.366   1.122  0.4696 -1.2526  0.5736
 7655SOL     OW24405   2.772   1.884  11.875 -0.4904  0.2904  0.5109
 7655SOL    HW124406   2.678   1.881  11.892 -0.9983 -0.0107 -1.9726
 7655SOL    HW224407   2.800   1.793  11.882 -0.4364  0.3405  0.9634
 7656SOL     OW24408   3.870   2.909   2.025  0.2217  0.1371  0.4109
 7656SOL    HW124409   3.787   2.928   2.070  0.4535 -0.9944  1.3890
 7656SOL    HW224410   3.871   2.968   1.950 -1.5080  0.1301  0.3311
 7657SOL     OW24411   3.604   1.276   2.474 -0.3379  0.1234 -0.2027
 7657SOL    HW124412   3.543   1.252   2.404 -0.0925 -0.7813 -0.1268
 7657SOL    HW224413   3.583   1.367   2.494  0.1537  0.6737 -2.0209
 7658SOL     OW24414   3.344   0.528   3.540 -0.1398  0.4199  0.2590
 7658SOL    HW124415   3.298   0.447   3.519  1.7294 -0.5022 -0.4759
 7658SOL    HW224416   3.319   0.547   3.631 -0.5134 -1.0305  0.4765
 7659SOL     OW24417   3.560   1.792   0.646 -0.1243 -0.2295 -0.2011
 7659SOL    HW124418   3.606   1.865   0.605  0.3559 -0.3323  0.1589
 7659SOL    HW224419   3.620   1.718   0.639  0.3243 -0.0416  1.4821
 7660SOL     OW24420   2.738   1.523   2.921 -0.4876 -0.3077 -0.0512
 7660SOL    HW124421   2.709   1.597   2.973 -1.3820  0.3084 -1.3695
 7660SOL    HW224422   2.814   1.488   2.968 -2.2803 -0.8863  2.5942
 7661SOL     OW24423   3.071   2.951   0.989  0.2521  0.4374  0.1971
 7661SOL    HW124424   3.158   2.989   0.999 -0.3580  1.8122  0.4668
 7661SOL    HW224425   3.011   3.025   0.993 -0.9927 -0.5495  0.6583
 7662SOL     OW24426   1.661   1.737   1.666 -0.1047  0.5763  0.0915
 7662SOL    HW124427   1.602   1.775   1.600 -0.7161  2.4823  1.6370
 7662SOL    HW224428   1.702   1.813   1.707  0.7618 -0.5934  1.4481
 7663SOL     OW24429   1.617   2.486   0.552  0.2009 -0.2375 -0.1572
 7663SOL    HW124430   1.549   2.472   0.617 -0.0929 -1.6340 -0.7430
 7663SOL    HW224431   1.685   2.423   0.573  2.4596  2.5511  1.7786
 7664SOL     OW24432   2.376   2.257   9.966 -0.2171  0.1304  0.2005
 7664SOL    HW124433   2.377   2.348   9.994 -0.9246  0.5236 -0.9811
 7664SOL    HW224434   2.283   2.232   9.969 -0.2928  0.0868 -1.3670
 7665SOL     OW24435   2.818   1.414   2.061 -0.1487  0.1369  0.0397
 7665SOL    HW124436   2.880   1.419   2.134 -0.5123 -1.3518  0.5029
 7665SOL    HW224437   2.871   1.431   1.983  1.1805 -2.2715  0.3003
 7666SOL     OW24438   1.942   3.539   1.593 -0.2897 -0.3779 -0.2055
 7666SOL    HW124439   1.958   3.480   1.520 -2.2851 -1.9418  0.5121
 7666SOL    HW224440   2.012   3.521   1.656 -0.0097 -0.8516 -0.6562
 7667SOL     OW24441   4.292   7.932   1.292  0.4493  0.5320 -0.4399
 7667SOL    HW124442   4.271   8.021   1.321  1.2856  1.0531 -1.3448
 7667SOL    HW224443   4.242   7.921   1.211  0.1567  0.0829 -0.2004
 7668SOL     OW24444   4.252   1.182   1.461  0.2665  0.6066  0.0342
 7668SOL    HW124445   4.294   1.130   1.530  0.8433  0.0295 -0.7288
 7668SOL    HW224446   4.169   1.211   1.499  0.1711 -0.4484  0.6535
 7669SOL     OW24447   1.383   2.086   1.589  0.0158  0.0891  0.3390
 7669SOL    HW124448   1.351   2.039   1.512  0.4760  1.2306 -0.5742
 7669SOL    HW224449   1.476   2.064   1.594  0.3060  1.1039 -0.2775
 7670SOL     OW24450   4.377   1.879   1.559 -0.6439 -0.1824  0.4896
 7670SOL    HW124451   4.397   1.957   1.506  0.0977 -0.6154  0.1051
 7670SOL    HW224452   4.290   1.852   1.531 -0.7131  0.2313  0.2909
 7671SOL     OW24453   1.889   3.565   0.938  0.2130  0.2717  0.7362
 7671SOL    HW124454   1.851   3.477   0.932  0.2864  0.0803  2.6273
 7671SOL    HW224455   1.903   3.579   1.031 -0.5638  2.6386  0.5483
 7672SOL     OW24456   2.884   2.028   0.268 -0.0891  0.5110  0.6255
 7672SOL    HW124457   2.880   1.933   0.252  0.1784  0.9665 -2.8057
 7672SOL    HW224458   2.964   2.040   0.319 -0.9920 -1.1979  2.6300
 7673SOL     OW24459   2.217   0.688  12.249  0.0878  0.0190 -0.2933
 7673SOL    HW124460   2.136   0.649  12.216  0.6113  0.0464 -1.6533
 7673SOL    HW224461   2.284   0.664  12.186  0.6178  2.3232 -0.7226
 7674SOL     OW24462   2.031   3.857   1.568  0.0832 -0.2648  0.6072
 7674SOL    HW124463   2.044   3.763   1.568  0.6276 -0.2352 -1.3675
 7674SOL    HW224464   2.111   3.893   1.607  1.5056 -0.5215 -1.9085
 7675SOL     OW24465   2.452   3.322   2.589 -0.1889 -0.3415  0.0554
 7675SOL    HW124466   2.520   3.287   2.647 -1.2416 -1.1276  0.8578
 7675SOL    HW224467   2.455   3.267   2.512 -1.3515 -1.8171  1.0094
 7676SOL     OW24468   0.465   2.211   0.738 -0.6225  0.9573  0.7302
 7676SOL    HW124469   0.370   2.200   0.728 -0.7662  1.1383  1.7881
 7676SOL    HW224470   0.488   2.277   0.672 -1.1935  0.7484  0.3126
 7677SOL     OW24471   2.680   1.498  12.305  0.4305 -1.0837 -0.4646
 7677SOL    HW124472   2.604   1.545  12.273  1.1639  0.0751 -0.5812
 7677SOL    HW224473   2.671   1.499  12.401  0.1145 -1.2842 -0.4927
 7678SOL     OW24474   3.636   3.262   0.683 -0.1406  0.1473  0.1239
 7678SOL    HW124475   3.672   3.326   0.622  1.1244  0.0535  0.7335
 7678SOL    HW224476   3.571   3.214   0.632 -0.6343  1.4545 -0.5339
 7679SOL     OW24477   4.131   7.800  11.936  0.6306  0.0762  0.3258
 7679SOL    HW124478   4.221   7.814  11.907  1.0090 -0.4999  1.1995
 7679SOL    HW224479   4.094   7.888  11.939  0.5263  0.1834 -1.9478
 7680SOL     OW24480   1.441   2.174   0.738 -0.4813 -0.1314 -0.2528
 7680SOL    HW124481   1.375   2.143   0.676 -1.6078 -1.7088  1.6064
 7680SOL    HW224482   1.435   2.269   0.735 -0.9639 -0.1827 -2.0154
 7681SOL     OW24483   1.896   4.814   0.575  0.1573 -0.3419 -0.0671
 7681SOL    HW124484   1.834   4.833   0.505 -1.4839  1.5871  1.7721
 7681SOL    HW224485   1.886   4.721   0.592 -2.0530 -0.1488 -0.0500
 7682SOL     OW24486   2.325   1.947   0.531  0.3542 -0.0900 -0.5603
 7682SOL    HW124487   2.258   1.973   0.594  1.4471  1.4713  0.0158
 7682SOL    HW224488   2.286   1.965   0.446  0.1327  1.0601 -0.2254
 7683SOL     OW24489   2.523   1.239   2.986 -0.1257 -0.1354  0.0584
 7683SOL    HW124490   2.617   1.224   2.994  0.0388  0.9615  0.2427
 7683SOL    HW224491   2.509   1.262   2.895 -0.1786 -0.0088  0.0988
 7684SOL     OW24492   2.032   4.350  10.524 -0.0875 -0.8641 -0.2149
 7684SOL    HW124493   2.054   4.396  10.443 -0.4402  0.8587  0.6108
 7684SOL    HW224494   1.940   4.370  10.540  0.0801 -0.8298  0.8116
 7685SOL     OW24495   2.292   0.713   3.426 -0.1903  0.5383 -0.1301
 7685SOL    HW124496   2.329   0.795   3.458 -1.7985  2.3558 -2.5421
 7685SOL    HW224497   2.247   0.675   3.502  1.7744  1.1144  1.3878
 7686SOL     OW24498   1.699   2.826  12.239  0.1526 -0.5238 -0.0688
 7686SOL    HW124499   1.735   2.849  12.153 -1.2523 -0.2176 -0.6097
 7686SOL    HW224500   1.637   2.897  12.258 -0.2805 -1.1029  0.7350
 7687SOL     OW24501   3.431   2.272   1.687 -0.1876  0.1913  0.0594
 7687SOL    HW124502   3.522   2.298   1.678 -0.3884  0.5464 -1.1360
 7687SOL    HW224503   3.423   2.192   1.634 -0.5109  0.0165  0.3642
 7688SOL     OW24504   3.698   0.401  11.267  0.5280  0.0788  0.2403
 7688SOL    HW124505   3.634   0.345  11.223 -0.1775  0.6541  0.5047
 7688SOL    HW224506   3.669   0.490  11.248  0.7837  0.3412  1.0349
 7689SOL     OW24507   2.488   0.521   0.683  0.2122 -0.4982 -0.9375
 7689SOL    HW124508   2.398   0.520   0.649 -0.1220 -0.1375 -0.0984
 7689SOL    HW224509   2.482   0.473   0.766  0.6879 -0.0203 -0.6257
 7690SOL     OW24510   4.154   7.679   0.922 -0.1145  0.4137  0.6113
 7690SOL    HW124511   4.131   7.715   0.837  1.2758  0.5656  0.2714
 7690SOL    HW224512   4.207   7.747   0.964  1.4759 -0.6828  0.4805
 7691SOL     OW24513   1.268   3.197  12.398  0.0898  0.0069  0.4196
 7691SOL    HW124514   1.226   3.122  12.440  1.7382 -0.2799  1.6543
 7691SOL    HW224515   1.285   3.258  12.470 -3.0464  2.6128 -0.7669
 7692SOL     OW24516   0.704   2.522  12.431 -0.1089  0.3892 -0.1386
 7692SOL    HW124517   0.677   2.594  12.488 -0.3901 -0.5334  0.9494
 7692SOL    HW224518   0.781   2.485  12.476  0.8071  0.7669 -1.3332
 7693SOL     OW24519   3.418   2.626  11.760  0.9435  0.1510  0.6957
 7693SOL    HW124520   3.367   2.706  11.764  0.7116  0.0091  0.6121
 7693SOL    HW224521   3.477   2.639  11.685 -0.0343 -0.3005 -0.1704
 7694SOL     OW24522   4.191   1.482   0.093  0.1424 -0.3115 -0.1987
 7694SOL    HW124523   4.102   1.469   0.125 -0.8933  2.1146 -1.8313
 7694SOL    HW224524   4.239   1.518   0.168  0.0196 -2.2372  0.8864
 7695SOL     OW24525   1.768   1.960   0.512  0.4672 -1.0628 -0.4728
 7695SOL    HW124526   1.760   2.008   0.430  1.0433 -0.8105 -0.3837
 7695SOL    HW224527   1.828   1.888   0.492  2.1004  0.0604  0.1801
 7696SOL     OW24528   4.534   2.398  12.270 -0.0626  0.3134 -0.1415
 7696SOL    HW124529   4.514   2.431  12.358 -1.9396 -0.1492 -0.3596
 7696SOL    HW224530   4.581   2.316  12.285  2.0522  1.5364  0.3905
 7697SOL     OW24531   2.278   3.673   0.725 -0.1898 -0.4955  0.0657
 7697SOL    HW124532   2.301   3.610   0.792  0.1166 -1.3533 -0.8277
 7697SOL    HW224533   2.348   3.739   0.728  0.1441 -0.8560  0.1670
 7698SOL     OW24534   0.294   2.742   0.323 -0.6487  0.5031 -0.0375
 7698SOL    HW124535   0.210   2.709   0.290 -0.0805 -0.7852 -0.2695
 7698SOL    HW224536   0.344   2.663   0.342  0.5099  1.2622  0.1277
 7699SOL     OW24537   0.910   3.355   1.076  0.6173  1.0456  0.0425
 7699SOL    HW124538   0.913   3.299   0.999  0.1687 -0.1990  0.9099
 7699SOL    HW224539   1.001   3.382   1.090  0.7409  1.0453 -0.7418
 7700SOL     OW24540   2.352   2.311   0.475 -0.3072  0.2233 -0.0743
 7700SOL    HW124541   2.339   2.260   0.555 -1.3883  0.4203 -0.1044
 7700SOL    HW224542   2.294   2.271   0.411  0.9353 -0.2488 -0.9255
 7701SOL     OW24543   1.547   1.847  12.052 -0.5408 -0.4077  0.5106
 7701SOL    HW124544   1.457   1.853  12.085  0.0958 -0.2354  2.3452
 7701SOL    HW224545   1.596   1.810  12.125  0.9567 -0.1436 -0.3327
 7702SOL     OW24546   1.693   0.712   0.701  0.0035 -1.0510 -0.3739
 7702SOL    HW124547   1.662   0.622   0.706 -1.1611 -0.6086  1.3264
 7702SOL    HW224548   1.630   0.755   0.643 -0.5366 -0.9448  0.2750
 7703SOL     OW24549   1.633   4.003   1.353  0.2328 -0.3081 -0.3258
 7703SOL    HW124550   1.641   4.037   1.442  1.2953  0.0487 -0.5463
 7703SOL    HW224551   1.550   4.039   1.320 -0.5462 -1.0469  0.7647
 7704SOL     OW24552   1.319   3.049  10.862  0.1313 -1.0679 -0.2966
 7704SOL    HW124553   1.333   3.085  10.774  0.8679  1.2358  0.7158
 7704SOL    HW224554   1.404   3.014  10.887  0.6425  0.6646  0.5001
 7705SOL     OW24555   2.179   1.074   0.898 -0.0817 -0.1141 -0.4225
 7705SOL    HW124556   2.182   1.169   0.883  1.0674  0.0584  0.7341
 7705SOL    HW224557   2.153   1.065   0.990 -2.3621 -1.0105 -1.0784
 7706SOL     OW24558   2.270   2.868  11.755  0.4084  0.8617 -0.4885
 7706SOL    HW124559   2.239   2.883  11.666 -0.5273  0.4963 -0.2388
 7706SOL    HW224560   2.190   2.863  11.807  0.9705  1.8269  0.5023
 7707SOL     OW24561   2.792   1.796   0.521  0.4125 -0.5416  0.2407
 7707SOL    HW124562   2.880   1.806   0.483  0.4519 -0.2172  0.4186
 7707SOL    HW224563   2.794   1.848   0.601 -0.3447  0.5315 -0.4050
 7708SOL     OW24564   4.317   0.986  12.096 -0.0963  0.4778  0.2765
 7708SOL    HW124565   4.334   1.066  12.146  1.5259 -0.3496  1.1116
 7708SOL    HW224566   4.297   0.920  12.161  1.6810 -0.5280 -0.1307
 7709SOL     OW24567   2.840   0.033   0.529 -0.0956  0.6736 -0.1768
 7709SOL    HW124568   2.802   0.100   0.586 -0.9452  0.6408 -0.6830
 7709SOL    HW224569   2.781   0.030   0.453  0.4896  0.0563 -0.6165
 7710SOL     OW24570   3.149   2.313   1.724 -0.4411  0.2815  0.0525
 7710SOL    HW124571   3.116   2.358   1.802  1.4442  3.5364 -0.8275
 7710SOL    HW224572   3.244   2.329   1.726 -0.0614 -1.4002 -1.8244
 7711SOL     OW24573   3.468   0.426   2.411  0.2954  0.4189  0.6544
 7711SOL    HW124574   3.551   0.391   2.376  0.0884  2.1457 -1.8559
 7711SOL    HW224575   3.417   0.446   2.333 -1.9914  0.6514  2.1429
 7712SOL     OW24576   2.917   5.055   1.519 -0.2645  0.6840 -0.0311
 7712SOL    HW124577   2.894   5.087   1.606 -1.0414  0.3104 -0.0891
 7712SOL    HW224578   2.931   4.961   1.531 -1.3739  0.4531 -0.4920
 7713SOL     OW24579   1.901   2.778   0.341 -0.4785  0.0210 -0.2407
 7713SOL    HW124580   1.964   2.849   0.353 -0.2754 -0.4782  2.0087
 7713SOL    HW224581   1.820   2.822   0.317  0.3124  0.7725 -1.7029
 7714SOL     OW24582   2.319   2.785   1.232 -0.2472 -0.5215 -0.0437
 7714SOL    HW124583   2.283   2.707   1.274  1.1284 -1.1470  0.0009
 7714SOL    HW224584   2.387   2.816   1.293 -0.4092  0.4104 -0.3138
 7715SOL     OW24585   1.016   0.209   1.701  0.3516 -0.5000  0.2054
 7715SOL    HW124586   1.054   0.271   1.764  0.4491 -1.4804  1.1473
 7715SOL    HW224587   1.092   0.176   1.652  0.6935 -1.8743  1.5605
 7716SOL     OW24588   4.317   1.603   0.865  0.2881  0.0052  0.1126
 7716SOL    HW124589   4.261   1.527   0.879  0.3634 -0.9553 -3.7619
 7716SOL    HW224590   4.400   1.580   0.907  0.5331 -2.4338 -1.5207
 7717SOL     OW24591   2.075   2.272  12.107  0.0670  0.3406 -0.1722
 7717SOL    HW124592   2.136   2.332  12.065 -2.2633  2.3824 -0.9023
 7717SOL    HW224593   1.992   2.286  12.061 -1.1965 -1.6254  1.3302
 7718SOL     OW24594   3.684   0.916   1.775 -0.5719 -0.3650  0.1036
 7718SOL    HW124595   3.604   0.870   1.802 -0.6063 -0.0357  0.5877
 7718SOL    HW224596   3.692   0.988   1.838 -1.2852  1.1310 -1.4505
 7719SOL     OW24597   3.636   2.948   2.180 -0.2984  0.1541 -0.4014
 7719SOL    HW124598   3.589   3.019   2.225 -0.5890 -0.5631  0.4783
 7719SOL    HW224599   3.635   2.876   2.244  0.3237 -0.5075 -1.1274
 7720SOL     OW24600   0.788   3.198   1.495  0.8885 -0.3638 -0.3766
 7720SOL    HW124601   0.698   3.198   1.464  1.3177 -0.6232 -1.7232
 7720SOL    HW224602   0.815   3.289   1.492  0.4639 -0.1900  0.7207
 7721SOL     OW24603   3.165   0.531   0.533  0.2029 -0.0557 -0.0199
 7721SOL    HW124604   3.103   0.554   0.603  0.1211  0.3560 -0.2230
 7721SOL    HW224605   3.186   0.615   0.492  1.4271 -0.0893  0.4813
 7722SOL     OW24606   2.574   2.860   2.211  0.0064  0.2326 -0.5465
 7722SOL    HW124607   2.483   2.888   2.203 -0.2948 -1.0726 -2.7178
 7722SOL    HW224608   2.573   2.768   2.183  1.8825 -0.0398  0.1415
 7723SOL     OW24609   2.495   4.009   0.186  0.6608 -0.5243  0.2984
 7723SOL    HW124610   2.557   4.049   0.126  0.2836  0.6064  0.6399
 7723SOL    HW224611   2.421   4.070   0.189  0.6886 -0.5278  1.9381
 7724SOL     OW24612   1.730   3.625   2.050 -0.0537 -0.3331  0.1130
 7724SOL    HW124613   1.791   3.656   1.983  0.7108  0.6026  1.2185
 7724SOL    HW224614   1.656   3.686   2.044 -1.0292 -1.5646 -1.3393
 7725SOL     OW24615   3.882   1.740  12.402 -0.2071  0.4047 -0.1339
 7725SOL    HW124616   3.787   1.730  12.409 -0.1834 -0.3397 -0.7361
 7725SOL    HW224617   3.894   1.805  12.333 -0.2921  1.5483  0.9035
 7726SOL     OW24618   1.377   2.436   1.156 -0.1851  0.2840  0.4168
 7726SOL    HW124619   1.288   2.457   1.128  0.0904  2.1124  0.7979
 7726SOL    HW224620   1.393   2.348   1.121 -1.5433  0.5885 -1.0798
 7727SOL     OW24621   1.451   1.506   0.853  0.1124  0.3872 -0.0587
 7727SOL    HW124622   1.413   1.435   0.801 -0.6070  1.4225 -0.9777
 7727SOL    HW224623   1.383   1.528   0.917  0.8043 -0.5455  1.0455
 7728SOL     OW24624   3.773   3.516   2.485 -0.3708  0.2767 -0.0050
 7728SOL    HW124625   3.835   3.583   2.511  0.2059 -0.3535  0.2836
 7728SOL    HW224626   3.827   3.447   2.445 -0.6342 -1.0936  1.8530
 7729SOL     OW24627   2.908   2.024   2.850  0.5609 -0.1539 -0.1648
 7729SOL    HW124628   2.924   2.119   2.856 -0.2122 -0.0119 -0.1854
 7729SOL    HW224629   2.924   2.003   2.758 -1.2139  0.3569 -0.6255
 7730SOL     OW24630   1.583   2.835   1.667 -0.2813  0.1405  0.6926
 7730SOL    HW124631   1.493   2.814   1.691  0.1536  0.1825  2.5379
 7730SOL    HW224632   1.594   2.800   1.578 -2.3365  0.8626  0.1148
 7731SOL     OW24633   1.325   1.599   0.482  0.6984  0.1057 -0.0084
 7731SOL    HW124634   1.268   1.631   0.551  0.7867 -2.1708  1.2185
 7731SOL    HW224635   1.399   1.660   0.482  0.3215  0.5980  1.3956
 7732SOL     OW24636   3.981   2.246   1.673  0.6474  0.5212  0.2139
 7732SOL    HW124637   3.914   2.300   1.714 -1.5074 -2.0866  0.3989
 7732SOL    HW224638   3.974   2.265   1.580  0.1085  0.7395  0.2970
 7733SOL     OW24639   3.318   2.690   0.894 -0.0398  0.2890 -0.2860
 7733SOL    HW124640   3.352   2.777   0.873  0.2201  0.6328  1.3912
 7733SOL    HW224641   3.225   2.703   0.909  0.0413  0.3394  0.2017
 7734SOL     OW24642   4.096   2.698   2.348 -0.3342  0.3043 -0.4372
 7734SOL    HW124643   4.100   2.647   2.429  0.7676 -0.1423 -0.7498
 7734SOL    HW224644   4.140   2.780   2.370  0.0518  0.1447 -0.5967
 7735SOL     OW24645   2.553   2.091  11.880 -0.0568 -0.6066 -0.2751
 7735SOL    HW124646   2.543   2.172  11.830 -0.9530  0.0871  0.9455
 7735SOL    HW224647   2.584   2.121  11.966 -1.3718 -1.4360  0.5178
 7736SOL     OW24648   1.827   2.921  11.436  0.8560  0.4135  0.3386
 7736SOL    HW124649   1.754   2.881  11.484 -0.8942  0.9903 -1.6904
 7736SOL    HW224650   1.796   3.010  11.416  2.1557  0.6963 -0.4867
 7737SOL     OW24651   2.952   2.127   1.629 -0.8700 -0.3005 -0.5099
 7737SOL    HW124652   2.986   2.041   1.654 -1.3806 -0.7638 -1.3601
 7737SOL    HW224653   3.028   2.185   1.633 -0.6302 -0.6630  0.5901
 7738SOL     OW24654   2.957   1.189   1.220 -0.8580 -0.6815  0.1375
 7738SOL    HW124655   2.906   1.109   1.238 -0.9017 -0.9341 -1.0429
 7738SOL    HW224656   2.891   1.258   1.211 -0.9136 -0.7682 -0.1358
 7739SOL     OW24657   3.432   0.780   1.816 -0.0325 -0.5284  0.0067
 7739SOL    HW124658   3.471   0.702   1.777  1.0490 -0.4248  0.8243
 7739SOL    HW224659   3.347   0.751   1.849 -0.1017 -1.0883 -0.6500
 7740SOL     OW24660   3.483   0.737   1.310 -0.1262 -0.4725  0.2425
 7740SOL    HW124661   3.469   0.817   1.362 -0.6046 -0.2484 -0.2327
 7740SOL    HW224662   3.498   0.669   1.376  2.7581  0.4257  0.6696
 7741SOL     OW24663   2.528   2.493   0.741  0.4526  0.4676 -0.4667
 7741SOL    HW124664   2.609   2.499   0.792  1.1133 -0.5109 -1.3491
 7741SOL    HW224665   2.530   2.405   0.703 -1.4316  0.1357  0.1173
 7742SOL     OW24666   1.357   2.857   1.193  0.2284 -0.0105 -0.0959
 7742SOL    HW124667   1.283   2.870   1.252  0.8174  1.1670  0.4076
 7742SOL    HW224668   1.364   2.938   1.143  0.4703 -0.5491 -0.9578
 7743SOL     OW24669   2.478   2.499  12.107  0.8250 -0.0528  0.3286
 7743SOL    HW124670   2.544   2.516  12.040  0.0387  0.6224 -0.2975
 7743SOL    HW224671   2.398   2.481  12.058  0.1858  0.6522  1.0832
 7744SOL     OW24672   2.769   7.721   0.658  0.2355  0.9524 -0.5302
 7744SOL    HW124673   2.836   7.692   0.719  0.4988 -0.3396 -1.3918
 7744SOL    HW224674   2.796   7.810   0.633  1.4145  0.6013 -0.5486
 7745SOL     OW24675   2.966   3.434  12.376  0.4738  0.0667 -0.2966
 7745SOL    HW124676   2.993   3.469  12.460 -1.6085  1.4911 -0.1394
 7745SOL    HW224677   2.979   3.506  12.314 -0.7570  0.0448 -0.6100
 7746SOL     OW24678   1.463   4.391   1.226  0.2888  0.3444  0.6737
 7746SOL    HW124679   1.474   4.379   1.320 -0.2673 -0.0470  0.6932
 7746SOL    HW224680   1.502   4.313   1.186  1.1537  0.8377  0.5390
 7747SOL     OW24681   2.433   1.167   1.609 -0.2289 -0.0606  0.2541
 7747SOL    HW124682   2.477   1.084   1.593  1.1023  0.8494 -1.0600
 7747SOL    HW224683   2.340   1.145   1.612  0.0193 -1.4487 -1.1244
 7748SOL     OW24684   0.175   0.437   1.630  0.3946 -0.2690 -0.6573
 7748SOL    HW124685   0.162   0.497   1.704 -0.4971 -0.0787 -0.9582
 7748SOL    HW224686   0.189   0.495   1.555 -1.2872 -0.4089 -1.1010
 7749SOL     OW24687   1.862   2.997   1.338  0.3294  0.6806 -0.0747
 7749SOL    HW124688   1.949   2.987   1.375 -0.6439  1.3566  2.6925
 7749SOL    HW224689   1.815   2.917   1.364  0.0910  0.3316 -1.5033
 7750SOL     OW24690   2.593   1.364   0.766  0.0159 -0.1119  0.2991
 7750SOL    HW124691   2.550   1.447   0.786  0.7881 -0.0920  2.0187
 7750SOL    HW224692   2.520   1.304   0.747 -0.5796  0.7649 -0.2434
 7751SOL     OW24693   2.185   5.371   1.046 -0.1414 -0.1588  0.3392
 7751SOL    HW124694   2.242   5.442   1.074 -1.3282  1.2250 -0.5888
 7751SOL    HW224695   2.096   5.406   1.057 -0.7269 -1.1437 -0.9936
 7752SOL     OW24696   1.606   3.038   2.340  0.1243  0.6146  0.2776
 7752SOL    HW124697   1.684   3.048   2.286 -0.3481 -0.0258 -0.5528
 7752SOL    HW224698   1.637   2.998   2.421  0.5664 -0.2946 -0.3258
 7753SOL     OW24699   2.228   1.480   1.639  0.3696 -0.4466  0.2259
 7753SOL    HW124700   2.243   1.465   1.732  2.5906  0.3094  0.0327
 7753SOL    HW224701   2.314   1.502   1.603 -0.4918 -0.3361 -1.9436
 7754SOL     OW24702   3.146   2.526   0.433  0.3954  0.1278 -0.0065
 7754SOL    HW124703   3.088   2.568   0.370 -1.2078 -0.0513  1.2818
 7754SOL    HW224704   3.133   2.575   0.514  0.5672 -1.1082  0.7986
 7755SOL     OW24705   2.085   3.135   0.147 -0.0848  0.0926 -0.2730
 7755SOL    HW124706   1.995   3.136   0.114 -1.1522  3.0864  2.1860
 7755SOL    HW224707   2.139   3.150   0.070 -1.7038 -1.1260 -1.7305
 7756SOL     OW24708   3.551   1.408   3.636  0.2033 -0.7200 -0.1364
 7756SOL    HW124709   3.585   1.318   3.633  0.7082 -0.5513  0.3834
 7756SOL    HW224710   3.547   1.435   3.544  0.4151 -1.1395 -0.2734
 7757SOL     OW24711   2.948   2.178   0.999 -0.0028  0.3011 -0.3136
 7757SOL    HW124712   2.989   2.207   1.080 -2.1086 -0.7720  1.2362
 7757SOL    HW224713   2.988   2.093   0.981 -0.1416  0.1480  0.0934
 7758SOL     OW24714   3.621   3.467   2.221  0.3584 -0.6703  0.1530
 7758SOL    HW124715   3.647   3.513   2.301 -0.1390 -1.3067  0.6921
 7758SOL    HW224716   3.533   3.436   2.239  0.4450 -1.2837 -0.4420
 7759SOL     OW24717   2.086   2.765   1.088 -0.3094  0.4550  0.8783
 7759SOL    HW124718   2.176   2.771   1.121  0.0915  0.3659 -0.1556
 7759SOL    HW224719   2.036   2.729   1.161  0.3929  0.9978  1.6443
 7760SOL     OW24720   3.393   3.412   1.327 -0.1859  0.5189  0.3561
 7760SOL    HW124721   3.333   3.472   1.284  0.7940  1.6612  0.5476
 7760SOL    HW224722   3.454   3.468   1.375 -0.8913 -0.6760  2.8146
 7761SOL     OW24723   0.977   2.987   2.066 -0.2103  0.2468  0.0019
 7761SOL    HW124724   1.002   2.956   2.153  0.5798 -0.7863 -0.5671
 7761SOL    HW224725   1.034   2.938   2.007  2.1043  3.6850 -0.9148
 7762SOL     OW24726   2.910   2.735  10.813  0.5595 -0.1579 -0.2584
 7762SOL    HW124727   2.878   2.824  10.827 -0.3668 -0.7113  1.3425
 7762SOL    HW224728   2.896   2.718  10.719 -0.3164  0.9485 -0.3383
 7763SOL     OW24729   1.890   3.980   0.537  0.1052  0.4785  0.0722
 7763SOL    HW124730   1.949   4.050   0.566  1.9584 -0.6473 -0.7746
 7763SOL    HW224731   1.924   3.901   0.580  1.0737 -0.6977 -2.6080
 7764SOL     OW24732   2.362   2.523   1.012  0.0668 -0.1860 -0.1367
 7764SOL    HW124733   2.267   2.531   1.020  0.1638  0.7605  0.1777
 7764SOL    HW224734   2.374   2.450   0.952 -0.8352 -1.3445  1.0301
 7765SOL     OW24735   4.285   0.095   0.851 -0.0981 -0.0043 -0.7757
 7765SOL    HW124736   4.200   0.090   0.809  1.2607 -1.3277 -3.5849
 7765SOL    HW224737   4.306   0.188   0.852 -0.8747  0.1845 -1.5078
 7766SOL     OW24738   1.087   1.398   2.539 -0.1451 -0.6595 -0.3080
 7766SOL    HW124739   1.021   1.332   2.516 -0.4047 -1.2510  1.8354
 7766SOL    HW224740   1.167   1.347   2.550  0.5625 -0.0360 -2.2324
 7767SOL     OW24741   1.517   1.098   1.524 -0.2856  0.6207  0.3530
 7767SOL    HW124742   1.603   1.137   1.505 -0.4868  0.6107 -0.6096
 7767SOL    HW224743   1.454   1.165   1.497 -0.5960  1.4107  2.7621
 7768SOL     OW24744   1.560   3.146   0.259 -0.1312  0.4207  0.1775
 7768SOL    HW124745   1.474   3.187   0.265  0.0415  0.9064 -0.6424
 7768SOL    HW224746   1.622   3.217   0.275  0.1386  0.2188  0.0398
 7769SOL     OW24747   0.755   4.338   2.934  0.7257  0.6366 -0.1200
 7769SOL    HW124748   0.772   4.249   2.963  0.8594  0.0357 -1.9221
 7769SOL    HW224749   0.738   4.387   3.015 -0.6558 -1.2722  0.8163
 7770SOL     OW24750   2.326   3.051   2.414 -0.0402 -0.3066  0.7532
 7770SOL    HW124751   2.413   3.070   2.380  0.5123 -3.6628 -0.0187
 7770SOL    HW224752   2.267   3.093   2.352  1.0473 -1.1091 -0.8989
 7771SOL     OW24753   4.288   0.208   1.360 -0.3478 -0.4495 -0.4774
 7771SOL    HW124754   4.207   0.207   1.411 -0.4376 -2.3793 -0.5738
 7771SOL    HW224755   4.265   0.249   1.277 -0.7447  0.6902  0.1677
 7772SOL     OW24756   3.748   2.721   0.500  0.3629 -1.0660  0.1296
 7772SOL    HW124757   3.740   2.630   0.471  1.0093 -1.0546 -0.1119
 7772SOL    HW224758   3.772   2.769   0.420  1.8757 -0.9840  0.6079
 7773SOL     OW24759   2.981   1.417   1.739  0.3126 -0.3606  0.0706
 7773SOL    HW124760   2.937   1.332   1.728 -1.3656  0.2928  1.3881
 7773SOL    HW224761   3.074   1.395   1.739 -0.0296 -2.0310 -0.9688
 7774SOL     OW24762   2.116   1.772   0.228 -0.0574  0.3139 -0.1280
 7774SOL    HW124763   2.185   1.730   0.279 -2.0794 -2.0186  0.8138
 7774SOL    HW224764   2.104   1.714   0.152  0.5480  1.9464 -1.5516
 7775SOL     OW24765   2.618   3.184   0.450 -0.2901 -0.0423 -0.2256
 7775SOL    HW124766   2.656   3.096   0.459  0.2405  0.2912  1.1454
 7775SOL    HW224767   2.577   3.184   0.364  0.7654 -1.2314 -0.7685
 7776SOL     OW24768   2.273   2.213  11.842 -0.2508  0.5772  0.1111
 7776SOL    HW124769   2.200   2.179  11.790  1.5704  0.8871 -2.8243
 7776SOL    HW224770   2.306   2.136  11.889  0.3463 -0.6379 -2.1516
 7777SOL     OW24771   1.437   2.906   2.547 -0.5956 -0.8766  0.4000
 7777SOL    HW124772   1.509   2.969   2.552 -0.4258 -0.9573 -0.7085
 7777SOL    HW224773   1.402   2.902   2.636 -0.6363  0.8051  0.4881
 7778SOL     OW24774   5.203   0.332   0.042  0.9541  0.0587  0.5615
 7778SOL    HW124775   5.130   0.387   0.015 -0.1629 -1.5890  0.0423
 7778SOL    HW224776   5.227   0.364   0.129 -1.2677 -0.1406  1.3040
 7779SOL     OW24777   7.884   3.055   2.191 -0.2754  1.0418  0.5125
 7779SOL    HW124778   7.965   3.006   2.177  0.9458  2.9652  0.3876
 7779SOL    HW224779   7.863   3.092   2.106 -0.7940  1.2675  0.7332
 7780SOL     OW24780   4.169   3.861   1.619 -0.4381  0.0807 -0.0749
 7780SOL    HW124781   4.230   3.850   1.546  0.8412 -1.3096  1.1337
 7780SOL    HW224782   4.215   3.823   1.694 -2.9049 -1.3046  0.8411
 7781SOL     OW24783   2.065   1.983   0.604  0.4954 -0.6088 -0.3119
 7781SOL    HW124784   2.010   2.030   0.541 -0.9069  0.5718  1.6863
 7781SOL    HW224785   2.019   1.900   0.619  0.7204 -0.7999 -0.6558
 7782SOL     OW24786   1.594   2.609   0.307 -0.3385 -0.6274  0.0193
 7782SOL    HW124787   1.618   2.701   0.320 -0.6807 -0.1694 -2.1881
 7782SOL    HW224788   1.605   2.569   0.393  1.6982  1.0449  0.6103
 7783SOL     OW24789   3.139   1.383  12.354 -0.4795 -0.2013  0.0939
 7783SOL    HW124790   3.084   1.453  12.389 -0.3558 -1.6028  3.3490
 7783SOL    HW224791   3.090   1.303  12.369  0.8224 -1.1555 -0.4889
 7784SOL     OW24792   3.201   2.438  12.446  0.2488  0.3394  0.3326
 7784SOL    HW124793   3.210   2.533  12.458  2.2049  0.0094  1.9229
 7784SOL    HW224794   3.161   2.429  12.359 -1.7145  2.6270  0.8719
 7785SOL     OW24795   4.556   0.451   1.788 -0.0125  0.1736 -0.4433
 7785SOL    HW124796   4.602   0.493   1.716 -1.1120 -0.0155 -1.2773
 7785SOL    HW224797   4.481   0.408   1.748  0.0628 -1.0472  0.6382
 7786SOL     OW24798   3.674   2.220  12.091  0.3331 -0.6587 -0.4443
 7786SOL    HW124799   3.766   2.234  12.068  0.7970 -1.3043  0.9135
 7786SOL    HW224800   3.674   2.136  12.137 -0.9504 -0.6771 -0.4546
 7787SOL     OW24801   2.246   1.881   1.843 -0.8112 -0.0983  0.5887
 7787SOL    HW124802   2.190   1.957   1.829 -3.0270 -1.6484  0.5316
 7787SOL    HW224803   2.274   1.856   1.755 -2.7762 -1.2257  0.2332
 7788SOL     OW24804   2.976   0.679  12.384  0.5257 -0.0409  0.4877
 7788SOL    HW124805   2.951   0.745  12.449  0.9974 -0.5321  1.1908
 7788SOL    HW224806   2.959   0.596  12.428 -0.2574 -0.3880 -0.4644
 7789SOL     OW24807   3.207   2.641   2.701  0.0979 -0.0420 -0.5483
 7789SOL    HW124808   3.153   2.640   2.622 -0.2289 -0.4403 -0.3210
 7789SOL    HW224809   3.267   2.714   2.688 -0.4612  0.3696 -0.8253
 7790SOL     OW24810   1.756   3.166  11.409  0.1156 -0.5280  0.0822
 7790SOL    HW124811   1.682   3.194  11.356  0.4996 -1.6494 -1.1029
 7790SOL    HW224812   1.765   3.234  11.476 -1.4224  0.0632 -0.2769
 7791SOL     OW24813   1.037   3.444   2.971 -0.4287  0.5488  0.1286
 7791SOL    HW124814   0.984   3.458   2.892 -0.5312  2.1125  0.4429
 7791SOL    HW224815   1.004   3.362   3.008 -1.6069  0.7250 -0.4880
 7792SOL     OW24816   1.935   7.195   2.022 -0.4174 -0.1631 -0.3003
 7792SOL    HW124817   1.943   7.148   2.105 -2.1368  0.5802  0.3411
 7792SOL    HW224818   1.944   7.127   1.955 -1.5213 -1.2072  0.5664
 7793SOL     OW24819   3.521   1.712   1.085  0.0544 -0.4198  0.2154
 7793SOL    HW124820   3.600   1.696   1.033 -0.3246  2.3210 -1.4358
 7793SOL    HW224821   3.450   1.677   1.032 -0.0438 -0.7426  0.5604
 7794SOL     OW24822   2.839   2.266  11.756  0.0983  0.3555 -0.4105
 7794SOL    HW124823   2.806   2.335  11.813 -0.5625  0.2951 -0.7118
 7794SOL    HW224824   2.934   2.266  11.771 -0.1305 -0.1851  1.2846
 7795SOL     OW24825   2.268   3.930  11.969 -0.1116 -0.5582 -0.3247
 7795SOL    HW124826   2.186   3.980  11.973 -0.2742 -0.7125 -1.3447
 7795SOL    HW224827   2.240   3.842  11.946  0.2692 -0.8629  0.3585
 7796SOL     OW24828   2.780   0.981   1.286 -0.2063  0.1761  0.3668
 7796SOL    HW124829   2.787   0.989   1.381  0.3982 -0.0597  0.3435
 7796SOL    HW224830   2.829   0.902   1.265 -0.1656  0.3400 -0.1664
 7797SOL     OW24831   1.678   2.801   1.375  0.0139  0.6353 -0.2339
 7797SOL    HW124832   1.605   2.859   1.352 -0.8226 -0.2808  0.0428
 7797SOL    HW224833   1.647   2.713   1.352  2.2026  0.4378 -3.1851
 7798SOL     OW24834   3.256   4.112   1.420  0.4089 -0.1474  0.1122
 7798SOL    HW124835   3.290   4.112   1.331 -0.5769 -3.0131 -0.3795
 7798SOL    HW224836   3.162   4.094   1.410  0.6077 -2.6068  1.7158
 7799SOL     OW24837   3.741   2.929   1.342 -0.5016  0.0458 -0.2442
 7799SOL    HW124838   3.687   2.865   1.297 -1.2187 -0.2384  0.9513
 7799SOL    HW224839   3.679   2.995   1.373  0.0209  0.4648 -0.0699
 7800SOL     OW24840   3.117   3.070   0.553 -0.2816 -0.8381 -0.1688
 7800SOL    HW124841   3.077   3.143   0.505  1.5621  0.8938  0.7678
 7800SOL    HW224842   3.046   3.035   0.607 -0.7246  1.9587  1.2572
 7801SOL     OW24843   4.205   1.662   0.332 -0.7401 -0.4400  0.2570
 7801SOL    HW124844   4.237   1.657   0.422 -1.0168  0.0423  0.3827
 7801SOL    HW224845   4.256   1.733   0.293 -2.9904  1.6901  1.0159
 7802SOL     OW24846   3.177   0.262   0.522  0.0753  0.5743 -0.0785
 7802SOL    HW124847   3.121   0.269   0.445  0.5112  1.3871 -0.3360
 7802SOL    HW224848   3.206   0.352   0.539  2.4913  0.0307 -0.8765
 7803SOL     OW24849   2.004   2.951   0.830  0.2009  0.2820 -0.1038
 7803SOL    HW124850   2.090   2.971   0.866  0.9090  0.1851 -1.6588
 7803SOL    HW224851   1.997   3.007   0.752 -0.9036 -0.1355 -0.3216
 7804SOL     OW24852   2.848   0.368   3.529 -0.0436 -0.1823  0.2628
 7804SOL    HW124853   2.907   0.298   3.555 -0.6205 -0.6366  0.3628
 7804SOL    HW224854   2.795   0.384   3.607  2.1010  2.5179  1.3488
 7805SOL     OW24855   2.385   1.167   0.722 -0.2027  0.0680 -0.7509
 7805SOL    HW124856   2.459   1.128   0.769  0.7460 -1.9695 -3.6857
 7805SOL    HW224857   2.308   1.129   0.764  0.4723  0.1006  0.5890
 7806SOL     OW24858   3.916   3.292   0.289  0.2186  0.2963  0.4068
 7806SOL    HW124859   3.861   3.217   0.267  3.0705 -2.0404  0.5926
 7806SOL    HW224860   3.954   3.270   0.374  3.7463  0.1840 -1.0203
 7807SOL     OW24861   1.792   4.124   0.774  0.0170 -0.2898 -0.3702
 7807SOL    HW124862   1.839   4.061   0.829  2.1807  0.6406 -1.0772
 7807SOL    HW224863   1.856   4.155   0.711 -1.3860  1.5226 -1.0128
 7808SOL     OW24864   2.443   2.737   0.834 -0.1438 -0.5975  0.5640
 7808SOL    HW124865   2.461   2.677   0.906  0.2993  2.9016  3.6742
 7808SOL    HW224866   2.512   2.720   0.770  0.1477 -3.0591  1.4641
 7809SOL     OW24867   2.001   2.501  11.522  0.0788  0.7347 -0.6147
 7809SOL    HW124868   2.022   2.409  11.538 -0.8165  0.5661 -0.3831
 7809SOL    HW224869   2.032   2.517  11.433 -1.3612 -0.2947 -1.3420
 7810SOL     OW24870   2.874   1.917   1.196  0.2046 -0.0004 -0.7390
 7810SOL    HW124871   2.859   1.993   1.251  0.0382 -0.3332 -0.3173
 7810SOL    HW224872   2.965   1.893   1.214 -0.4640 -1.4219  1.0923
 7811SOL     OW24873   7.850   4.268   1.689  0.3392 -0.3437 -0.1717
 7811SOL    HW124874   7.845   4.294   1.597 -1.2142  0.2524  0.0466
 7811SOL    HW224875   7.768   4.222   1.706  0.1585  0.3997  1.1494
 7812SOL     OW24876   2.070   0.644  11.703  0.3917  0.0392  0.3215
 7812SOL    HW124877   2.009   0.603  11.764  0.1141  0.0078  0.0241
 7812SOL    HW224878   2.107   0.571  11.653 -0.0165  0.1366 -0.1295
 7813SOL     OW24879   4.300   1.590  11.684  0.6633 -0.0100 -0.0112
 7813SOL    HW124880   4.268   1.501  11.700  2.1261 -0.4668  0.5124
 7813SOL    HW224881   4.344   1.585  11.600 -1.5882  0.9163 -1.3558
 7814SOL     OW24882   2.240   0.738   0.917  0.2329  0.4117 -0.0928
 7814SOL    HW124883   2.203   0.800   0.854  0.9795 -1.0980 -2.1426
 7814SOL    HW224884   2.172   0.727   0.984 -0.7237  1.8450 -0.7944
 7815SOL     OW24885   2.905   2.655   0.116  0.1063  0.1885 -0.4884
 7815SOL    HW124886   2.842   2.588   0.143  1.1442 -0.6593 -0.1313
 7815SOL    HW224887   2.911   2.646   0.021  0.5339 -0.4997 -0.4003
 7816SOL     OW24888   4.332   3.130   0.603 -0.3640  0.5801  0.3496
 7816SOL    HW124889   4.262   3.113   0.539 -0.6044 -0.7136  0.9099
 7816SOL    HW224890   4.285   3.160   0.681 -0.6670 -2.5968  1.5740
 7817SOL     OW24891   0.277   3.619  11.775  0.1018  0.6042 -0.0180
 7817SOL    HW124892   0.304   3.586  11.860  0.9552 -0.3544 -0.6365
 7817SOL    HW224893   0.194   3.575  11.757 -0.8554  1.9386  0.9468
 7818SOL     OW24894   3.068   0.997   0.135 -0.5716  0.1728  0.1333
 7818SOL    HW124895   3.086   1.074   0.189  0.4535  0.3678 -0.4499
 7818SOL    HW224896   2.974   1.001   0.117 -0.5192  1.3488  0.0368
 7819SOL     OW24897   3.783   0.485   3.426  0.2685  0.1119 -0.4087
 7819SOL    HW124898   3.872   0.458   3.405  0.6922  0.1923  1.1430
 7819SOL    HW224899   3.789   0.581   3.434  0.0191  0.1293 -0.4355
 7820SOL     OW24900   3.465   0.887   1.068 -0.2700 -0.6718  0.3987
 7820SOL    HW124901   3.450   0.842   1.151 -3.1713  1.4326  1.1809
 7820SOL    HW224902   3.378   0.896   1.029  0.9583 -1.5726 -2.9758
 7821SOL     OW24903   3.426   2.276   1.958 -0.2034  0.1143  0.2863
 7821SOL    HW124904   3.442   2.324   1.877  1.5564 -1.0621 -0.1244
 7821SOL    HW224905   3.456   2.187   1.939  0.9850 -0.0213  2.4465
 7822SOL     OW24906   0.810   1.969   0.192 -0.1766 -0.7937 -0.1487
 7822SOL    HW124907   0.866   1.925   0.128 -0.4188 -0.4801 -0.5805
 7822SOL    HW224908   0.810   2.060   0.165  0.1026 -0.5645  0.5848
 7823SOL     OW24909   4.750   1.441  10.657 -0.0820 -0.3881 -0.6657
 7823SOL    HW124910   4.660   1.469  10.674  0.8437  1.9605  0.9914
 7823SOL    HW224911   4.741   1.358  10.611 -3.0817 -0.1632 -0.7044
 7824SOL     OW24912   2.395   2.212   0.949 -0.3889  0.5651 -0.0609
 7824SOL    HW124913   2.386   2.171   0.862  0.8913  1.5746 -0.7094
 7824SOL    HW224914   2.488   2.231   0.956 -0.5094  0.6488  1.4952
 7825SOL     OW24915   4.538   6.913   0.818  0.0100 -0.0260 -0.3226
 7825SOL    HW124916   4.597   6.909   0.742 -0.0941 -0.5354 -0.3782
 7825SOL    HW224917   4.523   7.006   0.831  0.0981  0.0689 -0.8777
 7826SOL     OW24918   2.510   1.773   1.211 -0.0620 -0.5550 -0.0525
 7826SOL    HW124919   2.547   1.829   1.144 -0.2571  0.1782  0.4456
 7826SOL    HW224920   2.584   1.725   1.246  0.6129  1.5054  1.5210
 7827SOL     OW24921   2.743   2.732   0.681  0.4217  0.7208  0.2048
 7827SOL    HW124922   2.753   2.724   0.776 -2.6370 -2.8464  0.4606
 7827SOL    HW224923   2.790   2.656   0.646 -0.3787  0.7365 -0.9353
 7828SOL     OW24924   2.061   2.255   1.580 -0.5706 -0.0625 -0.0783
 7828SOL    HW124925   2.130   2.239   1.515  0.0316  0.5934  0.3801
 7828SOL    HW224926   1.999   2.312   1.536  0.1139  0.8293  0.0802
 7829SOL     OW24927   2.782   1.089   3.943  0.0520 -0.2258  0.3869
 7829SOL    HW124928   2.865   1.130   3.968 -0.4481  1.3037 -0.2899
 7829SOL    HW224929   2.796   1.060   3.853  0.2252 -1.0734  0.6791
 7830SOL     OW24930   1.400   2.241   2.102  0.4516  0.4651 -0.3494
 7830SOL    HW124931   1.380   2.250   2.195 -0.8945  1.1982 -0.6918
 7830SOL    HW224932   1.391   2.329   2.067  2.2275  0.4373 -0.9630
 7831SOL     OW24933   2.918   2.463   2.391 -0.4263 -0.0436  0.1262
 7831SOL    HW124934   2.852   2.485   2.325  0.6569  1.3111 -0.5931
 7831SOL    HW224935   2.975   2.399   2.347  0.6356  1.2955 -0.5330
 7832SOL     OW24936   3.918   2.889   1.120 -0.1086  0.1510 -0.3640
 7832SOL    HW124937   3.870   2.815   1.084  1.2823 -0.0459 -1.9396
 7832SOL    HW224938   3.867   2.917   1.197 -1.0516 -1.9408 -0.1813
 7833SOL     OW24939   4.051   2.810   3.825 -0.0667  0.2793  0.3329
 7833SOL    HW124940   4.094   2.753   3.761 -0.6487  0.6784 -0.4319
 7833SOL    HW224941   3.964   2.773   3.835 -0.8891  1.7018 -1.1161
 7834SOL     OW24942   4.468   7.910   3.988 -0.4118 -0.7278 -0.1989
 7834SOL    HW124943   4.410   7.914   4.064  3.0557 -1.8077  2.8640
 7834SOL    HW224944   4.516   7.993   3.990 -0.6634 -0.5271 -1.6247
 7835SOL     OW24945   2.955   2.714   2.542 -0.3372 -0.7811  0.1665
 7835SOL    HW124946   2.932   2.633   2.497 -1.6690  0.1616 -0.9064
 7835SOL    HW224947   2.950   2.782   2.475  3.4773 -0.0890  0.3352
 7836SOL     OW24948   2.967   2.924   4.261 -0.2822  0.0730  0.7012
 7836SOL    HW124949   2.931   3.003   4.223  0.1590 -0.0615 -0.0192
 7836SOL    HW224950   3.056   2.948   4.286 -0.2302 -0.1230  0.7056
 7837SOL     OW24951   2.188   2.802   0.574  0.2258 -0.0319  0.3725
 7837SOL    HW124952   2.153   2.841   0.494  1.3103  1.0118  0.3782
 7837SOL    HW224953   2.255   2.741   0.543 -0.0284 -0.3553  0.4538
 7838SOL     OW24954   3.552   2.457   2.790 -0.2644  0.0583 -0.4361
 7838SOL    HW124955   3.637   2.459   2.833 -0.1400 -0.1247 -0.6765
 7838SOL    HW224956   3.538   2.365   2.766 -0.3228  0.1621 -0.8078
 7839SOL     OW24957   1.826   2.935   2.570 -0.1114 -0.6172 -0.3884
 7839SOL    HW124958   1.855   2.907   2.657  0.2863 -0.5818 -0.5109
 7839SOL    HW224959   1.879   3.011   2.550  1.2560 -1.8163 -1.5295
 7840SOL     OW24960   2.683   2.901   2.643  0.5228  0.2153 -0.0576
 7840SOL    HW124961   2.743   2.847   2.696 -0.4729 -0.1668  0.7235
 7840SOL    HW224962   2.735   2.976   2.617  1.6787 -0.6709 -0.3772
 7841SOL     OW24963   1.409   0.009   3.699 -0.0534 -0.5402  0.0842
 7841SOL    HW124964   1.432   0.045   3.785 -0.8689  0.7480 -0.2154
 7841SOL    HW224965   1.313   0.011   3.697 -0.0266  0.0109 -1.0838
 7842SOL     OW24966   3.437   2.163   4.894  0.0900 -0.0154  0.0156
 7842SOL    HW124967   3.411   2.206   4.813 -0.4505  0.1942  0.2965
 7842SOL    HW224968   3.518   2.207   4.920 -0.6728  1.1351  0.5219
 7843SOL     OW24969   1.353   2.707   1.723  0.3247  0.3035  0.6490
 7843SOL    HW124970   1.259   2.721   1.712 -0.3884 -2.9229  1.3692
 7843SOL    HW224971   1.381   2.667   1.640  0.4809 -0.9673  1.2889
 7844SOL     OW24972   4.173   3.032   1.943 -0.1616  0.0486 -0.1219
 7844SOL    HW124973   4.262   3.029   1.978 -0.0151 -0.3157 -0.5105
 7844SOL    HW224974   4.156   3.124   1.927 -0.3416  0.2634  1.1703
 7845SOL     OW24975   2.124   3.399   2.502 -0.7343 -0.1702 -0.0081
 7845SOL    HW124976   2.136   3.407   2.407 -1.4240 -0.7293 -0.1490
 7845SOL    HW224977   2.195   3.452   2.539 -1.0070  0.8104 -0.8315
 7846SOL     OW24978   2.872   4.010   4.091 -0.1983  0.4693  0.2872
 7846SOL    HW124979   2.866   3.929   4.142 -2.5742  0.1434 -0.3848
 7846SOL    HW224980   2.942   3.993   4.027 -0.0962 -0.7233  0.6975
 7847SOL     OW24981   1.938   3.229   3.197 -0.2080 -0.0744 -0.5306
 7847SOL    HW124982   1.887   3.204   3.274  0.7723  1.5128  0.7096
 7847SOL    HW224983   1.929   3.324   3.193  0.3043 -0.0671 -2.0138
 7848SOL     OW24984   1.569   1.303   1.263 -0.1040 -0.0131 -0.1050
 7848SOL    HW124985   1.540   1.378   1.316  1.9066  0.9688 -0.2910
 7848SOL    HW224986   1.648   1.272   1.308 -1.6866 -3.0677  0.8445
 7849SOL     OW24987   4.718   1.895   1.411 -0.0171  0.0691  0.8929
 7849SOL    HW124988   4.696   1.802   1.420  0.3951 -0.3228 -1.4677
 7849SOL    HW224989   4.636   1.941   1.431 -0.1814 -0.7548  2.2482
 7850SOL     OW24990   2.031   1.107   2.075 -0.5153 -0.0097  0.1441
 7850SOL    HW124991   2.086   1.151   2.141 -1.1310  1.5296 -0.3449
 7850SOL    HW224992   2.036   1.163   1.998 -1.4461 -0.7326 -0.4586
 7851SOL     OW24993   1.958   2.600   1.274 -0.3242 -0.5076  0.1237
 7851SOL    HW124994   2.033   2.563   1.320  0.4644  0.4131 -0.3760
 7851SOL    HW224995   1.903   2.636   1.343 -0.2258 -1.0520  0.4877
 7852SOL     OW24996   1.774   1.811   2.584 -0.3508 -0.1641  0.4617
 7852SOL    HW124997   1.691   1.812   2.632 -0.6554  0.0633 -0.0543
 7852SOL    HW224998   1.834   1.863   2.637  0.3176 -2.6126  2.2850
 7853SOL     OW24999   1.080   4.029   1.370 -0.2763  0.4025 -0.1213
 7853SOL    HW125000   1.027   4.074   1.304  0.1098 -1.3092 -1.6693
 7853SOL    HW225001   1.048   3.939   1.370 -0.3157  0.3672  2.1311
 7854SOL     OW25002   4.114   2.304   3.119  0.3884 -0.3632 -0.1405
 7854SOL    HW125003   4.068   2.386   3.101  1.9424  0.8347  0.9592
 7854SOL    HW225004   4.065   2.264   3.190 -0.8590 -0.8280 -1.2369
 7855SOL     OW25005   2.230   1.821   3.098 -0.6595 -0.5570  0.0664
 7855SOL    HW125006   2.167   1.886   3.129 -0.4759 -0.7900  0.9628
 7855SOL    HW225007   2.315   1.856   3.123 -0.5434 -1.0233  0.3441
 7856SOL     OW25008   2.317   3.403   3.323  0.3015 -0.3250  0.2554
 7856SOL    HW125009   2.260   3.475   3.351 -0.9855 -1.3059  0.2211
 7856SOL    HW225010   2.354   3.370   3.405  2.2047  1.3610  0.1675
 7857SOL     OW25011   2.342   2.719   1.945  0.0226  0.3940  0.6642
 7857SOL    HW125012   2.423   2.683   1.982 -0.2326  1.0271  1.8754
 7857SOL    HW225013   2.272   2.675   1.994 -0.3112  1.6230  1.3144
 7858SOL     OW25014   4.632   2.321   3.045  0.1845  0.4334 -0.1043
 7858SOL    HW125015   4.672   2.284   2.967 -0.3267 -0.9260  0.2441
 7858SOL    HW225016   4.562   2.378   3.013  0.7438  0.8239 -0.6476
 7859SOL     OW25017   1.955   3.487   4.096  0.5385  0.1432  0.2843
 7859SOL    HW125018   2.050   3.492   4.107  0.5982  1.5509 -0.7145
 7859SOL    HW225019   1.941   3.408   4.043  1.2942  0.7695 -0.8810
 7860SOL     OW25020   2.234   2.042   2.827  0.4798  0.4202  0.2578
 7860SOL    HW125021   2.178   2.092   2.887 -0.3923 -0.4456  0.1803
 7860SOL    HW225022   2.323   2.070   2.849 -0.0084  2.6059 -0.3297
 7861SOL     OW25023   2.199   0.396   3.863  0.1417 -0.1479 -0.2268
 7861SOL    HW125024   2.252   0.317   3.877  0.2098 -0.6264 -2.7629
 7861SOL    HW225025   2.152   0.379   3.781 -2.4353  1.0925  0.8878
 7862SOL     OW25026   4.444   1.888   1.157 -0.2958  0.1936 -0.2266
 7862SOL    HW125027   4.440   1.820   1.224  0.4838 -0.4597 -0.8091
 7862SOL    HW225028   4.519   1.942   1.182  0.6252 -0.6364 -1.0591
 7863SOL     OW25029   3.955   2.220   0.730 -0.8456  0.2730 -0.4252
 7863SOL    HW125030   4.022   2.168   0.776 -2.2197 -0.9548  0.2776
 7863SOL    HW225031   3.939   2.295   0.787 -0.5051  0.2459 -0.2939
 7864SOL     OW25032   3.277   2.708   1.552 -0.2588 -0.3209 -0.0100
 7864SOL    HW125033   3.189   2.713   1.514 -0.4244 -0.6851  0.3228
 7864SOL    HW225034   3.316   2.793   1.532 -0.2868 -0.5528 -1.1169
 7865SOL     OW25035   2.480   2.172   2.982  0.3649  0.0296 -0.2834
 7865SOL    HW125036   2.559   2.125   3.009 -0.1862 -1.4355 -1.0911
 7865SOL    HW225037   2.501   2.202   2.893 -0.0454 -0.5363 -0.5758
 7866SOL     OW25038   2.143   2.512   1.832  0.3648  0.6333 -0.2877
 7866SOL    HW125039   2.221   2.500   1.887  0.3994 -0.6243 -0.5762
 7866SOL    HW225040   2.089   2.436   1.851  0.5163  0.0024 -2.2062
 7867SOL     OW25041   1.921   7.814   2.067 -0.0055 -0.3689 -0.6887
 7867SOL    HW125042   1.903   7.726   2.033  0.2314 -1.0679  0.9263
 7867SOL    HW225043   2.010   7.810   2.100 -1.2050 -0.7642  2.9387
 7868SOL     OW25044   2.089   1.240   1.832  0.1936  0.1749  0.5988
 7868SOL    HW125045   2.092   1.329   1.797  0.2532 -0.3592 -0.8322
 7868SOL    HW225046   2.080   1.184   1.754  3.0554 -1.2519  1.1427
 7869SOL     OW25047   2.745   1.732   3.070  0.2690 -0.0172 -0.4658
 7869SOL    HW125048   2.733   1.825   3.089  1.5778  0.2322 -0.7264
 7869SOL    HW225049   2.768   1.693   3.155  0.6793  0.0797 -0.5314
 7870SOL     OW25050   4.342   2.347   3.251  0.1962  0.0186 -0.6768
 7870SOL    HW125051   4.265   2.312   3.206 -0.2361  0.7763 -0.5515
 7870SOL    HW225052   4.402   2.371   3.180 -0.0219  0.1871 -0.8044
 7871SOL     OW25053   2.976   3.037   1.980 -0.1208 -0.2585 -0.2205
 7871SOL    HW125054   2.938   3.093   2.048 -2.6884  0.7333 -2.2721
 7871SOL    HW225055   2.900   2.999   1.936  1.4773 -1.9117 -1.7237
 7872SOL     OW25056   1.962   1.601   2.427 -0.2247 -0.2152  0.2525
 7872SOL    HW125057   2.000   1.634   2.509  0.4055 -1.5430  0.5235
 7872SOL    HW225058   1.868   1.597   2.443 -0.2640  0.9137  0.3868
 7873SOL     OW25059   0.600   3.680   3.918  0.0687  0.2282  0.2620
 7873SOL    HW125060   0.522   3.644   3.878  0.5825 -0.0506 -0.5199
 7873SOL    HW225061   0.662   3.691   3.845  1.2260 -0.8060  1.0381
 7874SOL     OW25062   1.445   3.771   1.472  0.0771  0.5077  0.0886
 7874SOL    HW125063   1.488   3.850   1.506 -0.8662  1.4863 -0.9296
 7874SOL    HW225064   1.366   3.763   1.526  1.1587 -0.9404  1.5491
 7875SOL     OW25065   4.382   2.513   2.531 -0.1126 -0.1144  0.1463
 7875SOL    HW125066   4.461   2.544   2.576  0.8468 -0.4372 -1.2695
 7875SOL    HW225067   4.318   2.582   2.547  0.1984 -0.1822  1.9325
 7876SOL     OW25068   3.258   2.637   4.232  0.1649 -0.5966  0.5862
 7876SOL    HW125069   3.312   2.655   4.309 -1.2651  0.3630  1.4040
 7876SOL    HW225070   3.168   2.642   4.264 -0.4570 -0.6630 -1.0613
 7877SOL     OW25071   3.031   2.421   1.509  0.1286 -0.3255 -0.2208
 7877SOL    HW125072   3.065   2.384   1.591 -1.1777 -0.4410  0.2972
 7877SOL    HW225073   3.040   2.515   1.520 -1.2456 -0.2674  0.6441
 7878SOL     OW25074   3.247   2.907   2.839 -0.1873  0.5604 -0.1430
 7878SOL    HW125075   3.277   2.948   2.920  1.3230 -0.7538 -0.0011
 7878SOL    HW225076   3.187   2.839   2.867  0.0380  0.3570 -0.1543
 7879SOL     OW25077   2.848   3.452   3.149 -0.0431  0.1933  0.2031
 7879SOL    HW125078   2.896   3.512   3.092 -0.4410 -0.2742 -0.6453
 7879SOL    HW225079   2.912   3.386   3.173 -0.7822 -1.9427 -3.0763
 7880SOL     OW25080   3.036   2.688   1.397  0.4547  0.2271 -0.2125
 7880SOL    HW125081   2.975   2.642   1.339  0.3413  1.2450 -0.9288
 7880SOL    HW225082   3.105   2.719   1.339  2.3402 -1.9140  0.7433
 7881SOL     OW25083   1.849   2.495   2.120 -0.4631  0.7877 -0.5745
 7881SOL    HW125084   1.801   2.577   2.115 -0.0509  1.1331  0.7245
 7881SOL    HW225085   1.854   2.475   2.214 -1.1818 -1.1050 -0.8825
 7882SOL     OW25086   0.525   1.916   0.511 -0.8035  0.4296 -0.0650
 7882SOL    HW125087   0.504   1.973   0.437  0.2605 -0.7797 -1.3524
 7882SOL    HW225088   0.611   1.945   0.540  0.2287 -1.1423 -1.4170
 7883SOL     OW25089   2.177   1.694   2.232  0.0310 -0.3229  0.0172
 7883SOL    HW125090   2.248   1.638   2.263 -0.9895 -1.2190  0.8154
 7883SOL    HW225091   2.098   1.653   2.266 -0.7313  1.9616  1.1822
 7884SOL     OW25092   4.475   2.271   2.545  0.7254  0.2880  0.0694
 7884SOL    HW125093   4.460   2.224   2.463  0.5384 -0.1244  0.3346
 7884SOL    HW225094   4.439   2.358   2.530 -2.3079 -0.7323  0.7783
 7885SOL     OW25095   1.280   3.215   0.371  0.4793  0.0892 -0.0966
 7885SOL    HW125096   1.350   3.168   0.415 -1.2426 -1.6868  0.8655
 7885SOL    HW225097   1.227   3.252   0.441 -2.2421 -2.6867 -0.4702
 7886SOL     OW25098   3.854   2.445   2.806 -0.3280 -0.1269 -0.4665
 7886SOL    HW125099   3.869   2.452   2.901 -0.3716  3.4243 -0.5916
 7886SOL    HW225100   3.941   2.428   2.770  0.1047  0.8202  0.0890
 7887SOL     OW25101   2.314   0.756  11.709 -0.0748 -0.1312 -0.1650
 7887SOL    HW125102   2.379   0.686  11.715  1.0369  0.8102 -0.8759
 7887SOL    HW225103   2.230   0.710  11.701  0.5539 -1.3681  0.0480
 7888SOL     OW25104   1.105   5.085   1.940  0.3341 -0.0774  0.5470
 7888SOL    HW125105   1.069   5.173   1.951  1.4729  0.5689 -0.6109
 7888SOL    HW225106   1.178   5.081   2.002  0.6917  0.0460  0.1416
 7889SOL     OW25107   3.088   1.897   3.019  0.0199  0.2863 -0.3739
 7889SOL    HW125108   3.021   1.916   2.954 -1.6949 -3.0448  0.1969
 7889SOL    HW225109   3.075   1.964   3.087 -2.6214 -0.0537 -0.4279
 7890SOL     OW25110   2.105   4.346   1.644  0.6295 -0.1209  0.0150
 7890SOL    HW125111   2.188   4.324   1.686  0.6066  0.4858  0.3889
 7890SOL    HW225112   2.054   4.264   1.647  0.8425 -0.2335  0.6608
 7891SOL     OW25113   4.898   2.646   1.907 -0.1379  0.3316 -0.0188
 7891SOL    HW125114   4.865   2.568   1.951 -2.0525  1.1819  0.1498
 7891SOL    HW225115   4.928   2.703   1.978 -2.1240  1.2100  0.1770
 7892SOL     OW25116   2.335   2.102   2.361 -0.0451 -0.3613 -0.2413
 7892SOL    HW125117   2.364   2.055   2.283 -1.2581 -0.1176 -0.8728
 7892SOL    HW225118   2.294   2.036   2.416  1.0673 -0.5862  0.3481
 7893SOL     OW25119   3.609   2.115   1.519  0.0686  0.2145 -0.0655
 7893SOL    HW125120   3.629   2.023   1.500  0.6208 -0.0344  1.6079
 7893SOL    HW225121   3.683   2.164   1.482  1.0926 -0.2529  1.2879
 7894SOL     OW25122   2.577   0.613   3.563  0.8226  0.2616  0.4360
 7894SOL    HW125123   2.613   0.526   3.578  0.9639  0.1200 -0.6494
 7894SOL    HW225124   2.483   0.605   3.582  0.7462 -0.2620 -0.1289
 7895SOL     OW25125   4.273   2.153   1.425  0.4854  0.1725  0.1276
 7895SOL    HW125126   4.189   2.117   1.395  1.8642 -1.5164 -2.0336
 7895SOL    HW225127   4.249   2.228   1.478 -2.4499 -1.2052  0.9795
 7896SOL     OW25128   1.459   3.646   3.786  0.0285 -0.3654 -0.3164
 7896SOL    HW125129   1.539   3.669   3.739 -0.1266 -1.6222 -1.2206
 7896SOL    HW225130   1.428   3.730   3.822  1.3234  0.2610 -0.5832
 7897SOL     OW25131   5.295   2.009   2.412 -0.1146 -0.0451  0.2388
 7897SOL    HW125132   5.318   2.091   2.367  1.4522 -1.0722 -0.9506
 7897SOL    HW225133   5.201   2.015   2.426  0.0901  2.3587  1.0207
 7898SOL     OW25134   2.240   4.418   3.264 -0.0565  0.0556 -0.3640
 7898SOL    HW125135   2.191   4.500   3.265  0.8364  0.6341 -1.5206
 7898SOL    HW225136   2.173   4.349   3.271 -0.9458  0.8392 -0.9556
 7899SOL     OW25137   2.291   0.396   3.541 -0.2116  0.0348 -1.0993
 7899SOL    HW125138   2.375   0.357   3.566 -1.8537 -1.4315  3.0893
 7899SOL    HW225139   2.260   0.341   3.469  0.4903 -2.4114  0.3173
 7900SOL     OW25140   4.101   1.912   2.380 -0.2963 -0.1201 -0.2025
 7900SOL    HW125141   4.179   1.896   2.327 -0.2559  1.0675 -0.5469
 7900SOL    HW225142   4.028   1.882   2.326 -0.1065 -1.0752  0.0514
 7901SOL     OW25143   3.473   3.207   2.060 -0.5435  0.3851  0.9015
 7901SOL    HW125144   3.548   3.179   2.007 -1.0008 -0.5877  0.7443
 7901SOL    HW225145   3.417   3.130   2.064 -0.6367  0.5158  2.6229
 7902SOL     OW25146   2.114   1.498   1.113 -0.3175 -0.0466 -0.1997
 7902SOL    HW125147   2.020   1.502   1.132 -0.4029 -0.3994 -0.5414
 7902SOL    HW225148   2.154   1.552   1.182 -0.4772 -2.4591  1.9172
 7903SOL     OW25149   2.091   2.221   3.480 -0.2924 -0.1675  0.0475
 7903SOL    HW125150   2.098   2.248   3.572  0.3693  0.3436 -0.1511
 7903SOL    HW225151   2.122   2.296   3.430 -0.3058 -0.5776 -0.5870
 7904SOL     OW25152   5.837   2.599   3.392 -0.0453 -0.0290  0.1250
 7904SOL    HW125153   5.746   2.628   3.393 -0.4553 -1.2691  0.7796
 7904SOL    HW225154   5.834   2.508   3.423  1.2210 -0.6422 -1.4060
 7905SOL     OW25155   2.635   1.974   2.665 -0.2059  0.7398 -0.7051
 7905SOL    HW125156   2.722   1.993   2.700 -0.5737  0.1573  0.5935
 7905SOL    HW225157   2.651   1.917   2.589  0.4930 -1.7589  1.1778
 7906SOL     OW25158   2.729   2.961   3.711 -0.0869  0.2310 -0.4162
 7906SOL    HW125159   2.652   2.925   3.668 -0.1181  0.2364 -0.3661
 7906SOL    HW225160   2.694   3.007   3.788  0.0942 -1.1210  0.5107
 7907SOL     OW25161   2.858   2.472   1.790  0.4953  0.1054 -0.2308
 7907SOL    HW125162   2.889   2.560   1.768 -0.1414  0.5881  0.7436
 7907SOL    HW225163   2.858   2.426   1.706  1.7605  0.7276 -0.6051
 7908SOL     OW25164   3.052   2.756   3.009  0.1522  0.2886  0.4740
 7908SOL    HW125165   3.052   2.707   3.091  1.4665 -1.1096 -0.3051
 7908SOL    HW225166   3.049   2.848   3.036  0.4365 -0.1442  2.0782
 7909SOL     OW25167   1.473   2.820   3.290 -0.7582 -0.1924 -0.1055
 7909SOL    HW125168   1.446   2.760   3.359 -1.4955 -1.4142 -1.3908
 7909SOL    HW225169   1.467   2.768   3.210  1.2920  0.7879 -0.9713
 7910SOL     OW25170   2.159   7.677   2.189  0.1598  0.0771 -0.3681
 7910SOL    HW125171   2.214   7.734   2.135  0.6526  0.1521  0.2036
 7910SOL    HW225172   2.206   7.594   2.191  1.9710  1.0201  2.7250
 7911SOL     OW25173   1.589   2.046   2.768  0.3257 -0.2728  0.0398
 7911SOL    HW125174   1.683   2.055   2.776  0.3684 -0.7165  0.0810
 7911SOL    HW225175   1.574   1.951   2.767 -0.1464 -0.2055  0.3846
 7912SOL     OW25176   2.825   1.139   2.744 -0.4460 -0.2148  0.3530
 7912SOL    HW125177   2.777   1.060   2.719 -0.0607  0.0107 -1.2053
 7912SOL    HW225178   2.917   1.115   2.737 -0.2723 -0.3228  2.2965
 7913SOL     OW25179   2.491   3.700   3.445  0.9975 -0.1443 -0.0456
 7913SOL    HW125180   2.571   3.662   3.408  1.8557  0.6393  0.9390
 7913SOL    HW225181   2.506   3.700   3.539  1.5476  3.5630  0.0251
 7914SOL     OW25182   2.010   3.001   3.846 -0.3066  0.0995 -0.0240
 7914SOL    HW125183   2.059   2.958   3.776 -0.5905  0.3906 -0.4081
 7914SOL    HW225184   1.930   3.032   3.803 -0.1822  0.8653  0.2814
 7915SOL     OW25185   3.732   2.547   2.576 -0.5297 -0.4797 -0.7119
 7915SOL    HW125186   3.637   2.532   2.570 -0.6746  0.2988 -0.4286
 7915SOL    HW225187   3.757   2.506   2.659 -0.6712 -0.4108 -0.6345
 7916SOL     OW25188   2.517   2.002   1.360 -0.2409 -0.4074  0.3160
 7916SOL    HW125189   2.489   1.916   1.326 -0.8590 -0.1080  0.0491
 7916SOL    HW225190   2.610   2.007   1.338 -0.2593 -0.9082  0.1080
 7917SOL     OW25191   3.651   1.789   1.783 -0.1124 -0.3472  0.6143
 7917SOL    HW125192   3.694   1.829   1.707  1.4771 -1.0351  1.1137
 7917SOL    HW225193   3.631   1.863   1.841  0.6500 -0.0342  0.4858
 7918SOL     OW25194   7.773   2.280  12.153 -0.1580 -0.5309 -0.5342
 7918SOL    HW125195   7.678   2.286  12.165  0.1143  2.4295  1.0275
 7918SOL    HW225196   7.806   2.241  12.234  0.0490 -0.5377 -0.6194
 7919SOL     OW25197   5.751   2.356   4.233  0.2132 -0.4681  0.0409
 7919SOL    HW125198   5.774   2.267   4.257 -0.3947 -0.5777  0.2372
 7919SOL    HW225199   5.791   2.410   4.302  0.1045 -0.6333  0.2348
 7920SOL     OW25200   3.636   2.710   3.384  0.1388  0.4123 -0.2577
 7920SOL    HW125201   3.554   2.744   3.349  0.3204 -0.2419 -1.3559
 7920SOL    HW225202   3.672   2.656   3.314 -0.5326 -2.7692  1.6272
 7921SOL     OW25203   2.430   3.065   3.038  0.0435 -0.0093  0.0222
 7921SOL    HW125204   2.468   3.150   3.059 -0.3855  1.1350 -3.2806
 7921SOL    HW225205   2.346   3.064   3.085 -0.1214  1.5982 -0.1913
 7922SOL     OW25206   1.869   1.347   2.299  0.1056 -0.0536 -0.4677
 7922SOL    HW125207   1.908   1.264   2.324 -0.2536 -0.0852 -0.0137
 7922SOL    HW225208   1.924   1.413   2.341 -0.5649 -0.1094  0.5100
 7923SOL     OW25209   1.049   1.613   3.224 -0.4469 -0.0526 -0.2863
 7923SOL    HW125210   0.988   1.575   3.161 -0.9783  0.5345 -0.1291
 7923SOL    HW225211   1.029   1.569   3.307  0.2536 -0.8265 -0.5083
 7924SOL     OW25212   3.373   2.758   3.320 -0.8873 -0.1632  1.0003
 7924SOL    HW125213   3.341   2.668   3.315 -1.8569  0.2059  0.0037
 7924SOL    HW225214   3.301   2.807   3.360 -0.6088  0.2688  0.9845
 7925SOL     OW25215   2.687   4.371   2.295  0.3439 -0.1891  0.2601
 7925SOL    HW125216   2.776   4.378   2.261  0.6950 -1.3378  0.8635
 7925SOL    HW225217   2.688   4.420   2.377  0.2984  0.1520  0.0585
 7926SOL     OW25218   1.464   2.249   2.895 -0.4732 -0.5552 -0.0271
 7926SOL    HW125219   1.497   2.168   2.857  0.2409 -1.0733  1.5885
 7926SOL    HW225220   1.400   2.221   2.960  0.3768  0.0769  1.1327
 7927SOL     OW25221   5.265   2.897   3.030  0.0334 -0.4970  0.2126
 7927SOL    HW125222   5.212   2.923   3.105  1.9932  0.2637  1.3974
 7927SOL    HW225223   5.316   2.823   3.061  0.5331 -0.4825 -0.5375
 7928SOL     OW25224   0.311   2.304   4.215  0.1095  0.3927 -0.7862
 7928SOL    HW125225   0.249   2.345   4.275 -0.5508  0.9788 -1.8493
 7928SOL    HW225226   0.384   2.366   4.211  1.3875 -0.8208  1.3726
 7929SOL     OW25227   1.764   1.485   1.951  0.1637  0.0600  0.0963
 7929SOL    HW125228   1.776   1.401   1.996  2.0841 -0.3331 -1.0231
 7929SOL    HW225229   1.812   1.548   2.005  1.1104 -0.1136 -0.5224
 7930SOL     OW25230   2.622   3.455   4.560 -0.2395  0.1103  0.6071
 7930SOL    HW125231   2.657   3.442   4.472  1.3771 -3.9646  1.6057
 7930SOL    HW225232   2.689   3.507   4.605  0.3225 -0.1958  0.1487
 7931SOL     OW25233   2.574   2.561   1.197 -0.4420 -0.1952  0.1716
 7931SOL    HW125234   2.546   2.505   1.268  0.9868 -0.5451  0.4928
 7931SOL    HW225235   2.503   2.557   1.133 -0.3911 -2.3198  0.2070
 7932SOL     OW25236   4.116   2.897   3.216  0.3536  0.0914  0.3890
 7932SOL    HW125237   4.145   2.974   3.167 -0.8414  0.0805 -0.3590
 7932SOL    HW225238   4.157   2.823   3.171  0.1246  0.1614  0.0686
 7933SOL     OW25239   0.444   1.925   1.791  0.2019  0.3070 -0.0991
 7933SOL    HW125240   0.496   1.859   1.744 -2.1730 -0.5187 -1.7630
 7933SOL    HW225241   0.489   2.007   1.773  1.5333 -0.4908 -0.5656
 7934SOL     OW25242   2.552   2.310   2.737 -0.2221  0.0934 -0.3531
 7934SOL    HW125243   2.501   2.383   2.703 -1.1984 -0.8326 -0.9730
 7934SOL    HW225244   2.639   2.346   2.755 -0.5167  1.2518 -1.1828
 7935SOL     OW25245   2.913   2.049   3.811  0.3112  0.0853 -0.0452
 7935SOL    HW125246   2.966   2.074   3.736  0.1702 -0.6520 -0.4012
 7935SOL    HW225247   2.829   2.093   3.797  0.0190 -0.6488 -0.7361
 7936SOL     OW25248   4.004   2.349   3.567 -0.2615  0.3045 -0.0680
 7936SOL    HW125249   3.928   2.321   3.618 -0.1857  1.6558  0.8331
 7936SOL    HW225250   3.979   2.434   3.531  0.5657  0.4419 -0.3428
 7937SOL     OW25251   3.334   0.933   4.220 -0.4206  0.5959  0.2551
 7937SOL    HW125252   3.396   0.999   4.252  0.3146 -0.0598  0.2348
 7937SOL    HW225253   3.289   0.902   4.298  0.7959 -0.4235  0.5992
 7938SOL     OW25254   1.308   2.739   4.340  0.4403 -0.0681 -0.0008
 7938SOL    HW125255   1.354   2.740   4.424 -2.4083 -3.0087  1.8343
 7938SOL    HW225256   1.368   2.694   4.281  2.5315  2.1027  0.3164
 7939SOL     OW25257   2.750   3.909   1.107  0.0151  0.2238  0.5262
 7939SOL    HW125258   2.833   3.887   1.064  1.3265  1.5165  2.2651
 7939SOL    HW225259   2.767   3.990   1.154 -2.3350  0.6746  0.7516
 7940SOL     OW25260   3.694   3.226   1.360  0.0037 -0.2100 -0.1030
 7940SOL    HW125261   3.645   3.261   1.434  0.8497 -0.8285  0.7723
 7940SOL    HW225262   3.703   3.300   1.300 -1.2540  0.1274  0.1046
 7941SOL     OW25263   2.988   0.244   3.223 -0.2081  0.3975 -0.4159
 7941SOL    HW125264   2.952   0.333   3.227  1.5788  1.1631 -0.5873
 7941SOL    HW225265   3.019   0.235   3.133 -0.5464 -0.4921 -0.4550
 7942SOL     OW25266   1.727   1.872   3.050  0.3635 -0.3479 -0.0308
 7942SOL    HW125267   1.772   1.825   2.979  1.1076 -1.2681  1.0138
 7942SOL    HW225268   1.737   1.965   3.027  0.6084 -0.6213 -1.1046
 7943SOL     OW25269   2.010   3.340   1.936 -0.2272  0.3756  0.2092
 7943SOL    HW125270   2.060   3.387   1.869 -2.7497  2.8281 -0.1363
 7943SOL    HW225271   1.925   3.323   1.895 -0.1329 -2.7842  1.0952
 7944SOL     OW25272   2.475   3.419   1.469 -0.9068  0.2023 -0.1800
 7944SOL    HW125273   2.392   3.374   1.453 -0.2581 -0.7498 -1.0270
 7944SOL    HW225274   2.495   3.464   1.387 -0.2794 -0.1078 -0.2095
 7945SOL     OW25275   4.108   1.470   4.421 -0.2012  0.0910 -0.0342
 7945SOL    HW125276   4.105   1.564   4.438  0.0016  0.3000 -1.1005
 7945SOL    HW225277   4.201   1.448   4.423 -0.3252 -0.4073  1.7891
 7946SOL     OW25278   2.446   7.982   2.221  0.1305 -0.6546 -0.0391
 7946SOL    HW125279   2.503   7.919   2.267 -0.1518 -0.6254  0.3557
 7946SOL    HW225280   2.409   8.036   2.291  0.7111  0.2397 -0.4085
 7947SOL     OW25281   3.198   3.368   3.030  0.2496  0.3357 -0.0272
 7947SOL    HW125282   3.167   3.324   2.951 -0.6693  0.3003  0.3391
 7947SOL    HW225283   3.267   3.311   3.064  1.7853  1.1488 -1.6521
 7948SOL     OW25284   4.096   3.022   2.207 -0.0480  0.3522  0.3522
 7948SOL    HW125285   4.011   3.024   2.251 -0.4672 -1.0015 -0.3400
 7948SOL    HW225286   4.077   3.040   2.115  0.2569 -0.9196  0.0159
 7949SOL     OW25287   2.691   3.513   4.309 -0.1002 -0.0286 -0.8540
 7949SOL    HW125288   2.723   3.601   4.329  1.0199 -0.5561 -0.2885
 7949SOL    HW225289   2.761   3.473   4.258 -0.3385 -0.8077 -0.5782
 7950SOL     OW25290   3.214   2.538   3.787  0.1303 -0.0851  0.0671
 7950SOL    HW125291   3.264   2.609   3.827  1.0664 -0.1125 -1.0028
 7950SOL    HW225292   3.277   2.467   3.775 -0.3087 -0.3558 -0.7277
 7951SOL     OW25293   2.752   1.369   1.201 -0.3451  0.0592 -0.1080
 7951SOL    HW125294   2.693   1.403   1.133 -2.2215 -0.4687  1.1797
 7951SOL    HW225295   2.704   1.381   1.282  1.1930 -0.7902  0.9709
 7952SOL     OW25296   3.002   1.521   1.391 -0.0702 -0.0102 -0.3110
 7952SOL    HW125297   2.933   1.531   1.455 -0.5730 -1.9182 -0.4947
 7952SOL    HW225298   3.054   1.601   1.398 -1.4963  0.8504  0.7712
 7953SOL     OW25299   2.755   2.324   3.378 -0.6605 -0.2462 -0.0702
 7953SOL    HW125300   2.803   2.374   3.312  0.4837  2.7537  2.7155
 7953SOL    HW225301   2.673   2.372   3.389 -1.5120 -1.5982 -0.3335
 7954SOL     OW25302   4.177   2.178   2.173  0.2344 -0.3475 -0.3499
 7954SOL    HW125303   4.099   2.129   2.200  0.2724 -0.6609 -0.8093
 7954SOL    HW225304   4.147   2.232   2.100  0.0838  0.6518  0.4209
 7955SOL     OW25305   2.630   2.646   2.507 -0.2409  0.7259  0.1840
 7955SOL    HW125306   2.547   2.631   2.553 -0.8506  0.3507 -1.0218
 7955SOL    HW225307   2.648   2.739   2.522  0.3923  0.3039  2.4857
 7956SOL     OW25308   3.780   2.402   3.325  0.0690 -0.0800 -0.1367
 7956SOL    HW125309   3.767   2.322   3.376 -1.6015  0.1249 -0.1942
 7956SOL    HW225310   3.806   2.468   3.391  0.7484 -0.4844  0.0096
 7957SOL     OW25311   3.126   0.962   2.710 -0.4813 -0.1100  1.1013
 7957SOL    HW125312   3.215   0.972   2.675 -1.0798  1.7052 -0.0273
 7957SOL    HW225313   3.130   0.998   2.798  0.0308 -0.6830  1.3249
 7958SOL     OW25314   1.613   1.709   0.782 -0.4562 -0.0190 -0.2847
 7958SOL    HW125315   1.561   1.631   0.799 -1.2774  0.4608 -0.5359
 7958SOL    HW225316   1.674   1.714   0.855 -1.5109  0.0227  0.6274
 7959SOL     OW25317   2.490   3.843   0.742 -0.2113 -0.1072 -0.2939
 7959SOL    HW125318   2.474   3.899   0.666 -0.1596  0.8312  0.3728
 7959SOL    HW225319   2.437   3.881   0.812 -1.5104 -1.8939 -0.2429
 7960SOL     OW25320   2.037   3.078   2.041  0.2392 -0.1227  0.2128
 7960SOL    HW125321   2.105   3.040   1.986 -0.0391  0.2483 -0.3878
 7960SOL    HW225322   2.026   3.168   2.009 -0.6927 -0.2445  0.1448
 7961SOL     OW25323   2.523   2.479   1.787 -0.1221 -0.0611 -0.2400
 7961SOL    HW125324   2.613   2.500   1.809  0.0747 -0.4236 -0.6681
 7961SOL    HW225325   2.526   2.388   1.758 -0.5817 -0.0018 -0.4940
 7962SOL     OW25326   1.143   2.258   3.845  0.3050 -0.6153  0.0945
 7962SOL    HW125327   1.086   2.279   3.919  0.3419 -1.8019  0.4820
 7962SOL    HW225328   1.173   2.343   3.813 -1.5981  0.0232 -0.0794
 7963SOL     OW25329   1.792   1.181   1.376 -0.2900  0.0681  0.2434
 7963SOL    HW125330   1.798   1.087   1.388 -0.8669 -0.0197 -0.1325
 7963SOL    HW225331   1.847   1.218   1.446 -2.3359 -0.4534  2.2296
 7964SOL     OW25332   3.136   2.161   3.410 -0.0520  0.0711  0.5128
 7964SOL    HW125333   3.202   2.148   3.479  0.8329  0.4693 -0.2267
 7964SOL    HW225334   3.056   2.185   3.457  0.5951  0.5781  1.3991
 7965SOL     OW25335   2.561   4.127   2.246  0.4272  0.2825 -0.7346
 7965SOL    HW125336   2.610   4.208   2.253  0.0802  0.4300  0.1131
 7965SOL    HW225337   2.487   4.149   2.190  0.8541  0.2896 -1.3003
 7966SOL     OW25338   2.757   2.503   2.746  0.1630  0.0917 -0.3216
 7966SOL    HW125339   2.799   2.582   2.779  2.5869 -0.4689 -1.7826
 7966SOL    HW225340   2.705   2.532   2.671  1.8133  0.2406 -1.4522
 7967SOL     OW25341   0.939   2.899   2.929 -0.1718  0.1884  0.4265
 7967SOL    HW125342   1.000   2.969   2.951  0.5434 -0.6095  1.0599
 7967SOL    HW225343   0.856   2.926   2.969  0.7431 -0.5394  3.0184
 7968SOL     OW25344   3.760   0.370   2.788  0.2443 -0.0789 -0.7125
 7968SOL    HW125345   3.758   0.276   2.807 -1.8595  0.1259  0.3535
 7968SOL    HW225346   3.715   0.379   2.704  0.0695  0.0104 -0.6099
 7969SOL     OW25347   3.247   3.752   2.737  0.1301 -0.4588  0.4743
 7969SOL    HW125348   3.238   3.773   2.830 -0.8617  0.6667  0.1462
 7969SOL    HW225349   3.282   3.832   2.698 -0.2865 -0.6223 -0.2506
 7970SOL     OW25350   3.787   1.675   2.007  0.0280  0.2595 -0.4607
 7970SOL    HW125351   3.781   1.690   1.913 -0.4406 -1.2383 -0.6862
 7970SOL    HW225352   3.700   1.643   2.032 -0.7235  3.0835  0.9757
 7971SOL     OW25353   1.174   2.517   3.743  0.1082 -0.1393  0.6299
 7971SOL    HW125354   1.205   2.598   3.784 -0.6508  0.0714  0.8177
 7971SOL    HW225355   1.101   2.546   3.687 -0.3162 -0.7251  0.8749
 7972SOL     OW25356   3.287   2.618   2.041  0.6121  0.0093 -0.4552
 7972SOL    HW125357   3.228   2.563   1.988 -0.1224  0.6542 -0.3213
 7972SOL    HW225358   3.284   2.579   2.128 -0.3934  0.6120 -0.2073
 7973SOL     OW25359   3.899   2.765   0.289 -0.4023 -0.3764  0.3412
 7973SOL    HW125360   3.943   2.745   0.206 -0.5233 -0.4760  0.2998
 7973SOL    HW225361   3.961   2.740   0.357 -0.5438 -0.8783  0.2890
 7974SOL     OW25362   3.468   3.939   2.635 -0.1886  0.7900  0.2990
 7974SOL    HW125363   3.526   4.011   2.658  1.9204  0.6340 -3.6739
 7974SOL    HW225364   3.524   3.861   2.639 -1.4183 -0.1020  0.7740
 7975SOL     OW25365   1.551   4.566   4.185  0.1837  1.0024  0.1284
 7975SOL    HW125366   1.549   4.481   4.228 -0.7432  0.8233 -0.2436
 7975SOL    HW225367   1.560   4.629   4.257  2.1355  0.5586  0.3257
 7976SOL     OW25368   1.165   1.753   3.932  0.3348  0.1098 -0.3706
 7976SOL    HW125369   1.110   1.701   3.991  0.6895  1.1275  0.9049
 7976SOL    HW225370   1.251   1.714   3.937  0.3479  0.1518 -0.2759
 7977SOL     OW25371   4.542   2.932   3.139  0.1288 -0.2385 -0.3539
 7977SOL    HW125372   4.506   2.951   3.225 -0.4363 -0.3577 -0.5579
 7977SOL    HW225373   4.617   2.990   3.131  0.2342 -0.2903  0.2536
 7978SOL     OW25374   3.011   3.250   3.250  0.1974 -0.4316 -0.3390
 7978SOL    HW125375   2.980   3.162   3.228 -0.8547 -0.0836 -0.2964
 7978SOL    HW225376   3.088   3.263   3.195 -0.3086 -0.9450 -1.1861
 7979SOL     OW25377   1.367   3.550   4.054 -0.5698  0.3235 -0.4326
 7979SOL    HW125378   1.435   3.596   4.104 -0.4565 -0.0462 -0.2430
 7979SOL    HW225379   1.390   3.565   3.962  1.2925 -1.9466 -0.4361
 7980SOL     OW25380   3.103   2.042   2.063  0.6722 -0.1689  0.6869
 7980SOL    HW125381   3.175   2.019   2.004  2.0787  2.8949  1.0458
 7980SOL    HW225382   3.085   1.961   2.111  0.6166 -2.3315 -2.6090
 7981SOL     OW25383   1.781   2.416   3.649 -0.2110  0.1518  0.5147
 7981SOL    HW125384   1.710   2.445   3.591  0.6573  0.5231 -0.4217
 7981SOL    HW225385   1.775   2.321   3.649 -0.1739  0.1423 -0.2725
 7982SOL     OW25386   1.904   3.335   0.628  0.2437  0.2860  0.6212
 7982SOL    HW125387   1.971   3.359   0.692  1.7737  0.2375 -0.8839
 7982SOL    HW225388   1.919   3.394   0.554 -0.9273 -0.2167 -0.0594
 7983SOL     OW25389   4.097   1.495   5.002 -0.3175  0.1122  0.1304
 7983SOL    HW125390   4.097   1.578   5.050  0.8536  0.0667  0.2359
 7983SOL    HW225391   4.087   1.428   5.070  0.7462  0.0772  0.2636
 7984SOL     OW25392   2.603   1.447   2.239  0.2252 -0.3111 -0.2763
 7984SOL    HW125393   2.649   1.408   2.313 -0.2625 -1.2896 -0.4676
 7984SOL    HW225394   2.672   1.470   2.177  0.6070  0.1921  0.3286
 7985SOL     OW25395   2.577   1.635   1.779 -0.2720 -0.4220  0.3929
 7985SOL    HW125396   2.496   1.586   1.796  0.1039 -1.1443  0.1753
 7985SOL    HW225397   2.603   1.669   1.865 -0.6317 -0.4626  0.5199
 7986SOL     OW25398   3.317   2.546   2.944  0.3141  0.4385 -0.1211
 7986SOL    HW125399   3.398   2.509   2.908 -0.8659 -1.8037 -0.6779
 7986SOL    HW225400   3.265   2.570   2.868 -1.3354 -2.3829 -0.0206
 7987SOL     OW25401   2.356   1.855  12.346 -0.0964 -0.5694 -0.0967
 7987SOL    HW125402   2.414   1.912  12.397 -0.3235  1.9231 -2.4039
 7987SOL    HW225403   2.268   1.875  12.379 -0.0090 -1.2856  0.5995
 7988SOL     OW25404   1.512   1.498   3.824 -0.3309 -0.3142  0.1204
 7988SOL    HW125405   1.443   1.466   3.765  0.1998 -1.0108 -0.1336
 7988SOL    HW225406   1.546   1.577   3.781  0.0604 -0.8223 -0.5215
 7989SOL     OW25407   1.347   4.607   1.555 -0.1700  0.2062  0.0846
 7989SOL    HW125408   1.367   4.642   1.642  0.4801 -1.7893  0.8044
 7989SOL    HW225409   1.353   4.512   1.566  1.3097 -0.0978 -2.4568
 7990SOL     OW25410   3.443   1.928   2.219  0.1833  0.1306  0.2434
 7990SOL    HW125411   3.371   1.883   2.263  0.4826 -1.2985 -0.6628
 7990SOL    HW225412   3.492   1.970   2.289 -0.4494 -0.4685  1.0652
 7991SOL     OW25413   4.064   2.946   1.471  0.0055 -0.6751 -0.0256
 7991SOL    HW125414   4.006   3.020   1.454  0.5695 -0.1344  0.3621
 7991SOL    HW225415   4.050   2.925   1.563  0.5880 -0.3879  0.1334
 7992SOL     OW25416   2.345   2.309   4.452 -0.1087 -0.1193  0.3095
 7992SOL    HW125417   2.427   2.354   4.432 -0.7778  1.2174  0.4728
 7992SOL    HW225418   2.342   2.236   4.389  0.7116  0.4248 -0.3839
 7993SOL     OW25419   1.546   3.386   2.093 -0.0421  0.2845  0.2816
 7993SOL    HW125420   1.521   3.327   2.021  0.8153 -0.4415  0.5607
 7993SOL    HW225421   1.606   3.448   2.052  0.9136 -0.4899  0.4781
 7994SOL     OW25422   2.537   1.819   2.435  0.2920 -0.0251 -0.5765
 7994SOL    HW125423   2.504   1.858   2.354  0.5342  1.9722  0.2112
 7994SOL    HW225424   2.458   1.793   2.482  0.0865 -0.0394 -0.9240
 7995SOL     OW25425   1.324   1.990   1.993 -0.2661  0.0971  0.2063
 7995SOL    HW125426   1.354   2.077   2.020 -0.1528  0.1734 -0.1579
 7995SOL    HW225427   1.405   1.940   1.979 -0.2928  0.3906 -1.0655
 7996SOL     OW25428   1.741   3.553   5.177  0.2607 -0.0253  0.1835
 7996SOL    HW125429   1.815   3.495   5.199  0.2344 -0.4012 -0.6452
 7996SOL    HW225430   1.783   3.632   5.144  0.3329 -0.6773 -1.3934
 7997SOL     OW25431   2.880   0.317   4.526  0.0284 -0.2716 -0.5023
 7997SOL    HW125432   2.821   0.247   4.496  1.0634 -1.3817 -0.0268
 7997SOL    HW225433   2.899   0.367   4.446  0.2736 -1.3093 -1.1165
 7998SOL     OW25434   1.193   1.793   2.461 -0.1333 -0.4973  0.1169
 7998SOL    HW125435   1.118   1.745   2.426 -0.5673  0.3041 -0.0837
 7998SOL    HW225436   1.258   1.791   2.391 -1.6431  2.6114 -1.5811
 7999SOL     OW25437   4.402   2.143   2.336 -0.1041  0.0285  0.3349
 7999SOL    HW125438   4.322   2.165   2.289 -0.2860 -0.3790  0.4539
 7999SOL    HW225439   4.424   2.054   2.307 -0.0125 -0.0845  0.7358
 8000SOL     OW25440   2.766   0.219   1.334 -0.0643  0.3723  0.1188
 8000SOL    HW125441   2.722   0.252   1.412  0.1251 -2.8468  1.7348
 8000SOL    HW225442   2.699   0.222   1.266 -0.8436  1.3450  0.8930
 8001SOL     OW25443   1.604   2.565   1.295  0.6551  0.0942  0.2595
 8001SOL    HW125444   1.561   2.581   1.211 -0.5676  0.1060  0.8613
 8001SOL    HW225445   1.641   2.477   1.286  0.0854 -0.1179 -0.1314
 8002SOL     OW25446   2.508   2.869   3.582  0.2900  0.1940 -0.2194
 8002SOL    HW125447   2.420   2.852   3.550  0.0291  0.7628  0.1758
 8002SOL    HW225448   2.530   2.791   3.634 -0.4521  0.5454  0.6578
 8003SOL     OW25449   4.275   0.947   2.360 -0.1181  0.1321 -0.7349
 8003SOL    HW125450   4.226   1.029   2.368  0.6630  0.5386  0.1047
 8003SOL    HW225451   4.365   0.972   2.378  0.1678 -0.8674 -0.7662
 8004SOL     OW25452   3.572   2.857   3.831 -0.0146  0.1983  0.3312
 8004SOL    HW125453   3.572   2.794   3.903  0.6900 -0.9359 -0.6194
 8004SOL    HW225454   3.528   2.935   3.866 -1.0047 -0.8608  1.4980
 8005SOL     OW25455   2.856   2.536   3.179  0.2968  0.3593 -0.0702
 8005SOL    HW125456   2.846   2.616   3.232  0.2253  0.9776 -1.0037
 8005SOL    HW225457   2.774   2.529   3.130  0.2553 -0.3580  0.0901
 8006SOL     OW25458   2.258   0.983   2.537 -0.1242  0.2455  0.6878
 8006SOL    HW125459   2.346   1.019   2.543  0.0754 -0.0383 -0.4004
 8006SOL    HW225460   2.200   1.058   2.549  0.2660  0.5363  0.7542
 8007SOL     OW25461   2.806   2.102   2.274  0.6960  0.0151 -0.1318
 8007SOL    HW125462   2.768   2.096   2.187  2.2645  2.2678 -1.0563
 8007SOL    HW225463   2.730   2.102   2.333 -0.3984 -1.3500 -1.4413
 8008SOL     OW25464   2.962   2.307   2.839 -0.4527  0.2727 -0.9641
 8008SOL    HW125465   2.890   2.359   2.805  0.7442  1.7164 -1.4019
 8008SOL    HW225466   3.037   2.332   2.785  0.8945  0.5609  0.9706
 8009SOL     OW25467   4.718   0.225   3.192 -0.1858 -0.3305 -0.1199
 8009SOL    HW125468   4.746   0.313   3.166 -1.2504 -0.1094 -0.5263
 8009SOL    HW225469   4.634   0.212   3.149 -0.8405 -0.9010  1.2802
 8010SOL     OW25470   3.393   3.199   3.037 -0.0481 -0.4136  0.2370
 8010SOL    HW125471   3.444   3.189   2.957 -0.5893 -1.2474 -0.0176
 8010SOL    HW225472   3.432   3.137   3.098 -0.5488 -0.8332  0.1397
 8011SOL     OW25473   2.428   1.554   2.714  0.1820 -0.9286 -0.2363
 8011SOL    HW125474   2.427   1.649   2.701 -0.0753 -1.0878 -1.5997
 8011SOL    HW225475   2.364   1.538   2.783  1.4507  0.0215  1.2288
 8012SOL     OW25476   2.892   3.080   2.587  0.1290 -0.0228 -0.3824
 8012SOL    HW125477   2.832   3.154   2.600  1.5149  0.9321  0.9682
 8012SOL    HW225478   2.963   3.116   2.533 -1.2379 -1.6111 -3.4951
 8013SOL     OW25479   4.779   3.026   4.163  0.6398  0.2590 -0.3295
 8013SOL    HW125480   4.701   2.998   4.115  1.1811 -0.0332 -1.0494
 8013SOL    HW225481   4.802   3.110   4.124  1.3028 -0.1589 -0.8461
 8014SOL     OW25482   2.192   2.233   1.125  0.2085 -0.0315  0.6057
 8014SOL    HW125483   2.271   2.204   1.080  0.4143 -0.5138  1.2725
 8014SOL    HW225484   2.134   2.262   1.054  1.9780  2.9759  0.2128
 8015SOL     OW25485   0.861   2.810   3.381 -0.6787  0.2088  0.7430
 8015SOL    HW125486   0.820   2.795   3.295  0.3938 -1.2351  0.4440
 8015SOL    HW225487   0.930   2.874   3.363  0.0278 -0.6298  0.3331
 8016SOL     OW25488   3.212   2.236   2.654 -0.5815  0.4208 -0.3595
 8016SOL    HW125489   3.199   2.145   2.682 -0.2541  0.3940 -0.2899
 8016SOL    HW225490   3.306   2.242   2.634 -0.5420  0.8217 -0.0751
 8017SOL     OW25491   0.028   1.839   2.507 -0.4937 -0.3050  0.3580
 8017SOL    HW125492  -0.036   1.808   2.571 -0.8542 -0.1882  0.0543
 8017SOL    HW225493  -0.017   1.836   2.423 -0.0881 -0.2615  0.1334
 8018SOL     OW25494   3.371   1.655   1.563  0.4828  0.0254  0.5428
 8018SOL    HW125495   3.286   1.652   1.518  0.8449  0.9579 -0.2163
 8018SOL    HW225496   3.409   1.568   1.547  0.0477 -0.1030  0.1613
 8019SOL     OW25497   2.515   3.385   3.920 -0.3981 -0.6031 -0.2911
 8019SOL    HW125498   2.605   3.392   3.888 -0.0114 -0.0725  0.8600
 8019SOL    HW225499   2.490   3.295   3.901  0.8504 -1.1456  0.5456
 8020SOL     OW25500   2.903   2.126   2.564  0.6634 -0.2951 -0.5089
 8020SOL    HW125501   2.833   2.159   2.509  0.4859 -0.9532 -0.6867
 8020SOL    HW225502   2.971   2.097   2.503  1.0548  0.2442 -0.3410
 8021SOL     OW25503   1.960   4.114   1.592 -0.5080  0.0524 -0.2248
 8021SOL    HW125504   1.879   4.132   1.544  0.4299 -2.7702 -3.2613
 8021SOL    HW225505   1.961   4.019   1.604  2.4787 -0.0880 -0.6624
 8022SOL     OW25506   4.757   2.200   2.145  0.1701 -0.7193  0.0154
 8022SOL    HW125507   4.677   2.197   2.092  0.5378  0.3730 -0.6460
 8022SOL    HW225508   4.816   2.138   2.101 -0.0541 -0.9693  0.0626
 8023SOL     OW25509   1.822   2.230   3.973 -0.3728  0.2430  0.1076
 8023SOL    HW125510   1.877   2.179   4.033 -1.8518 -1.6249 -0.0085
 8023SOL    HW225511   1.821   2.178   3.892 -0.4358  1.4372 -0.6846
 8024SOL     OW25512   1.829   2.066   1.445 -0.1101 -0.2492  0.6069
 8024SOL    HW125513   1.890   2.035   1.378  1.3310  0.6108  1.4592
 8024SOL    HW225514   1.861   2.153   1.469 -2.9302  1.1951 -0.3849
 8025SOL     OW25515   2.411   2.050   3.257  0.5197  0.3780  0.3091
 8025SOL    HW125516   2.409   2.079   3.165  0.2730 -0.5909  0.0008
 8025SOL    HW225517   2.476   2.108   3.298  0.2957  1.1330 -0.3597
 8026SOL     OW25518   5.131   0.389   0.956 -0.5338 -0.2552  0.1123
 8026SOL    HW125519   5.219   0.351   0.948 -1.1271 -1.3484 -1.8109
 8026SOL    HW225520   5.074   0.314   0.973 -1.3555  0.1683 -0.7175
 8027SOL     OW25521   3.103   3.534   2.454  0.1732 -0.0044 -0.6168
 8027SOL    HW125522   3.091   3.479   2.377 -0.3127 -1.8225  0.6957
 8027SOL    HW225523   3.193   3.517   2.482 -0.3831 -1.2359  0.5531
 8028SOL     OW25524   3.418   2.949   1.513 -0.1032 -0.0359 -0.0061
 8028SOL    HW125525   3.463   2.965   1.596 -1.3736  0.1347  0.6752
 8028SOL    HW225526   3.367   3.029   1.499 -2.4485 -1.3054  0.7452
 8029SOL     OW25527   2.074   1.711   3.376 -0.1508 -0.5832  0.0442
 8029SOL    HW125528   2.159   1.740   3.408  0.5899 -1.0870 -1.3800
 8029SOL    HW225529   2.079   1.719   3.281 -2.1550  0.5496 -0.0193
 8030SOL     OW25530   2.062   2.181   2.191 -0.4660 -0.0531 -0.2603
 8030SOL    HW125531   2.089   2.194   2.282 -4.8768  0.7521  1.2075
 8030SOL    HW225532   2.006   2.103   2.194 -0.0008 -0.5469 -2.5266
 8031SOL     OW25533   1.851   1.614   4.790 -0.0038 -0.5834 -0.3555
 8031SOL    HW125534   1.886   1.542   4.842  0.4669 -0.6901 -0.8108
 8031SOL    HW225535   1.887   1.600   4.702  1.5877  1.1900 -0.0609
 8032SOL     OW25536   1.863   2.367   4.906  0.2406  0.3597 -0.5585
 8032SOL    HW125537   1.955   2.369   4.880  0.5392  1.2104  0.4807
 8032SOL    HW225538   1.833   2.457   4.892 -0.2246  0.2616 -0.2095
 8033SOL     OW25539   1.963   0.576   5.426 -0.2395  0.5314  0.3772
 8033SOL    HW125540   1.887   0.633   5.410 -0.0685  0.8602  0.7390
 8033SOL    HW225541   1.943   0.532   5.509 -1.1958 -1.2958 -0.7360
 8034SOL     OW25542   1.313   4.788   5.194 -0.2702 -0.1573  0.2424
 8034SOL    HW125543   1.395   4.834   5.175 -0.5102  0.1506 -0.0863
 8034SOL    HW225544   1.323   4.756   5.283  1.9468 -3.8999 -1.1331
 8035SOL     OW25545   4.580   2.548   3.427  0.1002  0.8799 -0.3221
 8035SOL    HW125546   4.596   2.573   3.336  0.5375  2.1167  0.0729
 8035SOL    HW225547   4.665   2.519   3.460 -0.0389  0.5143 -0.2775
 8036SOL     OW25548   3.527   2.606   5.265  0.0376 -0.0637  0.1604
 8036SOL    HW125549   3.556   2.697   5.265  2.1602 -0.6919 -1.0914
 8036SOL    HW225550   3.447   2.607   5.319  0.2645  2.4245  0.5713
 8037SOL     OW25551   5.320   3.116   2.398 -0.1205  0.0804  0.1425
 8037SOL    HW125552   5.303   3.210   2.401 -0.0615  0.0767  0.6823
 8037SOL    HW225553   5.280   3.082   2.478  2.2439  0.0407  1.3866
 8038SOL     OW25554   2.704   3.275   3.497  0.3171 -0.4228  0.1568
 8038SOL    HW125555   2.690   3.198   3.443 -1.7280  0.5790 -0.8372
 8038SOL    HW225556   2.785   3.256   3.545 -0.5620 -3.5188  0.6212
 8039SOL     OW25557   2.907   2.159   4.435  0.6838 -0.5020  0.2228
 8039SOL    HW125558   2.999   2.184   4.442  1.2261 -1.3697 -2.5016
 8039SOL    HW225559   2.905   2.093   4.365 -2.1908  0.6010 -0.9149
 8040SOL     OW25560   1.664   3.328   4.198 -0.0933  0.2568  0.0692
 8040SOL    HW125561   1.584   3.280   4.176  0.5829 -0.8436 -0.0580
 8040SOL    HW225562   1.734   3.264   4.186  1.1162  1.8693 -2.3942
 8041SOL     OW25563   2.215   3.422   5.016 -0.0244  0.3694  0.1693
 8041SOL    HW125564   2.154   3.495   5.000 -0.2454  0.0521 -0.4778
 8041SOL    HW225565   2.240   3.392   4.928  2.6293  1.7674  0.3338
 8042SOL     OW25566   2.033   0.236   5.101  0.0495  0.2185  0.3607
 8042SOL    HW125567   1.993   0.318   5.073 -0.2333 -0.1450 -0.3389
 8042SOL    HW225568   2.108   0.262   5.154  0.0230  0.9247  0.0569
 8043SOL     OW25569   1.602   0.619   4.691  0.4292 -0.2264  0.2395
 8043SOL    HW125570   1.665   0.584   4.753  0.9698  0.7189  0.2355
 8043SOL    HW225571   1.654   0.641   4.614  0.1295  0.6890  0.2847
 8044SOL     OW25572   5.256   2.880   4.837  0.6156 -0.0618  0.1607
 8044SOL    HW125573   5.214   2.965   4.851 -1.4617 -1.1429  0.8340
 8044SOL    HW225574   5.197   2.833   4.779  2.4385 -0.5953 -1.3461
 8045SOL     OW25575   2.287   4.379   3.716  0.3726 -0.7145  0.3983
 8045SOL    HW125576   2.339   4.300   3.728  2.4605  0.6415  0.8953
 8045SOL    HW225577   2.330   4.426   3.645  0.3044  0.7962  1.2899
 8046SOL     OW25578   3.833   2.883   4.790  0.3151 -0.1569  1.1055
 8046SOL    HW125579   3.873   2.947   4.730  0.5061 -0.5891  0.7677
 8046SOL    HW225580   3.827   2.929   4.874 -1.3083  0.9949  0.4204
 8047SOL     OW25581   1.896   3.501   3.204 -0.0515 -0.2978 -0.0115
 8047SOL    HW125582   1.904   3.546   3.288 -1.6984  0.1410 -0.0452
 8047SOL    HW225583   1.922   3.567   3.139 -1.3935  0.2801  0.0092
 8048SOL     OW25584   1.349   2.880   3.685  0.6247  0.2847  0.3501
 8048SOL    HW125585   1.334   2.965   3.727  1.1025 -0.3616  1.8899
 8048SOL    HW225586   1.268   2.863   3.636  0.7729  1.9104 -0.5436
 8049SOL     OW25587   2.532   3.787   4.366  0.5041  0.3653  0.3055
 8049SOL    HW125588   2.558   3.860   4.423  0.7898  0.7256 -0.2763
 8049SOL    HW225589   2.480   3.729   4.423 -0.9247  1.7095  0.4281
 8050SOL     OW25590   2.756   3.416   3.809 -0.0343  0.1050  0.5101
 8050SOL    HW125591   2.826   3.396   3.747 -0.7024  2.9411 -1.3473
 8050SOL    HW225592   2.795   3.478   3.870 -0.7157  1.3274 -0.2498
 8051SOL     OW25593   2.731   1.842   6.374  0.1878 -0.3542  0.3116
 8051SOL    HW125594   2.777   1.917   6.336  0.4439 -0.5611  0.2076
 8051SOL    HW225595   2.638   1.861   6.361  0.2550 -0.0944  0.2106
 8052SOL     OW25596   1.292   0.367   4.830  0.2564 -0.0862 -0.7380
 8052SOL    HW125597   1.326   0.279   4.815 -3.2095 -1.6316 -0.4352
 8052SOL    HW225598   1.332   0.419   4.760  2.1031 -1.9289 -1.1786
 8053SOL     OW25599   3.821   4.113   4.463  0.0932  0.1647  0.1284
 8053SOL    HW125600   3.834   4.053   4.390 -1.1946  0.8141 -0.6599
 8053SOL    HW225601   3.799   4.056   4.537 -0.5415 -0.3811 -0.4693
 8054SOL     OW25602   1.787   2.969   4.706 -0.0277 -0.0576 -0.6827
 8054SOL    HW125603   1.819   2.889   4.746 -3.8483 -1.5114 -0.0701
 8054SOL    HW225604   1.801   3.037   4.772  0.0656 -0.9730  0.2614
 8055SOL     OW25605   3.734   3.296   5.056 -0.1687  0.5848  0.1798
 8055SOL    HW125606   3.640   3.313   5.068 -0.8954 -2.0204 -1.2637
 8055SOL    HW225607   3.774   3.337   5.133 -2.4005  2.2062  0.6037
 8056SOL     OW25608   1.132   2.265   5.639  0.0141  0.0043 -0.4517
 8056SOL    HW125609   1.065   2.309   5.691  0.3897  0.6250 -0.4818
 8056SOL    HW225610   1.186   2.336   5.604  2.0728 -0.5293  1.3906
 8057SOL     OW25611   1.171   2.873   4.131  0.3485 -0.1775 -0.2660
 8057SOL    HW125612   1.214   2.829   4.058 -0.2771  1.1642 -1.4904
 8057SOL    HW225613   1.212   2.836   4.209  1.6206 -1.0440 -1.3068
 8058SOL     OW25614   3.706   4.638   4.067  0.0624  0.3282  0.2538
 8058SOL    HW125615   3.654   4.607   4.141 -1.6954 -0.7227 -1.3251
 8058SOL    HW225616   3.679   4.730   4.056 -1.4143 -0.1640 -0.4596
 8059SOL     OW25617   2.191   3.183   4.717 -0.0110  0.4411  0.0307
 8059SOL    HW125618   2.178   3.218   4.629  0.8864  0.4318 -0.1120
 8059SOL    HW225619   2.257   3.240   4.756 -0.6131  0.6231  0.8091
 8060SOL     OW25620   0.998   2.278   3.422 -0.0092  0.1159 -0.0230
 8060SOL    HW125621   1.085   2.241   3.406 -0.1937 -0.4734  0.2932
 8060SOL    HW225622   0.967   2.304   3.336 -0.3092 -1.4732 -0.4263
 8061SOL     OW25623   2.621   3.184   2.761  0.0414  0.0093  0.3290
 8061SOL    HW125624   2.594   3.093   2.758 -0.0904  0.0635 -0.2440
 8061SOL    HW225625   2.582   3.218   2.842 -1.5964  0.0780 -0.4450
 8062SOL     OW25626   2.971   3.561   6.201  0.3040 -0.0014  1.1334
 8062SOL    HW125627   2.949   3.507   6.277  0.8296 -2.2514 -0.1974
 8062SOL    HW225628   3.037   3.510   6.154 -1.1582  0.4407 -1.6620
 8063SOL     OW25629   3.306   3.985   4.781  0.3001 -0.4568  0.1291
 8063SOL    HW125630   3.390   3.964   4.821  0.1630 -2.3676 -0.5031
 8063SOL    HW225631   3.249   3.912   4.805 -0.8316  0.2039 -0.4788
 8064SOL     OW25632   3.840   3.289   4.387  0.5223  0.6610  0.3316
 8064SOL    HW125633   3.929   3.258   4.399  0.9796  1.9641  0.5060
 8064SOL    HW225634   3.828   3.355   4.456 -0.2939  1.0627 -0.1735
 8065SOL     OW25635   4.171   1.957   4.026 -0.0988  0.0003  0.5553
 8065SOL    HW125636   4.161   1.947   3.931 -1.0213  0.6824  0.5635
 8065SOL    HW225637   4.264   1.976   4.039 -0.0370  0.3005 -0.2575
 8066SOL     OW25638   3.474   0.886   3.616 -0.1342  0.2879 -0.1507
 8066SOL    HW125639   3.457   0.884   3.521  0.1799 -1.6514 -0.1898
 8066SOL    HW225640   3.391   0.916   3.653 -0.2105  1.2413 -1.0343
 8067SOL     OW25641   4.034   2.817   4.428 -0.1571  0.4576 -0.0135
 8067SOL    HW125642   4.110   2.867   4.396  1.0154 -1.6597 -0.7519
 8067SOL    HW225643   3.961   2.878   4.423  1.3679  2.3640  0.0496
 8068SOL     OW25644   1.384   2.039   4.229  0.3365 -0.2486  0.1711
 8068SOL    HW125645   1.330   2.060   4.152 -0.2848 -2.3021 -0.0271
 8068SOL    HW225646   1.467   2.084   4.214 -0.4155  0.8641 -0.8048
 8069SOL     OW25647   3.324   1.627   4.784 -0.6737  0.3075 -0.0794
 8069SOL    HW125648   3.334   1.543   4.828  1.7367  0.7026  0.2823
 8069SOL    HW225649   3.302   1.605   4.693 -3.3934 -0.5648  0.7036
 8070SOL     OW25650   2.540   1.032   6.343  0.0638  0.4716 -0.7778
 8070SOL    HW125651   2.614   1.004   6.289  0.4037  0.3856 -0.2776
 8070SOL    HW225652   2.575   1.036   6.432 -0.7211 -0.2901 -0.4205
 8071SOL     OW25653   2.640   1.417   4.987 -0.1469  0.2618  0.1734
 8071SOL    HW125654   2.664   1.431   4.896 -0.7390 -0.8314 -0.1696
 8071SOL    HW225655   2.552   1.378   4.983  0.3796 -1.1071  1.1349
 8072SOL     OW25656   1.804   2.852   3.526 -0.4690 -0.7699  0.3273
 8072SOL    HW125657   1.827   2.761   3.509 -0.7156 -0.5814 -1.1829
 8072SOL    HW225658   1.720   2.848   3.571 -0.4307 -1.2963  0.3554
 8073SOL     OW25659   1.564   2.294   5.002  0.3461 -0.1168 -0.4741
 8073SOL    HW125660   1.577   2.381   5.040  1.2091  1.0416 -3.1595
 8073SOL    HW225661   1.469   2.287   4.991  0.1942  0.0482  0.6907
 8074SOL     OW25662   2.185   2.029   5.550 -0.3734  0.1260 -0.2942
 8074SOL    HW125663   2.111   2.078   5.514  0.3149  0.7287 -0.9040
 8074SOL    HW225664   2.238   2.094   5.595  0.0683 -0.2105 -0.3192
 8075SOL     OW25665   2.064   2.806   3.645 -0.1562 -0.6882 -0.3816
 8075SOL    HW125666   2.092   2.737   3.705  0.1730 -1.1248 -1.0212
 8075SOL    HW225667   2.014   2.760   3.577 -0.2922 -0.2398 -0.5893
 8076SOL     OW25668   4.194   0.829   6.199 -0.5143 -0.3520  1.1973
 8076SOL    HW125669   4.190   0.852   6.292 -0.0596  0.3840  1.0422
 8076SOL    HW225670   4.175   0.911   6.153  1.1628 -0.2428  0.6336
 8077SOL     OW25671   2.332   2.535   3.552 -0.6019 -0.5014  0.1291
 8077SOL    HW125672   2.281   2.509   3.475 -0.5787  1.0335 -0.4444
 8077SOL    HW225673   2.325   2.631   3.554  2.8259 -0.1176 -0.3702
 8078SOL     OW25674   1.756   1.387   5.805  0.6097  0.0972  0.0462
 8078SOL    HW125675   1.691   1.434   5.856  1.7110  0.6671  0.9750
 8078SOL    HW225676   1.706   1.344   5.736 -0.7025  0.7365  0.5655
 8079SOL     OW25677   3.284   3.224   4.134  0.0770 -0.1390 -0.9148
 8079SOL    HW125678   3.375   3.251   4.135 -0.0277  0.2495  0.2667
 8079SOL    HW225679   3.244   3.272   4.062  1.0328 -1.1717 -2.1696
 8080SOL     OW25680   1.723   2.402   4.598  0.8153 -0.5074  0.1913
 8080SOL    HW125681   1.708   2.417   4.692  0.2297  0.5552 -0.0613
 8080SOL    HW225682   1.804   2.449   4.579 -0.0284  0.8137 -0.2084
 8081SOL     OW25683   3.781   2.841   5.616  0.2837  0.2430  0.1979
 8081SOL    HW125684   3.869   2.807   5.635  0.9950  2.0094  0.3228
 8081SOL    HW225685   3.794   2.936   5.606 -1.9033  0.8333  2.1076
 8082SOL     OW25686   2.570   2.947   4.944 -0.1202  1.0484 -0.0858
 8082SOL    HW125687   2.631   2.991   4.885 -0.7141  2.6289  0.4178
 8082SOL    HW225688   2.523   3.018   4.988 -1.0211 -0.1000  0.9049
 8083SOL     OW25689   1.216   1.588   4.931 -0.0762 -0.9497 -0.3233
 8083SOL    HW125690   1.206   1.643   4.854 -0.5437 -2.3649 -1.3119
 8083SOL    HW225691   1.307   1.602   4.959 -0.1603  0.2231 -0.5916
 8084SOL     OW25692   1.555   3.877   7.551 -0.9221 -0.3504  0.3916
 8084SOL    HW125693   1.554   3.972   7.539 -1.6694 -0.5544 -1.4022
 8084SOL    HW225694   1.644   3.851   7.529 -0.9145 -0.1487  0.1819
 8085SOL     OW25695   1.818   3.100   3.679 -0.0447  0.2684  0.5147
 8085SOL    HW125696   1.817   3.029   3.615 -1.7699  0.2738  0.4893
 8085SOL    HW225697   1.751   3.161   3.648 -1.1775  0.1059  2.4720
 8086SOL     OW25698   0.175   2.388   4.905  0.2037  0.2138 -0.2116
 8086SOL    HW125699   0.227   2.315   4.940 -0.4728  0.2916  1.0372
 8086SOL    HW225700   0.227   2.466   4.923  0.9794  0.0521 -1.6500
 8087SOL     OW25701   2.392   3.625   4.516 -0.0960  0.1123 -0.7677
 8087SOL    HW125702   2.333   3.563   4.473 -0.8366  0.8851 -0.8992
 8087SOL    HW225703   2.462   3.571   4.552 -1.1785 -0.9005 -0.0997
 8088SOL     OW25704   2.963   1.581   3.929  0.0450  0.4790 -0.1715
 8088SOL    HW125705   3.036   1.524   3.954  0.6567  2.0962  1.9759
 8088SOL    HW225706   2.976   1.597   3.836  1.0884 -1.1205 -0.3349
 8089SOL     OW25707   1.887   3.864   4.728 -0.3172  0.1148  0.5842
 8089SOL    HW125708   1.845   3.937   4.683  0.2180 -0.7671 -1.4499
 8089SOL    HW225709   1.980   3.888   4.730  0.4210 -1.7659 -3.0009
 8090SOL     OW25710   3.228   4.534   4.040 -0.7023  0.3714  0.4434
 8090SOL    HW125711   3.316   4.534   4.002 -0.9822 -2.8939 -0.5517
 8090SOL    HW225712   3.239   4.573   4.127  1.3400  1.7089 -0.3433
 8091SOL     OW25713   0.611   3.069   3.632 -0.4533 -0.7064  0.7453
 8091SOL    HW125714   0.568   3.122   3.565 -0.3046  0.3109  1.4405
 8091SOL    HW225715   0.635   2.989   3.586  0.5755  0.3813 -0.7058
 8092SOL     OW25716   3.371   2.106   4.571  0.2567  0.5287 -0.3041
 8092SOL    HW125717   3.455   2.063   4.552  0.0208 -0.7556  1.3840
 8092SOL    HW225718   3.395   2.196   4.593  0.7796  1.3694 -3.7161
 8093SOL     OW25719   2.237   1.985   4.031  0.6464 -0.0658 -0.0157
 8093SOL    HW125720   2.308   1.923   4.046  0.5649 -0.5158 -1.3628
 8093SOL    HW225721   2.263   2.033   3.952 -0.3116  0.0792 -0.2565
 8094SOL     OW25722   1.656   4.374   5.578 -0.8054  0.8840  0.4629
 8094SOL    HW125723   1.685   4.351   5.490 -1.6680 -0.2501  0.4613
 8094SOL    HW225724   1.728   4.347   5.635 -0.3201  1.4581  0.1408
 8095SOL     OW25725   2.287   3.596   5.386 -0.2939  0.3402  0.3325
 8095SOL    HW125726   2.217   3.647   5.425 -0.0904  1.3445 -0.5804
 8095SOL    HW225727   2.283   3.511   5.431 -0.8908  1.0058  1.5843
 8096SOL     OW25728   2.859   2.087   3.252  0.5024  0.3522  0.2476
 8096SOL    HW125729   2.835   2.155   3.315 -0.7533 -0.6119  0.8675
 8096SOL    HW225730   2.923   2.129   3.194 -1.3730  2.5454 -0.3800
 8097SOL     OW25731   3.503   3.267   4.433 -0.1895 -0.4298  0.3508
 8097SOL    HW125732   3.530   3.258   4.342  0.2801  0.6883  0.3647
 8097SOL    HW225733   3.441   3.340   4.433  2.8433  2.4286  1.4331
 8098SOL     OW25734   2.510   2.237   4.005 -0.5607 -0.0025 -0.5661
 8098SOL    HW125735   2.422   2.256   4.037 -0.3332  3.2932 -1.5247
 8098SOL    HW225736   2.564   2.229   4.083 -1.2935  0.3692 -0.0167
 8099SOL     OW25737   2.467   0.855   5.288  0.5901 -0.4809 -0.0199
 8099SOL    HW125738   2.554   0.823   5.314  1.0754 -1.5175 -2.6206
 8099SOL    HW225739   2.420   0.776   5.260 -0.3500  0.3537 -0.8630
 8100SOL     OW25740   3.603   2.775   4.989 -0.0472 -0.4722  0.5708
 8100SOL    HW125741   3.648   2.797   5.071 -0.9953  1.1296  0.6881
 8100SOL    HW225742   3.591   2.858   4.944 -1.9265 -0.9704  0.0531
 8101SOL     OW25743   2.885   6.204   2.152 -0.0518  0.6493  0.2386
 8101SOL    HW125744   2.884   6.289   2.196  2.7444  0.1211  1.5892
 8101SOL    HW225745   2.845   6.144   2.215  3.1678  0.0525  1.9342
 8102SOL     OW25746   1.982   1.919   5.110 -0.1632  0.1862  0.3136
 8102SOL    HW125747   2.073   1.947   5.102 -0.2436  2.1638  4.0773
 8102SOL    HW225748   1.932   1.988   5.065  0.1205 -0.5726 -1.2064
 8103SOL     OW25749   3.494   2.231   3.409 -0.2838  0.6842  0.0483
 8103SOL    HW125750   3.473   2.269   3.495  0.0047 -1.9250  1.3781
 8103SOL    HW225751   3.408   2.212   3.370 -0.5121 -1.5020  1.4478
 8104SOL     OW25752   3.336   2.966   5.099  0.2650 -0.3841  0.0075
 8104SOL    HW125753   3.292   3.050   5.089 -2.2080 -1.5591  0.3317
 8104SOL    HW225754   3.417   2.975   5.047 -1.3799  1.1712 -2.5013
 8105SOL     OW25755   1.478   3.935   4.511  0.4035 -0.1497 -0.1215
 8105SOL    HW125756   1.435   4.020   4.510 -2.9619 -1.6927 -1.0946
 8105SOL    HW225757   1.566   3.952   4.477  0.2170  3.0254  0.6527
 8106SOL     OW25758   3.355   3.848   3.713 -0.0528 -0.3700  0.2053
 8106SOL    HW125759   3.444   3.883   3.706 -0.6469  1.1844 -0.0138
 8106SOL    HW225760   3.354   3.800   3.795  0.9373 -0.2335  0.3099
 8107SOL     OW25761   4.017   2.793   3.488 -0.3843 -0.3573 -0.4845
 8107SOL    HW125762   3.965   2.874   3.491  0.1352 -0.0298 -0.0233
 8107SOL    HW225763   4.076   2.806   3.413  0.7607  0.3796  0.5017
 8108SOL     OW25764   2.042   0.897   5.767 -0.4245 -0.3536 -0.1409
 8108SOL    HW125765   2.086   0.826   5.722 -0.6017 -0.6831  0.1975
 8108SOL    HW225766   1.960   0.909   5.720  0.5280  1.1092 -1.5688
 8109SOL     OW25767   2.646   2.212   4.257  0.1535  0.1685  0.2508
 8109SOL    HW125768   2.689   2.290   4.291  1.0883  1.2728 -3.1227
 8109SOL    HW225769   2.712   2.143   4.263  0.1643  0.2291  0.9402
 8110SOL     OW25770   3.171   2.801   4.937 -0.5527 -0.1974 -0.7510
 8110SOL    HW125771   3.230   2.726   4.944  1.1887  1.1699 -0.0986
 8110SOL    HW225772   3.212   2.869   4.990 -1.7519  1.4289 -1.8169
 8111SOL     OW25773   3.050   1.171   4.978  0.3751  0.6593  0.0564
 8111SOL    HW125774   3.022   1.080   4.963  3.3307 -0.0721 -1.6358
 8111SOL    HW225775   3.046   1.212   4.892  1.5989  1.3420  0.3085
 8112SOL     OW25776   3.445   3.637   4.656  0.0800  0.1626  0.5427
 8112SOL    HW125777   3.428   3.661   4.747  0.9898 -0.8847  1.0251
 8112SOL    HW225778   3.525   3.685   4.633  0.5592 -0.5262  0.7285
 8113SOL     OW25779   3.547   2.381   3.098 -0.7277  0.1995 -0.6967
 8113SOL    HW125780   3.468   2.435   3.097 -0.7231  0.2045 -1.4767
 8113SOL    HW225781   3.566   2.369   3.191 -1.9296 -0.2125 -0.4768
 8114SOL     OW25782   5.554   2.039   3.685  0.0493  0.0376 -0.8343
 8114SOL    HW125783   5.555   2.122   3.637  0.4195  0.7147  0.3185
 8114SOL    HW225784   5.468   2.001   3.666 -0.2308  0.8201 -1.1445
 8115SOL     OW25785   1.781   4.291   5.287 -0.5907  0.0184  0.2112
 8115SOL    HW125786   1.832   4.293   5.207 -0.9116 -1.3943 -0.0566
 8115SOL    HW225787   1.840   4.252   5.352 -1.8772 -3.7110 -0.6154
 8116SOL     OW25788   3.320   1.546   4.439  0.5011  0.1119 -0.2558
 8116SOL    HW125789   3.271   1.608   4.385 -0.5954 -1.3803 -1.0236
 8116SOL    HW225790   3.403   1.533   4.392  0.4461  0.4601 -0.4502
 8117SOL     OW25791   2.304   2.596   1.637  0.6731 -0.1612  0.1079
 8117SOL    HW125792   2.237   2.576   1.703  1.7344  0.7656  1.5117
 8117SOL    HW225793   2.386   2.567   1.677  1.6470  2.5160  0.2117
 8118SOL     OW25794   1.070   1.777   2.837 -0.2093  0.1914 -0.4028
 8118SOL    HW125795   1.048   1.685   2.824 -3.2653  0.5627  1.2519
 8118SOL    HW225796   1.023   1.823   2.767 -1.3486  0.6866  0.6477
 8119SOL     OW25797   2.540   3.692   5.461 -0.3088  0.0524  0.4124
 8119SOL    HW125798   2.537   3.776   5.506  0.5357 -0.3669  1.2687
 8119SOL    HW225799   2.459   3.648   5.486 -1.0057  0.8002 -0.4531
 8120SOL     OW25800   1.719   3.224   5.228 -0.4075 -0.5126 -0.4775
 8120SOL    HW125801   1.773   3.270   5.163  0.3286  1.2744  1.2731
 8120SOL    HW225802   1.659   3.292   5.260 -1.8089 -1.7626 -0.3881
 8121SOL     OW25803   2.733   2.460   4.296  0.1272 -0.2973 -0.0136
 8121SOL    HW125804   2.669   2.482   4.363  0.0004 -2.0706  0.5057
 8121SOL    HW225805   2.811   2.510   4.319 -0.1676 -0.2984  1.0154
 8122SOL     OW25806   2.914   0.921   4.907 -0.2165  0.6525  0.4125
 8122SOL    HW125807   2.845   0.966   4.954 -1.1657  0.7528 -1.0044
 8122SOL    HW225808   2.870   0.879   4.833  1.0036 -0.6052  0.3529
 8123SOL     OW25809   2.897   3.439   4.107  0.4068  0.2278 -0.3046
 8123SOL    HW125810   2.867   3.502   4.041 -1.2385 -1.7352 -1.5434
 8123SOL    HW225811   2.972   3.395   4.067 -0.2851 -0.6216 -0.6933
 8124SOL     OW25812   0.576   3.779   3.040  0.2233  0.3203  0.2982
 8124SOL    HW125813   0.506   3.716   3.056 -0.4114  0.5429 -1.3613
 8124SOL    HW225814   0.541   3.862   3.073  0.4695  0.0864  1.1594
 8125SOL     OW25815   1.913   2.589   3.496  0.1069  0.3811  0.0946
 8125SOL    HW125816   1.917   2.520   3.430 -1.6523  1.7626 -1.5622
 8125SOL    HW225817   1.861   2.552   3.567  1.0100 -0.7131  0.2109
 8126SOL     OW25818   3.653   1.002   4.656 -0.1644 -0.2699 -0.0774
 8126SOL    HW125819   3.701   1.051   4.723  2.2582 -0.8057 -1.3199
 8126SOL    HW225820   3.721   0.959   4.604 -2.0717 -2.3254 -1.0442
 8127SOL     OW25821   0.638   5.857   5.723 -0.7489  0.9363  0.2831
 8127SOL    HW125822   0.567   5.885   5.666 -2.0300 -1.1750  0.7554
 8127SOL    HW225823   0.705   5.823   5.664 -0.3841  2.2854 -0.1219
 8128SOL     OW25824   1.435   4.592   3.313  0.0238  0.1686 -0.5905
 8128SOL    HW125825   1.530   4.579   3.319  0.0745 -1.5999 -3.3346
 8128SOL    HW225826   1.407   4.533   3.243 -2.8717  1.8995 -1.0718
 8129SOL     OW25827   1.072   1.468   4.527  0.1688 -0.2796  0.0667
 8129SOL    HW125828   1.145   1.492   4.470 -0.7436  0.4146 -0.8514
 8129SOL    HW225829   1.017   1.411   4.474 -1.1630  1.0930 -0.1108
 8130SOL     OW25830   3.341   3.276   3.324  0.0384  0.0156 -0.4839
 8130SOL    HW125831   3.398   3.353   3.331  0.4331 -0.4261  2.5456
 8130SOL    HW225832   3.395   3.211   3.279  0.1419  1.0895 -1.9740
 8131SOL     OW25833   3.029   3.455   4.443 -0.2872 -0.3861  0.4801
 8131SOL    HW125834   3.032   3.497   4.528 -0.2346  0.8096 -0.0961
 8131SOL    HW225835   3.114   3.410   4.435  0.9297  1.8810 -0.1037
 8132SOL     OW25836   4.170   2.656   5.066  0.5362  0.2516  0.9305
 8132SOL    HW125837   4.117   2.643   5.145  0.4414 -0.8429  0.6977
 8132SOL    HW225838   4.171   2.751   5.054  0.8337  0.4733  2.4378
 8133SOL     OW25839   1.208   2.202   3.275  0.0421  0.1794  0.2915
 8133SOL    HW125840   1.261   2.123   3.259  2.0904  1.8106 -1.4343
 8133SOL    HW225841   1.252   2.245   3.348 -1.1666 -0.2611  1.3322
 8134SOL     OW25842   2.627   2.494   4.554  0.3033 -0.2097 -0.1489
 8134SOL    HW125843   2.548   2.479   4.605  0.0013  1.5620 -0.0378
 8134SOL    HW225844   2.678   2.558   4.605  0.7383  0.3748 -1.2690
 8135SOL     OW25845   3.555   3.036   3.492 -0.5927 -0.5033  0.6477
 8135SOL    HW125846   3.491   2.967   3.511  0.2252 -1.1197  1.1922
 8135SOL    HW225847   3.521   3.113   3.537 -1.3626 -0.6081  0.2743
 8136SOL     OW25848   0.815   3.293   5.822  0.3014 -0.8264 -0.2989
 8136SOL    HW125849   0.878   3.341   5.876  0.9450 -1.8814 -0.0980
 8136SOL    HW225850   0.768   3.362   5.774 -1.2297  0.3134  2.5382
 8137SOL     OW25851   0.793   1.941   6.699 -0.4253  0.1239  0.3921
 8137SOL    HW125852   0.804   2.033   6.723  1.3196 -0.1888  0.8829
 8137SOL    HW225853   0.864   1.895   6.743  0.7478 -0.9995 -2.4290
 8138SOL     OW25854   0.679   3.825   4.690 -0.4762  0.3176  0.6441
 8138SOL    HW125855   0.728   3.846   4.769 -0.3653  0.7367  0.4659
 8138SOL    HW225856   0.630   3.745   4.712 -0.7457  0.6478  1.2640
 8139SOL     OW25857   2.694   4.099   3.908  0.2765  0.9806  0.2147
 8139SOL    HW125858   2.754   4.075   3.979 -1.4216 -1.3616  0.9739
 8139SOL    HW225859   2.708   4.032   3.841 -0.2646  1.4488 -0.3835
 8140SOL     OW25860   1.679   2.164   3.621  0.1265 -0.3868  0.0483
 8140SOL    HW125861   1.749   2.123   3.670  1.3633  0.4307 -0.9738
 8140SOL    HW225862   1.606   2.171   3.684  0.6096 -2.1009  0.8437
 8141SOL     OW25863   2.084   2.670   4.313 -0.2040 -0.5226 -0.0074
 8141SOL    HW125864   2.136   2.591   4.298  2.0798  0.2932  2.6418
 8141SOL    HW225865   2.126   2.737   4.259 -1.0052 -0.6819 -0.8531
 8142SOL     OW25866   0.729   3.461   6.645 -0.5431  0.9001  0.4755
 8142SOL    HW125867   0.690   3.392   6.591  1.1063  0.1895  0.1551
 8142SOL    HW225868   0.814   3.478   6.605 -0.0466  1.6504  1.7920
 8143SOL     OW25869   1.217   2.491   3.237  0.7316  0.1000 -0.8252
 8143SOL    HW125870   1.247   2.414   3.188 -1.0121 -0.6950 -0.7361
 8143SOL    HW225871   1.125   2.471   3.258  0.5790  1.7210  0.1944
 8144SOL     OW25872   2.460   3.178   5.060 -0.7411  0.9316 -0.6326
 8144SOL    HW125873   2.390   3.240   5.038  0.5930  2.4343 -0.7963
 8144SOL    HW225874   2.541   3.228   5.050  0.5594 -1.2995 -2.5715
 8145SOL     OW25875   1.498   1.893   3.483  0.1317  0.8086  0.1461
 8145SOL    HW125876   1.499   1.911   3.577 -0.7016  0.2437  0.2770
 8145SOL    HW225877   1.587   1.913   3.454  1.1883 -1.4914  1.5291
 8146SOL     OW25878   3.862   3.634   4.765 -0.5830  0.6956  0.1786
 8146SOL    HW125879   3.915   3.714   4.763  0.2761  0.2523  2.1018
 8146SOL    HW225880   3.821   3.636   4.852 -0.7917 -0.8046  0.1298
 8147SOL     OW25881   2.901   2.863   3.982  0.0347 -0.0800 -0.4662
 8147SOL    HW125882   2.956   2.905   3.916  0.1257  1.5796  0.6089
 8147SOL    HW225883   2.946   2.877   4.065 -1.0699 -0.3399  0.2120
 8148SOL     OW25884   1.095   2.076   6.431 -0.0344  0.2580 -0.3645
 8148SOL    HW125885   1.117   2.037   6.515  1.9354  1.3763 -0.2775
 8148SOL    HW225886   1.001   2.065   6.422 -0.1968 -0.4055  1.7146
 8149SOL     OW25887   4.710   3.257   5.201 -0.0175 -0.1396 -0.3103
 8149SOL    HW125888   4.619   3.270   5.174 -0.1482  0.6464  0.4759
 8149SOL    HW225889   4.718   3.306   5.283  1.1852  0.0113 -0.5019
 8150SOL     OW25890   2.781   2.740   3.350  0.0340  0.6528 -0.3264
 8150SOL    HW125891   2.834   2.789   3.412 -0.5239  0.8488  0.0074
 8150SOL    HW225892   2.706   2.708   3.402 -0.3389  0.6562 -0.8504
 8151SOL     OW25893   2.955   2.292   3.559  0.2900  0.2229  0.2474
 8151SOL    HW125894   2.890   2.286   3.489  0.6503 -1.0540 -0.0006
 8151SOL    HW225895   2.907   2.329   3.633 -0.5372 -0.0196 -0.1511
 8152SOL     OW25896   2.983   3.114   3.872  0.5198  0.1385 -0.4497
 8152SOL    HW125897   3.025   3.186   3.920  0.7967 -1.0978  1.2480
 8152SOL    HW225898   2.924   3.158   3.811 -1.6281  1.8722  2.5719
 8153SOL     OW25899   3.429   1.195   3.391  0.3105 -0.3228  0.3165
 8153SOL    HW125900   3.350   1.162   3.434 -1.3183  1.2792 -1.2816
 8153SOL    HW225901   3.430   1.154   3.305  2.6329 -2.2045  1.1274
 8154SOL     OW25902   2.344   1.019   4.196 -0.2971 -0.0435  0.2067
 8154SOL    HW125903   2.318   1.092   4.251 -1.4793 -0.7727  0.6591
 8154SOL    HW225904   2.348   1.055   4.108 -0.6225  0.6297  0.4622
 8155SOL     OW25905   2.491   4.061   4.872  0.3931  0.1242 -0.1902
 8155SOL    HW125906   2.560   4.102   4.820 -0.1922  2.6861  0.9118
 8155SOL    HW225907   2.519   3.969   4.880  2.8736  0.7181 -1.0267
 8156SOL     OW25908   2.039   1.879   4.296 -0.7675  0.2493 -0.4766
 8156SOL    HW125909   2.111   1.877   4.360 -0.2260 -0.5852 -1.0822
 8156SOL    HW225910   2.038   1.969   4.265  0.7353  0.0451 -1.2203
 8157SOL     OW25911   1.468   1.034   6.176  0.7011  0.1807 -0.6831
 8157SOL    HW125912   1.526   1.059   6.104  2.9190 -0.1497  0.8957
 8157SOL    HW225913   1.426   0.954   6.146  1.3349  0.2168 -1.7291
 8158SOL     OW25914   2.151   4.779   5.068  0.2806  0.0878  0.0250
 8158SOL    HW125915   2.194   4.861   5.093 -0.3451  0.1043  1.1353
 8158SOL    HW225916   2.223   4.716   5.061  0.7004  0.5810 -0.1975
 8159SOL     OW25917   0.881   3.380   3.951  0.7584 -0.1291 -0.4048
 8159SOL    HW125918   0.865   3.460   4.000 -0.8022 -1.5053  1.5289
 8159SOL    HW225919   0.850   3.399   3.862  0.7660  1.4936 -0.0838
 8160SOL     OW25920   4.129   2.571   4.458 -0.3178  0.3365  0.0924
 8160SOL    HW125921   4.218   2.588   4.489  0.0368 -0.3145 -0.5280
 8160SOL    HW225922   4.087   2.657   4.456  0.4325  0.7071 -0.0073
 8161SOL     OW25923   5.194   1.619   3.937  0.9467 -0.6870 -0.2598
 8161SOL    HW125924   5.174   1.631   4.030  0.4855  1.0957 -0.5369
 8161SOL    HW225925   5.114   1.582   3.899 -0.1029  1.5544 -0.4428
 8162SOL     OW25926   0.491   2.568   3.180  0.1195  0.3570 -0.3142
 8162SOL    HW125927   0.478   2.604   3.267  2.3265 -0.7652  0.5676
 8162SOL    HW225928   0.414   2.515   3.163  0.1354 -0.2809  1.4409
 8163SOL     OW25929   2.790   2.466   3.777 -0.1216 -0.2713  0.0690
 8163SOL    HW125930   2.825   2.492   3.863  1.5894  1.4587 -1.0436
 8163SOL    HW225931   2.739   2.542   3.749  1.2751  0.1978 -1.3767
 8164SOL     OW25932   2.504   2.438   5.039 -0.0068 -0.8195 -0.4401
 8164SOL    HW125933   2.426   2.452   5.094 -0.0714 -2.1296 -0.1630
 8164SOL    HW225934   2.569   2.499   5.074 -0.2430 -1.2012  0.7358
 8165SOL     OW25935   2.648   2.989   3.970  0.3428  0.5689  0.1491
 8165SOL    HW125936   2.722   2.931   3.989 -0.6274 -0.3931  1.2405
 8165SOL    HW225937   2.637   3.040   4.051 -0.3604  0.4760  0.1188
 8166SOL     OW25938   3.160   2.045   4.388 -0.6078  0.4870 -0.0189
 8166SOL    HW125939   3.232   2.028   4.327 -0.9969 -1.8120  0.0810
 8166SOL    HW225940   3.202   2.083   4.465  0.1670  1.3976 -0.8691
 8167SOL     OW25941   0.952   3.528   5.228  0.0535  0.1926 -0.0979
 8167SOL    HW125942   0.925   3.437   5.238  0.9878 -0.1657 -0.6773
 8167SOL    HW225943   0.880   3.579   5.264 -0.7544 -0.7566 -0.3354
 8168SOL     OW25944   2.045   2.040   3.288 -0.3095  0.7166 -0.1808
 8168SOL    HW125945   2.068   1.978   3.358  1.1250  1.3540 -0.0532
 8168SOL    HW225946   2.030   2.123   3.333  0.9017  1.2012 -0.6367
 8169SOL     OW25947   4.945   2.940   4.781  0.1914 -0.8517 -0.3423
 8169SOL    HW125948   4.930   2.956   4.874  0.9204 -3.0756  0.2278
 8169SOL    HW225949   4.898   3.011   4.736 -2.4309 -1.2021  1.6130
 8170SOL     OW25950   2.675   2.909   3.151  0.1046 -0.3499 -0.0958
 8170SOL    HW125951   2.691   2.861   3.232 -1.4780 -0.4200  0.1989
 8170SOL    HW225952   2.618   2.982   3.176 -1.2929 -0.9751 -1.2696
 8171SOL     OW25953   1.715   2.151   3.337  0.0865  0.1768 -0.6685
 8171SOL    HW125954   1.715   2.056   3.331 -1.1731  0.1188 -0.0538
 8171SOL    HW225955   1.682   2.170   3.425  1.0665  1.1747 -0.4981
 8172SOL     OW25956   2.254   2.960   5.157 -0.1640  0.4851 -0.5669
 8172SOL    HW125957   2.198   3.033   5.132 -1.5031  0.5047  2.1393
 8172SOL    HW225958   2.340   3.000   5.172 -0.6182  1.3425 -0.1449
 8173SOL     OW25959   2.805   3.269   4.411  0.7591 -0.1503  0.3563
 8173SOL    HW125960   2.848   3.190   4.442 -0.4053 -1.2852 -0.7932
 8173SOL    HW225961   2.875   3.333   4.402  2.0665 -1.6444 -0.5269
 8174SOL     OW25962   3.400   3.751   3.955 -0.0234 -0.0305  0.5304
 8174SOL    HW125963   3.433   3.730   4.042 -0.6960 -1.1861  0.5408
 8174SOL    HW225964   3.345   3.675   3.932 -1.8459  1.3369  0.1205
 8175SOL     OW25965   3.377   4.418   4.403  0.2311  0.2798 -0.0389
 8175SOL    HW125966   3.332   4.501   4.390 -0.4579  0.5161  3.0258
 8175SOL    HW225967   3.332   4.377   4.477  2.8119 -1.1181  0.9186
 8176SOL     OW25968   0.638   3.217   4.037 -0.1882 -0.0769  0.4435
 8176SOL    HW125969   0.553   3.202   3.997 -0.1984 -0.4904  0.6177
 8176SOL    HW225970   0.620   3.228   4.130  0.0719 -1.4934  0.6889
 8177SOL     OW25971   2.615   2.315   5.640 -0.8149  0.3735 -0.1630
 8177SOL    HW125972   2.588   2.311   5.732 -0.9396  0.4544 -0.1954
 8177SOL    HW225973   2.545   2.268   5.593 -0.4356 -0.2198 -0.1478
 8178SOL     OW25974   4.226   2.701   3.077  0.0219 -0.1945  0.4459
 8178SOL    HW125975   4.285   2.741   3.014 -0.8632 -1.5960 -1.3836
 8178SOL    HW225976   4.283   2.670   3.147  1.6758 -2.3757 -1.7039
 8179SOL     OW25977   2.149   3.939   4.689 -0.1529  0.1781  0.3834
 8179SOL    HW125978   2.223   3.891   4.725 -1.7549 -1.1881  2.1151
 8179SOL    HW225979   2.145   3.914   4.597  1.0304 -0.3353  0.4579
 8180SOL     OW25980   3.145   1.869   5.309 -0.1907 -0.1738 -0.0267
 8180SOL    HW125981   3.117   1.953   5.346 -0.3453 -0.2946  0.1301
 8180SOL    HW225982   3.119   1.873   5.217  0.1911  0.1251 -0.1230
 8181SOL     OW25983   4.120   2.035   1.809  0.0099  0.3266 -0.0190
 8181SOL    HW125984   4.171   2.115   1.792 -0.5849  0.6048 -0.5368
 8181SOL    HW225985   4.049   2.038   1.745  0.5863 -1.1618 -0.7822
 8182SOL     OW25986   2.681   3.323   5.033 -0.1667  0.1407 -0.0732
 8182SOL    HW125987   2.729   3.405   5.032  0.8975 -0.4439  0.8025
 8182SOL    HW225988   2.721   3.271   4.963 -1.2844  0.5917 -1.0748
 8183SOL     OW25989   0.759   2.481   4.872  0.3894 -0.1299 -0.4918
 8183SOL    HW125990   0.813   2.554   4.844  1.3226 -0.3170  0.7155
 8183SOL    HW225991   0.684   2.521   4.915 -0.0547  0.1252 -1.4921
 8184SOL     OW25992   3.856   3.482   4.547  0.0996 -0.3720  0.1877
 8184SOL    HW125993   3.819   3.529   4.473  1.3904 -0.7217 -0.7194
 8184SOL    HW225994   3.841   3.539   4.622 -3.3461 -1.0512  0.1639
 8185SOL     OW25995   3.309   2.917   4.046  0.1205  0.1301  0.6732
 8185SOL    HW125996   3.399   2.948   4.039 -0.0606  0.5130 -0.0923
 8185SOL    HW225997   3.276   2.956   4.127  0.3025  0.8980  0.3836
 8186SOL     OW25998   1.845   2.546   2.719  0.1639  0.4122 -0.7294
 8186SOL    HW125999   1.801   2.572   2.638  1.2125  2.0967 -0.8132
 8186SOL    HW226000   1.775   2.516   2.776 -0.9080  1.6027 -1.3724
 8187SOL     OW26001   0.865   1.755   3.802 -0.4177  0.7790  0.2408
 8187SOL    HW126002   0.824   1.804   3.731 -0.4381 -0.2521 -0.4803
 8187SOL    HW226003   0.959   1.773   3.793 -0.2342 -0.6117 -1.0920
 8188SOL     OW26004   4.230   0.383   3.797  0.6585 -0.3233 -0.3595
 8188SOL    HW126005   4.162   0.431   3.844  0.2234  1.0236 -2.2518
 8188SOL    HW226006   4.216   0.291   3.821 -0.7491  0.1084  0.5767
 8189SOL     OW26007   2.417   4.511   3.930  0.1357  0.6223  0.0757
 8189SOL    HW126008   2.382   4.462   3.855 -1.3463  1.2067  0.3505
 8189SOL    HW226009   2.471   4.447   3.977 -1.6158 -0.7342  0.3342
 8190SOL     OW26010   2.426   3.313   3.591 -0.3543  0.0588 -0.1523
 8190SOL    HW126011   2.516   3.336   3.612  0.0661 -0.1977 -1.5504
 8190SOL    HW226012   2.375   3.392   3.612  0.8225  1.8839 -3.3722
 8191SOL     OW26013   1.979   2.791   4.534 -0.1675  0.1234 -0.3137
 8191SOL    HW126014   2.009   2.762   4.447 -1.6861 -0.0838 -0.7934
 8191SOL    HW226015   1.922   2.865   4.516  3.2234  3.3318  0.8617
 8192SOL     OW26016   1.341   1.801   4.311  0.0961  0.1525 -0.3858
 8192SOL    HW126017   1.343   1.881   4.259 -0.4510  0.6100  0.2915
 8192SOL    HW226018   1.252   1.795   4.345 -0.0786 -1.1198 -0.9962
 8193SOL     OW26019   3.832   3.017   3.468  0.4225 -0.0353 -0.1662
 8193SOL    HW126020   3.851   3.062   3.385  0.1482  0.4881  0.0515
 8193SOL    HW226021   3.737   3.004   3.466  0.3896  0.1462  0.1456
 8194SOL     OW26022   1.360   3.388   2.782 -0.0265 -0.1357 -0.0192
 8194SOL    HW126023   1.282   3.339   2.755 -1.8431  1.7271  1.5032
 8194SOL    HW226024   1.344   3.409   2.874  1.8433  1.1560  0.0602
 8195SOL     OW26025   1.464   3.586   6.191  0.3115 -0.5296 -0.3458
 8195SOL    HW126026   1.486   3.679   6.182 -0.9002 -0.2328 -0.4482
 8195SOL    HW226027   1.545   3.540   6.171  0.9145  0.5070 -0.3542
 8196SOL     OW26028   2.126   7.254   5.507 -0.0004 -0.1617  0.2204
 8196SOL    HW126029   2.034   7.270   5.528 -0.5650 -1.6029 -0.9063
 8196SOL    HW226030   2.130   7.264   5.412  0.3365 -2.8411 -0.1195
 8197SOL     OW26031   1.151   1.710   3.632  0.0383  0.1389  0.0725
 8197SOL    HW126032   1.199   1.733   3.711 -1.1315 -2.0669  1.5137
 8197SOL    HW226033   1.127   1.794   3.593  0.1707  1.2931  2.3487
 8198SOL     OW26034   2.905   7.995   5.219 -0.1269 -0.1151 -0.5167
 8198SOL    HW126035   2.827   7.945   5.242 -0.0110 -0.1798 -0.2632
 8198SOL    HW226036   2.957   7.935   5.166 -0.1178 -0.1697 -0.4465
 8199SOL     OW26037   2.149   2.603   2.132 -0.2698 -0.2187  0.4406
 8199SOL    HW126038   2.102   2.527   2.166  0.0469  0.1710  1.8254
 8199SOL    HW226039   2.186   2.645   2.210  0.3607  0.8205 -0.3885
 8200SOL     OW26040   3.626   3.724   2.632 -0.5422 -0.0257  0.4317
 8200SOL    HW126041   3.720   3.743   2.629 -0.3748 -0.8636 -0.8627
 8200SOL    HW226042   3.620   3.632   2.604 -1.7935  0.2818 -0.4050
 8201SOL     OW26043   0.083   3.136   6.340  0.3990 -0.0689  0.4056
 8201SOL    HW126044   0.057   3.210   6.284 -0.6891 -1.5250 -1.1109
 8201SOL    HW226045   0.035   3.061   6.304  1.2838 -1.4814  2.0429
 8202SOL     OW26046   1.961   5.025   4.666  0.1207  0.0235  0.0631
 8202SOL    HW126047   2.024   5.083   4.625 -1.0364  2.6875  1.8030
 8202SOL    HW226048   2.014   4.958   4.709  1.4995 -0.2112 -1.8577
 8203SOL     OW26049   2.392   1.702   5.684  0.0404 -0.0148  0.3872
 8203SOL    HW126050   2.305   1.729   5.716 -0.5832 -0.8361 -0.5646
 8203SOL    HW226051   2.383   1.701   5.589  1.8559  2.3770  0.0955
 8204SOL     OW26052   2.559   3.003   5.717 -0.2784  0.7810  0.2944
 8204SOL    HW126053   2.556   2.910   5.694 -1.8992  1.1983 -1.5170
 8204SOL    HW226054   2.645   3.032   5.688  1.4860 -0.6643  3.5521
 8205SOL     OW26055   1.516   2.545   4.507  0.0406  0.1708  0.0428
 8205SOL    HW126056   1.597   2.514   4.548  0.5139  0.4689 -0.6408
 8205SOL    HW226057   1.482   2.469   4.460 -0.4702 -0.1545  0.9098
 8206SOL     OW26058   4.213   3.039   3.721  0.3239  0.1567  0.4045
 8206SOL    HW126059   4.157   2.965   3.745  0.1094 -0.3381 -1.4158
 8206SOL    HW226060   4.152   3.103   3.682  0.6974  0.7133  0.7219
 8207SOL     OW26061   4.473   2.131   3.397 -0.2133 -0.4001 -0.3536
 8207SOL    HW126062   4.431   2.216   3.403  0.5195 -0.1166  2.2631
 8207SOL    HW226063   4.557   2.143   3.442 -0.2863 -2.5805  0.5000
 8208SOL     OW26064   0.719   2.794   4.108  0.7531  0.2947 -0.8874
 8208SOL    HW126065   0.647   2.778   4.169  1.3406  0.5455 -0.1033
 8208SOL    HW226066   0.677   2.822   4.027 -0.0441  0.0352 -0.5685
 8209SOL     OW26067   2.008   2.194   6.796 -0.5575 -0.3898  0.3521
 8209SOL    HW126068   1.928   2.223   6.839 -1.5602 -2.2869 -0.1411
 8209SOL    HW226069   2.031   2.266   6.737  0.0522  1.6467  2.8624
 8210SOL     OW26070   4.037   2.304   2.655  0.0242  0.3335 -0.6054
 8210SOL    HW126071   4.065   2.344   2.573 -0.1086  2.7702  0.4644
 8210SOL    HW226072   4.052   2.210   2.642 -0.0921  0.6287 -3.4170
 8211SOL     OW26073   3.106   3.318   2.773 -0.0790 -0.6136  0.8500
 8211SOL    HW126074   3.196   3.334   2.745 -0.1386 -1.9237 -0.1539
 8211SOL    HW226075   3.055   3.384   2.727  0.0641 -1.5326 -0.6795
 8212SOL     OW26076   2.815   3.657   3.940  0.3078  0.3179 -0.3612
 8212SOL    HW126077   2.872   3.729   3.914 -0.7519  1.4101  0.2455
 8212SOL    HW226078   2.752   3.696   4.000 -0.9083 -0.9065 -0.7871
 8213SOL     OW26079   2.957   2.535   3.976 -0.1898  0.1052 -0.0967
 8213SOL    HW126080   3.024   2.571   3.919 -1.5290 -0.1313 -1.9165
 8213SOL    HW226081   2.999   2.461   4.019  0.5259 -0.5236 -1.7934
 8214SOL     OW26082   3.122   2.749   3.407  0.3636  0.3540 -0.1469
 8214SOL    HW126083   3.052   2.803   3.444 -0.0138 -0.2472  0.0186
 8214SOL    HW226084   3.099   2.659   3.430 -0.3063 -0.1416 -2.5076
 8215SOL     OW26085   3.755   3.984   4.776 -0.1190  0.5114 -0.3984
 8215SOL    HW126086   3.834   3.978   4.829  0.2803  1.0844 -0.9292
 8215SOL    HW226087   3.737   4.077   4.768 -1.6116  0.3672  0.8307
 8216SOL     OW26088   2.357   3.777   4.746 -0.0491 -0.2820  0.0628
 8216SOL    HW126089   2.365   3.736   4.660  0.3363  0.9482 -0.5142
 8216SOL    HW226090   2.400   3.716   4.807  0.9011 -0.5202 -0.8248
 8217SOL     OW26091   2.168   3.956   2.817  0.3258  0.0644  0.4234
 8217SOL    HW126092   2.078   3.948   2.786  0.7523  0.8419 -1.0920
 8217SOL    HW226093   2.194   4.044   2.791  2.1981 -0.8624 -1.0387
 8218SOL     OW26094   2.780   3.520   5.841  0.2324 -0.0486  0.2280
 8218SOL    HW126095   2.788   3.486   5.930  3.3524 -1.2615 -0.3844
 8218SOL    HW226096   2.701   3.478   5.806 -0.3608 -0.4988  2.0120
 8219SOL     OW26097   3.854   1.043   5.314 -0.4028 -0.1706 -0.3109
 8219SOL    HW126098   3.907   0.987   5.371 -0.0558  0.9473  0.5152
 8219SOL    HW226099   3.776   1.064   5.367 -0.3408  0.4306 -0.4485
 8220SOL     OW26100   2.579   2.528   3.116 -0.8805  0.4159 -0.2328
 8220SOL    HW126101   2.555   2.603   3.061 -2.1876 -0.7248 -1.2970
 8220SOL    HW226102   2.500   2.476   3.121 -0.4454 -0.1261  1.8137
 8221SOL     OW26103   3.845   3.310   4.794 -0.3204  0.0528 -1.0931
 8221SOL    HW126104   3.836   3.405   4.788 -0.7444  0.0161 -1.0606
 8221SOL    HW226105   3.805   3.288   4.878  0.3119 -0.0911 -0.8212
 8222SOL     OW26106   2.720   3.215   5.598  0.3708 -0.0657  0.2750
 8222SOL    HW126107   2.724   3.218   5.503 -1.1538  0.5133  0.2003
 8222SOL    HW226108   2.809   3.233   5.627  0.8367 -0.1857 -1.0318
 8223SOL     OW26109   3.635   3.558   4.946 -0.2767 -0.0619  0.5408
 8223SOL    HW126110   3.565   3.621   4.928  0.9278  1.0614 -0.3538
 8223SOL    HW226111   3.602   3.475   4.910 -1.2812  0.3564  0.4549
 8224SOL     OW26112   1.991   1.559   4.186 -0.0359 -0.3020 -0.5247
 8224SOL    HW126113   1.937   1.518   4.254 -0.6264  1.8849  0.4040
 8224SOL    HW226114   2.063   1.498   4.172  0.2825 -0.7007  2.3041
 8225SOL     OW26115   4.172   2.574   2.817  0.0003 -0.2640 -0.0812
 8225SOL    HW126116   4.214   2.488   2.821  2.1486  0.7492  0.1026
 8225SOL    HW226117   4.136   2.587   2.905  2.0265  0.1115  0.7448
 8226SOL     OW26118   2.532   3.082   3.401  0.3210  0.1987  0.3394
 8226SOL    HW126119   2.482   3.137   3.462  0.1912 -0.0561  0.4618
 8226SOL    HW226120   2.542   2.999   3.447 -0.5777 -0.3101 -0.3671
 8227SOL     OW26121   4.225   2.556   3.916  0.0915 -0.0645  0.2115
 8227SOL    HW126122   4.162   2.496   3.957  2.0015 -1.5758  1.0804
 8227SOL    HW226123   4.201   2.555   3.823 -1.4001 -0.2820  0.5645
 8228SOL     OW26124   3.422   2.551   4.019 -0.5088 -0.0117  0.4033
 8228SOL    HW126125   3.509   2.590   4.033  0.3486 -1.9192  0.6266
 8228SOL    HW226126   3.368   2.590   4.088  0.4390  0.4113  0.9340
 8229SOL     OW26127   2.607   3.176   4.630  0.2256 -0.1063  0.1038
 8229SOL    HW126128   2.665   3.239   4.673  2.2630  0.0758 -2.6535
 8229SOL    HW226129   2.596   3.210   4.541 -0.8458 -2.2511 -0.6475
 8230SOL     OW26130   2.481   2.763   3.994 -0.1970 -0.1027  0.1493
 8230SOL    HW126131   2.531   2.843   3.978  0.2306 -0.0872  1.4499
 8230SOL    HW226132   2.547   2.694   4.001 -0.4053 -0.2331  0.9683
 8231SOL     OW26133   1.068   2.349   5.025 -0.1201 -0.2523 -0.0607
 8231SOL    HW126134   1.011   2.407   4.974 -1.3282  0.3661  1.8908
 8231SOL    HW226135   1.013   2.274   5.047  0.7969 -1.1537 -0.7390
 8232SOL     OW26136   2.588   3.719   3.731  0.3102  0.7910  0.0474
 8232SOL    HW126137   2.647   3.791   3.710  0.7395 -0.0463 -1.8733
 8232SOL    HW226138   2.646   3.646   3.753 -0.0521  0.4181 -0.2115
 8233SOL     OW26139   1.987   0.112   5.780  0.5098  0.0443 -0.1901
 8233SOL    HW126140   2.031   0.045   5.727  1.1379 -1.8888  2.5460
 8233SOL    HW226141   1.905   0.070   5.807 -0.4715  1.5379 -0.7371
 8234SOL     OW26142   3.636   2.387   7.382  0.5443  0.0930 -0.0001
 8234SOL    HW126143   3.715   2.440   7.375  0.8294 -0.4138 -0.7437
 8234SOL    HW226144   3.660   2.303   7.342  0.2875 -0.8043  1.6270
 8235SOL     OW26145   1.629   1.398   6.761  0.3504  0.3177 -0.5148
 8235SOL    HW126146   1.540   1.431   6.775  0.2854 -0.6452  1.9704
 8235SOL    HW226147   1.666   1.455   6.694 -2.4259  0.1533 -2.3304
 8236SOL     OW26148   0.741   2.862   6.377  0.1570 -0.5632 -0.0285
 8236SOL    HW126149   0.789   2.837   6.298  0.2307 -3.5979  0.8468
 8236SOL    HW226150   0.649   2.853   6.353  0.1806 -1.5789  0.2252
 8237SOL     OW26151   0.822   4.135   5.967 -0.4059 -0.0350 -0.0681
 8237SOL    HW126152   0.841   4.055   5.919  0.1364  0.9555 -1.5873
 8237SOL    HW226153   0.838   4.113   6.059  1.2817 -1.2161 -0.6045
 8238SOL     OW26154   1.989   4.643   4.512  0.0035 -0.1720  0.7086
 8238SOL    HW126155   1.924   4.593   4.462  0.1566  0.2136  0.1104
 8238SOL    HW226156   1.939   4.688   4.579 -0.3774  0.2426  0.1545
 8239SOL     OW26157   2.835   2.979   5.121 -0.0116 -0.2599  0.5492
 8239SOL    HW126158   2.807   3.052   5.066  1.1557  1.1495  1.7402
 8239SOL    HW226159   2.875   2.917   5.061  1.4874  1.3685 -0.2135
 8240SOL     OW26160   1.568   1.089   9.844  0.2877  0.1503 -0.2649
 8240SOL    HW126161   1.548   1.093   9.751  2.5020  0.2866 -0.7991
 8240SOL    HW226162   1.658   1.056   9.848  0.1691 -0.0606  1.8403
 8241SOL     OW26163   2.357   4.920   7.263  0.3300  0.2991  0.1351
 8241SOL    HW126164   2.349   5.005   7.219 -1.7466  0.0232 -0.0848
 8241SOL    HW226165   2.332   4.856   7.197 -1.5513 -0.2171  1.2876
 8242SOL     OW26166   3.635   2.697   8.229 -0.2262  0.0488 -0.2990
 8242SOL    HW126167   3.727   2.708   8.254 -0.0599  0.2641 -0.9951
 8242SOL    HW226168   3.610   2.781   8.190 -0.9998  0.3204  0.7255
 8243SOL     OW26169   1.559   2.858   5.540  1.0667 -0.4698  0.4113
 8243SOL    HW126170   1.486   2.871   5.600  0.8492 -2.1204  0.5654
 8243SOL    HW226171   1.582   2.946   5.510 -0.8872  0.1059  0.4516
 8244SOL     OW26172   1.846   2.526   7.340 -0.1535  0.3877 -0.4117
 8244SOL    HW126173   1.897   2.585   7.395 -1.2233  0.2685  0.7762
 8244SOL    HW226174   1.910   2.466   7.303  0.7186  1.0937 -0.0841
 8245SOL     OW26175   2.789   2.634   6.588  0.0302 -0.4287 -0.0010
 8245SOL    HW126176   2.820   2.632   6.679 -1.4515 -1.0025  0.5246
 8245SOL    HW226177   2.783   2.542   6.563  0.5742 -0.2686 -0.7468
 8246SOL     OW26178   2.253   4.244   5.662  0.4568  0.1179  0.3868
 8246SOL    HW126179   2.331   4.198   5.692  0.6902 -0.8499 -1.5536
 8246SOL    HW226180   2.269   4.336   5.684  1.8239 -0.1690  0.6477
 8247SOL     OW26181   2.638   3.561   6.295  0.3131  0.3393 -0.0356
 8247SOL    HW126182   2.673   3.608   6.370 -0.0810 -0.6851  0.8158
 8247SOL    HW226183   2.625   3.471   6.326 -1.6475  0.3278 -0.7292
 8248SOL     OW26184   2.432   3.268   6.167 -0.0334 -0.2345  0.0537
 8248SOL    HW126185   2.431   3.252   6.262  0.0079  0.9759  0.2789
 8248SOL    HW226186   2.522   3.247   6.141 -0.2864 -1.4405  0.1074
 8249SOL     OW26187   2.760   3.815   5.776  0.4463  0.2610 -0.1192
 8249SOL    HW126188   2.787   3.723   5.778 -0.6490 -0.0773 -0.2460
 8249SOL    HW226189   2.813   3.856   5.844 -0.0031 -0.7612  0.9089
 8250SOL     OW26190   1.948   2.929   5.450 -0.3222  0.0936  0.5742
 8250SOL    HW126191   1.936   2.840   5.484 -0.5216  0.0154  0.2952
 8250SOL    HW226192   2.043   2.938   5.442 -0.3438 -0.5787 -0.6699
 8251SOL     OW26193   1.765   1.833   4.302 -0.1644  0.4483  0.4391
 8251SOL    HW126194   1.742   1.743   4.275 -0.5919 -0.1445  2.5742
 8251SOL    HW226195   1.860   1.837   4.294 -0.2677  0.3434 -1.1389
 8252SOL     OW26196   4.312   2.204   5.057 -0.7349  0.4984  0.2977
 8252SOL    HW126197   4.325   2.296   5.034  2.3396  0.3285  0.9411
 8252SOL    HW226198   4.360   2.155   4.990 -0.9815 -0.5608  0.8700
 8253SOL     OW26199   1.139   1.923   7.813  0.1114  0.1279 -0.4752
 8253SOL    HW126200   1.131   1.828   7.810  0.8476  0.0600 -0.4906
 8253SOL    HW226201   1.073   1.951   7.877  1.1457 -0.5489  0.9292
 8254SOL     OW26202   0.501   3.485   5.224 -0.6420 -0.0940  0.3281
 8254SOL    HW126203   0.560   3.465   5.297  0.1526 -0.5758 -0.4145
 8254SOL    HW226204   0.507   3.580   5.214 -0.6473 -0.0423  0.7942
 8255SOL     OW26205   3.360   1.551   5.861 -0.2358  0.3656 -0.0490
 8255SOL    HW126206   3.397   1.621   5.915 -0.2566  0.5300 -0.2456
 8255SOL    HW226207   3.399   1.565   5.774 -0.0920  0.0203 -0.0430
 8256SOL     OW26208   1.650   3.237   5.830  0.8389  0.7438 -0.1132
 8256SOL    HW126209   1.693   3.152   5.838 -1.2186 -0.3637 -0.2181
 8256SOL    HW226210   1.674   3.284   5.910  1.5222 -0.1552  0.2183
 8257SOL     OW26211   3.250   1.910   7.890 -0.2434 -0.1262 -0.2745
 8257SOL    HW126212   3.214   1.966   7.958  1.4732 -2.5268  2.8784
 8257SOL    HW226213   3.197   1.830   7.894  1.0990 -1.0573 -0.3525
 8258SOL     OW26214   1.524   2.490   7.966 -0.3888  0.2220  0.2404
 8258SOL    HW126215   1.603   2.512   8.015 -0.4798  1.5177 -0.1591
 8258SOL    HW226216   1.453   2.528   8.018 -0.5952  0.5331 -0.2625
 8259SOL     OW26217   2.293   2.563   6.117  0.1635  0.5987  0.0095
 8259SOL    HW126218   2.230   2.586   6.184  0.4134 -0.0467  0.4704
 8259SOL    HW226219   2.361   2.630   6.124  0.1521  0.5753  0.3485
 8260SOL     OW26220   3.749   2.392   4.001  0.3823  0.0686  0.1777
 8260SOL    HW126221   3.832   2.346   3.994  0.7469  0.8941 -4.3872
 8260SOL    HW226222   3.772   2.485   4.001 -0.4701  0.3026 -0.6335
 8261SOL     OW26223   1.968   4.493   6.842  0.2826 -0.1295  0.3126
 8261SOL    HW126224   2.057   4.465   6.864 -0.1651 -2.3812 -0.4731
 8261SOL    HW226225   1.917   4.475   6.920 -0.0209 -1.7144 -0.2195
 8262SOL     OW26226   2.839   2.980   5.395 -0.5041  0.1042  0.3707
 8262SOL    HW126227   2.816   2.982   5.302  0.3490 -0.9368  0.1184
 8262SOL    HW226228   2.921   3.029   5.401 -0.2343 -0.3556  0.4704
 8263SOL     OW26229   2.484   4.762   6.522 -0.5553  0.3454  0.2750
 8263SOL    HW126230   2.521   4.766   6.434 -0.5070 -1.2993  0.1734
 8263SOL    HW226231   2.527   4.831   6.571  0.1851  0.6043 -0.7294
 8264SOL     OW26232   2.657   1.921   6.761 -0.0937 -0.4366 -0.0397
 8264SOL    HW126233   2.740   1.924   6.809 -1.4423 -0.8062  2.4957
 8264SOL    HW226234   2.666   1.846   6.701  1.6297 -0.0132 -0.3639
 8265SOL     OW26235   2.931   1.897   6.565  0.1327 -0.5054 -0.1065
 8265SOL    HW126236   3.013   1.876   6.520 -0.9206 -0.3401 -2.2027
 8265SOL    HW226237   2.873   1.929   6.496 -1.3335  0.5091  1.5110
 8266SOL     OW26238   3.086   2.802   6.990 -0.5207  0.4089 -1.2229
 8266SOL    HW126239   3.148   2.875   6.980  0.3909 -0.3004 -0.9506
 8266SOL    HW226240   3.032   2.827   7.065 -0.9637  1.3002 -1.8161
 8267SOL     OW26241   2.737   2.748   7.826 -0.1201  0.2697  0.4653
 8267SOL    HW126242   2.827   2.778   7.831  0.2284 -0.7290  0.3029
 8267SOL    HW226243   2.702   2.765   7.914  0.2152  0.6610  0.5280
 8268SOL     OW26244   3.244   1.456   6.727  0.3715 -0.6560 -0.0610
 8268SOL    HW126245   3.320   1.399   6.716  2.3863  1.8457 -0.0896
 8268SOL    HW226246   3.238   1.469   6.822  0.9522  0.2810 -0.1331
 8269SOL     OW26247   1.792   3.353   7.186  0.1606 -0.2254  0.1549
 8269SOL    HW126248   1.804   3.287   7.255 -1.0251 -0.4469  0.1583
 8269SOL    HW226249   1.703   3.385   7.198  0.2722  0.4312 -0.6827
 8270SOL     OW26250   2.317   0.752   5.963 -0.8571  0.0311  0.3224
 8270SOL    HW126251   2.307   0.657   5.968 -1.0661 -0.0884 -1.6384
 8270SOL    HW226252   2.295   0.783   6.051  0.0400 -1.7842  1.2379
 8271SOL     OW26253   2.192   3.553   6.320 -0.5940 -0.2120 -0.0363
 8271SOL    HW126254   2.200   3.643   6.351 -2.5538 -0.2443  0.6496
 8271SOL    HW226255   2.273   3.538   6.270  0.8545  1.1087  1.8030
 8272SOL     OW26256   1.224   2.022   6.910  0.1585 -0.0850 -0.5548
 8272SOL    HW126257   1.210   2.065   6.994 -1.5100 -1.0395 -0.2940
 8272SOL    HW226258   1.318   2.001   6.909  0.0241 -1.0726  1.5962
 8273SOL     OW26259   1.234   3.814   5.941  0.0074  0.1234  0.3171
 8273SOL    HW126260   1.267   3.800   5.852  0.5550  0.4814  0.4657
 8273SOL    HW226261   1.311   3.804   5.997 -0.3448 -0.1428  0.7564
 8274SOL     OW26262   3.571   2.757   6.112  0.4305  0.6507 -0.8611
 8274SOL    HW126263   3.603   2.813   6.182  1.2815 -1.9971  1.0017
 8274SOL    HW226264   3.479   2.740   6.134  0.9170 -0.8325  0.1199
 8275SOL     OW26265   1.117   3.475   6.632  0.3741 -0.1360  0.4454
 8275SOL    HW126266   1.204   3.485   6.595  0.9895 -1.8794  1.3021
 8275SOL    HW226267   1.129   3.481   6.726 -0.7638  1.6076  0.5198
 8276SOL     OW26268   1.877   3.753   5.940  0.6818 -0.3369 -0.0341
 8276SOL    HW126269   1.922   3.676   5.904  0.0788  0.1068 -1.8278
 8276SOL    HW226270   1.939   3.825   5.929  0.0487  0.0370 -1.3889
 8277SOL     OW26271   1.711   7.864   3.696  0.3499  0.3114  0.3114
 8277SOL    HW126272   1.652   7.877   3.771  0.3723 -1.0335  0.5812
 8277SOL    HW226273   1.779   7.805   3.729 -0.5866 -1.7258 -1.2303
 8278SOL     OW26274   2.166   3.270   4.448  0.3220  0.1908 -0.0001
 8278SOL    HW126275   2.228   3.226   4.389  2.7547  0.7651  1.9284
 8278SOL    HW226276   2.172   3.363   4.424  0.7836  0.3337  0.6192
 8279SOL     OW26277   0.882   5.427   6.032 -0.0811  0.4161 -0.3905
 8279SOL    HW126278   0.914   5.467   6.113 -0.3627  2.7044 -1.3333
 8279SOL    HW226279   0.960   5.391   5.990  0.4436  1.2986 -0.1926
 8280SOL     OW26280   1.957   1.361   4.605 -0.7303 -0.2938 -0.1802
 8280SOL    HW126281   2.008   1.422   4.552 -0.4893 -0.8728 -0.6326
 8280SOL    HW226282   1.880   1.341   4.552  0.9962 -3.3480 -1.8631
 8281SOL     OW26283   0.935   3.334   8.037 -0.2962 -0.0597  0.4871
 8281SOL    HW126284   0.896   3.421   8.045 -0.8575 -0.4275  2.2612
 8281SOL    HW226285   0.860   3.276   8.025 -0.0883 -0.4890  1.2055
 8282SOL     OW26286   1.313   2.241   6.653  0.0057  0.2458 -0.6852
 8282SOL    HW126287   1.280   2.196   6.731 -1.0560  0.2406 -1.1135
 8282SOL    HW226288   1.346   2.171   6.597  0.5214  0.2256 -0.3647
 8283SOL     OW26289   3.277   2.954   5.415  0.1027  0.0341 -0.4333
 8283SOL    HW126290   3.307   2.939   5.325  0.1118 -0.8810 -0.2841
 8283SOL    HW226291   3.258   2.867   5.449  0.4886  0.3394  0.5969
 8284SOL     OW26292   1.378   2.932   8.812  0.1296  0.2281  0.4070
 8284SOL    HW126293   1.451   2.900   8.758  0.4206 -1.5970  1.7892
 8284SOL    HW226294   1.369   3.024   8.787  3.3330  0.7284  0.6173
 8285SOL     OW26295   1.675   2.985   6.043  0.3189 -0.6353  0.0365
 8285SOL    HW126296   1.722   3.069   6.043 -1.5907  0.4984 -1.5808
 8285SOL    HW226297   1.734   2.926   5.997  0.3813  0.6639 -1.6595
 8286SOL     OW26298   2.615   0.927   7.435 -0.3451 -0.0035 -0.1480
 8286SOL    HW126299   2.671   1.000   7.461  0.5285 -0.0805 -1.6731
 8286SOL    HW226300   2.627   0.921   7.340 -1.4332 -1.2811 -0.2281
 8287SOL     OW26301   0.745   1.484   6.075  0.6062 -0.1743  0.2039
 8287SOL    HW126302   0.791   1.558   6.114  0.5415 -0.3666  0.6497
 8287SOL    HW226303   0.660   1.521   6.050  0.3792 -0.2154  0.8928
 8288SOL     OW26304   2.903   2.694   6.015 -0.6872  0.0194  0.1627
 8288SOL    HW126305   2.863   2.745   6.085 -0.3969 -0.4156  0.6441
 8288SOL    HW226306   2.834   2.634   5.986 -0.6372 -0.1688  0.4375
 8289SOL     OW26307   1.658   4.521   5.845  0.3124  0.6192  0.5974
 8289SOL    HW126308   1.726   4.482   5.789 -1.3866  0.7919 -1.7817
 8289SOL    HW226309   1.643   4.455   5.913  2.0839  0.1164  0.5602
 8290SOL     OW26310   1.847   4.364   5.011  0.8501  0.2010  0.3739
 8290SOL    HW126311   1.901   4.441   4.989  1.7397  0.3497  2.8054
 8290SOL    HW226312   1.910   4.291   5.012  0.4477 -0.1468  0.4037
 8291SOL     OW26313   0.398   2.766   7.103  0.1341 -0.8022 -0.1173
 8291SOL    HW126314   0.395   2.728   7.015 -1.2426 -0.0079 -0.4439
 8291SOL    HW226315   0.345   2.706   7.156 -0.2363 -0.5250 -0.1637
 8292SOL     OW26316   3.281   2.032   6.479  0.4106  0.2827 -0.4536
 8292SOL    HW126317   3.203   2.087   6.489  0.4818  0.7150 -2.1307
 8292SOL    HW226318   3.285   2.013   6.386  2.0905 -0.0924 -0.3212
 8293SOL     OW26319   2.290   2.044   7.187 -0.0398 -0.2230 -0.4411
 8293SOL    HW126320   2.349   1.981   7.145  1.9118  1.9186 -1.1076
 8293SOL    HW226321   2.344   2.122   7.200 -2.6882  1.7963 -0.8414
 8294SOL     OW26322   2.329   0.641   7.649  0.2219  0.5577 -0.0784
 8294SOL    HW126323   2.405   0.697   7.631  1.0543 -0.1209  1.1783
 8294SOL    HW226324   2.287   0.630   7.563  1.9103  0.4223 -0.9371
 8295SOL     OW26325   2.378   4.265   6.507 -0.0773  0.2363  0.0576
 8295SOL    HW126326   2.337   4.250   6.592 -0.8309  1.0230 -0.1551
 8295SOL    HW226327   2.437   4.339   6.523  0.4903 -0.2155  0.1069
 8296SOL     OW26328   2.971   2.382   6.274  0.0057 -0.5524  0.6290
 8296SOL    HW126329   3.059   2.351   6.254  0.0547 -1.1741  1.7506
 8296SOL    HW226330   2.928   2.387   6.188  1.5234  1.1292 -0.0971
 8297SOL     OW26331   1.464   4.215   6.225 -0.3532  0.9662 -0.1237
 8297SOL    HW126332   1.488   4.202   6.133  0.9063  1.0737  0.1761
 8297SOL    HW226333   1.505   4.142   6.271 -0.6530  1.1273  0.4066
 8298SOL     OW26334   2.450   2.665   6.802  0.1920  0.0663  0.0381
 8298SOL    HW126335   2.447   2.726   6.729  0.4673 -0.2724 -0.2579
 8298SOL    HW226336   2.540   2.671   6.835  0.4464 -0.7282 -0.4732
 8299SOL     OW26337   2.107   1.132   5.884 -0.3435 -0.6702  0.0450
 8299SOL    HW126338   2.174   1.168   5.827 -1.6279  1.4000 -0.2756
 8299SOL    HW226339   2.081   1.049   5.843  0.6700 -0.5655 -0.8347
 8300SOL     OW26340   2.501   3.717   5.779  0.0417 -0.2879  0.1052
 8300SOL    HW126341   2.588   3.752   5.762  0.1393 -0.2657  0.6428
 8300SOL    HW226342   2.443   3.767   5.721  0.0219  1.5071  1.5698
 8301SOL     OW26343   3.129   3.253   5.876 -0.0086  0.2901  0.0705
 8301SOL    HW126344   3.220   3.233   5.857 -0.3914 -0.3818 -1.1800
 8301SOL    HW226345   3.081   3.221   5.800 -1.1873  1.5950  0.2238
 8302SOL     OW26346   2.611   2.165   5.074 -0.1936  0.5378  0.1287
 8302SOL    HW126347   2.601   2.133   4.984  0.4407  1.2026 -0.1914
 8302SOL    HW226348   2.593   2.259   5.067 -0.6271  0.5087  0.7923
 8303SOL     OW26349   3.468   2.977   4.760 -0.6156  0.2402 -0.2504
 8303SOL    HW126350   3.495   3.005   4.847 -1.4068  1.2098 -0.2931
 8303SOL    HW226351   3.530   3.018   4.701 -0.7138  0.4563 -0.2041
 8304SOL     OW26352   1.630   4.119   4.878  0.2924 -0.3781 -0.5592
 8304SOL    HW126353   1.690   4.063   4.927  0.7822  1.1053  0.6129
 8304SOL    HW226354   1.676   4.138   4.796  1.3124  0.4330  0.1654
 8305SOL     OW26355   2.620   1.623   6.814 -0.3611 -0.0099 -0.2063
 8305SOL    HW126356   2.702   1.627   6.864  0.1831 -2.3805 -0.7987
 8305SOL    HW226357   2.648   1.631   6.723 -0.8378 -0.3920 -0.3892
 8306SOL     OW26358   2.721   3.532   5.346  0.8425  0.0086 -0.2344
 8306SOL    HW126359   2.655   3.576   5.398  0.7438 -0.1215 -0.2501
 8306SOL    HW226360   2.803   3.548   5.392  0.4654 -2.3813  1.4977
 8307SOL     OW26361   2.203   0.478   5.354 -0.4370  0.4120 -0.0977
 8307SOL    HW126362   2.234   0.440   5.436  1.4220  0.5522 -0.6921
 8307SOL    HW226363   2.117   0.515   5.375 -0.8457 -1.2078  1.3001
 8308SOL     OW26364   1.334   1.514   8.406  0.5315  0.1255 -0.3849
 8308SOL    HW126365   1.419   1.471   8.413  0.7529  0.7719  1.3460
 8308SOL    HW226366   1.270   1.442   8.406  1.0244 -0.3140 -0.5260
 8309SOL     OW26367   2.897   1.407   6.247  0.3036 -0.2683  0.0273
 8309SOL    HW126368   2.853   1.396   6.332  0.5204 -0.0056  0.1714
 8309SOL    HW226369   2.960   1.335   6.244  1.7417  0.8926  0.9888
 8310SOL     OW26370   3.050   1.940   6.010 -0.1185 -0.5468  0.1153
 8310SOL    HW126371   3.081   1.969   5.925 -1.0181 -0.5290 -0.2179
 8310SOL    HW226372   3.018   1.851   5.995  0.5800 -0.8972  0.6460
 8311SOL     OW26373   1.105   2.999   6.718  0.7121 -0.9587  0.3006
 8311SOL    HW126374   1.039   2.966   6.657  0.7331  0.1198 -0.3282
 8311SOL    HW226375   1.075   3.086   6.742  3.0522  0.6095 -1.9093
 8312SOL     OW26376   3.212   1.315   5.897 -0.8319 -0.7886  0.1313
 8312SOL    HW126377   3.270   1.388   5.874  0.6326 -1.8013  0.4989
 8312SOL    HW226378   3.130   1.357   5.922  0.6528  0.9052  2.5228
 8313SOL     OW26379   0.884   1.707   6.143 -0.0431 -0.7163 -0.3368
 8313SOL    HW126380   0.879   1.777   6.077 -0.8336  1.4628  1.8826
 8313SOL    HW226381   0.964   1.726   6.192  0.1861 -1.9032 -0.2358
 8314SOL     OW26382   3.479   3.366   6.076  0.0079  0.1625  0.1569
 8314SOL    HW126383   3.570   3.399   6.076  0.8565 -2.0242  0.2349
 8314SOL    HW226384   3.458   3.356   5.983  1.4594 -3.2143  0.0312
 8315SOL     OW26385   2.063   2.396   3.700  0.0937 -0.9328 -0.0481
 8315SOL    HW126386   1.969   2.402   3.715  0.4686  0.2947  2.1561
 8315SOL    HW226387   2.093   2.487   3.699  1.3565 -1.3275  0.0683
 8316SOL     OW26388   2.461   3.419   4.197  0.9626 -0.2611 -0.3470
 8316SOL    HW126389   2.545   3.424   4.243  1.0617  1.4441 -0.6763
 8316SOL    HW226390   2.485   3.418   4.104  0.6128  1.6932 -0.4962
 8317SOL     OW26391   0.600   3.624   5.701  0.2242  0.5722 -0.3164
 8317SOL    HW126392   0.679   3.661   5.741  1.0365 -1.1709 -0.2103
 8317SOL    HW226393   0.529   3.653   5.758  1.1158 -0.0641  1.1843
 8318SOL     OW26394   3.228   3.435   7.163  0.2374  0.1299 -0.4942
 8318SOL    HW126395   3.219   3.446   7.069 -0.3974  2.1083 -0.2649
 8318SOL    HW226396   3.312   3.392   7.175  0.2228 -0.3563 -1.9593
 8319SOL     OW26397   3.596   2.417   7.684 -0.3419  0.0741 -0.4145
 8319SOL    HW126398   3.603   2.465   7.602  1.0395 -1.4096 -1.2286
 8319SOL    HW226399   3.622   2.481   7.751  1.7981  0.4531 -1.4962
 8320SOL     OW26400   2.448   2.178   5.473 -0.6099 -0.4314  0.2376
 8320SOL    HW126401   2.436   2.268   5.444 -0.1145 -0.2136  0.6830
 8320SOL    HW226402   2.427   2.125   5.396 -3.2396 -0.0677  0.6358
 8321SOL     OW26403   4.779   2.516   5.984 -0.1446  0.1500 -0.3239
 8321SOL    HW126404   4.819   2.495   5.900  0.3771 -1.1684  0.2206
 8321SOL    HW226405   4.694   2.553   5.962 -1.1065 -2.4521 -1.4420
 8322SOL     OW26406   2.282   3.777   6.463 -0.3662  0.2270  0.0919
 8322SOL    HW126407   2.332   3.853   6.431 -0.8628 -0.0125 -1.3387
 8322SOL    HW226408   2.285   3.785   6.558  0.1017  1.7148 -0.0132
 8323SOL     OW26409   4.025   3.016   7.392 -0.0509  0.2933 -0.0944
 8323SOL    HW126410   3.984   3.082   7.337 -0.1487 -0.5922 -1.1151
 8323SOL    HW226411   4.102   3.059   7.428  0.2560  0.7800 -1.2829
 8324SOL     OW26412   7.962   3.489   5.300  0.3078 -0.3654 -0.6283
 8324SOL    HW126413   7.967   3.418   5.364  2.1768 -0.6879 -1.0846
 8324SOL    HW226414   7.883   3.469   5.249 -1.1154 -0.2219  1.3650
 8325SOL     OW26415   0.751   2.151   7.971 -0.5412  0.2964 -0.3442
 8325SOL    HW126416   0.838   2.112   7.978 -0.5995  0.1242 -0.5650
 8325SOL    HW226417   0.692   2.085   8.006 -0.6595  0.1118 -0.8919
 8326SOL     OW26418   2.115   3.267   5.237  1.0373  0.2011  0.5390
 8326SOL    HW126419   2.177   3.332   5.202  0.3614  0.2646 -0.6113
 8326SOL    HW226420   2.040   3.272   5.177 -1.0102  1.5761  3.0201
 8327SOL     OW26421   2.805   2.091   6.057 -0.1618  0.4141 -0.3420
 8327SOL    HW126422   2.740   2.044   6.004 -0.2841  1.7435 -1.4367
 8327SOL    HW226423   2.888   2.047   6.039 -0.3644  0.2420 -0.8736
 8328SOL     OW26424   2.796   3.785   6.192 -0.0894  0.4752 -0.2261
 8328SOL    HW126425   2.870   3.724   6.193  0.0680  0.4354 -3.7359
 8328SOL    HW226426   2.719   3.729   6.197  0.0641  0.3149  0.5186
 8329SOL     OW26427   1.418   3.183   5.405 -0.4066  0.2282 -0.1151
 8329SOL    HW126428   1.407   3.119   5.334  0.3571 -0.2287  0.1734
 8329SOL    HW226429   1.460   3.258   5.363  0.4265 -0.2033 -0.0711
 8330SOL     OW26430   2.681   3.221   6.920  0.3293  0.0699 -0.6327
 8330SOL    HW126431   2.716   3.140   6.884  0.0970 -0.6282  0.6438
 8330SOL    HW226432   2.746   3.287   6.899  1.5578 -0.8532  0.1082
 8331SOL     OW26433   3.239   1.934   6.861 -0.3031 -0.0363  0.0734
 8331SOL    HW126434   3.279   1.864   6.808 -3.1645 -1.7579  0.0019
 8331SOL    HW226435   3.300   1.947   6.934  1.0848 -1.4271 -0.7766
 8332SOL     OW26436   3.058   2.006   9.531  0.5808 -0.1397  0.0524
 8332SOL    HW126437   3.140   1.982   9.487  0.9652 -0.9860  1.1888
 8332SOL    HW226438   3.036   1.930   9.585  0.4720  1.0985  1.8335
 8333SOL     OW26439   2.600   0.929   4.069  0.5540 -0.4524  0.3913
 8333SOL    HW126440   2.667   0.974   4.018  0.1706 -0.5887 -0.2533
 8333SOL    HW226441   2.525   0.988   4.066 -0.3014 -1.5159 -1.3209
 8334SOL     OW26442   2.578   1.985   5.927 -0.0342  0.4314  0.4436
 8334SOL    HW126443   2.527   1.920   5.974  2.4722 -1.3009  0.9794
 8334SOL    HW226444   2.598   1.944   5.843 -0.4781  1.5660 -0.2447
 8335SOL     OW26445   2.713   3.414   6.625  0.4156  0.0563 -0.2373
 8335SOL    HW126446   2.719   3.505   6.653 -1.6099  0.2023 -0.0828
 8335SOL    HW226447   2.758   3.364   6.692 -0.7874  0.7494  1.1380
 8336SOL     OW26448   4.330   1.831   5.057  0.1490  0.0217 -0.5193
 8336SOL    HW126449   4.293   1.744   5.072  0.1528  0.3659  1.7225
 8336SOL    HW226450   4.311   1.848   4.964 -1.8553 -1.4316 -0.4592
 8337SOL     OW26451   2.627   0.752   6.362  0.1473  0.4766  0.0030
 8337SOL    HW126452   2.619   0.704   6.280  0.7912 -1.2527  0.8949
 8337SOL    HW226453   2.717   0.785   6.362 -0.2062  1.4747 -0.4798
 8338SOL     OW26454   0.698   4.485   5.687 -0.4146  0.3974  0.0540
 8338SOL    HW126455   0.747   4.468   5.607 -0.0729  1.0409  0.1265
 8338SOL    HW226456   0.762   4.472   5.757 -0.2728  1.4854  0.1384
 8339SOL     OW26457   3.944   2.758   6.122 -0.7311 -0.6646 -0.2467
 8339SOL    HW126458   3.900   2.777   6.039 -1.6783  1.2135  0.6250
 8339SOL    HW226459   3.948   2.843   6.167  1.2569 -1.3151  0.9412
 8340SOL     OW26460   2.694   3.033   6.321 -0.2603  0.5236 -0.1856
 8340SOL    HW126461   2.678   3.107   6.261  1.6718  0.5928 -0.6902
 8340SOL    HW226462   2.783   3.048   6.353  0.7276 -2.2572 -1.3295
 8341SOL     OW26463   2.351   1.993   6.750  0.2236  0.1480 -0.4937
 8341SOL    HW126464   2.446   1.984   6.762  0.1854  0.0630 -0.2436
 8341SOL    HW226465   2.314   1.960   6.831 -0.0880 -1.2219 -1.1659
 8342SOL     OW26466   1.364   1.842   6.569 -0.5004  0.0570 -0.1332
 8342SOL    HW126467   1.394   1.906   6.505  1.4494  0.5352  1.1748
 8342SOL    HW226468   1.287   1.883   6.610 -0.4645  0.6754 -0.6835
 8343SOL     OW26469   3.305   3.019   7.108  0.4010 -0.1716  0.5521
 8343SOL    HW126470   3.238   3.084   7.131 -0.6471 -1.5992  1.6936
 8343SOL    HW226471   3.378   3.072   7.075 -0.8788  1.4990  0.2377
 8344SOL     OW26472   2.750   3.767   7.356  0.2498 -0.3644 -0.3208
 8344SOL    HW126473   2.809   3.804   7.422 -0.7279  0.9901 -0.1761
 8344SOL    HW226474   2.775   3.810   7.274  0.5087 -0.9825 -0.5764
 8345SOL     OW26475   2.107   3.986   5.597 -0.2320 -0.1842  0.2735
 8345SOL    HW126476   2.088   4.038   5.675 -0.4431 -1.6449  1.2153
 8345SOL    HW226477   2.198   4.007   5.577 -0.0038 -0.2053  1.2313
 8346SOL     OW26478   3.487   2.681   4.413 -0.6968  0.5298  0.0537
 8346SOL    HW126479   3.576   2.676   4.447 -1.2978 -0.0217  1.6374
 8346SOL    HW226480   3.488   2.758   4.355  0.9522  0.1379 -0.4890
 8347SOL     OW26481   2.605   7.798   4.408  0.2500 -0.2462 -0.4116
 8347SOL    HW126482   2.602   7.704   4.392  0.2856 -0.2873 -0.1730
 8347SOL    HW226483   2.688   7.813   4.453 -0.5763 -0.3709  1.2456
 8348SOL     OW26484   3.635   2.821   6.879  0.2021 -1.0069 -0.4169
 8348SOL    HW126485   3.672   2.905   6.905 -1.1495 -0.6689  0.5402
 8348SOL    HW226486   3.567   2.804   6.944 -3.7278  0.0521 -3.8189
 8349SOL     OW26487   1.446   3.316   5.659  0.2057 -0.2119  0.6204
 8349SOL    HW126488   1.504   3.287   5.730  0.2807 -1.4454  0.0842
 8349SOL    HW226489   1.487   3.283   5.580 -0.2609  0.5295  0.0556
 8350SOL     OW26490   1.442   2.595   7.455  0.2916  0.0141  0.2091
 8350SOL    HW126491   1.468   2.580   7.545 -2.4555  0.1695  1.1084
 8350SOL    HW226492   1.364   2.649   7.461 -0.7185 -1.0231 -2.2095
 8351SOL     OW26493   4.042   0.605   6.215 -0.1617 -0.3849 -0.1335
 8351SOL    HW126494   4.079   0.692   6.204 -1.1141  0.1922  1.0026
 8351SOL    HW226495   4.052   0.563   6.129  0.0121  0.9518 -0.7905
 8352SOL     OW26496   1.718   1.556   7.000  0.5963 -0.1673 -0.0141
 8352SOL    HW126497   1.652   1.607   7.048  1.3911 -1.0300  2.1106
 8352SOL    HW226498   1.668   1.491   6.952 -0.2453  0.7522 -0.4188
 8353SOL     OW26499   2.204   2.635   3.822  0.2084 -0.3153  0.2466
 8353SOL    HW126500   2.268   2.575   3.859  2.8223  1.6953 -0.6646
 8353SOL    HW226501   2.182   2.695   3.893 -0.9350 -1.1506  0.6287
 8354SOL     OW26502   2.396   4.715   5.245 -0.2388  0.5458 -0.1194
 8354SOL    HW126503   2.441   4.732   5.162 -0.5228  1.3383 -0.1196
 8354SOL    HW226504   2.402   4.797   5.292 -0.8948  0.3797  0.2614
 8355SOL     OW26505   2.680   3.275   5.325  0.0574 -0.1963 -0.1720
 8355SOL    HW126506   2.707   3.239   5.241 -1.2528 -1.5213 -0.0705
 8355SOL    HW226507   2.687   3.370   5.315 -0.0476 -0.3435 -1.7688
 8356SOL     OW26508   4.303   1.613   7.061  0.4516  0.2038  0.0528
 8356SOL    HW126509   4.300   1.655   7.147  1.5628 -1.9511  1.2140
 8356SOL    HW226510   4.307   1.520   7.080 -0.5406 -0.4102 -2.3997
 8357SOL     OW26511   0.988   1.293   7.345  0.5476  0.1101  0.0714
 8357SOL    HW126512   1.082   1.286   7.357  0.6152  0.0114 -0.5190
 8357SOL    HW226513   0.961   1.207   7.312  0.3575  0.3588 -0.4403
 8358SOL     OW26514   2.821   3.009   6.815  0.1348  0.5044  1.1114
 8358SOL    HW126515   2.901   3.029   6.767 -0.2825  0.9390  0.5872
 8358SOL    HW226516   2.851   2.978   6.900  0.8904 -0.3942  0.5326
 8359SOL     OW26517   1.537   2.869   6.634 -0.4238  0.5928  0.0646
 8359SOL    HW126518   1.515   2.826   6.717 -1.7040 -0.2531 -0.6781
 8359SOL    HW226519   1.486   2.822   6.568  1.0940  0.7880 -1.3205
 8360SOL     OW26520   2.806   3.508   4.880 -0.3635 -0.9548  0.1269
 8360SOL    HW126521   2.841   3.583   4.831 -0.6657 -0.9780 -0.1308
 8360SOL    HW226522   2.861   3.435   4.852 -0.3791 -0.9219  0.0080
 8361SOL     OW26523   3.194   1.750   7.548  0.3386 -0.0811 -0.4338
 8361SOL    HW126524   3.132   1.765   7.476 -0.9861 -1.8224  0.2754
 8361SOL    HW226525   3.278   1.780   7.513 -0.8184  2.1899 -1.4956
 8362SOL     OW26526   3.481   6.301   7.625  0.1610 -0.1901  0.3915
 8362SOL    HW126527   3.514   6.375   7.676  0.5520  0.6087 -0.9684
 8362SOL    HW226528   3.527   6.307   7.542 -0.2356 -1.6428  0.0391
 8363SOL     OW26529   2.044   2.628   6.202  0.2121 -0.7905 -0.0908
 8363SOL    HW126530   2.035   2.704   6.144  2.1897 -0.4108  0.0063
 8363SOL    HW226531   1.955   2.596   6.215 -0.7912  1.9128  0.3876
 8364SOL     OW26532   1.040   4.499   6.800 -0.7064 -0.7031 -0.1049
 8364SOL    HW126533   1.112   4.441   6.823 -0.2298 -0.2895 -0.5201
 8364SOL    HW226534   1.069   4.586   6.830  0.9772  0.3389 -4.1346
 8365SOL     OW26535   7.465   1.849   6.877  0.2267  0.0160  0.1337
 8365SOL    HW126536   7.412   1.872   6.953 -1.1176  0.3750 -0.8881
 8365SOL    HW226537   7.402   1.827   6.809  1.4090 -1.1519 -0.6409
 8366SOL     OW26538   1.102   2.667   6.462 -0.3201 -0.5569 -0.3055
 8366SOL    HW126539   1.098   2.574   6.484 -0.5680 -0.8540 -1.5574
 8366SOL    HW226540   1.195   2.683   6.443 -0.2882 -0.5645 -0.1555
 8367SOL     OW26541   3.266   3.243   6.234 -0.1658 -0.2187  0.2411
 8367SOL    HW126542   3.291   3.197   6.314 -0.9426  0.9611  1.1883
 8367SOL    HW226543   3.349   3.261   6.190  0.4373  0.7446  1.6951
 8368SOL     OW26544   2.040   3.683   5.260  0.1871 -0.0247  0.6315
 8368SOL    HW126545   2.016   3.772   5.286  1.2372  0.3488  0.3970
 8368SOL    HW226546   2.115   3.695   5.202  0.0145 -1.0431  0.1841
 8369SOL     OW26547   2.675   3.817   5.202  0.3952 -0.1627  0.7094
 8369SOL    HW126548   2.655   3.730   5.236 -2.2425  0.2834  0.4744
 8369SOL    HW226549   2.651   3.877   5.272 -0.2187  0.4951 -0.0435
 8370SOL     OW26550   1.630   5.282   6.200 -0.4340  1.1129  0.1278
 8370SOL    HW126551   1.721   5.270   6.174  0.2725  1.6756  2.1536
 8370SOL    HW226552   1.590   5.329   6.126  0.6755  0.1890 -1.1181
 8371SOL     OW26553   3.858   1.931   6.040 -0.4346 -0.0790 -0.0514
 8371SOL    HW126554   3.789   1.938   5.974 -0.9293 -0.3405  0.4293
 8371SOL    HW226555   3.913   1.858   6.010 -1.7663 -1.4887  0.8018
 8372SOL     OW26556   1.414   3.849   5.699 -0.0686 -0.0884 -0.0774
 8372SOL    HW126557   1.397   3.759   5.672  2.7187 -0.8734  0.5167
 8372SOL    HW226558   1.489   3.843   5.758 -0.2447  2.5678  0.5330
 8373SOL     OW26559   2.294   5.444   7.321 -0.1751  0.4052 -0.3418
 8373SOL    HW126560   2.323   5.394   7.397  0.2855  1.3118  0.0890
 8373SOL    HW226561   2.339   5.403   7.247  0.2681  0.2429  0.0147
 8374SOL     OW26562   2.284   1.020   6.600 -0.0192  0.5578  0.5421
 8374SOL    HW126563   2.235   1.061   6.529  1.0567  0.7492 -0.1063
 8374SOL    HW226564   2.313   0.936   6.565 -3.9491 -1.9222  2.5047
 8375SOL     OW26565   2.099   4.160   6.176 -0.0315 -0.1610  0.0278
 8375SOL    HW126566   2.148   4.242   6.186 -0.1120 -0.0729 -0.2962
 8375SOL    HW226567   2.064   4.143   6.263  0.4537 -0.1470  0.2325
 8376SOL     OW26568   1.776   1.689   5.045 -0.1414 -0.7318 -0.1202
 8376SOL    HW126569   1.840   1.758   5.061  0.5221 -1.4734  0.5227
 8376SOL    HW226570   1.773   1.679   4.950  0.6602 -0.6467 -0.1587
 8377SOL     OW26571   3.421   1.734   5.270 -0.0418  0.3040  0.2122
 8377SOL    HW126572   3.495   1.696   5.223  1.5658  1.6720  1.4736
 8377SOL    HW226573   3.344   1.691   5.234  1.1661  0.4010 -2.7795
 8378SOL     OW26574   1.467   2.233   7.248 -0.2515 -0.1916 -0.1092
 8378SOL    HW126575   1.537   2.277   7.296 -0.4737  0.3174 -0.2439
 8378SOL    HW226576   1.513   2.171   7.191 -0.0809 -2.2527  2.1582
 8379SOL     OW26577   1.609   3.763   5.964  0.5087 -0.3817  0.7198
 8379SOL    HW126578   1.599   3.668   5.952  1.0348 -0.4022  0.3760
 8379SOL    HW226579   1.702   3.779   5.949  0.1665  0.4077 -0.8738
 8380SOL     OW26580   2.937   0.884   5.632 -0.9815  0.2339 -0.0303
 8380SOL    HW126581   2.983   0.815   5.584  0.5568  1.2478 -0.0835
 8380SOL    HW226582   2.845   0.857   5.631 -0.3369 -2.2039  0.6428
 8381SOL     OW26583   3.205   2.482   5.787  0.1377 -0.3699  0.3506
 8381SOL    HW126584   3.249   2.483   5.703 -0.0678 -0.8226  0.2334
 8381SOL    HW226585   3.214   2.571   5.821  0.7481 -0.3482  0.1293
 8382SOL     OW26586   2.769   1.305   5.512 -0.1585 -0.1317  0.5075
 8382SOL    HW126587   2.764   1.323   5.418 -3.4313  0.2143  0.6599
 8382SOL    HW226588   2.786   1.390   5.552 -0.7541  0.0697  0.3382
 8383SOL     OW26589   0.593   2.158   5.761 -0.1485  0.1866 -0.2780
 8383SOL    HW126590   0.594   2.227   5.827 -1.0298  1.7528 -1.8419
 8383SOL    HW226591   0.500   2.143   5.743  0.0717 -0.5878 -0.8172
 8384SOL     OW26592   3.123   3.638   5.676 -0.2408 -0.0656 -0.2520
 8384SOL    HW126593   3.218   3.646   5.674  0.1536 -3.4249 -2.2497
 8384SOL    HW226594   3.101   3.637   5.770  1.4152  2.0862  0.2597
 8385SOL     OW26595   3.028   3.069   6.093  0.3634 -0.3731  0.5993
 8385SOL    HW126596   3.093   3.133   6.061  0.6361 -0.8535  0.1808
 8385SOL    HW226597   3.051   3.057   6.185  0.7742 -0.4219  0.4937
 8386SOL     OW26598   3.558   2.679   5.651 -0.4933  0.0881  0.3977
 8386SOL    HW126599   3.620   2.745   5.621 -0.4265  0.2840  0.9455
 8386SOL    HW226600   3.613   2.610   5.689 -0.5658 -0.2519 -0.1123
 8387SOL     OW26601   2.326   2.443   5.851  0.2202 -0.7974  0.1202
 8387SOL    HW126602   2.409   2.395   5.857  0.3366 -0.8348 -1.4681
 8387SOL    HW226603   2.316   2.483   5.937  1.3486 -1.6600  0.6876
 8388SOL     OW26604   0.081   3.302   6.546 -0.8621  0.2438  0.5430
 8388SOL    HW126605   0.167   3.343   6.559 -1.2700  1.0216  0.8575
 8388SOL    HW226606   0.097   3.234   6.480 -0.1651  0.9331 -0.0257
 8389SOL     OW26607   2.771   0.812   6.629 -0.3174 -0.6872  0.4242
 8389SOL    HW126608   2.807   0.868   6.698  0.0846 -1.0102  0.4797
 8389SOL    HW226609   2.723   0.873   6.572  2.8988  0.3577 -1.4636
 8390SOL     OW26610   1.834   2.859   5.849 -0.1549 -0.0640  0.0418
 8390SOL    HW126611   1.796   2.801   5.784 -0.4141  0.1142  0.0331
 8390SOL    HW226612   1.879   2.926   5.798 -1.6488  0.9483  0.0094
 8391SOL     OW26613   3.652   1.746   7.544 -0.2754 -0.2918  0.3047
 8391SOL    HW126614   3.712   1.680   7.506 -0.4687  0.5793 -1.6562
 8391SOL    HW226615   3.590   1.695   7.596  0.4506 -1.5145  0.0159
 8392SOL     OW26616   1.130   1.679   7.197  0.1521 -0.3422  0.2129
 8392SOL    HW126617   1.146   1.744   7.265 -1.0250 -0.6776  0.8498
 8392SOL    HW226618   1.040   1.650   7.213 -0.7936  0.7498 -2.4688
 8393SOL     OW26619   2.847   3.212   5.946 -0.1338 -0.1105 -0.0506
 8393SOL    HW126620   2.896   3.150   6.000  0.8993  0.5749 -0.1829
 8393SOL    HW226621   2.911   3.279   5.921 -1.1946  0.9681  0.0063
 8394SOL     OW26622   3.380   2.872   5.735 -0.3352 -0.8520  0.3186
 8394SOL    HW126623   3.346   2.819   5.807  1.1597 -1.1845  0.8162
 8394SOL    HW226624   3.445   2.816   5.693 -0.1256 -0.1115 -0.3731
 8395SOL     OW26625   2.229   3.320   5.501  0.2597 -0.3799 -0.3711
 8395SOL    HW126626   2.303   3.262   5.481  0.1529 -0.1771 -1.4157
 8395SOL    HW226627   2.166   3.303   5.432  0.2076  0.9354 -0.6769
 8396SOL     OW26628   3.787   3.461   7.075 -0.2310 -0.1066 -0.0270
 8396SOL    HW126629   3.775   3.369   7.100 -1.7921  0.0168 -0.2311
 8396SOL    HW226630   3.701   3.488   7.043  0.1942  1.4501  0.0933
 8397SOL     OW26631   2.414   1.732   7.422  0.0402  0.0971  0.4264
 8397SOL    HW126632   2.437   1.720   7.330 -0.8296 -1.4897  0.3782
 8397SOL    HW226633   2.348   1.801   7.422 -1.3430 -1.1532 -0.4021
 8398SOL     OW26634   3.877   1.713   7.287  0.0805 -0.5032  0.2758
 8398SOL    HW126635   3.896   1.624   7.315  1.0529 -0.2689  0.3943
 8398SOL    HW226636   3.951   1.738   7.232 -0.7413 -0.1744 -0.7292
 8399SOL     OW26637   2.111   2.395   6.600 -0.0083  0.5129  0.1773
 8399SOL    HW126638   2.092   2.480   6.559  0.9493  0.3240 -0.6975
 8399SOL    HW226639   2.202   2.402   6.628  0.2764 -0.4592 -0.4930
 8400SOL     OW26640   0.795   7.948   6.314 -0.1489 -0.5136  0.0413
 8400SOL    HW126641   0.791   7.896   6.234  0.7662  0.3842 -0.6197
 8400SOL    HW226642   0.705   7.980   6.326 -0.6074 -1.8031  0.1854
 8401SOL     OW26643   3.016   2.275   5.737  0.0875  0.1861 -0.3122
 8401SOL    HW126644   3.101   2.319   5.732  0.8841 -1.3581 -1.0035
 8401SOL    HW226645   2.989   2.286   5.829  0.9491  0.8391 -0.1226
 8402SOL     OW26646   2.976   1.924   6.833  0.3219 -0.2083 -0.6264
 8402SOL    HW126647   3.069   1.930   6.855  0.3011  2.2731 -0.8383
 8402SOL    HW226648   2.974   1.928   6.737 -0.0148  0.7599 -0.5901
 8403SOL     OW26649   4.474   2.462   5.260 -0.2590  0.1481  0.1826
 8403SOL    HW126650   4.477   2.557   5.247  0.8178  0.1639  0.5234
 8403SOL    HW226651   4.421   2.430   5.187  2.3184  0.6524 -2.0505
 8404SOL     OW26652   1.447   3.882   6.142 -0.2097  0.4759  0.0236
 8404SOL    HW126653   1.507   3.907   6.212  1.9002 -0.9146 -1.1804
 8404SOL    HW226654   1.504   3.847   6.073 -2.2277  1.1099 -2.1157
 8405SOL     OW26655   1.247   4.171   6.529 -0.1783 -0.3848 -0.5157
 8405SOL    HW126656   1.205   4.089   6.555 -0.7895  0.2321  0.5653
 8405SOL    HW226657   1.214   4.188   6.441 -2.3729  0.1243  0.3233
 8406SOL     OW26658   3.216   3.076   5.657  0.0078 -0.2388 -0.0324
 8406SOL    HW126659   3.256   2.995   5.688 -0.8974 -0.6109  0.2007
 8406SOL    HW226660   3.237   3.078   5.563  1.3426  0.0548  0.2472
 8407SOL     OW26661   1.028   4.313   8.675 -0.2899 -0.2086  0.2588
 8407SOL    HW126662   0.959   4.276   8.730  2.0487 -0.5189  3.2141
 8407SOL    HW226663   1.061   4.387   8.725  1.9208 -0.4460 -0.7549
 8408SOL     OW26664   3.297   1.213   6.170  0.0948  0.4070  0.4110
 8408SOL    HW126665   3.366   1.265   6.210  0.7718 -0.1714  0.0057
 8408SOL    HW226666   3.287   1.250   6.082 -0.8072  1.1301  0.8033
 8409SOL     OW26667   2.940   3.069   6.461  0.4232 -0.2611 -0.1059
 8409SOL    HW126668   2.974   2.991   6.418 -1.9334 -1.4290 -0.0037
 8409SOL    HW226669   2.971   3.061   6.552  0.1560 -1.1172 -0.0809
 8410SOL     OW26670   2.700   1.658   6.564 -0.0786 -0.0221 -0.4376
 8410SOL    HW126671   2.779   1.604   6.558 -0.1679  0.0329 -2.7809
 8410SOL    HW226672   2.712   1.726   6.499 -0.3421  2.4075  1.9054
 8411SOL     OW26673   1.814   1.488   4.366 -0.1675  0.5115  0.1300
 8411SOL    HW126674   1.780   1.402   4.389 -0.2248 -0.0785 -1.9447
 8411SOL    HW226675   1.736   1.541   4.348 -0.0972  0.6321  0.1748
 8412SOL     OW26676   0.180   2.259   7.290  0.7147  0.0466  0.3312
 8412SOL    HW126677   0.112   2.272   7.356 -1.5140  1.6338 -2.0267
 8412SOL    HW226678   0.132   2.227   7.213  3.0896 -1.2678 -0.7186
 8413SOL     OW26679   2.105   3.707   5.607 -0.2506  0.2021 -0.3846
 8413SOL    HW126680   2.116   3.668   5.694 -0.1555 -1.5227 -1.1152
 8413SOL    HW226681   2.106   3.801   5.622 -1.4466 -0.0441  1.6331
 8414SOL     OW26682   3.147   1.635   6.135 -1.0158  0.3209  0.3196
 8414SOL    HW126683   3.070   1.639   6.078 -0.6477  0.3158 -0.1794
 8414SOL    HW226684   3.215   1.682   6.088 -0.9576  1.1051  1.1603
 8415SOL     OW26685   1.739   2.481   6.646  0.0649 -0.1596  0.1066
 8415SOL    HW126686   1.675   2.460   6.715  0.5733 -0.7190  0.4207
 8415SOL    HW226687   1.822   2.492   6.693  0.2793  0.1828 -0.3409
 8416SOL     OW26688   2.048   2.851   6.054  0.4127 -0.1733 -0.4096
 8416SOL    HW126689   1.977   2.873   5.993  0.1091  2.7360  0.8386
 8416SOL    HW226690   2.116   2.916   6.035  1.2307 -0.6334  0.8404
 8417SOL     OW26691   1.730   4.695   7.137  0.3444  0.3575 -0.8465
 8417SOL    HW126692   1.811   4.714   7.184  0.2137 -0.1796 -0.3907
 8417SOL    HW226693   1.689   4.624   7.187 -0.7540  1.0894 -0.6666
 8418SOL     OW26694   2.359   0.482   6.227  0.8681  0.2261  0.9223
 8418SOL    HW126695   2.371   0.479   6.322  1.7002  1.2619  0.8565
 8418SOL    HW226696   2.443   0.512   6.193  0.7057 -0.5135 -0.1842
 8419SOL     OW26697   2.963   2.602   6.806 -0.0248 -0.5971  0.5113
 8419SOL    HW126698   3.038   2.547   6.781  0.9080  1.1443 -0.7810
 8419SOL    HW226699   3.003   2.682   6.839 -1.2314  1.1346 -1.9196
 8420SOL     OW26700   5.335   1.423   7.190 -0.3179  0.0676 -0.1824
 8420SOL    HW126701   5.285   1.454   7.115  0.0124 -0.6812 -0.7252
 8420SOL    HW226702   5.336   1.497   7.251 -3.1799 -0.3080  0.4234
 8421SOL     OW26703   0.406   2.936   5.073  0.5813 -0.5604 -0.3626
 8421SOL    HW126704   0.330   2.878   5.076  0.4146 -0.3551 -0.5390
 8421SOL    HW226705   0.406   2.981   5.158  1.4234 -1.7029  0.2705
 8422SOL     OW26706   3.175   2.549   7.145  0.2095  0.5477  0.8353
 8422SOL    HW126707   3.171   2.580   7.235  0.7662  1.3810  0.5821
 8422SOL    HW226708   3.148   2.623   7.091 -2.5069 -0.6382  0.3946
 8423SOL     OW26709   2.202   2.967   6.379  0.2195 -0.4691 -0.4702
 8423SOL    HW126710   2.191   2.918   6.298  1.6709 -0.7926 -0.4806
 8423SOL    HW226711   2.296   2.971   6.394  0.2291  2.4497 -0.5567
 8424SOL     OW26712   2.572   2.369   6.428 -0.4265 -0.5042 -0.3441
 8424SOL    HW126713   2.640   2.327   6.481  0.7323  1.2850 -0.3313
 8424SOL    HW226714   2.526   2.426   6.489 -2.4286 -2.1489 -0.2117
 8425SOL     OW26715   2.464   2.960   7.972 -0.1136  0.9735  0.1303
 8425SOL    HW126716   2.450   3.021   8.045  1.2089  0.6416  0.6838
 8425SOL    HW226717   2.540   2.994   7.926  0.0073  0.3156 -0.1714
 8426SOL     OW26718   2.470   3.705   6.927  0.6227  0.2709  0.4352
 8426SOL    HW126719   2.473   3.784   6.980 -0.0379  1.4380 -1.1958
 8426SOL    HW226720   2.544   3.715   6.866 -0.7287  0.7077 -1.1903
 8427SOL     OW26721   2.219   3.697   7.771  0.1537  0.3831  0.5502
 8427SOL    HW126722   2.302   3.683   7.726 -0.4341  0.1739 -0.5112
 8427SOL    HW226723   2.183   3.777   7.731 -0.8459 -0.3685 -0.0869
 8428SOL     OW26724   2.875   3.047   8.127 -0.3757  0.2255 -0.0173
 8428SOL    HW126725   2.802   3.029   8.068  0.5385  0.6100 -1.3094
 8428SOL    HW226726   2.917   3.125   8.091  0.4807  0.2079  0.8871
 8429SOL     OW26727   1.571   1.031   8.475 -0.0690 -0.6256 -0.2286
 8429SOL    HW126728   1.595   1.121   8.499  1.9392 -0.9330 -0.8850
 8429SOL    HW226729   1.615   1.015   8.392 -1.1992 -1.9104 -0.6253
 8430SOL     OW26730   3.362   3.441  10.520  0.2856 -0.1185  0.1702
 8430SOL    HW126731   3.375   3.531  10.491 -1.3269  0.5175  1.2546
 8430SOL    HW226732   3.269   3.437  10.545  0.4426 -1.9454  0.6119
 8431SOL     OW26733   6.215   4.650   8.089 -0.1262 -0.0612  0.3326
 8431SOL    HW126734   6.203   4.585   8.020  0.3538  0.9384 -0.7494
 8431SOL    HW226735   6.242   4.729   8.042  1.8436  0.2287  1.7986
 8432SOL     OW26736   2.812   2.349  11.025 -0.0778 -0.2508 -0.0080
 8432SOL    HW126737   2.878   2.417  11.034 -0.7054  0.3402  0.2434
 8432SOL    HW226738   2.806   2.309  11.111 -0.3940  0.0293  0.1027
 8433SOL     OW26739   0.984   2.662   8.178 -1.0148  0.5865 -0.1799
 8433SOL    HW126740   0.996   2.576   8.136  0.1819  0.6169  0.0638
 8433SOL    HW226741   0.932   2.712   8.115 -1.7847 -0.3219 -0.3025
 8434SOL     OW26742   2.568   4.023   9.299  0.1108  0.5750 -0.0583
 8434SOL    HW126743   2.552   4.117   9.290 -0.9083  0.3199 -1.1373
 8434SOL    HW226744   2.527   3.999   9.382 -1.5378  0.7079 -0.8041
 8435SOL     OW26745   3.115   2.056   7.221  0.2127 -0.7100  0.5168
 8435SOL    HW126746   3.065   2.108   7.284  0.5469  1.3460 -0.8451
 8435SOL    HW226747   3.206   2.067   7.248  0.3299 -0.0942 -0.1042
 8436SOL     OW26748   4.348   2.945   7.887 -0.8534  0.1543 -0.0558
 8436SOL    HW126749   4.333   3.040   7.886 -1.2054  0.3965  4.9173
 8436SOL    HW226750   4.260   2.907   7.882 -0.6571 -0.1861 -3.5166
 8437SOL     OW26751   1.790   5.224   8.836  0.0601  0.2150  0.2480
 8437SOL    HW126752   1.808   5.231   8.930  0.9903  0.1715  0.0825
 8437SOL    HW226753   1.700   5.192   8.831  0.8507 -2.3718  1.1596
 8438SOL     OW26754   1.951   4.234   9.628 -0.1704 -0.4185  0.7805
 8438SOL    HW126755   1.964   4.140   9.617 -0.7268 -0.2935 -1.3475
 8438SOL    HW226756   2.034   4.273   9.603 -0.7664 -0.2433 -1.0790
 8439SOL     OW26757   2.139   5.161   7.031 -0.2067 -0.4969 -0.3782
 8439SOL    HW126758   2.147   5.080   6.979 -0.1861  0.1160 -1.3548
 8439SOL    HW226759   2.092   5.222   6.974  0.4670  0.4387  0.0439
 8440SOL     OW26760   2.487   2.449   7.929 -0.5130  0.2575 -0.1393
 8440SOL    HW126761   2.548   2.384   7.964  0.1893  1.1579  0.3289
 8440SOL    HW226762   2.479   2.515   7.998  0.1288  1.5539 -1.2576
 8441SOL     OW26763   1.930   3.011   8.829 -0.2743 -0.3802 -0.0063
 8441SOL    HW126764   1.975   3.035   8.748  0.0873 -1.1729 -0.0453
 8441SOL    HW226765   1.993   2.958   8.877  0.9345  2.9397  2.4665
 8442SOL     OW26766   2.531   4.028   8.383  0.1278  0.4337 -0.5471
 8442SOL    HW126767   2.589   3.970   8.431  0.7362  2.5947  1.5144
 8442SOL    HW226768   2.462   4.051   8.445 -1.1856  0.4110 -1.9285
 8443SOL     OW26769   3.871   2.526   7.351  0.2549 -0.3814 -0.8187
 8443SOL    HW126770   3.858   2.621   7.345  0.2484 -0.3926 -1.0086
 8443SOL    HW226771   3.962   2.513   7.326  0.2632 -0.4226 -0.7662
 8444SOL     OW26772   1.859   3.216   8.426  0.2790  0.2462  0.5849
 8444SOL    HW126773   1.950   3.188   8.440  0.3710  0.3535  0.2167
 8444SOL    HW226774   1.824   3.228   8.514  0.7983  0.7658  0.7226
 8445SOL     OW26775   3.995   3.112   7.718 -0.3682 -0.6438 -0.4502
 8445SOL    HW126776   3.916   3.157   7.746 -1.3616 -1.9289 -1.0886
 8445SOL    HW226777   4.053   3.182   7.687 -0.7589  0.4262  1.1170
 8446SOL     OW26778   7.532   4.929   7.058  0.5313 -0.0788  0.4205
 8446SOL    HW126779   7.473   4.904   7.129  2.1840  0.2971  2.0093
 8446SOL    HW226780   7.474   4.955   6.986 -1.2044 -1.0417  1.4102
 8447SOL     OW26781   0.499   4.161   8.582 -0.1432 -0.3567  0.0517
 8447SOL    HW126782   0.499   4.113   8.499 -0.2961  1.2388 -0.9208
 8447SOL    HW226783   0.407   4.182   8.598 -0.0519 -0.1225  0.2841
 8448SOL     OW26784   3.859   2.845   7.622  0.9980  0.5215  0.2535
 8448SOL    HW126785   3.898   2.933   7.621  3.6837 -0.5427 -2.0686
 8448SOL    HW226786   3.855   2.819   7.530  0.2084 -1.7912  0.8638
 8449SOL     OW26787   2.909   3.959   7.217 -0.3082  0.1314  0.6824
 8449SOL    HW126788   2.971   3.908   7.165 -0.3517  0.6429  0.1214
 8449SOL    HW226789   2.962   4.031   7.253 -0.6007  0.6647  0.0677
 8450SOL     OW26790   2.125   4.545   7.637 -0.4723  0.1076 -0.1789
 8450SOL    HW126791   2.168   4.620   7.596 -1.9765 -0.0311 -2.1547
 8450SOL    HW226792   2.198   4.490   7.667  0.6805  1.4048 -0.4679
 8451SOL     OW26793   3.221   2.792   8.332  0.2523  0.1779 -0.1736
 8451SOL    HW126794   3.259   2.873   8.365  0.8918 -0.4899  0.7780
 8451SOL    HW226795   3.244   2.791   8.239  0.1417  1.1282 -0.2221
 8452SOL     OW26796   1.795   3.468   7.876 -0.0802  0.2754  0.0445
 8452SOL    HW126797   1.803   3.460   7.971  2.1241  1.1866  0.0094
 8452SOL    HW226798   1.840   3.391   7.841  0.2847  0.6127 -0.2451
 8453SOL     OW26799   4.134   2.787   8.154 -0.3757 -0.0799 -0.1234
 8453SOL    HW126800   4.228   2.796   8.141 -0.0382 -1.3314  1.2691
 8453SOL    HW226801   4.107   2.872   8.190 -0.0912  0.8184 -1.8884
 8454SOL     OW26802   3.757   2.458   8.116 -0.5600  0.3645 -0.7230
 8454SOL    HW126803   3.726   2.523   8.179 -1.0992 -1.2384  0.7583
 8454SOL    HW226804   3.844   2.488   8.090 -0.1660  0.8853  1.0983
 8455SOL     OW26805   3.626   4.110   7.497  0.0051  0.3268 -0.3301
 8455SOL    HW126806   3.641   4.094   7.404  1.4054 -2.7415  0.2893
 8455SOL    HW226807   3.676   4.190   7.516  2.1060 -0.5878 -1.6771
 8456SOL     OW26808   1.221   2.745   8.294 -0.5840 -0.3436  0.0096
 8456SOL    HW126809   1.223   2.688   8.370 -0.2498 -0.9696 -0.4519
 8456SOL    HW226810   1.134   2.731   8.255 -0.6317 -0.2752  0.0919
 8457SOL     OW26811   2.070   3.954   6.000 -0.3383  0.0632  0.0158
 8457SOL    HW126812   2.150   3.901   6.001  1.2533  2.2900 -0.8491
 8457SOL    HW226813   2.076   4.009   6.078 -1.0287  0.3074 -0.0935
 8458SOL     OW26814   4.328   2.369   8.460  0.2500  0.1032  0.5244
 8458SOL    HW126815   4.406   2.366   8.516  1.1918  0.8599 -0.7097
 8458SOL    HW226816   4.351   2.429   8.389 -1.8171  1.1580  0.6553
 8459SOL     OW26817   3.456   3.271   7.248 -0.3223  0.0742 -0.8708
 8459SOL    HW126818   3.461   3.319   7.331 -1.8194 -1.2840  0.0494
 8459SOL    HW226819   3.547   3.267   7.218  0.4003 -0.2387  1.1908
 8460SOL     OW26820   3.386   3.319   8.780  0.0412  0.0418 -0.3806
 8460SOL    HW126821   3.381   3.258   8.706 -1.0322 -0.0589 -0.2512
 8460SOL    HW226822   3.354   3.402   8.745 -0.1536  0.0770 -0.1283
 8461SOL     OW26823   3.379   2.128   9.184 -0.0218  0.3244 -0.1837
 8461SOL    HW126824   3.365   2.223   9.194 -0.1864  0.3890 -0.9614
 8461SOL    HW226825   3.465   2.112   9.223 -0.1805  0.7203  0.3460
 8462SOL     OW26826   1.602   3.957   9.687  0.5113  0.4929 -0.0689
 8462SOL    HW126827   1.600   3.871   9.646  0.9226 -0.7237  2.3018
 8462SOL    HW226828   1.614   4.018   9.614 -3.0078 -1.0692 -2.2116
 8463SOL     OW26829   1.454   4.630   7.941  0.2474 -0.7026 -0.0154
 8463SOL    HW126830   1.532   4.582   7.967  1.0322  0.4957 -0.0814
 8463SOL    HW226831   1.409   4.571   7.880  0.3245 -1.9970  1.1205
 8464SOL     OW26832   2.915   3.547   7.031  0.1033  0.3025 -0.1457
 8464SOL    HW126833   2.959   3.599   6.965 -0.7440  1.8114  0.4163
 8464SOL    HW226834   2.955   3.574   7.114 -2.2117  2.2765  0.4724
 8465SOL     OW26835   1.358   3.218   7.161 -0.6204  0.0403 -0.2613
 8465SOL    HW126836   1.429   3.161   7.192 -0.8708  0.3435  0.8783
 8465SOL    HW226837   1.281   3.161   7.156 -0.2625 -0.3711 -1.8165
 8466SOL     OW26838   1.433   4.140   8.724 -0.3239  0.1575  0.1468
 8466SOL    HW126839   1.455   4.113   8.635 -1.2898 -0.9485  0.2139
 8466SOL    HW226840   1.428   4.235   8.720  1.9702  0.3012 -0.4180
 8467SOL     OW26841   2.550   3.342   8.250 -0.3302  0.1479 -0.2904
 8467SOL    HW126842   2.643   3.359   8.266 -0.3901  0.9620 -0.7232
 8467SOL    HW226843   2.519   3.421   8.205 -1.5674  0.5346  1.1266
 8468SOL     OW26844   3.880   2.714   8.346 -0.2978 -0.3550  0.6032
 8468SOL    HW126845   3.929   2.797   8.349  1.8269 -1.5526  3.0178
 8468SOL    HW226846   3.946   2.649   8.323 -0.8977 -1.9453  3.0876
 8469SOL     OW26847   1.664   3.932   8.764 -0.3711 -0.8608  0.0490
 8469SOL    HW126848   1.626   3.870   8.825 -1.8490 -2.4740 -2.3589
 8469SOL    HW226849   1.596   3.999   8.753 -0.0217 -0.4583  0.2790
 8470SOL     OW26850   1.572   1.701   7.786 -0.0722  0.4195 -0.1726
 8470SOL    HW126851   1.662   1.709   7.754  0.2397 -1.9126 -0.0174
 8470SOL    HW226852   1.520   1.689   7.707  0.1007 -0.7088 -0.1306
 8471SOL     OW26853   2.390   3.380   7.594  0.9906 -0.3091 -0.0367
 8471SOL    HW126854   2.356   3.304   7.547 -2.4778  0.9815  0.0731
 8471SOL    HW226855   2.438   3.430   7.528 -1.4047  0.0659 -1.5931
 8472SOL     OW26856   1.750   3.562   7.473 -0.2888  0.2173 -0.4877
 8472SOL    HW126857   1.785   3.582   7.560  0.0600  0.1705 -0.6154
 8472SOL    HW226858   1.824   3.576   7.414 -0.7307  1.0273 -0.8736
 8473SOL     OW26859   3.757   2.360   7.100  0.0571  0.0798  0.0043
 8473SOL    HW126860   3.765   2.454   7.120 -1.4230 -0.0354  1.2362
 8473SOL    HW226861   3.845   2.335   7.072  0.9120  1.4667  1.2960
 8474SOL     OW26862   0.901   4.773   9.242 -0.2455 -0.5237 -0.7554
 8474SOL    HW126863   0.851   4.727   9.310 -0.7744  0.1016 -0.7105
 8474SOL    HW226864   0.975   4.811   9.288 -0.5512 -0.1836 -0.5394
 8475SOL     OW26865   1.999   4.256   5.483  0.2407 -0.8369 -0.1062
 8475SOL    HW126866   2.009   4.347   5.512 -1.3718 -0.2399 -1.3025
 8475SOL    HW226867   2.079   4.212   5.514  1.3778  1.1311 -0.1081
 8476SOL     OW26868   4.450   1.035   9.218  0.3575  0.4863 -0.2584
 8476SOL    HW126869   4.509   1.108   9.235  0.1124  0.5024  0.6142
 8476SOL    HW226870   4.422   1.046   9.128  1.3340  0.7334 -0.5400
 8477SOL     OW26871   1.407   3.339   9.278  0.6559  0.3234 -0.0778
 8477SOL    HW126872   1.469   3.336   9.351  0.7188 -0.5109 -0.1527
 8477SOL    HW226873   1.338   3.277   9.303  0.7027 -0.0064 -0.7402
 8478SOL     OW26874   1.225   1.680  10.768 -0.1584  0.2966 -0.4920
 8478SOL    HW126875   1.226   1.765  10.812 -3.7929 -0.0288  0.5482
 8478SOL    HW226876   1.270   1.621  10.829  0.3361  0.9996 -0.1622
 8479SOL     OW26877   3.913   3.941   8.078  0.2499 -0.0325 -0.0427
 8479SOL    HW126878   3.918   3.880   8.151 -0.0809  0.6384  0.5524
 8479SOL    HW226879   3.884   4.024   8.117  0.1425  0.3589 -0.9150
 8480SOL     OW26880   0.947   2.903   6.526  0.1716 -0.0837  0.3626
 8480SOL    HW126881   1.004   2.831   6.501  1.1140  0.3745  1.1381
 8480SOL    HW226882   0.862   2.882   6.486  1.1553 -0.2047 -1.7574
 8481SOL     OW26883   4.840   2.961   8.521 -0.3645 -0.2597  0.5202
 8481SOL    HW126884   4.750   2.992   8.518 -0.3311 -0.1891 -1.3746
 8481SOL    HW226885   4.841   2.897   8.592 -2.0893 -0.7809  0.1287
 8482SOL     OW26886   2.687   4.619   9.115  0.2801 -0.1135 -0.2536
 8482SOL    HW126887   2.640   4.543   9.150  0.5492 -1.4046 -2.4830
 8482SOL    HW226888   2.761   4.581   9.068  1.2148  1.6448 -0.2743
 8483SOL     OW26889   1.773   3.190  10.134  0.1801 -0.9595  0.0907
 8483SOL    HW126890   1.764   3.109  10.084  1.7825 -1.8122  1.0621
 8483SOL    HW226891   1.851   3.176  10.188  1.2378  1.7035 -0.5599
 8484SOL     OW26892   1.634   2.172   9.635  0.0373 -0.0371  0.3158
 8484SOL    HW126893   1.538   2.177   9.635  0.0678  0.8940 -0.5158
 8484SOL    HW226894   1.659   2.189   9.544  1.0206  0.4036  0.6544
 8485SOL     OW26895   2.821   3.837   7.734  0.2534 -0.0455 -0.0358
 8485SOL    HW126896   2.887   3.768   7.747  1.1642  0.7426 -0.3900
 8485SOL    HW226897   2.832   3.864   7.643  0.3951  1.0646  0.3012
 8486SOL     OW26898   4.269   1.705   7.311 -0.2025  0.0536  0.1545
 8486SOL    HW126899   4.302   1.787   7.347  0.3430  0.1732 -0.5887
 8486SOL    HW226900   4.244   1.652   7.387  3.3369 -0.7597  0.8994
 8487SOL     OW26901   5.048   2.178   9.047  0.4718 -0.2037 -0.4904
 8487SOL    HW126902   5.048   2.224   8.964 -2.7320  2.2485  0.6678
 8487SOL    HW226903   5.084   2.241   9.110 -0.3006 -0.7000  0.4940
 8488SOL     OW26904   2.122   1.424   7.579  0.6509  0.1108 -0.3314
 8488SOL    HW126905   2.192   1.464   7.632 -0.2547  1.7658 -0.3213
 8488SOL    HW226906   2.057   1.494   7.568 -0.7548 -1.2205 -0.8161
 8489SOL     OW26907   3.213   2.944   8.711  0.0632 -0.3827  0.0780
 8489SOL    HW126908   3.251   2.857   8.704  2.6244  0.7369 -1.0642
 8489SOL    HW226909   3.203   2.959   8.805 -1.0819 -2.0959  0.2848
 8490SOL     OW26910   1.922   3.683   9.830 -0.0118  0.2254 -0.2327
 8490SOL    HW126911   1.904   3.768   9.870 -0.0622  0.5589 -0.9610
 8490SOL    HW226912   2.004   3.695   9.782 -0.4511  0.1090 -1.0366
 8491SOL     OW26913   3.803   1.889   9.480 -0.2089  0.2320  0.1920
 8491SOL    HW126914   3.860   1.890   9.557  0.4232  1.1934 -0.2722
 8491SOL    HW226915   3.718   1.860   9.514 -0.0594  1.0563  1.3415
 8492SOL     OW26916   3.088   3.188   7.137  0.3969 -0.2875 -0.2566
 8492SOL    HW126917   3.079   3.242   7.216 -3.1979 -1.2583  0.1793
 8492SOL    HW226918   3.094   3.251   7.066 -2.0492  0.8066  0.3923
 8493SOL     OW26919   4.534   3.300   8.301 -0.1710  0.3761  0.0972
 8493SOL    HW126920   4.446   3.338   8.296  0.7160  2.3860 -1.0640
 8493SOL    HW226921   4.550   3.289   8.395 -1.5002  0.3158  0.3316
 8494SOL     OW26922   1.983   2.926   6.561 -0.2199  0.3484 -0.1028
 8494SOL    HW126923   2.064   2.951   6.516 -0.4081  0.0852 -0.5885
 8494SOL    HW226924   2.006   2.930   6.654  0.0338  1.3595 -0.1924
 8495SOL     OW26925   1.369   3.084   7.900 -0.4541  0.4828  0.3171
 8495SOL    HW126926   1.331   3.050   7.982 -0.3819 -2.9737 -0.9053
 8495SOL    HW226927   1.454   3.118   7.926  1.0120 -3.4791  1.4423
 8496SOL     OW26928   2.811   1.621   7.869 -0.6430  0.3246  0.4039
 8496SOL    HW126929   2.905   1.618   7.886 -0.7076 -1.6187  0.5909
 8496SOL    HW226930   2.799   1.700   7.816  1.6069 -1.1213 -2.5525
 8497SOL     OW26931   3.059   2.213   6.497  0.1190  0.1659 -0.1982
 8497SOL    HW126932   3.106   2.215   6.580  0.6805 -2.2818 -0.3765
 8497SOL    HW226933   3.119   2.251   6.433  0.8079 -0.5056  0.0432
 8498SOL     OW26934   1.889   3.405   5.955 -0.1267 -0.4146 -0.0422
 8498SOL    HW126935   1.895   3.372   5.866  0.3141  0.7348 -0.4588
 8498SOL    HW226936   1.959   3.470   5.962 -0.8362  0.3036  0.7805
 8499SOL     OW26937   2.013   3.907   9.973 -0.4958 -0.1115 -0.4306
 8499SOL    HW126938   1.995   3.984   9.919 -1.8892  0.2281  0.4500
 8499SOL    HW226939   2.099   3.924  10.011 -0.8031  1.0470 -0.2029
 8500SOL     OW26940   3.636   2.959   8.094 -0.0444 -0.3133 -0.6945
 8500SOL    HW126941   3.573   3.024   8.063 -0.5938  0.2363  1.3945
 8500SOL    HW226942   3.712   2.970   8.037 -0.8299  0.8801 -1.5632
 8501SOL     OW26943   2.572   2.923   6.727  0.1601  0.4773 -0.0262
 8501SOL    HW126944   2.655   2.934   6.773  0.2847  0.8145 -0.3330
 8501SOL    HW226945   2.594   2.932   6.634 -0.0378 -0.4857 -0.1820
 8502SOL     OW26946   3.648   2.936   7.416 -0.0220  0.0851  0.2628
 8502SOL    HW126947   3.686   2.996   7.480 -0.1369  1.4037 -0.8481
 8502SOL    HW226948   3.697   2.953   7.335 -0.0308 -1.3742 -0.0750
 8503SOL     OW26949   3.830   2.728   7.883  0.1444 -0.3201  0.5623
 8503SOL    HW126950   3.857   2.753   7.795  0.9277  0.7950  1.0948
 8503SOL    HW226951   3.854   2.803   7.938  0.7589 -1.4652  1.9157
 8504SOL     OW26952   2.796   1.799   7.664 -0.0396  0.0968  0.4612
 8504SOL    HW126953   2.803   1.767   7.574  2.2479 -0.7977  0.8948
 8504SOL    HW226954   2.844   1.882   7.664 -0.2050  0.1946  0.8303
 8505SOL     OW26955   2.312   4.882   6.149 -0.2527  0.0299  0.0893
 8505SOL    HW126956   2.251   4.813   6.124 -0.2734  0.4423 -1.1023
 8505SOL    HW226957   2.259   4.962   6.150  0.3516  0.4942 -1.5847
 8506SOL     OW26958   4.117   2.512   6.379  0.7483 -0.1984  0.2294
 8506SOL    HW126959   4.046   2.521   6.441  1.8047 -2.3695  1.9045
 8506SOL    HW226960   4.156   2.599   6.373 -0.5920  0.4820  1.0540
 8507SOL     OW26961   2.826   4.312   6.602 -0.3913 -0.1259  0.2509
 8507SOL    HW126962   2.915   4.277   6.613  0.0389  0.5491 -0.9703
 8507SOL    HW226963   2.832   4.403   6.629 -0.0362  0.6952 -2.3626
 8508SOL     OW26964   1.554   2.537   7.688  0.3507  0.6395 -0.1917
 8508SOL    HW126965   1.524   2.591   7.761  0.9481  1.4736 -0.5499
 8508SOL    HW226966   1.602   2.465   7.730 -0.4565  0.3595  0.2848
 8509SOL     OW26967   3.453   2.890   9.953 -0.3848  0.2811 -0.1839
 8509SOL    HW126968   3.493   2.909  10.038  0.4574 -0.1323 -0.4777
 8509SOL    HW226969   3.483   2.801   9.932 -0.0068  0.6399 -1.2320
 8510SOL     OW26970   2.400   3.058   9.380  0.6503 -0.1803 -0.0081
 8510SOL    HW126971   2.364   3.002   9.449 -0.4655 -0.1298 -0.5375
 8510SOL    HW226972   2.478   3.097   9.420  0.3888 -0.6609  1.0024
 8511SOL     OW26973   2.690   3.866   8.806 -0.4626 -0.3203  0.6415
 8511SOL    HW126974   2.741   3.906   8.876  0.0529 -1.5703  1.0066
 8511SOL    HW226975   2.606   3.911   8.809  0.2139  0.9888  0.7632
 8512SOL     OW26976   3.350   2.680   8.639 -0.1196 -0.5364  0.1407
 8512SOL    HW126977   3.303   2.718   8.565  0.4249  2.3252  1.1503
 8512SOL    HW226978   3.432   2.648   8.602  0.2249  1.0310 -0.5064
 8513SOL     OW26979   4.506   3.013   8.328 -0.0760  0.2393 -0.3423
 8513SOL    HW126980   4.547   3.035   8.412 -0.1463 -0.8534 -0.0133
 8513SOL    HW226981   4.500   3.097   8.282  0.0830  0.8307  0.6882
 8514SOL     OW26982   3.072   1.865   9.117 -0.1386  0.1410  0.3223
 8514SOL    HW126983   3.021   1.788   9.143  1.3566 -0.3699  1.9201
 8514SOL    HW226984   3.022   1.939   9.152  0.0213 -0.3337  1.6258
 8515SOL     OW26985   3.353   2.449   9.721  0.9802  0.5078 -0.3269
 8515SOL    HW126986   3.280   2.499   9.685  0.8093  0.7899  0.3839
 8515SOL    HW226987   3.360   2.372   9.664  0.2012  0.5341 -0.4735
 8516SOL     OW26988   2.504   4.294   7.147  0.0804  0.0965  0.5332
 8516SOL    HW126989   2.515   4.386   7.168  0.3212 -0.0680  1.1518
 8516SOL    HW226990   2.593   4.262   7.131  0.1276 -0.3204  1.5998
 8517SOL     OW26991   2.328   1.732   9.667 -0.4503 -0.4405 -0.0606
 8517SOL    HW126992   2.376   1.649   9.669 -0.9977 -0.7537  0.1024
 8517SOL    HW226993   2.350   1.769   9.581  1.4594  0.2557  0.6717
 8518SOL     OW26994   1.898   2.422   9.187  0.6197  0.5240  0.1665
 8518SOL    HW126995   1.911   2.336   9.228 -2.2055 -0.4545 -0.7664
 8518SOL    HW226996   1.953   2.420   9.109 -0.3359 -1.0177 -0.5276
 8519SOL     OW26997   2.685   2.999  10.532 -0.0764  0.3553 -0.6414
 8519SOL    HW126998   2.623   3.073  10.533  0.0494  0.4624 -0.2439
 8519SOL    HW226999   2.636   2.926  10.495 -0.2406  0.6109 -0.9250
 8520SOL     OW27000   3.287   3.556   8.638 -0.4917 -0.5423  0.0767
 8520SOL    HW127001   3.232   3.537   8.562  0.3679  1.6574 -1.2178
 8520SOL    HW227002   3.374   3.571   8.601 -0.0123  0.3866  1.5070
 8521SOL     OW27003   1.874   2.904   7.455  0.0747  0.5467  0.2707
 8521SOL    HW127004   1.782   2.888   7.435 -0.2307  1.1630  1.1373
 8521SOL    HW227005   1.911   2.816   7.471  0.0224  0.1567 -1.5554
 8522SOL     OW27006   3.031   3.619   7.298 -0.0892  0.2117 -0.6564
 8522SOL    HW127007   2.961   3.638   7.360 -1.0476  2.1510 -2.2342
 8522SOL    HW227008   3.107   3.665   7.333 -0.4953  0.8881 -0.6473
 8523SOL     OW27009   2.093   3.446   8.154 -0.2576 -0.2555  0.4440
 8523SOL    HW127010   2.091   3.412   8.243 -0.1456 -0.2820  0.4371
 8523SOL    HW227011   2.082   3.541   8.164 -1.1329 -0.3483  0.4281
 8524SOL     OW27012   2.960   3.298   8.024 -0.0510  0.4256 -0.8408
 8524SOL    HW127013   3.052   3.274   8.031 -0.1247 -0.0187 -1.3134
 8524SOL    HW227014   2.958   3.371   7.962  0.0191  0.6638 -0.5624
 8525SOL     OW27015   0.800   2.260   8.768 -0.4186 -0.5208  0.2779
 8525SOL    HW127016   0.859   2.334   8.780  0.4695 -1.4854  2.6280
 8525SOL    HW227017   0.781   2.258   8.674  0.1765  2.1297  0.0242
 8526SOL     OW27018   0.214   4.197   8.638 -0.0467 -0.1024  0.1161
 8526SOL    HW127019   0.141   4.137   8.653 -0.0561 -0.1831 -0.2454
 8526SOL    HW227020   0.174   4.276   8.602  0.0683 -0.2504 -0.3480
 8527SOL     OW27021   3.908   2.864  10.798 -0.1082 -0.1599 -0.4200
 8527SOL    HW127022   3.948   2.930  10.741  0.0286  0.1121 -0.0099
 8527SOL    HW227023   3.894   2.909  10.881  2.8190 -1.4852  0.9053
 8528SOL     OW27024   3.168   2.996   8.964  0.0661 -0.4396  0.0107
 8528SOL    HW127025   3.147   3.089   8.971  0.9615 -0.0212 -2.0311
 8528SOL    HW227026   3.260   2.990   8.989  0.4929 -0.4645 -1.4584
 8529SOL     OW27027   2.043   2.164   7.892 -0.0922  0.0375 -0.5558
 8529SOL    HW127028   2.009   2.162   7.802  0.1679 -1.7439 -0.6397
 8529SOL    HW227029   2.138   2.169   7.882 -0.1323  2.8925 -0.3206
 8530SOL     OW27030   2.062   3.883   9.068 -0.7601  0.0872 -0.8447
 8530SOL    HW127031   2.020   3.957   9.023  0.7022  0.8837 -0.9472
 8530SOL    HW227032   2.007   3.867   9.144 -2.2008 -0.0239 -1.8705
 8531SOL     OW27033   5.926   1.232   9.212 -0.0078  0.0316 -0.5541
 8531SOL    HW127034   5.952   1.238   9.304 -1.3025 -0.7282 -0.1063
 8531SOL    HW227035   5.994   1.179   9.171  0.9020  0.8841 -0.1874
 8532SOL     OW27036   4.466   2.778   7.259 -0.1192 -0.0660 -0.5189
 8532SOL    HW127037   4.443   2.848   7.319 -0.8841 -0.6891 -0.0635
 8532SOL    HW227038   4.383   2.749   7.222  0.0657 -1.3748  0.0326
 8533SOL     OW27039   1.762   3.035   6.951  0.2562 -0.1453  0.1563
 8533SOL    HW127040   1.815   2.973   6.901  0.8254 -0.0517  0.6266
 8533SOL    HW227041   1.810   3.117   6.947 -0.4160  0.2359 -0.3280
 8534SOL     OW27042   1.524   3.605   8.789 -0.1290 -0.2973 -0.2148
 8534SOL    HW127043   1.522   3.510   8.792 -2.2308 -0.3267 -0.7611
 8534SOL    HW227044   1.575   3.625   8.710 -1.2690 -1.0622 -1.1955
 8535SOL     OW27045   3.763   3.153   9.180  0.2936 -0.0113 -0.1233
 8535SOL    HW127046   3.739   3.238   9.218 -1.2694 -0.5002  0.0823
 8535SOL    HW227047   3.711   3.147   9.100 -0.7814 -1.3753  0.6302
 8536SOL     OW27048   4.826   2.653   9.261  0.3439  0.1207 -0.2708
 8536SOL    HW127049   4.862   2.681   9.345  1.3189  1.9253 -1.2087
 8536SOL    HW227050   4.868   2.711   9.197 -1.6594 -0.0180 -1.8217
 8537SOL     OW27051   1.993   5.186   7.284 -0.1320 -0.4593 -0.3278
 8537SOL    HW127052   1.989   5.281   7.290  1.1244 -0.4043 -0.2462
 8537SOL    HW227053   2.034   5.168   7.200  0.9659 -0.8854  0.2777
 8538SOL     OW27054   4.460   2.046   6.984  0.3178  0.6324  0.4998
 8538SOL    HW127055   4.390   2.026   7.046  0.5848  0.6836  0.8206
 8538SOL    HW227056   4.421   2.108   6.923  0.1774  0.9114  0.8694
 8539SOL     OW27057   2.461   2.601   8.928  0.0535  0.0951  0.0151
 8539SOL    HW127058   2.428   2.613   9.018 -1.5750 -0.7996 -0.4324
 8539SOL    HW227059   2.454   2.688   8.889  0.9796  0.5454  0.7911
 8540SOL     OW27060   2.386   3.616   9.653  0.1319  0.2432 -0.4590
 8540SOL    HW127061   2.397   3.585   9.743 -0.3572 -0.9676 -0.7990
 8540SOL    HW227062   2.400   3.539   9.599 -1.8459  0.4095 -1.2979
 8541SOL     OW27063   2.757   2.436  10.771  0.0040 -0.9444 -0.2229
 8541SOL    HW127064   2.763   2.406  10.861  1.1253 -1.6925 -0.5219
 8541SOL    HW227065   2.814   2.513  10.768 -1.2170 -0.0005  0.0440
 8542SOL     OW27066   3.732   2.294   6.221  0.1702  0.2299  0.0112
 8542SOL    HW127067   3.684   2.363   6.174 -0.1796 -0.9464 -1.4403
 8542SOL    HW227068   3.663   2.238   6.256  0.4512  0.6803  1.3219
 8543SOL     OW27069   3.569   4.237   7.050 -0.4525  0.2198  0.1044
 8543SOL    HW127070   3.514   4.172   7.008 -0.5106 -0.2733  0.9102
 8543SOL    HW227071   3.509   4.306   7.077 -0.5946 -0.0193  0.4154
 8544SOL     OW27072   2.873   4.075   7.519 -0.2480  0.3301 -0.2734
 8544SOL    HW127073   2.922   3.994   7.511 -0.0560  0.6259 -2.8144
 8544SOL    HW227074   2.938   4.142   7.538 -0.3134  0.0331  1.0722
 8545SOL     OW27075   2.764   4.860   9.357  0.1349 -0.1229  0.4656
 8545SOL    HW127076   2.833   4.798   9.382  0.3929 -0.2948 -0.6002
 8545SOL    HW227077   2.780   4.877   9.264 -0.1200  1.3078  0.6574
 8546SOL     OW27078   1.980   1.896   7.236 -0.0467 -0.2343 -0.2355
 8546SOL    HW127079   2.000   1.935   7.151 -1.2318 -0.8838 -0.8366
 8546SOL    HW227080   2.057   1.844   7.258  0.6241  0.6274 -0.4836
 8547SOL     OW27081   2.170   2.873   7.962  0.0694  0.2367  1.0787
 8547SOL    HW127082   2.242   2.932   7.938 -0.1017  0.3270  0.7793
 8547SOL    HW227083   2.092   2.914   7.925 -0.0303 -0.2466  0.7340
 8548SOL     OW27084   4.185   2.612   7.675  0.2062  0.0841 -0.2821
 8548SOL    HW127085   4.240   2.645   7.604 -0.7710  0.1815 -1.0220
 8548SOL    HW227086   4.162   2.690   7.726  0.0532  0.1669 -0.4770
 8549SOL     OW27087   1.002   4.790   7.155  0.1765 -0.9076  0.2260
 8549SOL    HW127088   1.018   4.858   7.220 -0.5556  0.1404 -0.6467
 8549SOL    HW227089   1.084   4.782   7.107 -0.6420  1.8448 -1.8787
 8550SOL     OW27090   0.458   4.178   7.524 -0.1291  0.7609  0.7628
 8550SOL    HW127091   0.525   4.218   7.470 -0.0383 -2.8320 -2.1451
 8550SOL    HW227092   0.375   4.199   7.481 -0.0859 -1.8026 -0.7696
 8551SOL     OW27093   1.273   4.354   7.885 -0.2055 -0.2832  0.2018
 8551SOL    HW127094   1.292   4.270   7.926  0.9498 -0.5265 -0.7844
 8551SOL    HW227095   1.181   4.370   7.905  0.1838 -0.5680  2.5360
 8552SOL     OW27096   2.620   2.754   8.317  0.5169 -0.4587 -0.0987
 8552SOL    HW127097   2.679   2.829   8.317  0.7874 -0.6424 -1.5300
 8552SOL    HW227098   2.662   2.690   8.374  2.0685 -0.8341 -1.5936
 8553SOL     OW27099   1.796   2.751  10.721  0.1499  0.6514 -0.1980
 8553SOL    HW127100   1.888   2.775  10.722 -0.0424  1.4378  0.1086
 8553SOL    HW227101   1.795   2.656  10.710  1.0340  0.4385  1.2431
 8554SOL     OW27102   1.985   3.670   7.414  0.2775 -0.7042  0.7071
 8554SOL    HW127103   2.076   3.671   7.384  0.2686  0.5957  0.6666
 8554SOL    HW227104   1.991   3.684   7.509  0.0975  0.5233  0.5582
 8555SOL     OW27105   2.649   4.070   7.381  0.3077 -0.0923  0.5735
 8555SOL    HW127106   2.724   4.047   7.435  0.6922  1.9290  0.9675
 8555SOL    HW227107   2.678   4.052   7.291 -0.1074 -2.8290  0.9005
 8556SOL     OW27108   3.318   2.880   6.712 -0.2872 -0.1670 -0.0817
 8556SOL    HW127109   3.382   2.853   6.647  1.4731  0.6961  1.1920
 8556SOL    HW227110   3.354   2.849   6.795 -2.4020 -1.1407  0.5363
 8557SOL     OW27111   4.340   1.164   8.261 -0.0798  0.5115  0.5515
 8557SOL    HW127112   4.245   1.163   8.248  0.1220 -1.7684 -1.4866
 8557SOL    HW227113   4.362   1.075   8.289  1.4741  0.9121  0.7164
 8558SOL     OW27114   0.817   4.147   9.776 -0.3248 -0.0867 -0.1609
 8558SOL    HW127115   0.748   4.088   9.746 -0.3217  1.2346 -3.1741
 8558SOL    HW227116   0.898   4.107   9.744 -0.2949  1.2503 -1.9162
 8559SOL     OW27117   2.171   1.684  10.267 -0.1501  0.1261  0.3113
 8559SOL    HW127118   2.209   1.600  10.292 -2.5332 -1.2475 -0.3325
 8559SOL    HW227119   2.080   1.678  10.297 -1.1755  1.2663 -2.2879
 8560SOL     OW27120   1.010   4.431   8.068  0.6110 -0.3130  0.0361
 8560SOL    HW127121   1.014   4.437   8.164 -0.1386 -3.1934  0.3691
 8560SOL    HW227122   0.952   4.356   8.053  2.6252 -1.4652 -2.6251
 8561SOL     OW27123   1.052   2.849   7.805 -0.4922  0.1192  0.0023
 8561SOL    HW127124   1.078   2.883   7.720 -0.7119  0.4093  0.0507
 8561SOL    HW227125   1.113   2.777   7.822 -1.1855 -0.7207 -0.9444
 8562SOL     OW27126   2.070   3.584   6.959 -0.2009  0.1190  0.5998
 8562SOL    HW127127   2.130   3.550   7.026  1.7536  0.8860 -0.6586
 8562SOL    HW227128   2.032   3.662   7.000 -0.7617 -0.6575  1.6100
 8563SOL     OW27129   1.914   2.301   5.868  0.3647 -0.0440 -0.1297
 8563SOL    HW127130   1.910   2.394   5.886 -0.4064 -0.0720 -0.0952
 8563SOL    HW227131   1.878   2.292   5.779 -1.7978 -0.5144  0.7209
 8564SOL     OW27132   2.533   3.143   8.464 -0.1996 -0.5493  0.5591
 8564SOL    HW127133   2.594   3.101   8.404 -1.2913 -1.2376 -0.0904
 8564SOL    HW227134   2.503   3.221   8.418 -2.1913 -1.8629 -0.4853
 8565SOL     OW27135   2.942   4.262   8.883 -0.5336  0.1262  0.2523
 8565SOL    HW127136   2.869   4.211   8.918  1.3099 -2.0697  1.1717
 8565SOL    HW227137   3.005   4.196   8.852  0.3979  1.9267 -2.0022
 8566SOL     OW27138   0.772   3.604   8.801  0.1496  0.0953  0.5117
 8566SOL    HW127139   0.868   3.607   8.811  0.2264 -2.3176  1.1977
 8566SOL    HW227140   0.756   3.629   8.710  1.5790 -0.9444 -0.0628
 8567SOL     OW27141   2.899   3.750   9.027  0.0297  0.2922 -0.2219
 8567SOL    HW127142   2.893   3.668   9.076 -0.2847  0.8124  0.6389
 8567SOL    HW227143   2.889   3.818   9.094  2.5252  1.0880 -0.5706
 8568SOL     OW27144   4.064   2.094   7.658 -0.1959  0.3744 -0.5360
 8568SOL    HW127145   4.007   2.157   7.614 -1.3635 -1.8525 -2.4002
 8568SOL    HW227146   4.030   2.008   7.634  2.6677 -1.0627  0.0131
 8569SOL     OW27147   4.193   2.759   7.264 -0.3057 -0.1509 -0.5646
 8569SOL    HW127148   4.197   2.710   7.345 -0.4878 -0.8868 -0.9931
 8569SOL    HW227149   4.156   2.844   7.289  0.3748 -0.0785  0.2400
 8570SOL     OW27150   0.587   5.711  11.480 -0.1310 -0.4392 -0.3936
 8570SOL    HW127151   0.664   5.733  11.428 -0.3990  2.5932  0.2972
 8570SOL    HW227152   0.621   5.659  11.553  1.2614  0.7554 -0.1514
 8571SOL     OW27153   1.656   4.476   8.003 -0.7989  0.2198 -0.1974
 8571SOL    HW127154   1.597   4.414   8.046 -0.0689 -0.2612  0.1433
 8571SOL    HW227155   1.739   4.468   8.051 -0.6076  1.2695 -0.3220
 8572SOL     OW27156   2.669   2.755   7.494 -0.5120  0.8212  0.1534
 8572SOL    HW127157   2.639   2.666   7.511  3.2038 -0.5682  0.4702
 8572SOL    HW227158   2.638   2.774   7.405 -1.7267 -0.5860  0.2393
 8573SOL     OW27159   2.543   2.244   5.902 -0.0843  0.7909 -0.2631
 8573SOL    HW127160   2.529   2.275   5.992  0.8023 -0.6674  0.4074
 8573SOL    HW227161   2.562   2.151   5.912 -3.7010 -0.3491 -2.2568
 8574SOL     OW27162   2.622   1.259   9.109  0.2939  0.6199 -0.5458
 8574SOL    HW127163   2.618   1.273   9.204  0.4466  0.9217 -0.5836
 8574SOL    HW227164   2.537   1.221   9.087  1.2585 -2.2475  0.1654
 8575SOL     OW27165   1.524   7.830   9.093  0.5854  0.1061 -0.1089
 8575SOL    HW127166   1.451   7.768   9.088  1.5234 -1.1703  1.2057
 8575SOL    HW227167   1.539   7.856   9.003 -0.5768 -0.6943 -0.5668
 8576SOL     OW27168   3.909   3.217   8.099  0.6215  0.3005  0.0255
 8576SOL    HW127169   3.928   3.203   8.191 -1.6143 -0.2270  0.4813
 8576SOL    HW227170   3.819   3.251   8.098  0.3493 -0.3210 -1.9776
 8577SOL     OW27171   3.537   2.185   7.919  0.3042  0.0320 -0.1976
 8577SOL    HW127172   3.582   2.217   7.841  1.1082  2.6196  1.2174
 8577SOL    HW227173   3.449   2.222   7.914  0.1910 -0.2288 -0.1373
 8578SOL     OW27174   3.374   3.411   7.748  0.4845 -0.3973  0.1381
 8578SOL    HW127175   3.331   3.493   7.775 -1.3152 -1.7145  1.4956
 8578SOL    HW227176   3.458   3.411   7.794 -1.2500 -1.1957  3.6041
 8579SOL     OW27177   4.055   3.921   7.056  0.5746 -0.1630 -0.1231
 8579SOL    HW127178   4.079   3.909   6.964  1.2670 -3.6313  0.3800
 8579SOL    HW227179   4.138   3.937   7.101  0.1697  2.2587 -0.0778
 8580SOL     OW27180   0.962   1.767   7.406  0.5102  0.2016 -0.4341
 8580SOL    HW127181   0.912   1.803   7.480  0.6184  1.1714 -0.8200
 8580SOL    HW227182   0.951   1.672   7.414  0.5707  0.2843  0.8575
 8581SOL     OW27183   3.093   3.824   8.854 -0.5333  0.3722 -0.1628
 8581SOL    HW127184   3.140   3.744   8.877 -0.0069  0.8869  0.6003
 8581SOL    HW227185   3.009   3.816   8.900 -0.9860 -0.2847 -1.0686
 8582SOL     OW27186   2.901   2.701   8.124  0.4087  0.8943  0.2787
 8582SOL    HW127187   2.996   2.686   8.126  0.2335 -0.3956  0.3617
 8582SOL    HW227188   2.891   2.788   8.087  1.6111  0.8049 -0.3242
 8583SOL     OW27189   4.665   1.989   8.132 -0.2857 -0.2269 -0.6663
 8583SOL    HW127190   4.599   2.052   8.161 -1.0700 -0.6430 -1.4601
 8583SOL    HW227191   4.631   1.904   8.161 -0.1487 -0.4546 -1.1474
 8584SOL     OW27192   4.345   2.359   6.621 -0.3388 -0.6246  0.2559
 8584SOL    HW127193   4.403   2.338   6.547 -0.3454 -0.9005  0.3278
 8584SOL    HW227194   4.263   2.386   6.580  0.1785  0.8502  0.1222
 8585SOL     OW27195   4.161   2.121   7.928 -0.4999 -0.7886  0.0020
 8585SOL    HW127196   4.100   2.106   8.001 -2.0052 -1.2588 -1.2894
 8585SOL    HW227197   4.112   2.093   7.851  0.9991 -0.1586 -1.2133
 8586SOL     OW27198   1.121   4.334   7.518 -0.5817  0.1357 -0.1224
 8586SOL    HW127199   1.102   4.422   7.487  0.1673 -0.0545 -1.1830
 8586SOL    HW227200   1.090   4.276   7.449  0.0830 -0.3648 -0.0216
 8587SOL     OW27201   1.316   2.283   8.405  0.1711  0.0753 -0.4319
 8587SOL    HW127202   1.364   2.366   8.407 -1.6633  1.1698  1.9504
 8587SOL    HW227203   1.306   2.264   8.311  3.5600  0.6993 -1.0535
 8588SOL     OW27204   1.955   2.844   7.817  0.0612 -0.1600 -0.4699
 8588SOL    HW127205   1.978   2.756   7.790  0.7702  0.3895 -1.7213
 8588SOL    HW227206   1.864   2.855   7.790 -0.6461 -1.1267  1.3691
 8589SOL     OW27207   2.313   2.186   6.502 -0.0355 -0.1759  0.0531
 8589SOL    HW127208   2.372   2.256   6.530 -0.5893  0.0996  0.5428
 8589SOL    HW227209   2.325   2.118   6.569 -1.1182  0.3505  0.8053
 8590SOL     OW27210   4.826   1.827   9.072  0.6093 -0.0377  0.2086
 8590SOL    HW127211   4.796   1.809   8.983 -0.9551  1.1478  0.4563
 8590SOL    HW227212   4.875   1.909   9.065  3.2134 -1.4895 -0.0277
 8591SOL     OW27213   2.874   1.844   5.432 -0.1094  0.4221 -0.0890
 8591SOL    HW127214   2.919   1.861   5.349 -1.4246 -0.1306 -0.9430
 8591SOL    HW227215   2.805   1.910   5.435 -1.0455 -0.5274 -0.2037
 8592SOL     OW27216   3.826   3.872   7.618 -0.6341 -1.0545 -0.2683
 8592SOL    HW127217   3.851   3.901   7.530  2.1686  0.4918  0.9078
 8592SOL    HW227218   3.812   3.953   7.667 -2.2154 -1.8907  0.7502
 8593SOL     OW27219   0.712   3.143   8.080  0.5726  0.0848  0.1461
 8593SOL    HW127220   0.752   3.076   8.024 -0.5318 -0.9843  0.5885
 8593SOL    HW227221   0.725   3.111   8.169  0.9750  1.0188  0.4362
 8594SOL     OW27222   2.483   2.075   7.578 -0.2999  0.2826 -0.7501
 8594SOL    HW127223   2.510   2.024   7.654 -1.3644 -0.9655 -1.1783
 8594SOL    HW227224   2.552   2.060   7.513  0.0170  0.3988 -0.4412
 8595SOL     OW27225   7.351   3.625   9.623  0.2944 -0.3936 -0.7901
 8595SOL    HW127226   7.348   3.707   9.575  2.3169 -0.1729 -0.6182
 8595SOL    HW227227   7.266   3.620   9.668  0.4092  1.9742 -0.1818
 8596SOL     OW27228   2.027   3.006   9.755 -0.4233 -0.1354  0.4255
 8596SOL    HW127229   1.961   3.076   9.747  0.2689  0.3873 -1.1373
 8596SOL    HW227230   2.102   3.039   9.705  0.6214 -1.1970  1.2596
 8597SOL     OW27231   3.290   3.075   8.303  0.5612 -0.1393 -0.1674
 8597SOL    HW127232   3.233   3.092   8.228  0.3369  0.7939  0.2026
 8597SOL    HW227233   3.377   3.100   8.272  0.4697  0.2430 -0.1175
 8598SOL     OW27234   3.031   3.345   7.388 -0.5688 -0.2273  0.2932
 8598SOL    HW127235   3.068   3.372   7.473  0.1294 -1.2038  0.3204
 8598SOL    HW227236   3.034   3.424   7.335 -1.5580  0.5589  1.3427
 8599SOL     OW27237   0.811   2.151   7.319  0.0836 -0.0898 -0.2659
 8599SOL    HW127238   0.863   2.174   7.242  1.1902  0.3973  0.6009
 8599SOL    HW227239   0.735   2.105   7.283 -0.5576  2.0077 -1.8298
 8600SOL     OW27240   5.742   3.308  10.009  0.1956  0.3254  0.4599
 8600SOL    HW127241   5.665   3.254   9.987  0.2963  1.1463 -2.2373
 8600SOL    HW227242   5.806   3.245  10.043 -0.1813 -1.0974 -1.2890
 8601SOL     OW27243   3.703   2.169   8.183 -0.0079 -0.2352 -0.3965
 8601SOL    HW127244   3.701   2.260   8.154  0.5586 -0.3111 -0.7083
 8601SOL    HW227245   3.680   2.118   8.105 -0.8382 -0.3417 -0.0912
 8602SOL     OW27246   3.239   3.655   7.537 -0.3837 -0.1682  0.0952
 8602SOL    HW127247   3.312   3.690   7.485  0.0681 -0.2923  0.6245
 8602SOL    HW227248   3.277   3.642   7.625 -0.6710 -1.5120  0.0474
 8603SOL     OW27249   2.061   5.155   7.559  0.2085  0.2232 -0.5542
 8603SOL    HW127250   2.084   5.068   7.524 -1.0095 -0.0935 -0.5977
 8603SOL    HW227251   2.029   5.204   7.484  0.8745  0.7229 -0.5236
 8604SOL     OW27252   3.678   3.184   8.917 -0.0003  0.2134 -0.3833
 8604SOL    HW127253   3.683   3.098   8.874 -0.2718  0.3555 -0.7024
 8604SOL    HW227254   3.733   3.240   8.862  1.1419 -0.0237  0.4879
 8605SOL     OW27255   1.471   3.445   8.080 -0.1632 -0.1381  0.7624
 8605SOL    HW127256   1.469   3.435   7.985 -0.3336 -2.8954  0.9696
 8605SOL    HW227257   1.564   3.456   8.101 -0.0983  0.1887  0.3123
 8606SOL     OW27258   1.127   2.262   7.892 -0.7079  0.2227 -0.1985
 8606SOL    HW127259   1.218   2.261   7.920 -1.1063  0.0997  1.1448
 8606SOL    HW227260   1.129   2.227   7.803  0.3460 -1.5987  0.4901
 8607SOL     OW27261   1.833   4.676   9.068 -1.0444  0.6525 -0.2336
 8607SOL    HW127262   1.823   4.766   9.039  0.0043  1.0941  0.7372
 8607SOL    HW227263   1.882   4.633   8.998 -0.1221  1.2490  0.0424
 8608SOL     OW27264   2.913   3.300   8.552 -0.0242 -0.2135  0.1242
 8608SOL    HW127265   2.940   3.346   8.632  0.1653  1.7039 -0.9855
 8608SOL    HW227266   2.978   3.230   8.543  0.8333  0.4437  0.8806
 8609SOL     OW27267   1.911   1.162   8.585  0.0663 -0.2814  0.4250
 8609SOL    HW127268   1.898   1.243   8.535 -0.9405 -0.8603 -0.2675
 8609SOL    HW227269   1.902   1.092   8.520  2.6470 -0.9264  0.6667
 8610SOL     OW27270   1.643   3.465   9.443  0.4429 -0.0030  0.2919
 8610SOL    HW127271   1.731   3.488   9.471  0.2451  0.2574  0.7118
 8610SOL    HW227272   1.585   3.511   9.504 -0.0241  1.2181 -1.0188
 8611SOL     OW27273   1.510   1.706   7.139 -0.6712  0.1519 -0.0334
 8611SOL    HW127274   1.452   1.633   7.116 -0.2357 -0.5485  1.0000
 8611SOL    HW227275   1.455   1.764   7.191 -0.5234 -0.4249  0.7966
 8612SOL     OW27276   1.162   3.186   9.297 -0.7081 -0.6068 -0.3383
 8612SOL    HW127277   1.083   3.213   9.250 -0.7540 -1.7258 -0.9537
 8612SOL    HW227278   1.188   3.104   9.254  1.8248  0.6337 -1.3557
 8613SOL     OW27279   2.924   3.340   6.851 -0.5606  0.4056 -0.2803
 8613SOL    HW127280   3.012   3.316   6.821  0.4267  3.4471 -0.1507
 8613SOL    HW227281   2.939   3.408   6.916 -3.0439  0.6406  0.1463
 8614SOL     OW27282   4.760   1.021   9.119  0.2315  0.3316 -0.4316
 8614SOL    HW127283   4.699   1.068   9.176 -0.3115 -0.8140 -0.0407
 8614SOL    HW227284   4.704   0.976   9.055  0.7658  0.5979 -1.1004
 8615SOL     OW27285   1.593   4.166   7.536 -0.1348 -0.4068 -0.5475
 8615SOL    HW127286   1.624   4.212   7.614 -1.6368 -1.0129  0.4471
 8615SOL    HW227287   1.668   4.168   7.477 -0.1636  3.6321 -0.7646
 8616SOL     OW27288   2.823   4.677   7.864  0.1709 -0.3595 -0.4594
 8616SOL    HW127289   2.863   4.748   7.914  1.4191 -2.0489  1.1339
 8616SOL    HW227290   2.831   4.703   7.773 -1.1071  2.3376  0.1276
 8617SOL     OW27291   2.762   2.930   4.452  0.2533  0.3905  0.1721
 8617SOL    HW127292   2.815   2.915   4.373 -0.0867  1.1961 -0.2188
 8617SOL    HW227293   2.819   2.904   4.524  0.1597 -1.5027 -0.3837
 8618SOL     OW27294   2.864   2.350   5.985  0.0506  0.0458 -0.8940
 8618SOL    HW127295   2.833   2.262   6.002 -1.7130  1.1389  2.6139
 8618SOL    HW227296   2.788   2.397   5.952 -0.4546  1.2355  1.6785
 8619SOL     OW27297   2.565   3.674   8.408 -0.0077 -0.1102  0.4745
 8619SOL    HW127298   2.650   3.714   8.389  0.4091 -1.0845  0.2244
 8619SOL    HW227299   2.510   3.700   8.334  0.5446 -0.7995 -0.2004
 8620SOL     OW27300   1.158   2.043   8.479  0.5211  0.0075 -0.0747
 8620SOL    HW127301   1.208   1.962   8.464  1.0006  0.1404  0.7620
 8620SOL    HW227302   1.225   2.108   8.502  0.0964  0.5559 -0.3723
 8621SOL     OW27303   2.890   3.461   7.801 -0.1116  0.1282  0.3980
 8621SOL    HW127304   2.922   3.550   7.817 -0.2094  0.2376  0.0054
 8621SOL    HW227305   2.834   3.470   7.723  0.3370 -0.3770  0.0170
 8622SOL     OW27306   2.137   4.431   8.040  0.1225 -0.0116 -0.5590
 8622SOL    HW127307   2.190   4.508   8.021  1.7903 -0.6926  1.0557
 8622SOL    HW227308   2.167   4.401   8.126 -2.4095 -0.8769  0.1043
 8623SOL     OW27309   2.040   2.012  12.139  0.1994  0.9563  0.0875
 8623SOL    HW127310   2.026   1.967  12.056  2.0338  0.7883 -0.1763
 8623SOL    HW227311   2.056   2.104  12.114  0.6276  0.9295  0.2429
 8624SOL     OW27312   3.552   1.777   9.624 -0.2728 -0.1301 -0.0166
 8624SOL    HW127313   3.597   1.722   9.688 -0.5280  0.2565  0.5063
 8624SOL    HW227314   3.468   1.799   9.666  0.0302  1.0692  0.0114
 8625SOL     OW27315   3.692   2.945   8.778  0.1628  0.2597 -0.4721
 8625SOL    HW127316   3.617   2.896   8.813  1.1275  0.2932  1.8468
 8625SOL    HW227317   3.736   2.884   8.719  2.0606 -2.3623  3.2548
 8626SOL     OW27318   1.294   2.955   9.964  0.9749  0.2594  0.6348
 8626SOL    HW127319   1.299   3.040   9.921  0.5179 -1.6166 -3.6991
 8626SOL    HW227320   1.380   2.916   9.951  0.2904 -1.0497 -0.2644
 8627SOL     OW27321   4.136   3.301   7.942  0.1067  0.3583 -0.5401
 8627SOL    HW127322   4.149   3.386   7.899 -0.2275  0.6694 -0.0475
 8627SOL    HW227323   4.065   3.317   8.005  2.0772  0.5662  1.7965
 8628SOL     OW27324   3.579   4.731   9.760  0.7454 -0.0604 -0.2781
 8628SOL    HW127325   3.558   4.641   9.783 -1.2157  0.0343 -1.4926
 8628SOL    HW227326   3.601   4.728   9.667  1.7238  0.5773 -0.0863
 8629SOL     OW27327   0.916   2.416   0.092  0.1098  0.0070  0.4936
 8629SOL    HW127328   0.910   2.482   0.160  0.5186  0.7408 -0.1711
 8629SOL    HW227329   1.009   2.410   0.072  0.0247 -0.4274  0.2148
 8630SOL     OW27330   2.289   1.454  10.361  0.3039 -0.0339 -0.0954
 8630SOL    HW127331   2.381   1.426  10.365  0.5783  0.7597 -0.5506
 8630SOL    HW227332   2.239   1.372  10.356  0.9554 -0.4905  0.6056
 8631SOL     OW27333   2.858   2.850  10.159 -0.1378 -0.1315 -0.3175
 8631SOL    HW127334   2.794   2.918  10.182  0.5882 -0.0197  1.5526
 8631SOL    HW227335   2.942   2.894  10.160  0.1581 -0.6671 -0.9654
 8632SOL     OW27336   2.002   3.408  10.698 -0.2959  0.1595  0.2285
 8632SOL    HW127337   2.061   3.447  10.762 -0.6595  0.1688  0.5627
 8632SOL    HW227338   2.060   3.361  10.637  0.0727  0.4187  0.3750
 8633SOL     OW27339   4.277   2.849  10.205  0.2392 -0.1499  0.2845
 8633SOL    HW127340   4.359   2.802  10.190  0.3738  0.0209  0.4687
 8633SOL    HW227341   4.215   2.811  10.143  0.4813 -0.2269  0.0889
 8634SOL     OW27342   1.020   2.008  10.705 -0.1292 -0.3101  0.1117
 8634SOL    HW127343   1.026   2.071  10.633 -0.9156 -1.7398 -1.2596
 8634SOL    HW227344   0.944   1.954  10.684 -0.5518 -0.6061  2.1741
 8635SOL     OW27345   2.637   0.894  10.228  0.4676 -0.2613  0.1468
 8635SOL    HW127346   2.689   0.840  10.169  0.8272 -1.0179  1.1157
 8635SOL    HW227347   2.587   0.831  10.280 -1.7482  0.4447 -1.0047
 8636SOL     OW27348   2.673   4.424  11.218  0.1857  0.0000 -0.3439
 8636SOL    HW127349   2.717   4.509  11.225  1.0392 -0.3909 -0.8448
 8636SOL    HW227350   2.580   4.446  11.216  0.4209  1.0930 -2.5720
 8637SOL     OW27351   3.313   3.249   0.622  0.0683 -0.5678  0.5652
 8637SOL    HW127352   3.278   3.312   0.559 -1.9852  0.8720  2.9751
 8637SOL    HW227353   3.243   3.183   0.631  0.2023 -0.5908  1.5308
 8638SOL     OW27354   0.963   4.338   9.623  0.1038  0.5631 -0.0168
 8638SOL    HW127355   1.048   4.325   9.666  0.1616 -0.9913 -0.5471
 8638SOL    HW227356   0.900   4.303   9.685  0.0124  0.1102 -0.3635
 8639SOL     OW27357   2.137   4.948  10.171 -0.0345  0.0535  0.2892
 8639SOL    HW127358   2.186   4.871  10.142 -0.1242  0.2654 -0.4375
 8639SOL    HW227359   2.047   4.933  10.141 -0.7842 -0.9445  2.7105
 8640SOL     OW27360   1.518   3.365  10.793  0.1550 -0.7108 -0.1920
 8640SOL    HW127361   1.524   3.323  10.707 -1.5665 -0.9544 -0.2404
 8640SOL    HW227362   1.451   3.433  10.782 -0.8907 -1.4615  1.2094
 8641SOL     OW27363   2.247   2.377   7.843  0.2310 -0.4072  0.5216
 8641SOL    HW127364   2.193   2.446   7.882 -0.7974 -0.2149 -1.1399
 8641SOL    HW227365   2.337   2.400   7.869 -0.1440  1.2631  0.4735
 8642SOL     OW27366   4.006   2.010   9.159 -0.1164  0.6816 -0.0966
 8642SOL    HW127367   4.074   1.975   9.101 -1.1174 -0.4923 -0.5909
 8642SOL    HW227368   3.925   2.001   9.109 -0.7316  1.4579  0.7421
 8643SOL     OW27369   0.880   3.433  11.135  0.5695  0.0870  0.1719
 8643SOL    HW127370   0.952   3.411  11.075 -0.3777 -0.1932 -0.8960
 8643SOL    HW227371   0.801   3.412  11.086 -0.2498 -2.1944  2.2784
 8644SOL     OW27372   3.026   3.141  10.973 -0.3947 -0.2249  0.0562
 8644SOL    HW127373   2.941   3.176  10.947 -0.2634 -0.8783 -1.3815
 8644SOL    HW227374   3.084   3.162  10.899  1.3088  2.2301  1.9331
 8645SOL     OW27375   3.418   3.207  10.155 -0.0980  0.1445  0.1525
 8645SOL    HW127376   3.499   3.257  10.167 -0.2879  0.4922 -0.0009
 8645SOL    HW227377   3.393   3.225  10.064 -0.8981  0.8580  0.5034
 8646SOL     OW27378   2.112   2.593   7.959  0.3123 -0.3522  0.4749
 8646SOL    HW127379   2.146   2.683   7.955  0.8705 -0.6061 -0.7265
 8646SOL    HW227380   2.027   2.602   8.003 -0.6120  1.0743 -1.4632
 8647SOL     OW27381   2.234   0.782  11.251  0.4727 -0.3520 -0.2078
 8647SOL    HW127382   2.281   0.700  11.270  0.6795 -0.3322 -0.6221
 8647SOL    HW227383   2.260   0.841  11.321  2.3641  0.1810 -1.3024
 8648SOL     OW27384   2.557   4.024   9.716 -0.4225 -0.4097 -0.4779
 8648SOL    HW127385   2.538   3.959   9.649 -0.6434 -0.9578  0.1074
 8648SOL    HW227386   2.631   3.987   9.765  0.0109  0.1767 -0.6769
 8649SOL     OW27387   2.430   4.936   9.308  0.4165  0.3137  0.1901
 8649SOL    HW127388   2.335   4.925   9.301  0.3304  0.8666  0.5040
 8649SOL    HW227389   2.463   4.848   9.326  0.1648 -0.2880 -1.9769
 8650SOL     OW27390   0.190   3.787  10.445 -0.0776  0.1134 -0.4550
 8650SOL    HW127391   0.180   3.881  10.452  1.3885  0.2610  0.0618
 8650SOL    HW227392   0.108   3.750  10.478  0.0374  1.1727  1.0919
 8651SOL     OW27393   1.719   4.028   9.953 -0.3771  1.0129 -0.3439
 8651SOL    HW127394   1.658   4.020   9.880  0.2322 -1.3436 -0.6923
 8651SOL    HW227395   1.781   4.095   9.926  0.8133 -0.9299 -2.8111
 8652SOL     OW27396   2.255   2.681   9.752  0.0226 -0.3874  0.4806
 8652SOL    HW127397   2.222   2.599   9.714 -1.1434  0.7682 -1.1018
 8652SOL    HW227398   2.241   2.670   9.846 -0.8078 -1.7165  0.2422
 8653SOL     OW27399   3.046   4.231   9.809 -0.3020  0.0983 -0.1847
 8653SOL    HW127400   3.056   4.140   9.837 -0.9290 -0.0930 -0.5746
 8653SOL    HW227401   3.135   4.267   9.810 -0.1594 -0.2604  0.8411
 8654SOL     OW27402   0.796   2.774  10.452  0.0587 -0.2757 -0.2123
 8654SOL    HW127403   0.818   2.701  10.509  0.7129  0.5959  0.6880
 8654SOL    HW227404   0.845   2.757  10.371 -0.3693 -1.1879 -0.2860
 8655SOL     OW27405   2.294   3.311   9.605  0.4886 -0.3319  0.4206
 8655SOL    HW127406   2.290   3.323   9.510 -0.6227 -0.0007  0.4884
 8655SOL    HW227407   2.387   3.301   9.624  0.6906 -1.0678 -0.7793
 8656SOL     OW27408   2.102   2.543   9.323 -0.5068  0.3283  0.2597
 8656SOL    HW127409   2.018   2.508   9.294 -0.4094 -1.4718  1.8798
 8656SOL    HW227410   2.152   2.465   9.349  0.5278  1.5420  2.1278
 8657SOL     OW27411   2.797   2.584   8.423  0.4925  0.1197  0.4116
 8657SOL    HW127412   2.860   2.585   8.350  0.3831 -3.4277  0.0972
 8657SOL    HW227413   2.845   2.547   8.496 -0.6685 -0.8008  0.7403
 8658SOL     OW27414   3.320   4.358  10.416 -0.1866 -0.1702  0.2515
 8658SOL    HW127415   3.242   4.315  10.380 -0.5527  0.3306  0.4436
 8658SOL    HW227416   3.357   4.407  10.342 -0.2219 -0.1640  0.2380
 8659SOL     OW27417   3.618   1.567  12.242 -0.3624 -0.5350  0.3813
 8659SOL    HW127418   3.606   1.575  12.336 -0.5112  0.1947  0.3022
 8659SOL    HW227419   3.568   1.639  12.204 -0.0577 -0.6368 -0.2408
 8660SOL     OW27420   3.441   2.869   9.678  0.0013 -0.7683 -0.2177
 8660SOL    HW127421   3.445   2.795   9.739 -0.7969 -0.9393 -0.3616
 8660SOL    HW227422   3.377   2.928   9.717  0.7278 -0.0755 -0.0389
 8661SOL     OW27423   3.065   3.095   9.387 -0.2904 -0.0143  0.0560
 8661SOL    HW127424   3.112   3.119   9.467  0.7336 -0.6673 -0.3450
 8661SOL    HW227425   3.095   3.007   9.366 -2.6962 -1.0297  0.5237
 8662SOL     OW27426   2.331   2.557  11.359 -0.2728 -0.3630 -0.1311
 8662SOL    HW127427   2.265   2.626  11.356  0.1713  0.0463 -0.7275
 8662SOL    HW227428   2.348   2.536  11.267  1.0611  0.1645 -0.0306
 8663SOL     OW27429   1.888   4.222   9.879  0.6308  0.2786  0.1157
 8663SOL    HW127430   1.879   4.228   9.784  0.4042  1.4804  0.2063
 8663SOL    HW227431   1.982   4.232   9.895  0.5894  0.7270  0.0676
 8664SOL     OW27432   2.535   3.352  10.252  0.1451 -0.3921  0.2456
 8664SOL    HW127433   2.508   3.298  10.326  0.1510  0.1935  0.6842
 8664SOL    HW227434   2.529   3.294  10.176  0.4486 -1.0957  0.7445
 8665SOL     OW27435   1.942   2.155   7.612  0.3564  0.1179  0.5090
 8665SOL    HW127436   1.932   2.061   7.592 -0.7302  0.0910  1.0683
 8665SOL    HW227437   2.026   2.179   7.574  0.7990 -1.1656  0.6356
 8666SOL     OW27438   2.452   3.139   0.773  0.0353 -0.4381 -0.3120
 8666SOL    HW127439   2.457   3.228   0.739 -0.8907 -0.3947 -0.3506
 8666SOL    HW227440   2.538   3.123   0.811  0.7781 -0.1307 -1.7858
 8667SOL     OW27441   2.486   3.447   9.200  0.0026 -0.2763 -1.1011
 8667SOL    HW127442   2.451   3.524   9.154 -0.7118  0.3341  0.4003
 8667SOL    HW227443   2.548   3.409   9.138 -1.7417 -0.1667 -3.0476
 8668SOL     OW27444   2.599   1.811  12.073 -0.4596 -0.0957 -0.7650
 8668SOL    HW127445   2.653   1.832  12.149 -1.2398  0.7531 -0.4356
 8668SOL    HW227446   2.534   1.749  12.106 -0.6062  0.0323 -0.8142
 8669SOL     OW27447   2.128   6.201   9.295  0.0858 -0.0650  0.4233
 8669SOL    HW127448   2.154   6.114   9.265  0.5050 -0.0220  0.6633
 8669SOL    HW227449   2.042   6.187   9.335  0.0738 -0.3385  0.3079
 8670SOL     OW27450   0.282   4.470   8.394  0.0470 -0.1213 -0.6829
 8670SOL    HW127451   0.267   4.552   8.440  0.3572  0.1114 -1.0008
 8670SOL    HW227452   0.374   4.472   8.369  0.4512 -1.2208  0.5940
 8671SOL     OW27453   3.277   4.180  10.867  0.4137  0.9316 -0.3313
 8671SOL    HW127454   3.306   4.247  10.805  1.4974 -0.9791 -2.0152
 8671SOL    HW227455   3.356   4.156  10.915  0.2810  0.0648 -0.5374
 8672SOL     OW27456   2.528   3.962  10.422  0.0279  0.5587  0.0816
 8672SOL    HW127457   2.469   3.995  10.490 -0.2348  2.7263 -1.1115
 8672SOL    HW227458   2.483   3.982  10.340  1.9298  1.3210 -0.8254
 8673SOL     OW27459   2.436   3.010   9.919  0.0564  0.1587 -0.1208
 8673SOL    HW127460   2.402   3.099   9.913 -0.6273 -0.0546  0.4786
 8673SOL    HW227461   2.425   2.987  10.012  1.8974  0.1096  0.1244
 8674SOL     OW27462   1.843   2.290  10.515  0.1478  0.2893 -0.3150
 8674SOL    HW127463   1.915   2.241  10.555 -0.3518  1.2259  1.9018
 8674SOL    HW227464   1.886   2.348  10.452  0.9632 -1.3853 -1.3572
 8675SOL     OW27465   2.532   3.070  11.758 -0.2432  0.5281 -0.4723
 8675SOL    HW127466   2.578   3.081  11.675 -1.3129 -0.1099 -1.1739
 8675SOL    HW227467   2.447   3.033  11.734 -0.6772  0.5730  0.8869
 8676SOL     OW27468   2.345   3.648   9.087  0.2948 -0.1346  0.1116
 8676SOL    HW127469   2.298   3.637   9.005 -2.3781  1.0538  1.3557
 8676SOL    HW227470   2.430   3.682   9.062 -0.3260 -0.1303 -2.1796
 8677SOL     OW27471   1.453   3.215   0.733  0.3682 -0.3351  0.6259
 8677SOL    HW127472   1.421   3.301   0.707  0.0523 -0.9310 -1.0931
 8677SOL    HW227473   1.386   3.154   0.701  0.6410 -1.2438  1.7151
 8678SOL     OW27474   2.748   2.985   8.361 -0.1033 -0.1610  0.0033
 8678SOL    HW127475   2.803   2.990   8.283 -0.0656 -1.0198 -0.0338
 8678SOL    HW227476   2.806   3.009   8.433  0.4422 -1.4154  0.0069
 8679SOL     OW27477   4.529   1.687  10.497 -0.1195  0.2242  0.1254
 8679SOL    HW127478   4.550   1.643  10.414 -0.3131  0.8572 -0.2620
 8679SOL    HW227479   4.583   1.766  10.496  0.2385 -0.0008  0.8293
 8680SOL     OW27480   3.758   5.995   9.870 -0.1946 -0.6725 -0.4937
 8680SOL    HW127481   3.743   6.052   9.794  0.4696  0.7247  0.3821
 8680SOL    HW227482   3.709   6.036   9.941  0.8412 -0.8107  0.3232
 8681SOL     OW27483   1.608   3.703  10.893 -0.1625 -0.1555 -0.5614
 8681SOL    HW127484   1.669   3.669  10.828 -1.3919 -1.3822 -1.1205
 8681SOL    HW227485   1.544   3.753  10.843  1.4911  2.9990  0.2245
 8682SOL     OW27486   0.861   2.571  10.603 -0.9537 -0.2461 -0.1477
 8682SOL    HW127487   0.828   2.498  10.655 -2.4204 -0.0888 -0.8064
 8682SOL    HW227488   0.943   2.539  10.566 -1.9882 -1.9249 -1.1306
 8683SOL     OW27489   5.192   3.365  11.183 -0.0559  0.4053 -0.3009
 8683SOL    HW127490   5.100   3.347  11.163  0.5175 -1.6403 -1.3572
 8683SOL    HW227491   5.203   3.335  11.274 -0.7015  1.9471  0.3292
 8684SOL     OW27492   2.249   2.436  11.985  0.2782 -0.3740 -0.6291
 8684SOL    HW127493   2.245   2.516  11.932  0.6826 -0.1542 -0.3357
 8684SOL    HW227494   2.249   2.365  11.922 -0.6863 -0.1619 -0.8775
 8685SOL     OW27495   3.224   3.491   9.157 -0.2590 -0.4160 -0.1361
 8685SOL    HW127496   3.303   3.521   9.200 -0.4351  1.4535 -0.9993
 8685SOL    HW227497   3.236   3.516   9.065 -1.4125 -1.0066 -0.4663
 8686SOL     OW27498   2.741   3.201  11.227 -0.7147 -0.8097  0.0381
 8686SOL    HW127499   2.801   3.273  11.207 -0.1443 -1.4853 -0.8000
 8686SOL    HW227500   2.659   3.224  11.183 -0.8786 -0.1806  0.6575
 8687SOL     OW27501   4.335   2.191   8.956  0.2402  0.2550 -0.2216
 8687SOL    HW127502   4.401   2.125   8.939 -0.1171  0.4315 -2.5206
 8687SOL    HW227503   4.359   2.226   9.042  1.2897 -1.7949  0.3921
 8688SOL     OW27504   0.784   1.922   9.689 -0.1150 -0.6386 -0.1770
 8688SOL    HW127505   0.759   1.919   9.596 -0.1020  1.8015 -0.3255
 8688SOL    HW227506   0.720   1.981   9.728 -0.3596 -1.9507  1.5050
 8689SOL     OW27507   2.792   1.535  10.283  0.0532  0.5486 -0.1741
 8689SOL    HW127508   2.816   1.448  10.253 -0.7037 -0.0656  0.9283
 8689SOL    HW227509   2.775   1.525  10.377 -1.1831  1.6279 -0.2426
 8690SOL     OW27510   2.173   3.775  10.262 -0.8741  0.0907  0.3198
 8690SOL    HW127511   2.253   3.826  10.270 -1.2072  0.5333  0.9203
 8690SOL    HW227512   2.103   3.837  10.282 -1.4340 -0.0777 -0.9649
 8691SOL     OW27513   2.809   3.513   9.130 -0.1421 -0.0355  0.2016
 8691SOL    HW127514   2.770   3.445   9.076 -0.1237  0.0520  0.0788
 8691SOL    HW227515   2.872   3.467   9.185  1.1407  0.1211 -1.0926
 8692SOL     OW27516   2.152   3.226   8.001  0.2593  0.1211 -0.5664
 8692SOL    HW127517   2.190   3.280   7.932  0.0496 -0.7367 -1.3668
 8692SOL    HW227518   2.119   3.289   8.066 -0.8983  1.0073 -1.9508
 8693SOL     OW27519   2.817   1.685  10.840  0.2277  0.5018  0.2551
 8693SOL    HW127520   2.844   1.670  10.750  1.1044  0.7020  0.4792
 8693SOL    HW227521   2.839   1.604  10.886 -0.7160  0.1923  0.1892
 8694SOL     OW27522   4.934   2.825  10.640  0.0965  0.1978 -0.1484
 8694SOL    HW127523   4.866   2.812  10.706 -1.1919 -0.1302 -1.4937
 8694SOL    HW227524   4.908   2.904  10.593 -0.1228 -0.6612 -1.5470
 8695SOL     OW27525   2.153   3.241   8.370 -0.2572  0.0108  0.0482
 8695SOL    HW127526   2.147   3.274   8.459 -2.3252 -0.8925  0.3071
 8695SOL    HW227527   2.185   3.151   8.379 -1.0348 -0.2841 -0.0466
 8696SOL     OW27528   1.454   4.554  10.108  0.6422 -0.0597 -0.5205
 8696SOL    HW127529   1.429   4.581  10.019  0.3539  0.2550 -0.3449
 8696SOL    HW227530   1.515   4.621  10.137 -1.0400  1.1369  0.3983
 8697SOL     OW27531   3.900   4.276  10.351  0.2634 -0.6146  0.2027
 8697SOL    HW127532   3.919   4.331  10.275 -0.4712  2.1441  1.8543
 8697SOL    HW227533   3.805   4.282  10.361 -0.0803 -3.4997 -0.3705
 8698SOL     OW27534   2.646   4.132   9.018 -0.1640  0.4340 -0.4774
 8698SOL    HW127535   2.657   4.168   8.930 -0.1442  0.9025 -0.2858
 8698SOL    HW227536   2.552   4.116   9.026 -0.2960  1.2692 -0.2513
 8699SOL     OW27537   0.364   3.284  10.767  0.4850 -0.7206  0.1904
 8699SOL    HW127538   0.401   3.335  10.839  0.5457  0.8881 -0.9029
 8699SOL    HW227539   0.293   3.234  10.807  0.5164  0.1301  1.3751
 8700SOL     OW27540   2.791   1.787   8.854  0.0455 -0.0686 -0.5051
 8700SOL    HW127541   2.810   1.775   8.947  0.7382  1.9173 -0.3393
 8700SOL    HW227542   2.696   1.801   8.850  0.4613  4.5670  0.6311
 8701SOL     OW27543   1.727   2.100   9.081 -0.2448 -0.5142 -0.1685
 8701SOL    HW127544   1.754   2.016   9.119  0.3327 -0.9429 -1.4600
 8701SOL    HW227545   1.804   2.132   9.036 -0.7043  0.3198 -0.3800
 8702SOL     OW27546   2.415   3.593  11.647  0.0378  0.1570  0.6374
 8702SOL    HW127547   2.460   3.602  11.731 -0.1156 -2.0113  1.0119
 8702SOL    HW227548   2.424   3.501  11.625  1.8504  0.9746 -2.7804
 8703SOL     OW27549   2.743   4.329   8.534  0.8719  0.7201 -0.3381
 8703SOL    HW127550   2.820   4.281   8.565  2.6318  1.9971 -2.3861
 8703SOL    HW227551   2.776   4.379   8.459 -2.3938 -0.0796 -2.4805
 8704SOL     OW27552   4.842   2.217   9.826 -0.0616 -0.1098  0.2023
 8704SOL    HW127553   4.787   2.230   9.903  0.6753  2.5628  0.3925
 8704SOL    HW227554   4.841   2.302   9.782  1.2491 -0.9637 -1.5914
 8705SOL     OW27555   3.713   2.878   9.592  0.4517 -0.2056  0.3274
 8705SOL    HW127556   3.623   2.877   9.626  0.6422 -1.2352  0.8468
 8705SOL    HW227557   3.708   2.932   9.513 -0.2143  1.3837  1.3993
 8706SOL     OW27558   1.624   3.170   7.929 -0.0487  0.0730 -0.2199
 8706SOL    HW127559   1.707   3.127   7.908  0.6443  1.4423 -0.4574
 8706SOL    HW227560   1.640   3.213   8.013 -0.8903 -0.5402  0.2665
 8707SOL     OW27561   4.407   2.423   7.689  0.1607 -0.4666 -0.1213
 8707SOL    HW127562   4.375   2.396   7.603  0.7773  0.5471 -0.6855
 8707SOL    HW227563   4.340   2.481   7.723 -0.5057 -1.5572  0.4905
 8708SOL     OW27564   1.920   2.706  10.399  0.3265 -0.4183  0.5224
 8708SOL    HW127565   1.881   2.767  10.461 -1.3010  1.3050 -1.9739
 8708SOL    HW227566   1.849   2.682  10.340  2.0371 -0.7541 -1.5685
 8709SOL     OW27567   2.294   3.781   9.977 -0.0900 -0.0778  0.5730
 8709SOL    HW127568   2.354   3.730   9.923 -1.0485  0.0940 -0.7306
 8709SOL    HW227569   2.226   3.718  10.003  0.2891 -0.1231  1.4619
 8710SOL     OW27570   3.582   3.078  11.544  0.0443 -0.0686  0.4320
 8710SOL    HW127571   3.562   3.115  11.630  0.3679 -1.6576  1.2465
 8710SOL    HW227572   3.508   3.103  11.490 -0.5436  0.3420  1.3899
 8711SOL     OW27573   1.864   4.294   8.604 -0.6126 -1.3092  0.5340
 8711SOL    HW127574   1.828   4.383   8.597 -1.2888 -1.6715 -1.1039
 8711SOL    HW227575   1.933   4.301   8.670  0.0089  0.6699 -0.2367
 8712SOL     OW27576   2.842   2.184   8.322  0.2054 -0.3452  0.2347
 8712SOL    HW127577   2.852   2.109   8.264 -0.7195  1.0506 -1.8835
 8712SOL    HW227578   2.910   2.245   8.294  1.3924 -0.5822  2.3807
 8713SOL     OW27579   3.115   2.958  10.207 -0.3937 -0.2813 -0.1034
 8713SOL    HW127580   3.185   2.893  10.211 -1.0281 -0.9226  1.2442
 8713SOL    HW227581   3.150   3.034  10.252 -0.1679 -0.1982 -0.4164
 8714SOL     OW27582   2.279   4.099  10.868  0.4610 -0.0974 -0.0121
 8714SOL    HW127583   2.316   4.064  10.949 -2.0980 -1.7435  0.5429
 8714SOL    HW227584   2.186   4.080  10.874 -0.1479  1.7155 -2.3935
 8715SOL     OW27585   1.649   2.989  11.793  0.6046  0.4438 -0.3318
 8715SOL    HW127586   1.708   3.063  11.780 -0.1856  1.2914  0.6748
 8715SOL    HW227587   1.589   3.019  11.862 -0.4096 -0.7311 -0.6768
 8716SOL     OW27588   2.372   3.320   8.889 -0.2383  0.4635  0.1325
 8716SOL    HW127589   2.309   3.380   8.930 -0.7861 -1.9859  3.3703
 8716SOL    HW227590   2.438   3.377   8.851 -2.1280  3.1132  0.5064
 8717SOL     OW27591   3.353   2.227  11.229 -0.1923 -0.0683 -0.0087
 8717SOL    HW127592   3.323   2.150  11.276 -0.1871  0.2484  0.5209
 8717SOL    HW227593   3.292   2.296  11.255 -0.2919  0.0759 -0.5967
 8718SOL     OW27594   3.353   2.259  10.188  0.1453  0.7785  0.0050
 8718SOL    HW127595   3.318   2.170  10.189  1.3459  0.2907  0.9225
 8718SOL    HW227596   3.275   2.315  10.195 -0.5771 -0.2053  0.1210
 8719SOL     OW27597   2.558   3.312   9.654  0.2728  0.5258  0.0491
 8719SOL    HW127598   2.566   3.384   9.592  0.0404  0.7926  0.3249
 8719SOL    HW227599   2.609   3.340   9.730  0.0219  0.4801  0.2335
 8720SOL     OW27600   2.334   2.622   9.169 -0.7369 -0.6892 -0.1943
 8720SOL    HW127601   2.374   2.663   9.246 -2.3209 -0.4942  0.5767
 8720SOL    HW227602   2.252   2.584   9.202 -0.2472 -2.8448 -1.2807
 8721SOL     OW27603   2.732   3.606   8.655  0.1750  0.1747  0.3536
 8721SOL    HW127604   2.750   3.690   8.697 -1.0254  0.2762  0.6788
 8721SOL    HW227605   2.732   3.626   8.562 -0.4078  0.5944  0.4411
 8722SOL     OW27606   3.238   3.659   9.890  0.3486  0.8477 -0.3042
 8722SOL    HW127607   3.194   3.704   9.818 -0.7056 -0.4839 -0.5308
 8722SOL    HW227608   3.329   3.649   9.859  0.0542  0.8378 -1.1996
 8723SOL     OW27609   2.818   4.692   8.767 -0.1323  0.3097  0.5321
 8723SOL    HW127610   2.731   4.669   8.736 -0.6435  1.9565  0.6599
 8723SOL    HW227611   2.878   4.646   8.708 -1.0513 -1.5555  0.9894
 8724SOL     OW27612   3.155   2.009   8.411 -0.5355 -0.2578 -0.0184
 8724SOL    HW127613   3.225   2.032   8.351  0.1782  2.9837  1.8356
 8724SOL    HW227614   3.109   2.091   8.428 -3.8651 -1.9776  0.0651
 8725SOL     OW27615   3.527   4.924  10.797 -0.5442  0.6881 -0.2062
 8725SOL    HW127616   3.463   4.853  10.805 -0.5025  0.8249  1.9182
 8725SOL    HW227617   3.602   4.884  10.753 -0.7203 -0.4527  0.5004
 8726SOL     OW27618   2.447   3.461  10.555 -0.0022  0.2118 -0.2854
 8726SOL    HW127619   2.408   3.548  10.541 -2.3718 -1.0186 -1.8442
 8726SOL    HW227620   2.494   3.470  10.638  1.4331  3.4764 -1.2830
 8727SOL     OW27621   2.644   3.680  10.728 -0.2613  0.0767  0.1326
 8727SOL    HW127622   2.614   3.771  10.728  0.6784  0.4479 -1.9273
 8727SOL    HW227623   2.679   3.667  10.640  0.0678 -2.1497  0.5450
 8728SOL     OW27624   1.783   2.547  11.138  0.0587  0.7372  0.0944
 8728SOL    HW127625   1.724   2.613  11.100  1.8249  2.2718 -0.0852
 8728SOL    HW227626   1.861   2.596  11.163  1.4825 -1.3062 -0.1371
 8729SOL     OW27627   0.805   1.356   0.038  0.2072 -0.1954  0.5041
 8729SOL    HW127628   0.858   1.405   0.101 -0.3208  0.2097  0.6392
 8729SOL    HW227629   0.868   1.324  -0.027  0.7201 -0.3732  1.0729
 8730SOL     OW27630   1.864   1.417   9.227  0.2703 -0.4458 -0.3758
 8730SOL    HW127631   1.890   1.357   9.157  0.7250 -0.0123 -0.5874
 8730SOL    HW227632   1.769   1.423   9.219  0.4876  1.3850 -2.4647
 8731SOL     OW27633   2.653   2.481  10.229 -0.0156  0.1528  0.1035
 8731SOL    HW127634   2.673   2.411  10.167 -2.6444 -0.7036  0.1397
 8731SOL    HW227635   2.584   2.446  10.285 -0.5533  2.3366  0.9264
 8732SOL     OW27636   3.192   2.085   9.754 -0.0171 -0.7112  0.5078
 8732SOL    HW127637   3.131   2.050   9.689  0.1524 -1.2143  0.6090
 8732SOL    HW227638   3.263   2.123   9.702 -0.7973  0.6166  0.3777
 8733SOL     OW27639   2.396   1.031  11.799 -0.4792  0.3077 -0.1056
 8733SOL    HW127640   2.474   1.042  11.854 -1.2308 -0.6800  1.2191
 8733SOL    HW227641   2.381   0.937  11.798 -0.5905  0.3253 -1.9077
 8734SOL     OW27642   2.024   3.711  10.506  0.5711 -0.5698 -0.1947
 8734SOL    HW127643   1.933   3.687  10.487 -0.5264  2.3048  0.8235
 8734SOL    HW227644   2.068   3.709  10.421 -1.0808  0.2832 -1.1186
 8735SOL     OW27645   2.054   1.593   9.459  0.5885  0.7146  0.0394
 8735SOL    HW127646   2.064   1.629   9.547 -1.2473 -0.0965  0.6303
 8735SOL    HW227647   2.061   1.668   9.400  0.0330  1.5443  1.0173
 8736SOL     OW27648   3.551   3.052  10.746  0.3052  0.2538 -0.6537
 8736SOL    HW127649   3.555   2.962  10.779  0.6932 -0.0957 -1.5892
 8736SOL    HW227650   3.520   3.104  10.820 -0.0015 -0.6616 -0.1193
 8737SOL     OW27651   0.590   1.011  11.346 -0.1901  0.1203  0.1731
 8737SOL    HW127652   0.572   0.998  11.253  2.3036 -2.0596 -0.1413
 8737SOL    HW227653   0.669   1.066  11.348 -1.0200  1.3254  1.0914
 8738SOL     OW27654   4.304   2.102   8.354  0.3077 -0.5710 -0.0779
 8738SOL    HW127655   4.317   2.081   8.261 -1.5397 -0.0048 -0.4951
 8738SOL    HW227656   4.275   2.193   8.354 -0.2764 -0.7441  1.0106
 8739SOL     OW27657   2.044   3.785  10.766  0.5974  0.0468  0.2016
 8739SOL    HW127658   2.052   3.756  10.675  0.3181 -0.1576  0.2422
 8739SOL    HW227659   1.984   3.722  10.806 -2.2914  2.1872 -0.3861
 8740SOL     OW27660   3.557   4.173  10.936  0.6453 -0.3478 -0.5281
 8740SOL    HW127661   3.585   4.083  10.922 -1.1545 -1.2033  1.0201
 8740SOL    HW227662   3.618   4.207  11.001 -0.3192 -1.4110  1.0026
 8741SOL     OW27663   2.641   4.554  11.994 -0.5328  0.0628 -0.3257
 8741SOL    HW127664   2.627   4.535  11.901 -2.9500  0.5224 -0.1359
 8741SOL    HW227665   2.735   4.567  12.002 -0.4301  1.9892 -3.0996
 8742SOL     OW27666   2.800   2.372  12.141  0.1665  0.6662  0.3579
 8742SOL    HW127667   2.795   2.406  12.052  0.3419 -2.0257 -0.8044
 8742SOL    HW227668   2.754   2.288  12.137  0.7146  0.1810  2.6661
 8743SOL     OW27669   3.374   1.718  11.404 -0.0297 -0.4247 -0.1379
 8743SOL    HW127670   3.450   1.747  11.354 -0.0025  0.1524  0.2311
 8743SOL    HW227671   3.354   1.631  11.370  0.3469 -0.2764 -0.7413
 8744SOL     OW27672   2.482   3.918   8.145 -0.5177  0.1913 -0.0982
 8744SOL    HW127673   2.574   3.917   8.119 -0.7636 -0.4638 -0.9690
 8744SOL    HW227674   2.484   3.946   8.236  0.5573 -0.0166 -0.0415
 8745SOL     OW27675   3.114   3.382   9.871  0.3128  0.4510 -0.2486
 8745SOL    HW127676   3.199   3.349   9.901 -0.1050 -0.6348 -0.2175
 8745SOL    HW227677   3.130   3.475   9.852  1.3660  0.3953  0.2794
 8746SOL     OW27678   2.296   4.030   8.558 -0.5320 -0.1667 -0.0825
 8746SOL    HW127679   2.241   3.988   8.492  1.8481  0.3149 -2.5552
 8746SOL    HW227680   2.283   4.124   8.545  1.4041 -0.0208 -1.3025
 8747SOL     OW27681   2.528   1.376  10.460 -0.2288  0.1886 -0.5487
 8747SOL    HW127682   2.562   1.287  10.456 -0.7504  0.0137 -1.5260
 8747SOL    HW227683   2.594   1.426  10.508  0.7528 -0.4212 -1.2447
 8748SOL     OW27684   4.224   3.650  10.920 -0.1845  0.3424  0.0003
 8748SOL    HW127685   4.172   3.604  10.853 -0.5622 -0.2839  0.7045
 8748SOL    HW227686   4.278   3.582  10.959  0.7743  0.8913 -0.3368
 8749SOL     OW27687   3.048   1.783  11.173 -0.4685 -0.0626  0.3537
 8749SOL    HW127688   3.029   1.877  11.179 -0.6795 -0.0135 -0.8033
 8749SOL    HW227689   2.990   1.743  11.237 -0.0882  0.6281  1.1453
 8750SOL     OW27690   2.056   2.973  10.307  0.5395  0.0512  0.2686
 8750SOL    HW127691   2.041   2.885  10.342 -1.3475 -0.1364 -0.8529
 8750SOL    HW227692   2.034   2.966  10.214 -2.8442  2.3279  0.6888
 8751SOL     OW27693   1.777   3.992  10.516  0.5903  0.5542 -0.2537
 8751SOL    HW127694   1.770   3.897  10.522 -1.9140  0.5557 -1.6117
 8751SOL    HW227695   1.760   4.011  10.424 -2.0727  2.4351  0.5029
 8752SOL     OW27696   1.777   2.947  11.052 -0.4168  0.6205 -0.3307
 8752SOL    HW127697   1.746   3.014  11.113  1.5009  0.9666  0.3091
 8752SOL    HW227698   1.729   2.965  10.971  0.7443  3.4518 -0.4988
 8753SOL     OW27699   3.130   2.476   8.798  0.3068  0.3168 -0.7008
 8753SOL    HW127700   3.177   2.461   8.880  0.2344 -1.1643 -0.8932
 8753SOL    HW227701   3.194   2.518   8.740  0.5535  0.7723 -0.1059
 8754SOL     OW27702   2.392   2.184  11.411  0.4329 -0.5875  0.5693
 8754SOL    HW127703   2.462   2.119  11.399  0.3210 -0.3892 -1.6229
 8754SOL    HW227704   2.389   2.231  11.328 -1.0804  0.6594  1.2802
 8755SOL     OW27705   2.838   2.530   9.424 -0.1111 -0.0869 -0.3651
 8755SOL    HW127706   2.932   2.519   9.410 -0.1495  0.2131 -0.9225
 8755SOL    HW227707   2.805   2.558   9.339 -0.4936  1.1544  0.1741
 8756SOL     OW27708   2.049   4.100  11.709 -0.3365 -1.2486 -0.1336
 8756SOL    HW127709   2.047   4.079  11.802  0.1147  0.1569  0.2221
 8756SOL    HW227710   2.140   4.127  11.693 -1.0573  1.2429 -0.3202
 8757SOL     OW27711   2.003   1.796   8.751  0.6079  0.2760 -0.1776
 8757SOL    HW127712   1.932   1.763   8.807  0.0192  1.3243 -0.2762
 8757SOL    HW227713   1.976   1.886   8.730  0.9863  0.0110 -1.8732
 8758SOL     OW27714   1.717   3.704  10.523  0.0555 -0.5202 -0.1953
 8758SOL    HW127715   1.639   3.674  10.475  0.1927 -0.6124 -0.3637
 8758SOL    HW227716   1.717   3.652  10.603 -1.0323  0.7168  0.6530
 8759SOL     OW27717   1.864   4.802  10.981  0.2683 -0.0052 -0.0364
 8759SOL    HW127718   1.799   4.808  11.051 -0.6785  0.5612 -0.9356
 8759SOL    HW227719   1.813   4.784  10.902  1.3570 -1.0661 -0.5284
 8760SOL     OW27720   2.821   3.129   9.259 -0.1173  0.0050 -0.1481
 8760SOL    HW127721   2.789   3.111   9.347  0.0994  3.3909  0.7711
 8760SOL    HW227722   2.914   3.111   9.263 -0.3240 -1.1180 -0.1151
 8761SOL     OW27723   3.510   2.791  10.901 -0.3117  0.1110 -0.1201
 8761SOL    HW127724   3.529   2.723  10.836 -0.1667  0.2881 -0.2620
 8761SOL    HW227725   3.416   2.807  10.891 -0.0785  0.9707 -1.0983
 8762SOL     OW27726   1.936   2.984  10.046 -0.3329  0.0719 -0.4626
 8762SOL    HW127727   1.931   2.891  10.027 -2.2302  0.3423 -1.5586
 8762SOL    HW227728   1.971   3.023   9.966 -0.5290  0.3876 -0.3977
 8763SOL     OW27729   2.337   2.715  10.991  0.1680 -0.3978 -0.0901
 8763SOL    HW127730   2.245   2.708  11.015  0.0954  0.8022  0.0744
 8763SOL    HW227731   2.373   2.628  11.008  0.0624  0.1543  4.2629
 8764SOL     OW27732   2.611   2.135   8.942 -0.4156  0.0996 -0.2120
 8764SOL    HW127733   2.537   2.108   8.887  0.9873  0.0514 -2.1504
 8764SOL    HW227734   2.637   2.220   8.906  0.3876  0.1833  0.5501
 8765SOL     OW27735   2.670   2.261   8.084 -0.1381 -0.1829 -0.0286
 8765SOL    HW127736   2.703   2.222   8.165 -1.4347 -2.5860 -0.5508
 8765SOL    HW227737   2.740   2.246   8.021  0.4669  0.8148  0.3739
 8766SOL     OW27738   4.256   2.449   9.805  0.6963 -0.2975 -0.2601
 8766SOL    HW127739   4.265   2.543   9.793  3.8180 -0.5237 -0.4112
 8766SOL    HW227740   4.230   2.416   9.719 -0.5601  0.4069 -0.1657
 8767SOL     OW27741   1.920   5.165   9.861  0.3366 -0.3505  0.0150
 8767SOL    HW127742   2.012   5.192   9.855  0.7468 -1.8249 -0.7311
 8767SOL    HW227743   1.879   5.232   9.916  1.8183  0.4176  0.2330
 8768SOL     OW27744   1.499   2.196  12.218  0.2336 -0.5515  0.1743
 8768SOL    HW127745   1.587   2.159  12.230  0.3505 -2.2114 -4.0790
 8768SOL    HW227746   1.446   2.154  12.286  2.4379 -0.3780  2.1204
 8769SOL     OW27747   2.830   2.740  12.119  0.5426  0.0930  0.1431
 8769SOL    HW127748   2.770   2.673  12.087 -0.0145 -0.1559  1.6372
 8769SOL    HW227749   2.833   2.806  12.049 -1.7893  0.3045  0.1808
 8770SOL     OW27750   2.756   3.159   8.803 -0.0414 -0.2947  0.2821
 8770SOL    HW127751   2.798   3.097   8.744  1.7936  0.7364  0.4286
 8770SOL    HW227752   2.722   3.228   8.745  2.5176  1.1644  0.3512
 8771SOL     OW27753   2.328   4.034  10.596 -0.1790 -0.3225  0.0809
 8771SOL    HW127754   2.304   4.066  10.683 -1.6959  0.4439 -0.5762
 8771SOL    HW227755   2.247   4.042  10.544  0.7262 -0.5902 -1.4486
 8772SOL     OW27756   1.910   4.066   9.329  0.4161  0.4526  0.4477
 8772SOL    HW127757   1.916   4.008   9.405 -0.0328  0.0592  0.1911
 8772SOL    HW227758   1.996   4.108   9.324  1.0257 -0.7929  0.1765
 8773SOL     OW27759   1.238   2.544  10.924 -0.4717 -0.1121 -0.3249
 8773SOL    HW127760   1.283   2.574  10.844 -0.5415 -0.8689 -0.6530
 8773SOL    HW227761   1.282   2.591  10.995  0.1321 -0.0489 -0.7370
 8774SOL     OW27762   3.074   4.094   6.894 -0.5721 -0.3251  0.1498
 8774SOL    HW127763   3.104   4.067   6.808 -2.9289  0.9882 -1.1630
 8774SOL    HW227764   3.097   4.021   6.951 -0.2811 -1.8693 -1.8512
 8775SOL     OW27765   2.998   5.077  10.188 -0.2865 -0.0070  0.2133
 8775SOL    HW127766   3.074   5.134  10.180 -0.5875  0.3533 -0.1060
 8775SOL    HW227767   2.935   5.111  10.125 -1.0287  0.1932  1.0357
 8776SOL     OW27768   4.054   2.033  10.331 -0.6800  0.3622  0.1112
 8776SOL    HW127769   4.143   2.007  10.353 -0.9380 -1.4232 -0.8238
 8776SOL    HW227770   4.058   2.129  10.328  1.1620  0.3297  0.2655
 8777SOL     OW27771   0.423   3.442   7.923  0.1627 -0.5471 -0.0544
 8777SOL    HW127772   0.436   3.536   7.937 -0.7187 -0.2190 -1.3085
 8777SOL    HW227773   0.476   3.421   7.847 -2.0510 -0.3540 -1.7580
 8778SOL     OW27774   1.560   5.498   7.436 -0.6726  0.6281  0.1420
 8778SOL    HW127775   1.611   5.433   7.483 -0.5311  1.0269  0.5485
 8778SOL    HW227776   1.620   5.531   7.369 -0.3518  1.1727  0.6871
 8779SOL     OW27777   2.667   2.956  12.237  0.4560  0.2156 -0.6782
 8779SOL    HW127778   2.709   2.870  12.226 -1.3217 -0.6476 -0.9789
 8779SOL    HW227779   2.659   2.967  12.331 -1.5078 -1.1058 -0.6397
 8780SOL     OW27780   2.999   3.280   5.603  0.3881  0.4004  0.1852
 8780SOL    HW127781   3.010   3.222   5.528 -1.2509  1.1263 -0.6651
 8780SOL    HW227782   3.080   3.330   5.606  1.7292 -1.6644  0.7654
 8781SOL     OW27783   2.418   2.469  11.066  0.2286 -0.2842 -0.0540
 8781SOL    HW127784   2.492   2.454  11.007  0.2055 -0.3411 -0.0685
 8781SOL    HW227785   2.354   2.401  11.043 -0.1512  0.2305 -0.5670
 8782SOL     OW27786   1.068   4.762  10.541  0.1443  0.5712  0.4218
 8782SOL    HW127787   1.048   4.855  10.539  0.9176  0.7381  0.2116
 8782SOL    HW227788   1.138   4.751  10.477 -1.5488 -0.5519 -1.3501
 8783SOL     OW27789   2.427   3.955  10.163  0.6532 -0.1590 -0.3313
 8783SOL    HW127790   2.397   3.898  10.092  0.2876  1.9618 -1.9725
 8783SOL    HW227791   2.519   3.973  10.141  0.9011 -0.4463  0.4310
 8784SOL     OW27792   1.338   2.324  10.626  0.6693  0.0731  0.0675
 8784SOL    HW127793   1.351   2.391  10.694 -1.5964 -1.9928  2.7470
 8784SOL    HW227794   1.382   2.246  10.660  1.5926 -0.4196 -2.0789
 8785SOL     OW27795   1.776   3.195   7.413  0.4957  0.3802  0.0532
 8785SOL    HW127796   1.830   3.226   7.485  1.0650  0.3473 -0.3485
 8785SOL    HW227797   1.770   3.100   7.426  0.1326  0.4454  0.3642
 8786SOL     OW27798   4.533   2.021  10.153  0.0012  0.3559 -0.2831
 8786SOL    HW127799   4.569   1.968  10.082  2.3086  0.8280  0.4464
 8786SOL    HW227800   4.610   2.061  10.195 -1.4069  1.4992  1.3705
 8787SOL     OW27801   1.640   4.885   9.980  0.5171  0.6663 -0.3256
 8787SOL    HW127802   1.546   4.901   9.975  0.6883  1.9941  0.3476
 8787SOL    HW227803   1.671   4.902   9.891  0.0975 -0.0257 -0.6129
 8788SOL     OW27804   1.589   4.188  10.531 -0.0952  0.0864  0.5366
 8788SOL    HW127805   1.520   4.171  10.595  0.7536  1.7756  1.9879
 8788SOL    HW227806   1.657   4.124  10.551 -1.5146 -2.2744 -1.5513
 8789SOL     OW27807   2.752   2.082  12.259  0.3606 -0.3205 -0.4512
 8789SOL    HW127808   2.669   2.126  12.238 -0.0079 -0.0757  1.3844
 8789SOL    HW227809   2.728   2.010  12.316  1.4420 -0.0606  0.3670
 8790SOL     OW27810   1.907   5.114   8.032  0.0552 -0.1485 -0.0526
 8790SOL    HW127811   1.935   5.126   7.942  2.1824 -2.8597  0.0961
 8790SOL    HW227812   1.986   5.128   8.084 -0.9273  0.5046  1.3316
 8791SOL     OW27813   2.468   2.723   9.380  0.0826  0.2024 -0.0633
 8791SOL    HW127814   2.421   2.799   9.414  0.5602  0.2736  0.4544
 8791SOL    HW227815   2.527   2.698   9.451  1.3645  0.5701 -0.9582
 8792SOL     OW27816   1.341   2.664   9.698 -0.0922 -0.2118 -0.8599
 8792SOL    HW127817   1.278   2.685   9.767  0.5427  0.0879 -0.3512
 8792SOL    HW227818   1.418   2.717   9.721  0.3270 -0.5508 -1.4823
 8793SOL     OW27819   2.231   4.941   7.705  0.3982  0.3866  0.3254
 8793SOL    HW127820   2.153   4.896   7.738 -0.9562  1.2110 -1.5366
 8793SOL    HW227821   2.223   5.030   7.739  0.0026  0.7209 -0.6012
 8794SOL     OW27822   3.305   2.352  10.978  0.2118 -0.4669  0.4489
 8794SOL    HW127823   3.313   2.319  11.068 -0.6063 -1.6354  0.1200
 8794SOL    HW227824   3.238   2.297  10.938  1.5084 -0.8650 -1.3106
 8795SOL     OW27825   2.831   3.378   8.303 -0.1171  0.1306  0.1897
 8795SOL    HW127826   2.865   3.326   8.375 -0.7596 -0.3978  0.1139
 8795SOL    HW227827   2.846   3.325   8.225  0.9684  0.8779 -0.1436
 8796SOL     OW27828   2.573   2.560   9.818  0.2840 -0.7366  0.0348
 8796SOL    HW127829   2.618   2.645   9.818 -0.1225 -0.5101 -0.5650
 8796SOL    HW227830   2.574   2.533   9.726  2.1689 -2.3460  0.4622
 8797SOL     OW27831   3.233   4.048  10.345 -0.0822  0.1777  0.2584
 8797SOL    HW127832   3.193   4.130  10.317 -1.2348 -0.6430 -0.5983
 8797SOL    HW227833   3.162   3.998  10.384 -0.1462 -1.5726 -1.8733
 8798SOL     OW27834   1.969   2.760   9.413 -0.1899  0.2493  0.2500
 8798SOL    HW127835   2.022   2.831   9.376 -0.4209  0.1007 -0.3906
 8798SOL    HW227836   2.029   2.685   9.415 -0.0845  0.3393  0.4758
 8799SOL     OW27837   3.797   2.960  10.221  0.0386  0.0902  0.1368
 8799SOL    HW127838   3.793   2.884  10.162  2.9929  1.4037 -2.0370
 8799SOL    HW227839   3.840   2.927  10.299  1.4868 -0.5087 -0.8648
 8800SOL     OW27840   4.505   2.479   9.613 -0.6945  0.2089 -0.3596
 8800SOL    HW127841   4.575   2.477   9.547 -0.3275 -0.3181  0.0437
 8800SOL    HW227842   4.431   2.434   9.572 -0.2585 -0.6845 -0.1803
 8801SOL     OW27843   1.028   1.757  10.271  0.1717  0.4654 -0.4537
 8801SOL    HW127844   1.093   1.782  10.205 -0.4390  1.4812 -0.7005
 8801SOL    HW227845   1.079   1.739  10.350  0.7551  1.3800 -0.6062
 8802SOL     OW27846   4.342   1.351  10.282  0.3962 -0.4901 -0.3599
 8802SOL    HW127847   4.300   1.436  10.292  0.8367 -0.4342  1.4282
 8802SOL    HW227848   4.396   1.359  10.204  0.6975  0.9898 -0.0145
 8803SOL     OW27849   2.762   3.681  10.475 -0.3764 -0.4368 -0.0469
 8803SOL    HW127850   2.760   3.707  10.383  1.1762 -2.1954 -0.6289
 8803SOL    HW227851   2.778   3.587  10.474  1.2946 -0.2619  2.0054
 8804SOL     OW27852   3.912   2.951   8.033 -0.4448 -0.4681  0.7362
 8804SOL    HW127853   3.924   3.045   8.023  1.3998 -0.7869 -0.5665
 8804SOL    HW227854   3.915   2.935   8.128 -2.4958  0.9144  1.1039
 8805SOL     OW27855   2.931   4.560  10.012  0.4095 -0.1415  0.2753
 8805SOL    HW127856   2.932   4.628   9.944 -2.7719 -0.3996 -0.1780
 8805SOL    HW227857   2.912   4.608  10.093 -0.0820 -0.2947  0.2511
 8806SOL     OW27858   3.667   4.532  10.879 -0.1191 -0.4057  0.1907
 8806SOL    HW127859   3.663   4.500  10.969  0.6760 -1.3528 -0.1048
 8806SOL    HW227860   3.664   4.453  10.825 -2.8033  0.1977 -0.7257
 8807SOL     OW27861   3.513   2.732   8.870 -0.0841 -0.4502 -0.0655
 8807SOL    HW127862   3.451   2.739   8.943  0.9968  1.7767  0.7422
 8807SOL    HW227863   3.458   2.734   8.792 -1.1710 -1.0653  0.6562
 8808SOL     OW27864   2.539   4.260   9.544 -0.4960 -0.0116 -0.0574
 8808SOL    HW127865   2.623   4.272   9.499 -1.1954 -0.5435 -1.5974
 8808SOL    HW227866   2.557   4.197   9.613  0.1913 -0.8402 -0.9720
 8809SOL     OW27867   3.074   2.948  10.569 -0.4737 -0.2054 -0.2009
 8809SOL    HW127868   2.999   2.890  10.569 -0.2844 -0.6168 -2.8722
 8809SOL    HW227869   3.132   2.912  10.501  0.0727  2.5066 -1.3317
 8810SOL     OW27870   2.406   1.876  11.207 -0.3577 -0.0644 -0.6315
 8810SOL    HW127871   2.371   1.856  11.293  0.6965  1.9213  0.3439
 8810SOL    HW227872   2.377   1.804  11.151 -2.4697 -0.5649  0.9888
 8811SOL     OW27873   2.593   5.027   9.499  0.4053  0.1984  0.0405
 8811SOL    HW127874   2.531   5.011   9.428  1.0993  0.6316 -0.6902
 8811SOL    HW227875   2.668   4.972   9.478  0.6988  0.4789  0.3267
 8812SOL     OW27876   2.914   2.114  10.551 -0.1219  0.2510 -0.4297
 8812SOL    HW127877   2.920   2.194  10.498 -0.7080  0.1212 -0.7062
 8812SOL    HW227878   2.873   2.143  10.632 -1.3876  0.0454 -0.9716
 8813SOL     OW27879   1.905   3.925   7.845  0.2782 -0.1276  0.4390
 8813SOL    HW127880   1.955   3.934   7.764 -0.1728 -1.8069 -0.0801
 8813SOL    HW227881   1.959   3.868   7.900 -0.8971 -1.7473 -0.0277
 8814SOL     OW27882   2.512   4.396  10.397 -0.1163  0.1416  0.2460
 8814SOL    HW127883   2.514   4.373  10.490  1.5504 -0.8128  0.0034
 8814SOL    HW227884   2.452   4.331  10.358  2.6235 -2.4399 -0.0165
 8815SOL     OW27885   3.085   1.305  11.292  0.1550  0.1844  0.3755
 8815SOL    HW127886   3.003   1.263  11.268 -0.3102  1.3578 -0.1809
 8815SOL    HW227887   3.140   1.234  11.325 -0.3288 -0.9863 -1.2024
 8816SOL     OW27888   1.646   4.142   9.474  0.3677 -0.2059  0.0857
 8816SOL    HW127889   1.639   4.237   9.465 -0.4082  0.0171  2.4228
 8816SOL    HW227890   1.738   4.123   9.454  0.5825  1.0650 -0.2316
 8817SOL     OW27891   4.027   1.592  10.022 -0.2255  0.1258  0.0331
 8817SOL    HW127892   4.082   1.670  10.013 -2.1704  1.5896  0.3339
 8817SOL    HW227893   3.967   1.597   9.948 -0.7550 -0.7867  0.3906
 8818SOL     OW27894   4.068   2.716  10.064 -0.0128 -0.0186 -0.1005
 8818SOL    HW127895   4.035   2.643  10.117  0.1884  0.7489  1.1314
 8818SOL    HW227896   3.990   2.760  10.032 -0.1961  0.4981  0.9902
 8819SOL     OW27897   0.102   2.210  10.203 -0.3811  0.0133 -0.2452
 8819SOL    HW127898   0.132   2.161  10.280 -0.5184  1.0057  0.4593
 8819SOL    HW227899   0.179   2.214  10.146 -0.5103 -1.4601 -0.5648
 8820SOL     OW27900   0.601   3.696  10.064  0.1097  0.0801  0.5526
 8820SOL    HW127901   0.507   3.687  10.077 -0.0710  0.0187 -0.6549
 8820SOL    HW227902   0.611   3.777  10.014  0.6788  0.0020  0.5367
 8821SOL     OW27903   2.297   3.106  10.351  0.2574  0.4480 -0.0459
 8821SOL    HW127904   2.350   3.055  10.290  0.3961  2.6292 -1.8742
 8821SOL    HW227905   2.207   3.076  10.336  0.5208 -0.4607  0.1723
 8822SOL     OW27906   2.979   3.216   8.969  0.4338 -0.1916 -0.6685
 8822SOL    HW127907   3.030   3.272   8.910 -0.7233  2.1285  0.3986
 8822SOL    HW227908   2.905   3.188   8.916  0.5312  0.0967 -0.9639
 8823SOL     OW27909   2.667   4.350   9.212  0.0399  0.0582  0.3059
 8823SOL    HW127910   2.687   4.287   9.142 -0.6752 -1.0126  1.0195
 8823SOL    HW227911   2.722   4.322   9.285 -0.4565  0.1178  0.7062
 8824SOL     OW27912   2.213   2.318   9.447 -0.0801 -0.4322 -0.2753
 8824SOL    HW127913   2.279   2.251   9.465  1.9428  1.4891 -0.1319
 8824SOL    HW227914   2.184   2.346   9.534 -0.1391 -0.3942 -0.3071
 8825SOL     OW27915   1.364   3.788   8.906 -0.0211 -0.4935 -0.4721
 8825SOL    HW127916   1.310   3.812   8.831 -1.0406 -1.9375 -0.2392
 8825SOL    HW227917   1.418   3.715   8.874  0.2634 -0.4542 -0.0854
 8826SOL     OW27918   2.281   4.722  10.056  0.7552 -0.0651  0.1169
 8826SOL    HW127919   2.341   4.699  10.127  1.5022 -2.1727 -1.0754
 8826SOL    HW227920   2.251   4.637  10.023 -1.3280  0.9127 -0.6335
 8827SOL     OW27921   2.312   2.425   0.040 -0.4880 -0.5867 -0.2582
 8827SOL    HW127922   2.251   2.436  -0.032 -0.5935 -0.5935 -0.1703
 8827SOL    HW227923   2.371   2.500   0.034  0.1065 -1.1013 -0.9402
 8828SOL     OW27924   1.839   2.128   9.973  0.6797 -0.3858 -0.7243
 8828SOL    HW127925   1.759   2.166   9.938  0.9013 -0.5669 -1.4420
 8828SOL    HW227926   1.826   2.034   9.967 -0.7641 -0.6049  3.0333
 8829SOL     OW27927   1.945   4.790  12.327 -0.0261 -0.7103 -0.1824
 8829SOL    HW127928   1.899   4.708  12.308 -2.5680  1.0359 -2.3357
 8829SOL    HW227929   1.937   4.801  12.422 -0.9209 -2.2484 -0.0503
 8830SOL     OW27930   4.563   3.237  12.308  0.6869  0.6588  0.6165
 8830SOL    HW127931   4.477   3.268  12.280  0.0598  0.4307  2.2042
 8830SOL    HW227932   4.600   3.197  12.229  0.0489  2.2276 -0.5240
 8831SOL     OW27933   2.619   2.747  11.029  0.3395  0.3710  0.1631
 8831SOL    HW127934   2.524   2.744  11.023  0.1227  0.0540  2.6356
 8831SOL    HW227935   2.640   2.840  11.041  0.3369  0.4074 -0.0994
 8832SOL     OW27936   4.291   2.981   0.316 -0.3706 -0.5981 -0.2094
 8832SOL    HW127937   4.285   3.075   0.298  1.3822 -0.5416 -0.6530
 8832SOL    HW227938   4.201   2.950   0.310 -0.7848  0.7570 -1.6985
 8833SOL     OW27939   5.444   2.154   0.202 -0.0316 -0.5089  0.4372
 8833SOL    HW127940   5.357   2.158   0.162  0.3851  0.1392 -0.4392
 8833SOL    HW227941   5.471   2.245   0.209  0.2086 -0.6487  1.5776
 8834SOL     OW27942   2.040   0.484  11.405 -0.1101 -0.0414  0.1006
 8834SOL    HW127943   2.021   0.391  11.408 -1.8554  0.0969 -2.8615
 8834SOL    HW227944   2.133   0.489  11.382 -0.2818 -1.1005 -0.9103
 8835SOL     OW27945   1.504   2.303   0.258  0.0501 -0.1957  0.3547
 8835SOL    HW127946   1.491   2.389   0.297  1.7311 -0.7159  2.2370
 8835SOL    HW227947   1.463   2.242   0.319  1.0064 -0.8896  0.3298
 8836SOL     OW27948   2.496   1.486   0.338 -0.0242 -0.2702 -0.6363
 8836SOL    HW127949   2.489   1.409   0.395  0.1813  0.3617  0.2455
 8836SOL    HW227950   2.556   1.545   0.383 -0.0543  0.3506 -1.3864
 8837SOL     OW27951   2.012   3.999  11.068 -0.4204  0.1714  0.0022
 8837SOL    HW127952   1.946   3.993  11.138 -1.5877 -0.4647 -1.1064
 8837SOL    HW227953   2.028   4.093  11.058 -0.5432  0.2905  0.8446
 8838SOL     OW27954   1.529   4.291   9.976  0.0970  0.0044  0.0755
 8838SOL    HW127955   1.510   4.200   9.998 -0.5136  0.3278  0.9453
 8838SOL    HW227956   1.524   4.338  10.060  0.7762  0.7826 -0.2953
 8839SOL     OW27957   2.105   2.414  12.343 -0.0202  0.1114  0.0168
 8839SOL    HW127958   2.054   2.380  12.271  0.1826  1.4518 -0.8036
 8839SOL    HW227959   2.062   2.496  12.367  0.4129  0.1123  0.8528
 8840SOL     OW27960   1.615   1.066  11.046 -0.0110 -0.8877 -0.7161
 8840SOL    HW127961   1.604   1.011  10.968  1.8579 -1.8244 -0.3747
 8840SOL    HW227962   1.696   1.034  11.086 -1.2630 -0.9016  1.9975
 8841SOL     OW27963   3.182   3.977  10.708 -0.1935  0.0203  0.0316
 8841SOL    HW127964   3.260   3.927  10.683 -0.3857 -0.9191  1.2282
 8841SOL    HW227965   3.216   4.047  10.764 -0.1542 -0.1456  0.2181
 8842SOL     OW27966   3.965   3.388  11.964 -0.3300 -0.2091 -0.2857
 8842SOL    HW127967   4.036   3.327  11.944  0.2462  0.5749 -0.6967
 8842SOL    HW227968   4.005   3.474  11.960 -0.9209  0.1717  1.2183
 8843SOL     OW27969   4.729   5.266  11.593  0.1245 -0.4147 -1.0401
 8843SOL    HW127970   4.684   5.186  11.619 -0.9921  0.6348  0.4027
 8843SOL    HW227971   4.735   5.260  11.497 -0.5914 -1.8614 -1.0213
 8844SOL     OW27972   5.035   1.796   0.333  0.3623  0.9652  0.3062
 8844SOL    HW127973   5.021   1.834   0.247 -1.1186 -2.1122 -0.9530
 8844SOL    HW227974   5.011   1.865   0.394 -1.2987  2.3386 -1.7694
 8845SOL     OW27975   3.504   3.080  12.182  0.1845  0.0972  0.5931
 8845SOL    HW127976   3.489   3.027  12.104  1.8224 -0.1747  0.4343
 8845SOL    HW227977   3.599   3.089  12.187  0.0121  1.8937  1.3669
 8846SOL     OW27978   0.885   3.097   0.108 -0.2342  0.3677  0.2295
 8846SOL    HW127979   0.926   3.152   0.176  0.2868  0.4993 -0.1829
 8846SOL    HW227980   0.956   3.044   0.074 -0.9796 -1.5607  1.5348
 8847SOL     OW27981   0.610   3.710  12.353  0.0388 -0.4529  0.2858
 8847SOL    HW127982   0.698   3.695  12.318  0.8960  0.8404  1.7208
 8847SOL    HW227983   0.596   3.639  12.415  0.3423 -0.3120  0.5182
 8848SOL     OW27984   2.379   0.368  11.977 -0.7888 -0.5099 -0.0964
 8848SOL    HW127985   2.289   0.334  11.979 -0.8946 -0.1851  1.3372
 8848SOL    HW227986   2.431   0.299  12.017 -0.4946 -0.4181 -0.3236
 8849SOL     OW27987   4.251   2.278   1.764  0.3006 -0.1013  0.1868
 8849SOL    HW127988   4.170   2.293   1.813  1.0130  0.5725  1.2051
 8849SOL    HW227989   4.232   2.310   1.676 -0.0920  1.4396  0.7975
 8850SOL     OW27990   3.208   2.028  12.163 -0.5463  0.2628  0.1738
 8850SOL    HW127991   3.149   2.055  12.234 -0.5613 -1.2896  0.7948
 8850SOL    HW227992   3.257   2.107  12.141 -1.0234  0.9434  1.4495
 8851SOL     OW27993   2.146   2.758  11.392  0.0088 -0.2159  0.0293
 8851SOL    HW127994   2.055   2.733  11.373 -0.3247  1.4870 -0.8224
 8851SOL    HW227995   2.138   2.831  11.454  0.6718  1.2552 -1.5449
 8852SOL     OW27996   4.473   3.970   1.112  0.3363 -0.1356  0.1489
 8852SOL    HW127997   4.402   4.005   1.058 -0.1768 -0.2650  0.7351
 8852SOL    HW227998   4.541   4.039   1.109  0.0942  0.0926 -0.2111
 8853SOL     OW27999   3.063   2.810   9.828 -0.0058 -0.2887 -0.1104
 8853SOL    HW128000   3.096   2.753   9.897 -1.5354  0.0756  0.9674
 8853SOL    HW228001   3.128   2.880   9.821 -0.2914  0.1901  1.6615
 8854SOL     OW28002   3.016   2.159  12.391 -0.2302 -0.3161 -0.3117
 8854SOL    HW128003   3.037   2.246  12.356  0.1289  0.0747  0.8546
 8854SOL    HW228004   2.930   2.138  12.352 -0.2508  0.4870 -0.7198
 8855SOL     OW28005   5.299   3.114  11.102 -0.2294 -0.1877 -0.3005
 8855SOL    HW128006   5.389   3.113  11.069 -1.0987  2.0480 -3.1830
 8855SOL    HW228007   5.286   3.204  11.132 -1.2733 -0.7040  0.8588
 8856SOL     OW28008   1.368   0.832  11.579 -0.3622  0.3854 -0.3397
 8856SOL    HW128009   1.329   0.746  11.562 -0.3742  0.3193  0.0243
 8856SOL    HW228010   1.459   0.822  11.549 -0.1278 -0.0200  0.4836
 8857SOL     OW28011   2.957   1.658  11.410  0.0630 -0.6757 -0.0833
 8857SOL    HW128012   2.934   1.613  11.491  0.8718 -0.1605  0.4425
 8857SOL    HW228013   2.977   1.588  11.349  2.9777 -1.0908  1.2123
 8858SOL     OW28014   0.732   4.635   0.964  0.4945  0.1575  0.1883
 8858SOL    HW128015   0.731   4.730   0.978 -1.2556  0.1162  0.5455
 8858SOL    HW228016   0.697   4.624   0.876  1.0265 -0.1497  0.0138
 8859SOL     OW28017   3.137   3.180  10.726 -0.4159  0.0955  0.0483
 8859SOL    HW128018   3.142   3.257  10.669 -0.9163 -1.1389 -1.7769
 8859SOL    HW228019   3.144   3.106  10.665  1.3035 -1.3267  1.8587
 8860SOL     OW28020   1.204   3.596   0.176 -0.3203 -0.9622  0.1130
 8860SOL    HW128021   1.278   3.629   0.125 -0.8034 -1.3329 -0.8607
 8860SOL    HW228022   1.130   3.600   0.116 -1.0911 -0.6113  1.0751
 8861SOL     OW28023   2.385   1.670  11.461 -0.1360  0.5331 -0.0705
 8861SOL    HW128024   2.376   1.758  11.498  0.7939  0.8804 -0.6238
 8861SOL    HW228025   2.478   1.663  11.440  0.0598 -1.0801  1.1589
 8862SOL     OW28026   3.237   3.186  11.179  0.0217 -0.2098 -0.4134
 8862SOL    HW128027   3.232   3.282  11.186 -1.5879 -0.3848  2.0914
 8862SOL    HW228028   3.154   3.160  11.140 -0.2772 -0.6662  0.5080
 8863SOL     OW28029   1.890   3.513  11.128  0.2240  0.0622  0.6919
 8863SOL    HW128030   1.858   3.444  11.069  1.5060  0.3688 -0.4232
 8863SOL    HW228031   1.814   3.568  11.144 -0.2934 -0.3590 -0.2200
 8864SOL     OW28032   1.071   2.529  11.914  0.1072 -0.7052  0.0069
 8864SOL    HW128033   1.033   2.598  11.969  1.7286 -0.4467  0.8591
 8864SOL    HW228034   1.055   2.559  11.825  1.0664  0.9669  0.3612
 8865SOL     OW28035   1.379   3.695  11.504 -0.7133  0.4970  0.2259
 8865SOL    HW128036   1.410   3.714  11.593 -0.8243  2.4674 -0.0997
 8865SOL    HW228037   1.441   3.631  11.470 -0.3063  0.1816  1.5138
 8866SOL     OW28038   3.963   1.190  12.345  0.0680  0.3059 -0.0719
 8866SOL    HW128039   3.884   1.143  12.318  1.2069 -1.0108 -1.2211
 8866SOL    HW228040   3.933   1.281  12.357 -1.9437 -0.4467  1.1761
 8867SOL     OW28041   2.400   4.192  11.369 -0.0256  1.2899 -0.3777
 8867SOL    HW128042   2.381   4.232  11.284 -1.1523  0.5772 -0.4789
 8867SOL    HW228043   2.363   4.104  11.363  0.8061  0.8615  0.4910
 8868SOL     OW28044   4.592   2.923  10.487 -0.0823 -0.2407  0.1119
 8868SOL    HW128045   4.669   2.980  10.492  0.2417 -0.5518 -0.9522
 8868SOL    HW228046   4.518   2.982  10.501  0.2961  0.2876 -0.0615
 8869SOL     OW28047   2.145   3.727  11.844 -0.2130  0.3257  0.0429
 8869SOL    HW128048   2.182   3.640  11.832 -0.4276  0.2299  0.0664
 8869SOL    HW228049   2.135   3.761  11.755  1.4339  0.9978  0.0817
 8870SOL     OW28050   4.613   0.582   9.650  0.0502  0.1040 -0.3615
 8870SOL    HW128051   4.568   0.526   9.713 -0.1920 -0.4210 -0.9838
 8870SOL    HW228052   4.571   0.667   9.659 -1.9078 -0.6400 -1.7015
 8871SOL     OW28053   2.982   2.506  11.937  0.0065  0.0412 -0.3108
 8871SOL    HW128054   2.924   2.517  11.861 -1.8680  3.2712  1.3556
 8871SOL    HW228055   3.048   2.575  11.926 -0.7787  1.1012  1.3012
 8872SOL     OW28056   2.767   5.234  10.818  0.4220 -0.4679 -0.9141
 8872SOL    HW128057   2.693   5.190  10.860  0.0026 -1.6804 -2.8106
 8872SOL    HW228058   2.784   5.183  10.739  4.0970 -0.9817 -0.0001
 8873SOL     OW28059   1.316   2.415  12.212  0.6430  0.0880 -0.1062
 8873SOL    HW128060   1.239   2.379  12.169  0.8076  0.0164 -0.3434
 8873SOL    HW228061   1.382   2.347  12.204  0.4888 -0.1741  0.8118
 8874SOL     OW28062   2.235   3.175  11.464  0.0615  0.3109  0.3310
 8874SOL    HW128063   2.168   3.110  11.485 -2.0686  2.0028 -0.8022
 8874SOL    HW228064   2.299   3.128  11.411 -1.9107 -0.7172 -1.2723
 8875SOL     OW28065   1.885   2.652  12.015 -0.0036  0.4163 -0.1661
 8875SOL    HW128066   1.938   2.644  12.094  2.0541  1.5430 -1.3444
 8875SOL    HW228067   1.863   2.745  12.010  2.4397  1.0054 -2.3533
 8876SOL     OW28068   2.874   2.749  10.549  0.4530 -0.4053 -0.5995
 8876SOL    HW128069   2.800   2.809  10.542  1.2833  0.6730 -0.4164
 8876SOL    HW228070   2.879   2.707  10.463  0.8740  1.0357 -1.3134
 8877SOL     OW28071   1.341   2.279  10.331 -0.0018  0.2331  0.5034
 8877SOL    HW128072   1.387   2.229  10.399 -0.1746  1.7652  1.8033
 8877SOL    HW228073   1.329   2.217  10.259  0.0530 -1.4907  1.9260
 8878SOL     OW28074   4.163   4.261  10.404 -0.3514  0.3763 -0.0133
 8878SOL    HW128075   4.071   4.286  10.390 -0.2010  0.7023 -0.4646
 8878SOL    HW228076   4.201   4.336  10.450 -0.1129  0.6095 -0.5770
 8879SOL     OW28077   1.107   3.929  11.310 -0.2804  0.3177 -0.0319
 8879SOL    HW128078   1.107   3.909  11.216  1.2314 -0.6324  0.1292
 8879SOL    HW228079   1.048   3.865  11.348  0.3248 -0.3469 -0.1740
 8880SOL     OW28080   2.849   1.507  11.124 -0.5022  0.1242 -0.6678
 8880SOL    HW128081   2.887   1.482  11.040  0.9447 -0.1359  0.0270
 8880SOL    HW228082   2.849   1.426  11.175  2.2678  0.9443  0.8784
 8881SOL     OW28083   3.570   2.623  12.025  0.0143  0.2778 -0.3763
 8881SOL    HW128084   3.575   2.626  12.120 -1.2194  0.2731 -0.2871
 8881SOL    HW228085   3.528   2.539  12.006 -0.8116  0.7823 -0.8462
 8882SOL     OW28086   0.160   2.330  12.364  0.2920 -0.4870  0.1796
 8882SOL    HW128087   0.196   2.249  12.327  0.3795 -0.4895  0.2684
 8882SOL    HW228088   0.115   2.302  12.444  1.2436 -0.3203  0.8037
 8883SOL     OW28089   2.452   4.637  10.272 -0.2867 -0.5840 -0.0663
 8883SOL    HW128090   2.419   4.549  10.286 -0.5821 -0.4846 -0.1336
 8883SOL    HW228091   2.546   4.631  10.291 -0.5249 -0.6337  1.1583
 8884SOL     OW28092   3.335   1.509  11.238  0.6746 -0.0621 -0.1150
 8884SOL    HW128093   3.359   1.460  11.160  1.3137 -2.1686  1.3051
 8884SOL    HW228094   3.250   1.474  11.264 -0.7423  2.3943 -1.1919
 8885SOL     OW28095   0.942   2.847  12.281  0.1853  0.0580 -0.5268
 8885SOL    HW128096   0.886   2.879  12.352  1.0528 -2.9837  1.7810
 8885SOL    HW228097   1.019   2.811  12.326  1.5369 -0.5717 -3.1714
 8886SOL     OW28098   3.829   2.295   9.311 -0.0123 -0.4834 -0.2135
 8886SOL    HW128099   3.832   2.308   9.216  0.4496 -0.8394 -0.2549
 8886SOL    HW228100   3.921   2.287   9.336 -0.1722 -1.4996  0.1038
 8887SOL     OW28101   1.524   1.238   0.051 -0.0426  0.0449 -0.0406
 8887SOL    HW128102   1.519   1.213  -0.041  1.5701  0.5525 -0.2968
 8887SOL    HW228103   1.570   1.322   0.051  0.0553  0.0157  1.2330
 8888SOL     OW28104   3.074   1.154  10.838  0.0230  0.3399  0.5650
 8888SOL    HW128105   3.149   1.117  10.885  0.1125 -0.9790 -0.5400
 8888SOL    HW228106   3.111   1.187  10.756 -0.7772 -1.8973 -0.7894
 8889SOL     OW28107   3.782   0.876  11.798 -0.1208  0.3027 -0.5125
 8889SOL    HW128108   3.703   0.855  11.847  0.8276 -0.4059  0.7562
 8889SOL    HW228109   3.750   0.913  11.715 -1.7563  0.5293  0.1937
 8890SOL     OW28110   3.001   4.030   1.294  0.3741  0.0483  0.6996
 8890SOL    HW128111   2.912   4.044   1.326  0.1020  0.1230 -0.0716
 8890SOL    HW228112   3.010   3.935   1.287 -0.0915  0.0669 -0.4100
 8891SOL     OW28113   2.217   3.813  11.120  0.4870  0.0105 -0.2860
 8891SOL    HW128114   2.182   3.724  11.112  0.1201 -0.1120  2.0942
 8891SOL    HW228115   2.142   3.869  11.098  0.6283 -0.2454 -1.4767
 8892SOL     OW28116   4.267   3.840   0.160  0.3014  0.0434  0.4587
 8892SOL    HW128117   4.300   3.930   0.153 -0.2650  0.1573 -1.0389
 8892SOL    HW228118   4.335   3.786   0.119 -0.7568  0.1569 -1.5567
 8893SOL     OW28119   3.088   1.901  10.667  0.1062  0.1787 -0.0334
 8893SOL    HW128120   3.070   1.908  10.761  0.2472 -0.7263  0.0726
 8893SOL    HW228121   3.026   1.962  10.627 -2.6857 -2.1503  0.3956
 8894SOL     OW28122   2.800   4.170  11.802  0.4513 -0.1928 -0.0916
 8894SOL    HW128123   2.767   4.106  11.866 -0.8558 -0.7969 -1.3052
 8894SOL    HW228124   2.855   4.118  11.743  0.3672  0.0312 -0.3705
 8895SOL     OW28125   1.237   4.443   0.106 -0.1806  0.0205  0.0314
 8895SOL    HW128126   1.191   4.363   0.131 -0.9590  0.9880  1.8993
 8895SOL    HW228127   1.322   4.413   0.076 -0.9724 -1.6064 -0.6955
 8896SOL     OW28128   4.178   2.400   0.307 -0.5415 -0.2050  0.3613
 8896SOL    HW128129   4.213   2.398   0.217  2.0730 -0.1284  1.2805
 8896SOL    HW228130   4.128   2.319   0.316  2.1849 -2.0842 -0.1277
 8897SOL     OW28131   3.058   2.317  11.244  0.3656 -0.4785 -0.9274
 8897SOL    HW128132   2.997   2.245  11.261 -1.1048  0.6251 -1.2848
 8897SOL    HW228133   3.008   2.395  11.265  2.2384  0.4437  0.3999
 8898SOL     OW28134   2.841   2.665  11.718 -0.1182 -0.2858 -0.3626
 8898SOL    HW128135   2.876   2.737  11.770  1.3240 -0.4999 -1.0016
 8898SOL    HW228136   2.782   2.707  11.655  0.1455  0.2464 -0.2578
 8899SOL     OW28137   2.100   1.122  11.556 -0.3706 -0.0721  0.2871
 8899SOL    HW128138   2.145   1.188  11.504  1.4664 -1.2341  0.3146
 8899SOL    HW228139   2.119   1.146  11.647  0.6214 -0.8040  0.2923
 8900SOL     OW28140   0.322   4.556  10.509 -0.2471  0.2689  0.4699
 8900SOL    HW128141   0.327   4.479  10.453 -0.7956 -0.3851  1.2801
 8900SOL    HW228142   0.413   4.586  10.518 -0.0282 -0.2855  0.1457
 8901SOL     OW28143   1.423   4.484  12.374  0.1638  0.2305 -0.2892
 8901SOL    HW128144   1.450   4.543  12.304 -1.5312  1.6080  0.1544
 8901SOL    HW228145   1.350   4.433  12.338 -0.8059  1.0372  0.4710
 8902SOL     OW28146   4.744   2.524  10.966  0.0662  0.0303 -0.1277
 8902SOL    HW128147   4.681   2.531  10.894  1.1265  1.6433 -0.9830
 8902SOL    HW228148   4.781   2.437  10.957 -1.2496 -0.5371 -0.2790
 8903SOL     OW28149   2.080   2.952  11.575 -0.0596 -0.3410 -0.5031
 8903SOL    HW128150   1.992   2.924  11.551 -0.2487 -1.6873  1.4305
 8903SOL    HW228151   2.084   2.938  11.670  2.1022  0.0692 -0.4782
 8904SOL     OW28152   2.796   1.976   9.869  0.0574 -0.1322 -0.1045
 8904SOL    HW128153   2.875   2.011   9.910  0.4634 -1.2127  0.0608
 8904SOL    HW228154   2.726   1.997   9.931  0.1805  0.9157 -0.2975
 8905SOL     OW28155   3.407   0.742  10.782 -0.8896  0.5383  0.5339
 8905SOL    HW128156   3.324   0.697  10.768 -1.1316  1.1348 -0.0148
 8905SOL    HW228157   3.473   0.673  10.780 -1.0935  0.3210 -1.7255
 8906SOL     OW28158   1.812   0.809  12.105 -0.5949 -0.1433 -0.0868
 8906SOL    HW128159   1.764   0.854  12.035  1.7421  1.8080 -0.5799
 8906SOL    HW228160   1.765   0.833  12.185 -1.7704 -0.2112 -0.7405
 8907SOL     OW28161   2.635   1.201  11.931 -0.1667  0.7701 -0.2256
 8907SOL    HW128162   2.627   1.106  11.941 -0.0060  0.7288 -0.4814
 8907SOL    HW228163   2.729   1.218  11.933 -0.2004  0.9362 -0.0679
 8908SOL     OW28164   3.970   1.856   9.722  0.4152 -0.2315  0.2633
 8908SOL    HW128165   3.897   1.899   9.768  1.0617 -0.8140  1.9170
 8908SOL    HW228166   4.032   1.927   9.705 -1.2255  0.6583 -2.8579
 8909SOL     OW28167   3.621   1.697  12.476 -0.3075  0.7612  0.4086
 8909SOL    HW128168   3.554   1.638  12.510 -0.2618  0.4620 -0.0030
 8909SOL    HW228169   3.613   1.776  12.529  1.6209 -0.6549  3.0186
 8910SOL     OW28170   1.008   1.928   0.771 -0.1864  0.2068 -0.0734
 8910SOL    HW128171   0.968   1.946   0.686  1.1902  0.1031 -0.7747
 8910SOL    HW228172   1.064   2.004   0.788  0.9572 -0.5927 -0.1533
 8911SOL     OW28173   3.321   2.004   0.157  0.2055 -0.2517 -0.0612
 8911SOL    HW128174   3.249   2.060   0.130  1.7124  1.9999  0.3336
 8911SOL    HW228175   3.315   1.928   0.100 -0.9212  1.0951 -1.8244
 8912SOL     OW28176   1.045   2.420  11.090  0.0363 -0.2419  0.2276
 8912SOL    HW128177   1.088   2.344  11.128  0.6160  0.4062  0.9125
 8912SOL    HW228178   1.098   2.443  11.014  0.8822  0.4811  0.9992
 8913SOL     OW28179   4.431   1.835   0.296  0.1590  0.0317 -0.3626
 8913SOL    HW128180   4.460   1.879   0.376  2.5399 -0.6132 -0.8014
 8913SOL    HW228181   4.495   1.765   0.282 -0.7505 -0.4872 -2.3140
 8914SOL     OW28182   2.795   3.235  10.896  0.4934 -0.5576  0.0802
 8914SOL    HW128183   2.766   3.321  10.925 -1.9724 -1.5425  0.7916
 8914SOL    HW228184   2.798   3.242  10.801  1.4265  0.6063  0.1732
 8915SOL     OW28185   2.385   0.624  12.051  0.1395 -0.5737 -0.1417
 8915SOL    HW128186   2.475   0.637  12.023  0.0382 -0.8981 -0.6401
 8915SOL    HW228187   2.367   0.532  12.030 -0.2821 -0.5301  0.0226
 8916SOL     OW28188   2.316   3.248   9.882 -0.2500 -0.1707 -0.5540
 8916SOL    HW128189   2.311   3.337   9.915 -2.0034  0.1511 -1.5652
 8916SOL    HW228190   2.294   3.255   9.789  1.3020 -1.4560 -1.0774
 8917SOL     OW28191   3.668   1.591  11.809 -0.3956  0.7037  0.1385
 8917SOL    HW128192   3.636   1.681  11.816  0.0106  0.8212  0.5549
 8917SOL    HW228193   3.607   1.548  11.749 -0.2794  1.3949 -0.4871
 8918SOL     OW28194   4.198   3.110   1.206  0.0850  0.1478  0.3122
 8918SOL    HW128195   4.117   3.139   1.248  0.4012 -0.0729  1.0875
 8918SOL    HW228196   4.188   3.016   1.196 -0.0603  0.2204 -0.2828
 8919SOL     OW28197   1.240   3.555  12.170  0.3392 -0.0378  0.4928
 8919SOL    HW128198   1.214   3.464  12.153 -2.4726  0.2698  2.5230
 8919SOL    HW228199   1.330   3.560  12.138 -0.4727 -2.5938 -2.7035
 8920SOL     OW28200   3.583   3.425  12.200  0.2091 -0.2535 -0.1426
 8920SOL    HW128201   3.614   3.499  12.147 -0.5353 -0.5829 -1.0709
 8920SOL    HW228202   3.637   3.351  12.173  1.4308  0.0577  1.2875
 8921SOL     OW28203   1.048   3.699  11.053 -0.1414  0.1754 -0.0414
 8921SOL    HW128204   1.142   3.706  11.037 -0.5755  1.2287 -2.4756
 8921SOL    HW228205   1.040   3.621  11.109  2.2602  0.9750  1.6047
 8922SOL     OW28206   2.827   2.901  11.920  0.4865  0.6663  0.0927
 8922SOL    HW128207   2.861   2.987  11.894  1.6904 -0.0181 -0.7062
 8922SOL    HW228208   2.733   2.908  11.909  0.2434  2.6795  2.5013
 8923SOL     OW28209   3.834   2.338  10.054 -0.2398 -0.4097  0.2068
 8923SOL    HW128210   3.922   2.309  10.034  1.1955  2.7400  1.2793
 8923SOL    HW228211   3.803   2.380   9.973 -0.0240  0.0759  0.3751
 8924SOL     OW28212   3.300   2.486  11.419 -0.1980  0.0335 -0.6204
 8924SOL    HW128213   3.244   2.463  11.494  2.0806 -0.7155  0.9542
 8924SOL    HW228214   3.255   2.561  11.378 -0.6263  1.7466  2.6210
 8925SOL     OW28215   7.983   2.266  11.247 -0.3285  0.5204 -0.2272
 8925SOL    HW128216   8.019   2.214  11.319 -0.2764  1.2903  0.3154
 8925SOL    HW228217   8.058   2.313  11.211  0.1495 -1.6719 -2.4250
 8926SOL     OW28218   3.923   1.557  11.655  0.0938 -0.2007  0.3192
 8926SOL    HW128219   3.851   1.552  11.718 -0.7751  0.6965 -0.5653
 8926SOL    HW228220   3.998   1.520  11.701 -0.2560  1.3415  2.2596
 8927SOL     OW28221   4.415   1.598   1.632  0.1623 -0.2116  0.4351
 8927SOL    HW128222   4.361   1.673   1.657 -0.5241  0.1736 -1.9911
 8927SOL    HW228223   4.493   1.605   1.687  0.3048  2.5242 -0.0088
 8928SOL     OW28224   1.749   2.263  11.449 -0.0681  0.1539  0.0521
 8928SOL    HW128225   1.814   2.205  11.408  0.9081  0.6772  0.8262
 8928SOL    HW228226   1.745   2.233  11.540 -1.5780 -0.4329 -0.1728
 8929SOL     OW28227   2.341   3.002  11.289  0.2240 -0.3928 -0.4046
 8929SOL    HW128228   2.306   2.914  11.293 -2.0716  0.4942  1.9356
 8929SOL    HW228229   2.282   3.049  11.230 -1.7485  0.6825  2.2187
 8930SOL     OW28230   2.559   2.726  10.140  0.1771  0.2088 -0.1446
 8930SOL    HW128231   2.574   2.638  10.174 -1.3399  0.4717  1.2949
 8930SOL    HW228232   2.630   2.740  10.077  0.0742 -2.2887 -0.9205
 8931SOL     OW28233   1.896   4.488  12.350  0.2058  0.2462  0.1512
 8931SOL    HW128234   1.850   4.437  12.416 -1.1492 -0.2018 -1.0991
 8931SOL    HW228235   1.988   4.487  12.379  0.1177 -2.3100  0.5482
 8932SOL     OW28236   3.601   2.627  10.716  0.2859  0.1021 -0.4206
 8932SOL    HW128237   3.597   2.532  10.702 -0.5048  0.4201 -2.9148
 8932SOL    HW228238   3.665   2.658  10.652 -0.3471  1.3698 -0.4651
 8933SOL     OW28239   2.662   3.550  12.286 -0.1302 -0.6514  0.4038
 8933SOL    HW128240   2.741   3.541  12.340 -0.6914 -1.0001  1.1822
 8933SOL    HW228241   2.639   3.460  12.263 -0.4822 -0.5751  0.4582
 8934SOL     OW28242   3.106   3.281  11.864 -0.2513  0.1026 -0.1097
 8934SOL    HW128243   3.102   3.274  11.959 -4.5143 -0.0257 -0.1287
 8934SOL    HW228244   3.153   3.363  11.848  1.5983 -0.4401  1.9582
 8935SOL     OW28245   0.723   3.872  12.036 -0.2735  0.6243  0.4244
 8935SOL    HW128246   0.632   3.893  12.059 -0.5642  0.8193 -0.8262
 8935SOL    HW228247   0.769   3.956  12.041 -0.0290  0.4238  1.6246
 8936SOL     OW28248   4.152   1.669  12.130 -0.2868  0.6688 -0.1891
 8936SOL    HW128249   4.086   1.600  12.118  0.2595 -0.1309  1.2328
 8936SOL    HW228250   4.186   1.655  12.218  1.0388  1.7330 -0.5016
 8937SOL     OW28251   4.450   3.556  11.976  0.0705 -0.3132 -0.3609
 8937SOL    HW128252   4.466   3.642  12.014  1.2290 -1.0956  1.0368
 8937SOL    HW228253   4.529   3.506  11.996 -0.3452 -1.5510 -1.6290
 8938SOL     OW28254   4.468   1.122  11.332  0.4399 -0.1653  0.0190
 8938SOL    HW128255   4.416   1.047  11.302  1.7770 -0.5858 -1.3861
 8938SOL    HW228256   4.541   1.082  11.379  1.4454  0.2147 -1.1889
 8939SOL     OW28257   3.165   2.443  10.598  0.1345  0.2783 -0.0222
 8939SOL    HW128258   3.191   2.508  10.663 -0.2376  0.6851 -0.2684
 8939SOL    HW228259   3.226   2.455  10.526 -0.3188  0.7888 -0.3287
 8940SOL     OW28260   4.705   2.124   0.356  0.1041 -0.3745  0.0837
 8940SOL    HW128261   4.771   2.061   0.327  1.2724  0.6653  0.3738
 8940SOL    HW228262   4.745   2.210   0.338 -1.9310  0.3361 -1.4472
 8941SOL     OW28263   3.562   2.653  11.218  0.2414 -1.1116  0.3002
 8941SOL    HW128264   3.611   2.571  11.209  0.8513 -0.9199  1.6677
 8941SOL    HW228265   3.473   2.624  11.241  1.0464 -1.4445  3.4998
 8942SOL     OW28266   1.632   2.483  11.368  0.5843 -0.1187 -0.1196
 8942SOL    HW128267   1.677   2.413  11.413  0.8193  0.5548  0.7103
 8942SOL    HW228268   1.686   2.501  11.291 -0.2293 -1.8003 -1.1355
 8943SOL     OW28269   2.491   2.190   9.694 -0.1629 -0.0724 -0.2019
 8943SOL    HW128270   2.457   2.217   9.779 -3.2727 -0.5270 -1.1582
 8943SOL    HW228271   2.446   2.107   9.675  2.4504 -1.3836 -1.1914
 8944SOL     OW28272   4.277   3.483   2.344  0.1678 -0.1004  0.1361
 8944SOL    HW128273   4.246   3.532   2.420 -0.1113 -0.6647  0.3958
 8944SOL    HW228274   4.217   3.408   2.338  0.8724 -0.6649  0.0320
 8945SOL     OW28275   2.724   4.275  10.669  0.1788  0.0909  0.2757
 8945SOL    HW128276   2.812   4.246  10.694  0.8838  0.0866 -1.9720
 8945SOL    HW228277   2.671   4.262  10.748  1.8601 -1.3160  1.2456
 8946SOL     OW28278   5.402   2.833  11.425  0.8072 -0.6603  0.6316
 8946SOL    HW128279   5.353   2.915  11.411  1.7910 -0.0719  0.5122
 8946SOL    HW228280   5.336   2.764  11.418  0.2127  0.0176 -0.7842
 8947SOL     OW28281   2.871   3.059   0.187  0.4274 -0.2315  0.3013
 8947SOL    HW128282   2.950   3.083   0.138  0.6802 -2.4591 -0.5006
 8947SOL    HW228283   2.811   3.025   0.121 -2.0402  3.0625  0.6092
 8948SOL     OW28284   3.900   1.434  12.408  0.0238 -0.4016  0.4219
 8948SOL    HW128285   3.831   1.425  12.475  0.2802 -0.9271  0.6227
 8948SOL    HW228286   3.912   1.528  12.399 -0.3505 -0.3141  0.7747
 8949SOL     OW28287   3.965   3.769   1.250  0.0050 -0.0511 -0.0950
 8949SOL    HW128288   4.022   3.790   1.176 -1.8452 -0.6650 -1.7568
 8949SOL    HW228289   3.991   3.680   1.275  0.3031 -0.0239 -0.2965
 8950SOL     OW28290   3.260   0.861   0.008  0.5561  0.7383  0.5544
 8950SOL    HW128291   3.287   0.841   0.098  1.3949  2.0131  0.6187
 8950SOL    HW228292   3.181   0.914   0.018 -2.0177 -2.7750  0.3720
 8951SOL     OW28293   2.592   2.635   0.137 -0.0463 -0.4646  0.0777
 8951SOL    HW128294   2.613   2.565   0.076 -3.3749 -2.1362  0.6439
 8951SOL    HW228295   2.525   2.687   0.093  0.7290  1.0690  0.5978
 8952SOL     OW28296   0.808   3.144  10.832  0.1439 -0.3693  0.0703
 8952SOL    HW128297   0.747   3.081  10.795  1.5627 -1.5314 -0.3798
 8952SOL    HW228298   0.877   3.091  10.870  1.8498  0.8852 -1.1160
 8953SOL     OW28299   0.416   2.432  10.595 -0.3650 -0.0884  0.6153
 8953SOL    HW128300   0.457   2.480  10.667  0.8508  0.9816 -0.7349
 8953SOL    HW228301   0.408   2.496  10.524 -0.4041 -1.4047 -0.6204
 8954SOL     OW28302   4.046   2.969  11.233 -0.1990  0.2457 -0.2711
 8954SOL    HW128303   4.013   2.884  11.263  2.0070 -0.8136 -0.6743
 8954SOL    HW228304   3.977   3.031  11.256 -2.4514 -1.7981 -1.0773
 8955SOL     OW28305   2.326   1.925  11.519 -0.2252 -0.4964 -0.0049
 8955SOL    HW128306   2.398   1.954  11.463  1.1002 -2.3078  0.6819
 8955SOL    HW228307   2.276   2.005  11.536  0.1342  0.3759 -2.5636
 8956SOL     OW28308   3.926   1.156   1.697  0.3562  0.4508  0.0664
 8956SOL    HW128309   3.972   1.083   1.739  1.6184  1.8280  1.2257
 8956SOL    HW228310   3.866   1.115   1.635  0.8555 -1.5580  0.8435
 8957SOL     OW28311   3.131   2.651  10.019 -0.3811 -0.3992  0.3292
 8957SOL    HW128312   3.073   2.634  10.094 -1.3758 -1.9853 -0.7495
 8957SOL    HW228313   3.215   2.612  10.045 -0.0265  1.0831  1.5203
 8958SOL     OW28314   1.574   2.665  10.989 -0.0773  0.2405 -0.4888
 8958SOL    HW128315   1.531   2.658  10.904 -1.4710  3.6137 -0.2351
 8958SOL    HW228316   1.506   2.699  11.047  0.6399 -2.5055  2.2432
 8959SOL     OW28317   3.985   2.182   0.260  0.3814  0.1180 -0.1830
 8959SOL    HW128318   3.933   2.162   0.338  2.4216 -0.8736  1.0188
 8959SOL    HW228319   4.011   2.096   0.227 -0.5466  0.5174 -2.0880
 8960SOL     OW28320   3.329   2.876  10.442  0.0549  0.5859 -0.4817
 8960SOL    HW128321   3.390   2.937  10.401 -0.7017  1.5658 -0.1876
 8960SOL    HW228322   3.333   2.896  10.535 -0.2360  0.2090 -0.3848
 8961SOL     OW28323   3.148   3.410   1.724  0.2852  0.2714  0.1157
 8961SOL    HW128324   3.107   3.441   1.643 -2.2265 -0.6772  0.9266
 8961SOL    HW228325   3.143   3.314   1.719 -2.0433  0.1672  2.2901
 8962SOL     OW28326   1.852   3.604   0.085  0.1291 -0.3974 -0.1149
 8962SOL    HW128327   1.942   3.619   0.058  0.6445 -1.4882  0.9117
 8962SOL    HW228328   1.847   3.644   0.172 -0.2606 -0.7203  0.0122
 8963SOL     OW28329   3.972   1.755  11.355  0.4608 -0.0775  0.4236
 8963SOL    HW128330   3.927   1.836  11.332 -1.1417 -0.0589  3.1513
 8963SOL    HW228331   4.062   1.768  11.326 -0.3499  1.4889 -1.7033
 8964SOL     OW28332   2.477   0.487  12.302 -0.2241  0.3957  0.1897
 8964SOL    HW128333   2.382   0.496  12.315 -0.0026  1.7532  1.1176
 8964SOL    HW228334   2.515   0.558  12.354  1.3181 -0.1967 -0.0741
 8965SOL     OW28335   1.651   3.926   0.433  0.2598 -0.3501 -0.0224
 8965SOL    HW128336   1.717   3.981   0.475 -2.7585  1.2271  3.1657
 8965SOL    HW228337   1.644   3.850   0.491 -1.5582  0.1577  0.4855
 8966SOL     OW28338   2.573   2.285   1.285  0.1793  0.0521  0.3878
 8966SOL    HW128339   2.647   2.258   1.340  1.4329  2.2166 -0.0920
 8966SOL    HW228340   2.603   2.268   1.196  1.3298  3.2777  0.0025
 8967SOL     OW28341   2.583   2.535   9.547  0.3445  0.0160 -0.2270
 8967SOL    HW128342   2.673   2.522   9.519  1.1347  0.0218  2.0877
 8967SOL    HW228343   2.530   2.510   9.471  2.2466 -1.1545 -1.2472
 8968SOL     OW28344   0.801   4.338   1.537 -0.0133  0.3966  0.1697
 8968SOL    HW128345   0.737   4.388   1.588 -2.3784 -1.4683 -0.7279
 8968SOL    HW228346   0.788   4.247   1.565 -0.8961 -0.6211 -3.0641
 8969SOL     OW28347   2.782   4.449  10.964 -0.1639 -0.4681  0.1422
 8969SOL    HW128348   2.752   4.358  10.961 -2.2596  0.1882 -0.6675
 8969SOL    HW228349   2.730   4.489  11.035  3.1328 -0.6027  2.8817
 8970SOL     OW28350   3.486   2.203   0.557  0.1049  0.5806  0.2726
 8970SOL    HW128351   3.523   2.130   0.507  1.1098  1.7897 -0.8302
 8970SOL    HW228352   3.423   2.243   0.497 -0.1190  0.8817  0.7059
 8971SOL     OW28353   3.046   1.121  12.338  0.2897  0.0142 -0.6260
 8971SOL    HW128354   3.111   1.100  12.272 -1.7202 -1.0197 -2.4031
 8971SOL    HW228355   3.038   1.041  12.391  1.3266  0.5738  0.4232
 8972SOL     OW28356   3.811   2.727  10.593 -0.2545 -0.1773  0.3172
 8972SOL    HW128357   3.864   2.769  10.525 -0.9513  0.9845  0.4500
 8972SOL    HW228358   3.846   2.760  10.676 -0.1972 -0.6173  0.4723
 8973SOL     OW28359   2.498   2.534  10.759  0.4381  0.6436 -0.2459
 8973SOL    HW128360   2.572   2.474  10.771  0.5004  0.7946  0.1616
 8973SOL    HW228361   2.529   2.617  10.795  0.8986  1.3485 -2.1847
 8974SOL     OW28362   3.953   1.792   0.845 -0.1788 -0.0906 -0.1439
 8974SOL    HW128363   4.006   1.723   0.885 -1.0511 -0.8660 -0.2952
 8974SOL    HW228364   3.992   1.874   0.876  0.5242 -0.6576  0.4870
 8975SOL     OW28365   5.625   1.787   1.532 -0.2588  0.0184 -0.2240
 8975SOL    HW128366   5.543   1.836   1.530 -0.3515 -0.1310 -0.1373
 8975SOL    HW228367   5.623   1.732   1.454 -1.1504 -1.4390  0.7729
 8976SOL     OW28368   0.107   2.774  12.473  0.0744 -0.1350  0.1811
 8976SOL    HW128369   0.166   2.699  12.481  0.3903  0.2288  1.6480
 8976SOL    HW228370   0.020   2.734  12.465  0.1348 -0.7009  1.9243
 8977SOL     OW28371   4.441   2.898  10.814 -0.0291  0.1669  0.0341
 8977SOL    HW128372   4.444   2.982  10.768 -0.7587  0.1331 -0.0878
 8977SOL    HW228373   4.363   2.904  10.869  0.4999 -0.0253  0.8196
 8978SOL     OW28374   2.564   2.538  11.490 -0.4278  0.0365 -0.3023
 8978SOL    HW128375   2.571   2.633  11.499  1.2307  0.1579 -2.1365
 8978SOL    HW228376   2.476   2.525  11.453 -0.6996  0.8326  0.0243
 8979SOL     OW28377   4.369   2.772   0.462 -0.2254 -0.0769 -0.5520
 8979SOL    HW128378   4.368   2.792   0.555  0.9332  0.2206 -0.5812
 8979SOL    HW228379   4.374   2.857   0.419 -0.4226 -0.2256 -0.8711
 8980SOL     OW28380   1.503   3.632  12.120  0.2575 -0.3089 -0.0221
 8980SOL    HW128381   1.566   3.601  12.186  0.7933  1.0083  0.1252
 8980SOL    HW228382   1.475   3.717  12.152 -1.9310 -1.0215  0.0928
 8981SOL     OW28383   2.759   4.595   2.769  0.6611  0.2280 -0.0325
 8981SOL    HW128384   2.710   4.558   2.843  0.7377  0.9799  0.4137
 8981SOL    HW228385   2.792   4.679   2.803 -0.2308  1.1109 -1.2777
 8982SOL     OW28386   3.515   5.289   0.702 -0.8970 -0.1941  0.2556
 8982SOL    HW128387   3.481   5.347   0.634 -0.5700  0.5038  0.6757
 8982SOL    HW228388   3.473   5.205   0.685  0.4519 -0.5227 -1.8587
 8983SOL     OW28389   3.441   3.495   0.352 -0.0145 -0.1299 -0.0906
 8983SOL    HW128390   3.486   3.522   0.433  0.5133 -0.0105 -0.4176
 8983SOL    HW228391   3.459   3.566   0.290  0.4854 -0.7234 -0.6385
 8984SOL     OW28392   3.333   2.898   0.496 -0.0368 -0.4709 -0.1435
 8984SOL    HW128393   3.273   2.956   0.544 -0.9927 -0.9225 -0.7744
 8984SOL    HW228394   3.362   2.950   0.422 -0.1974 -0.4889 -0.2200
 8985SOL     OW28395   1.907   3.766   0.320 -0.4707  0.3883  0.1319
 8985SOL    HW128396   1.953   3.831   0.267 -0.1924  0.4998  0.5034
 8985SOL    HW228397   1.881   3.815   0.399 -0.7164  0.1774  0.1832
 8986SOL     OW28398   0.194   3.402   0.637  0.0709  0.5492 -0.0172
 8986SOL    HW128399   0.230   3.366   0.717 -0.0465  0.9253  0.2066
 8986SOL    HW228400   0.134   3.334   0.605 -1.9778  1.4595  1.6476
 8987SOL     OW28401   1.671   3.231  12.450  0.1500 -0.3290  0.4366
 8987SOL    HW128402   1.656   3.325  12.444 -0.0834 -0.3583  0.5428
 8987SOL    HW228403   1.650   3.209  12.541  2.1053 -0.1480  0.9946
 8988SOL     OW28404   5.228   3.035   2.162  0.1998  0.1925  0.2091
 8988SOL    HW128405   5.272   3.086   2.230  0.5161 -0.9997  0.9145
 8988SOL    HW228406   5.136   3.035   2.188  0.2004  0.3794  0.2165
 8989SOL     OW28407   2.591   5.475   1.041  0.0926  0.6692  0.1281
 8989SOL    HW128408   2.550   5.471   1.127 -0.8302  0.6393 -0.3005
 8989SOL    HW228409   2.576   5.388   1.003 -1.1086  1.2269 -0.7575
 8990SOL     OW28410   4.574   3.326   0.685  0.1085 -0.4572  0.1321
 8990SOL    HW128411   4.522   3.274   0.624  1.1428 -0.5189 -0.7062
 8990SOL    HW228412   4.626   3.262   0.734  0.3157 -0.3131  0.1025
 8991SOL     OW28413   3.119   4.499   0.670 -0.4024  0.6382 -0.2891
 8991SOL    HW128414   3.031   4.535   0.682 -0.5367  0.8495 -1.7208
 8991SOL    HW228415   3.170   4.571   0.633 -0.4237 -0.2737 -2.2507
 8992SOL     OW28416   2.011   3.214   1.642 -0.0981  0.3802  0.1252
 8992SOL    HW128417   1.941   3.232   1.704 -0.1012 -0.4245  0.3673
 8992SOL    HW228418   2.002   3.121   1.622  0.5756  0.3888 -0.2449
 8993SOL     OW28419   2.211   4.990  12.310 -0.0125  0.2034 -0.2588
 8993SOL    HW128420   2.290   5.041  12.290 -0.5781  1.4779  0.6168
 8993SOL    HW228421   2.216   4.975  12.404 -1.7103  1.9592  0.1763
 8994SOL     OW28422   3.744   5.220   1.356 -0.3048 -0.0635  0.4480
 8994SOL    HW128423   3.741   5.234   1.451 -0.6097 -0.1957  0.4577
 8994SOL    HW228424   3.835   5.194   1.339 -0.0961  0.5245  0.6248
 8995SOL     OW28425   3.036   4.469  10.954 -0.8907  0.2404  0.2038
 8995SOL    HW128426   2.945   4.441  10.955 -0.3723 -1.5476  0.5771
 8995SOL    HW228427   3.083   4.402  11.004  0.9254 -0.0143 -1.6633
 8996SOL     OW28428   2.306   4.200   1.161  0.2349  0.1725 -0.3120
 8996SOL    HW128429   2.253   4.151   1.098 -0.9612  1.4253 -0.3243
 8996SOL    HW228430   2.244   4.256   1.207  1.6482  2.6124 -1.1861
 8997SOL     OW28431   1.889   4.401   1.153 -0.2581  0.0087  0.8015
 8997SOL    HW128432   1.820   4.336   1.168 -1.4285  0.7368 -1.1588
 8997SOL    HW228433   1.968   4.360   1.190 -0.7265 -3.0374 -1.2194
 8998SOL     OW28434   3.228   2.701  11.280  0.1883 -0.1010  0.0006
 8998SOL    HW128435   3.157   2.739  11.228 -0.5423 -1.5210 -0.0856
 8998SOL    HW228436   3.265   2.775  11.327 -0.5443  0.8717 -0.8968
 8999SOL     OW28437   4.329   2.730  11.968  0.1181  0.1207  0.4543
 8999SOL    HW128438   4.323   2.658  12.030  0.3041 -1.0787 -0.8631
 8999SOL    HW228439   4.350   2.807  12.021 -0.4018 -0.7235  1.9295
 9000SOL     OW28440   2.319   3.901   1.331 -0.4634 -0.1696  0.0175
 9000SOL    HW128441   2.396   3.899   1.275 -1.3756 -1.4499 -1.2506
 9000SOL    HW228442   2.335   3.974   1.391  2.8422 -1.9078  1.4689
 9001SOL     OW28443   3.607   4.449  12.348  0.3845  0.1239  0.9985
 9001SOL    HW128444   3.633   4.404  12.268  2.0098  0.8470  1.0715
 9001SOL    HW228445   3.549   4.519  12.319 -0.1780 -0.4859  0.6258
 9002SOL     OW28446   3.167   5.393   9.529  0.7098 -0.1357 -0.0719
 9002SOL    HW128447   3.252   5.352   9.512 -0.0697 -1.0290 -2.1901
 9002SOL    HW228448   3.110   5.319   9.553  0.4712  0.4373  1.2032
 9003SOL     OW28449   3.343   4.445   2.190 -0.6057 -0.2486  0.1884
 9003SOL    HW128450   3.296   4.362   2.190 -2.6239  0.8350  0.0175
 9003SOL    HW228451   3.316   4.488   2.272 -1.2499  1.0910 -0.6875
 9004SOL     OW28452   1.948   3.249  11.241 -0.4753  0.3068  0.3814
 9004SOL    HW128453   1.874   3.216  11.292 -1.9690  1.9411 -0.6656
 9004SOL    HW228454   1.935   3.343  11.237  1.4840  0.5992 -0.1577
 9005SOL     OW28455   1.920   5.407   1.107 -0.3934  0.1341 -0.1764
 9005SOL    HW128456   1.916   5.450   1.193 -0.3932  1.5295 -0.8423
 9005SOL    HW228457   1.832   5.418   1.071 -0.6918 -1.3535  0.0448
 9006SOL     OW28458   2.374   4.056   1.735 -0.1905 -0.0717  0.3745
 9006SOL    HW128459   2.336   4.124   1.791 -3.9640 -1.0287 -0.7314
 9006SOL    HW228460   2.372   4.094   1.647  0.7787 -0.4611  0.1774
 9007SOL     OW28461   2.467   4.467   1.600 -0.2562 -0.0550 -0.3008
 9007SOL    HW128462   2.528   4.541   1.599  2.1941 -1.9319 -1.5196
 9007SOL    HW228463   2.400   4.490   1.536  1.3995  0.4511 -1.9320
 9008SOL     OW28464   1.468   4.027  12.440  0.3145  0.6967 -0.2344
 9008SOL    HW128465   1.527   3.987  12.504  0.5215  1.2100 -0.1063
 9008SOL    HW228466   1.522   4.090  12.393 -0.3569  1.9232  0.5750
 9009SOL     OW28467   3.610   4.017   1.769 -0.1148  0.3097 -0.7402
 9009SOL    HW128468   3.566   3.938   1.799  0.1913  0.1591 -0.6811
 9009SOL    HW228469   3.698   3.988   1.746  0.2248  0.7633 -0.0371
 9010SOL     OW28470   3.380   4.812   1.140 -0.0987 -0.0689  0.0330
 9010SOL    HW128471   3.452   4.753   1.120 -0.4678 -0.2301 -0.8677
 9010SOL    HW228472   3.407   4.856   1.221  0.5531 -0.8472  0.2534
 9011SOL     OW28473   3.276   5.506   3.465 -0.0368 -0.5349  0.0375
 9011SOL    HW128474   3.291   5.414   3.443  2.1162 -0.3178  0.3804
 9011SOL    HW228475   3.283   5.510   3.560  0.2649  0.0310 -0.0034
 9012SOL     OW28476   1.948   3.788   2.737 -0.1653  0.3135  0.3588
 9012SOL    HW128477   1.892   3.815   2.664  0.2971 -0.0602 -0.1514
 9012SOL    HW228478   1.952   3.692   2.730  1.0171  0.3687 -0.0031
 9013SOL     OW28479   2.362   4.335  12.126 -0.1229 -0.1473 -0.0989
 9013SOL    HW128480   2.356   4.285  12.208  1.2284 -0.2544 -0.0530
 9013SOL    HW228481   2.401   4.419  12.151 -3.4789  1.5498  0.0468
 9014SOL     OW28482   2.881   4.826  11.562  0.2684 -0.2672  0.2161
 9014SOL    HW128483   2.786   4.830  11.550  0.2885 -0.2183  0.0684
 9014SOL    HW228484   2.894   4.849  11.654  0.4009  3.6352 -0.5802
 9015SOL     OW28485   2.501   2.296  11.729 -0.4693 -0.2955  0.0148
 9015SOL    HW128486   2.411   2.266  11.745  0.1268 -1.9612  0.4649
 9015SOL    HW228487   2.492   2.368  11.667 -1.9506 -2.0506 -1.9211
 9016SOL     OW28488   2.991   3.886   0.973  0.0092  0.2054  0.3478
 9016SOL    HW128489   3.076   3.931   0.975  0.6386 -0.9160 -0.1547
 9016SOL    HW228490   2.997   3.827   0.898 -0.8165 -0.6598  0.9318
 9017SOL     OW28491   3.196   3.951   2.359  0.2924  0.0218  0.5443
 9017SOL    HW128492   3.235   4.032   2.392 -1.0243  0.5017  0.9931
 9017SOL    HW228493   3.124   3.933   2.420 -0.8151 -0.2729 -0.7987
 9018SOL     OW28494   2.678   3.676   0.823  0.2638 -0.2712  0.2780
 9018SOL    HW128495   2.606   3.739   0.820  0.7661  0.4340  1.9935
 9018SOL    HW228496   2.647   3.602   0.771 -0.4563  1.2363 -1.5609
 9019SOL     OW28497   3.786   4.480   2.416 -0.2645  0.1524  0.0259
 9019SOL    HW128498   3.829   4.552   2.463  0.1705  0.2182 -0.4572
 9019SOL    HW228499   3.736   4.434   2.483  1.2484 -0.4459  0.8099
 9020SOL     OW28500   2.164   3.497   1.746  0.0122  0.0397  0.3496
 9020SOL    HW128501   2.230   3.441   1.785 -0.2931  1.5651  3.3975
 9020SOL    HW228502   2.213   3.570   1.708  0.2150 -0.1873  0.1782
 9021SOL     OW28503   3.394   3.998   0.263  0.5181  0.5349  0.0561
 9021SOL    HW128504   3.381   4.065   0.196  1.5339  1.0867  0.3906
 9021SOL    HW228505   3.477   3.956   0.241 -0.4219 -1.1240 -0.5489
 9022SOL     OW28506   1.725   3.311  12.085  0.2078  0.0822  0.3418
 9022SOL    HW128507   1.777   3.327  12.163  1.5191  0.9835 -0.6641
 9022SOL    HW228508   1.654   3.375  12.089  1.6494  1.8045 -0.3670
 9023SOL     OW28509   2.061   2.979   0.382 -0.1720  0.5586 -0.2620
 9023SOL    HW128510   1.983   3.032   0.399  0.7756  1.7577  0.5376
 9023SOL    HW228511   2.097   3.016   0.301  0.6236  1.3511  0.4266
 9024SOL     OW28512   2.443   4.908   3.364 -0.2705  0.4572 -0.8066
 9024SOL    HW128513   2.486   4.870   3.440  1.1359  0.1905 -1.6922
 9024SOL    HW228514   2.389   4.978   3.399 -0.1150 -0.0513  0.4892
 9025SOL     OW28515   3.630   4.696   0.115 -0.1242  0.6288  0.3062
 9025SOL    HW128516   3.583   4.709   0.033 -0.4755  1.2331  0.5900
 9025SOL    HW228517   3.713   4.742   0.103 -1.0868  2.7449  1.0644
 9026SOL     OW28518   1.827   3.300   0.966  0.0892 -0.2936 -0.6764
 9026SOL    HW128519   1.775   3.234   0.920  0.5894 -0.7945 -0.5376
 9026SOL    HW228520   1.887   3.250   1.022  1.2857  0.2324 -1.4381
 9027SOL     OW28521   2.605   4.559   1.303 -0.3066 -0.2611  0.0127
 9027SOL    HW128522   2.519   4.519   1.290 -0.3294 -0.2819  0.2141
 9027SOL    HW228523   2.594   4.614   1.381 -0.3769  0.4243 -0.4711
 9028SOL     OW28524   1.502   3.374   1.074  0.7037  0.2577  0.3592
 9028SOL    HW128525   1.548   3.412   1.148  0.4972  0.3661  0.4327
 9028SOL    HW228526   1.547   3.409   0.997 -1.1533  2.8653  0.3454
 9029SOL     OW28527   2.044   3.384   1.315  0.2695  0.4044 -0.0714
 9029SOL    HW128528   2.048   3.315   1.248  0.0251  1.2766 -0.9995
 9029SOL    HW228529   2.110   3.358   1.379 -0.6693 -1.3525  0.2544
 9030SOL     OW28530   0.663   4.136   0.659  0.3454  0.0660 -0.2708
 9030SOL    HW128531   0.709   4.164   0.580  0.7308  2.1994  0.6200
 9030SOL    HW228532   0.576   4.175   0.651 -0.1156 -0.9293 -0.2824
 9031SOL     OW28533   2.784   3.579   0.511  0.2559 -0.3401 -0.0354
 9031SOL    HW128534   2.786   3.674   0.518 -0.3045 -0.0249 -3.0090
 9031SOL    HW228535   2.860   3.550   0.561  0.4489  1.6516  0.9198
 9032SOL     OW28536   5.855   4.622   0.820  0.1613 -0.5401 -0.6224
 9032SOL    HW128537   5.865   4.654   0.731  0.7262  1.5454  0.1166
 9032SOL    HW228538   5.760   4.616   0.833 -0.1066  2.6019 -0.3237
 9033SOL     OW28539   2.277   3.544   0.964 -0.3477  0.2508  0.1844
 9033SOL    HW128540   2.225   3.588   1.031  0.6570  2.3560 -0.3384
 9033SOL    HW228541   2.347   3.500   1.012 -0.7022  0.1926  0.6459
 9034SOL     OW28542   2.874   4.508   1.597  0.0772  0.1264 -0.0583
 9034SOL    HW128543   2.957   4.471   1.625 -0.7290 -0.5995  1.5204
 9034SOL    HW228544   2.856   4.466   1.513  1.5262  0.6950 -0.6850
 9035SOL     OW28545   2.165   5.596   1.970 -0.2636  0.0497 -0.7993
 9035SOL    HW128546   2.076   5.612   1.939 -0.2337 -2.2630 -2.3670
 9035SOL    HW228547   2.201   5.532   1.908  1.6474 -0.9345  1.1739
 9036SOL     OW28548   3.899   3.570   0.400  0.1421 -0.2229 -0.1911
 9036SOL    HW128549   3.905   3.483   0.360 -0.6580  0.4658 -1.9400
 9036SOL    HW228550   3.984   3.611   0.381 -0.2070  0.0740 -1.2116
 9037SOL     OW28551   0.802   3.627   0.917  0.0411  0.2260  0.6166
 9037SOL    HW128552   0.786   3.721   0.911  1.3605  0.4536  0.4359
 9037SOL    HW228553   0.824   3.601   0.827 -2.7885 -0.7764  0.1005
 9038SOL     OW28554   2.762   4.130   1.888  1.4223 -0.5392  0.0974
 9038SOL    HW128555   2.695   4.107   1.952  0.2341 -0.1855 -0.9566
 9038SOL    HW228556   2.739   4.078   1.810  2.3897 -0.4150 -0.2872
 9039SOL     OW28557   2.510   3.579   1.261  0.1268  0.0410 -0.0118
 9039SOL    HW128558   2.516   3.521   1.185 -0.5392 -1.3150  0.9422
 9039SOL    HW228559   2.493   3.665   1.224 -0.0795 -0.5744 -1.4011
 9040SOL     OW28560   4.747   1.840  12.137 -0.2026 -0.0440 -0.4666
 9040SOL    HW128561   4.688   1.768  12.163 -2.6462  1.7771 -0.6278
 9040SOL    HW228562   4.833   1.799  12.133 -1.0500 -2.3809  1.9959
 9041SOL     OW28563   2.458   4.291   0.934  0.2521  0.1170 -0.0358
 9041SOL    HW128564   2.545   4.325   0.912  0.5684 -0.6258  0.0225
 9041SOL    HW228565   2.465   4.197   0.917 -1.4868  0.4110 -3.1707
 9042SOL     OW28566   4.270   6.379  12.340 -0.1804  0.3711  0.0306
 9042SOL    HW128567   4.196   6.417  12.293 -0.5566 -1.7648 -1.1941
 9042SOL    HW228568   4.234   6.301  12.382  1.2201 -0.3082  0.0041
 9043SOL     OW28569   3.600   1.163  11.310  0.2749  0.2039  0.3928
 9043SOL    HW128570   3.585   1.241  11.364  1.2989  0.3778  0.4489
 9043SOL    HW228571   3.691   1.173  11.279  0.2742 -0.7591  0.0584
 9044SOL     OW28572   3.409   0.849   0.260 -0.9187  0.0701 -0.2202
 9044SOL    HW128573   3.339   0.883   0.316 -0.5115  0.2082  0.2119
 9044SOL    HW228574   3.418   0.757   0.287  0.6270  0.6235  1.3852
 9045SOL     OW28575   2.147   2.945   2.748  0.1909  0.0855 -0.4619
 9045SOL    HW128576   2.138   3.040   2.742  1.2782  0.2229 -0.2719
 9045SOL    HW228577   2.238   2.929   2.723  0.4680 -0.7553  0.9703
 9046SOL     OW28578   3.010   3.394   0.765 -0.2159 -0.0786 -0.2203
 9046SOL    HW128579   3.096   3.414   0.729 -0.1369  0.1162  0.0773
 9046SOL    HW228580   2.961   3.358   0.691 -0.0969  0.4505 -0.5623
 9047SOL     OW28581   3.886   4.346   0.368 -1.1025 -0.4858  0.1501
 9047SOL    HW128582   3.824   4.418   0.362 -0.9417 -0.3628 -0.0529
 9047SOL    HW228583   3.963   4.377   0.320 -1.5588 -1.3528 -1.1750
 9048SOL     OW28584   2.528   4.251   2.835 -0.3888 -0.0435  0.7633
 9048SOL    HW128585   2.610   4.296   2.855 -0.4073 -0.1012  0.9645
 9048SOL    HW228586   2.463   4.293   2.892 -0.8600  1.2107 -0.5944
 9049SOL     OW28587   1.410   3.736   0.056  0.5590  0.2873 -0.3728
 9049SOL    HW128588   1.332   3.787   0.031  0.0995 -0.2422 -0.0514
 9049SOL    HW228589   1.470   3.747  -0.017 -0.0306  0.2896 -0.8703
 9050SOL     OW28590   3.858   3.967   2.060  0.2095  0.2121  0.7253
 9050SOL    HW128591   3.950   3.981   2.080  0.4030 -2.2473  1.9630
 9050SOL    HW228592   3.842   4.020   1.982  2.9447 -0.0963 -0.1510
 9051SOL     OW28593   2.175   3.414  11.860 -0.0050  0.4288  0.1883
 9051SOL    HW128594   2.268   3.405  11.842  0.1724  1.4910  0.4828
 9051SOL    HW228595   2.132   3.364  11.791  0.7576  0.7795 -0.5509
 9052SOL     OW28596   4.422   3.073   2.061  0.3630  0.7442 -0.5559
 9052SOL    HW128597   4.414   3.083   2.156 -1.9411 -0.0874 -0.5836
 9052SOL    HW228598   4.461   3.155   2.031  1.7280  0.7645  1.1424
 9053SOL     OW28599   2.233   3.711  12.209  0.0062  0.4044 -0.0869
 9053SOL    HW128600   2.215   3.790  12.260 -0.8862  0.0107  0.2316
 9053SOL    HW228601   2.328   3.710  12.199 -0.0170  1.8460 -0.6352
 9054SOL     OW28602   0.547   4.441   1.055  0.7548  0.1511  0.2211
 9054SOL    HW128603   0.607   4.512   1.030 -0.6560  1.0699 -0.6842
 9054SOL    HW228604   0.483   4.482   1.113 -0.3002 -0.2680 -0.6157
 9055SOL     OW28605   1.086   1.622   1.883  0.0538  0.7451 -0.0678
 9055SOL    HW128606   1.131   1.596   1.963  0.5717 -1.1051 -0.8939
 9055SOL    HW228607   1.155   1.642   1.821 -0.3466  2.4951  0.0073
 9056SOL     OW28608   3.151   5.887  12.152 -0.0345  0.2364  0.0425
 9056SOL    HW128609   3.199   5.893  12.235 -1.6916  1.1184  0.9908
 9056SOL    HW228610   3.079   5.950  12.161 -1.0446 -0.6177 -1.5308
 9057SOL     OW28611   7.484   3.075  12.051 -0.2552 -0.4491  0.4879
 9057SOL    HW128612   7.542   3.109  11.984 -0.2598 -0.1535  0.6320
 9057SOL    HW228613   7.504   3.126  12.129 -1.2126  0.1586  0.3548
 9058SOL     OW28614   2.923   4.756   0.952  0.0328 -0.6738  0.2294
 9058SOL    HW128615   2.877   4.777   1.033  0.9824 -1.6295  1.0557
 9058SOL    HW228616   2.998   4.815   0.950  0.2654 -0.9601  0.3017
 9059SOL     OW28617   2.806   3.919  10.964  0.0432  0.4284  0.2403
 9059SOL    HW128618   2.786   3.882  10.878  0.4425 -0.1740  0.4044
 9059SOL    HW228619   2.901   3.917  10.970 -0.0243 -0.8805  1.2724
 9060SOL     OW28620   7.577   3.323   1.560 -0.3660  0.1361 -0.4302
 9060SOL    HW128621   7.595   3.407   1.603 -0.3354 -0.0974  0.0140
 9060SOL    HW228622   7.502   3.287   1.608  0.4309 -0.6860  0.2126
 9061SOL     OW28623   1.379   3.441   0.631 -0.2366  0.2932  0.4468
 9061SOL    HW128624   1.412   3.506   0.570  0.6647 -0.1281  0.4698
 9061SOL    HW228625   1.299   3.480   0.667  0.0409  1.1826  0.1256
 9062SOL     OW28626   3.953   2.668   0.025 -0.3899  0.0269  0.1354
 9062SOL    HW128627   3.896   2.726  -0.026  0.7808 -1.7585 -3.4845
 9062SOL    HW228628   3.911   2.582   0.019 -0.9342 -0.0865  3.5462
 9063SOL     OW28629   4.670   1.926   0.036 -0.1415  0.4405 -0.0932
 9063SOL    HW128630   4.619   1.862   0.085 -0.0790 -0.5725 -1.2927
 9063SOL    HW228631   4.610   1.959  -0.030  1.0812 -2.0461 -2.6659
 9064SOL     OW28632   3.588   4.638   1.141 -0.4140  0.0126  0.3227
 9064SOL    HW128633   3.667   4.592   1.111  0.1172  0.0659  1.5740
 9064SOL    HW228634   3.615   4.681   1.222 -2.0649 -0.9880  1.4531
 9065SOL     OW28635   1.933   4.561   0.752 -0.7968 -0.1765  0.0014
 9065SOL    HW128636   2.008   4.562   0.811  1.0441 -2.2319 -2.1452
 9065SOL    HW228637   1.861   4.526   0.806  0.4396 -0.6494  1.3980
 9066SOL     OW28638   2.392   3.165  12.459  0.2020 -0.6461  0.1360
 9066SOL    HW128639   2.455   3.190  12.393 -0.9077 -1.9239 -1.5085
 9066SOL    HW228640   2.313   3.215  12.438  0.2118 -0.1161  1.2901
 9067SOL     OW28641   6.547   4.940  11.771 -0.2086  0.1049 -0.3365
 9067SOL    HW128642   6.597   4.951  11.690 -0.6729 -0.7444 -0.7611
 9067SOL    HW228643   6.456   4.935  11.741 -0.3817 -0.2148  0.2408
 9068SOL     OW28644   3.017   4.999   0.746 -0.0128  0.3393 -0.0220
 9068SOL    HW128645   3.016   5.091   0.719 -0.8273  0.7213  1.2562
 9068SOL    HW228646   3.107   4.983   0.775 -0.0210  0.9090  0.3225
 9069SOL     OW28647   4.148   4.197   0.669 -0.1048  0.4512  0.4597
 9069SOL    HW128648   4.162   4.156   0.755 -1.6605 -2.8580 -0.6917
 9069SOL    HW228649   4.210   4.153   0.612 -2.3195 -0.9924 -0.9881
 9070SOL     OW28650   2.001   2.190   0.002  0.3828 -0.0936 -0.2136
 9070SOL    HW128651   2.052   2.214   0.079  1.0261  0.4193 -0.7946
 9070SOL    HW228652   1.984   2.272  -0.043  0.9899 -0.5085 -1.2208
 9071SOL     OW28653   2.076   6.066   1.850 -0.0330 -0.7355 -0.2674
 9071SOL    HW128654   1.993   6.018   1.857  0.6349 -1.6961  2.8268
 9071SOL    HW228655   2.061   6.147   1.900  1.3840 -1.8205  2.0569
 9072SOL     OW28656   1.979   4.968   1.384 -0.5005 -0.4306  0.3831
 9072SOL    HW128657   2.012   4.883   1.355 -1.8562 -1.3378  1.4540
 9072SOL    HW228658   1.887   4.968   1.360 -0.2602  1.3214 -0.8292
 9073SOL     OW28659   4.048   5.588   2.133  0.2707 -0.1949 -0.1740
 9073SOL    HW128660   4.071   5.676   2.163 -0.0034  0.4354 -1.7559
 9073SOL    HW228661   4.020   5.543   2.213  1.3489  0.8207  0.8297
 9074SOL     OW28662   3.646   4.697  11.826 -0.0231  0.5293  0.3897
 9074SOL    HW128663   3.723   4.702  11.770  0.3737 -2.7299  0.4275
 9074SOL    HW228664   3.575   4.730  11.772  1.0156  1.3688 -0.5012
 9075SOL     OW28665   2.513   3.636   1.632 -0.1905 -0.4468  0.5033
 9075SOL    HW128666   2.499   3.554   1.587 -0.6518 -1.0504  1.7072
 9075SOL    HW228667   2.571   3.686   1.574 -0.6582 -1.2301 -0.6661
 9076SOL     OW28668   0.764   2.921   1.844  1.4262  0.0439 -0.6884
 9076SOL    HW128669   0.795   2.949   1.930  1.1118  0.4000 -0.6864
 9076SOL    HW228670   0.797   2.988   1.784  2.2634 -0.5880 -0.9562
 9077SOL     OW28671   1.300   4.992   1.607  0.6434 -0.9897  0.0510
 9077SOL    HW128672   1.314   4.928   1.677  2.1255 -1.6381 -0.8002
 9077SOL    HW228673   1.349   4.957   1.532  0.1484  0.3375 -0.9242
 9078SOL     OW28674   2.482   3.079  12.048  0.0511 -0.1649  0.0615
 9078SOL    HW128675   2.515   3.076  11.958 -0.7096 -1.7735 -0.2171
 9078SOL    HW228676   2.551   3.039  12.100  0.3505  0.4562  0.1434
 9079SOL     OW28677   3.699   4.392   1.348  0.0230  0.0008  0.4225
 9079SOL    HW128678   3.787   4.408   1.314 -0.1194  1.0660  0.5084
 9079SOL    HW228679   3.703   4.420   1.439 -0.4062  0.0634  0.4254
 9080SOL     OW28680   4.171   4.888   1.220 -0.9038 -0.3444 -0.1682
 9080SOL    HW128681   4.238   4.930   1.274 -0.3090 -0.6223 -0.6707
 9080SOL    HW228682   4.108   4.853   1.283 -0.1956 -0.7165  0.3523
 9081SOL     OW28683   0.407   4.527   0.068 -0.5169 -0.2008  0.0498
 9081SOL    HW128684   0.469   4.542   0.140  1.3967  1.2733 -1.7687
 9081SOL    HW228685   0.335   4.587   0.086  0.3368  0.7758  0.3147
 9082SOL     OW28686   4.226   5.193   1.233  0.4590 -0.3040 -0.0303
 9082SOL    HW128687   4.257   5.173   1.144 -0.9927  0.8270 -0.8437
 9082SOL    HW228688   4.287   5.260   1.265 -1.1970  2.1983 -1.7656
 9083SOL     OW28689   3.094   3.178   1.328 -0.3907  0.7560  0.4378
 9083SOL    HW128690   3.163   3.168   1.262  1.1162  1.8233  1.7775
 9083SOL    HW228691   3.034   3.242   1.291 -1.1280 -0.7572 -1.0841
 9084SOL     OW28692   2.918   3.775   0.724  0.2669 -0.1145  0.1858
 9084SOL    HW128693   2.871   3.829   0.661  0.5311  0.4135  0.4312
 9084SOL    HW228694   2.850   3.731   0.774  0.0508 -0.1813 -0.1627
 9085SOL     OW28695   2.830   3.340   0.245  0.7464 -0.3838 -0.0740
 9085SOL    HW128696   2.774   3.376   0.176  0.0062  1.7724  1.5372
 9085SOL    HW228697   2.840   3.247   0.222 -1.6512 -0.3382 -1.6211
 9086SOL     OW28698   5.100   2.801   1.774 -0.7317 -0.7520 -0.2944
 9086SOL    HW128699   5.034   2.744   1.815 -1.2024 -0.1482 -0.1971
 9086SOL    HW228700   5.092   2.782   1.680  1.3216 -3.1805 -0.0839
 9087SOL     OW28701   1.882   5.862   1.328  0.7982  0.0625  0.4148
 9087SOL    HW128702   1.918   5.874   1.240  3.5817  0.8270  1.5379
 9087SOL    HW228703   1.819   5.791   1.318  0.9137  0.2172 -2.2117
 9088SOL     OW28704   2.259   3.930   2.543 -0.8516 -0.5896 -0.0658
 9088SOL    HW128705   2.342   3.977   2.533 -0.3366 -1.5848 -0.6049
 9088SOL    HW228706   2.263   3.893   2.630 -0.7072 -0.6845 -0.1130
 9089SOL     OW28707   2.540   3.324   3.132 -0.0619 -0.0590 -0.4988
 9089SOL    HW128708   2.508   3.310   3.221 -0.5682 -0.9761 -0.8210
 9089SOL    HW228709   2.621   3.374   3.144 -1.3664  2.0017  0.3478
 9090SOL     OW28710   3.054   2.293   1.273 -0.0096 -0.1145 -0.1784
 9090SOL    HW128711   3.141   2.325   1.248  0.1096  0.3491  0.7589
 9090SOL    HW228712   3.032   2.344   1.351 -1.2215 -0.0822 -0.5349
 9091SOL     OW28713   2.337   2.883   0.301  0.0603  0.2729 -0.7014
 9091SOL    HW128714   2.400   2.824   0.341 -2.4379 -2.2210 -0.1592
 9091SOL    HW228715   2.316   2.947   0.370 -0.1467 -0.6592  0.1134
 9092SOL     OW28716   1.197   3.720   1.613  0.0398  0.1920  0.5803
 9092SOL    HW128717   1.155   3.806   1.612 -0.7319 -0.1642 -1.1169
 9092SOL    HW228718   1.133   3.662   1.571 -0.0811 -1.5510  2.9565
 9093SOL     OW28719   2.806   3.858   0.484 -0.2085 -0.4118 -0.4998
 9093SOL    HW128720   2.765   3.944   0.496 -0.5763 -0.5948 -0.4173
 9093SOL    HW228721   2.821   3.852   0.389  1.4480  0.4681 -0.3271
 9094SOL     OW28722   3.367   3.779   1.307 -0.1793  0.7957  0.3373
 9094SOL    HW128723   3.316   3.836   1.364 -0.8537 -0.0940  0.6442
 9094SOL    HW228724   3.308   3.757   1.235  0.5399  1.5983 -0.5283
 9095SOL     OW28725   2.382   4.138   1.448  0.0765  0.2776  0.3865
 9095SOL    HW128726   2.384   4.143   1.353  3.0502 -0.0643  0.3267
 9095SOL    HW228727   2.427   4.218   1.477  0.2187 -0.1577  1.4350
 9096SOL     OW28728   2.498   3.217   0.190 -1.1343 -0.4019 -0.7836
 9096SOL    HW128729   2.571   3.275   0.168  0.6922 -1.9791  0.6655
 9096SOL    HW228730   2.470   3.180   0.107  1.6788 -1.8765 -1.1996
 9097SOL     OW28731   2.641   4.036   0.886 -0.0002  0.9045 -0.7644
 9097SOL    HW128732   2.673   3.981   0.958 -0.8080 -0.4429 -1.3982
 9097SOL    HW228733   2.634   3.976   0.812  1.2092  2.3477 -2.1108
 9098SOL     OW28734   2.121   4.677   2.390  0.2601 -0.5275 -0.3679
 9098SOL    HW128735   2.169   4.642   2.465  0.1674 -0.3099 -0.2067
 9098SOL    HW228736   2.190   4.704   2.328  0.3692  0.4008  0.1427
 9099SOL     OW28737   1.402   4.325   0.563  0.4439 -0.0780  0.4829
 9099SOL    HW128738   1.433   4.266   0.494  1.2712 -0.2814  1.0054
 9099SOL    HW228739   1.476   4.330   0.625 -0.1493  0.3666  1.1736
 9100SOL     OW28740   2.963   3.483   1.537  0.0835 -0.2756  0.0695
 9100SOL    HW128741   2.892   3.419   1.528 -0.7682  0.3938  1.6281
 9100SOL    HW228742   2.919   3.565   1.558  1.2809  0.3269  0.3109
 9101SOL     OW28743   2.744   3.916  11.974  0.6666 -0.0707 -0.4190
 9101SOL    HW128744   2.774   3.825  11.965  0.1771 -0.3489  0.6248
 9101SOL    HW228745   2.650   3.911  11.962  0.0922 -0.3017  2.9608
 9102SOL     OW28746   2.062   6.206   0.270 -0.1614 -0.5695 -0.0147
 9102SOL    HW128747   2.024   6.119   0.284  0.7210 -0.8335  0.7933
 9102SOL    HW228748   2.126   6.193   0.200  0.1385 -0.6232  0.2678
 9103SOL     OW28749   4.875   3.935   0.713  0.1916 -0.4929 -0.2025
 9103SOL    HW128750   4.867   3.901   0.624 -0.0286 -1.2324  0.1000
 9103SOL    HW228751   4.818   4.013   0.714  0.4360 -0.3011 -0.7910
 9104SOL     OW28752   0.996   4.477   0.693  0.0573  0.1097  0.4588
 9104SOL    HW128753   0.905   4.496   0.715 -0.0225 -0.1209  0.3334
 9104SOL    HW228754   1.017   4.540   0.625  0.0302  0.2458  0.5750
 9105SOL     OW28755   3.806   2.462  12.331  0.4204 -0.3381 -0.4313
 9105SOL    HW128756   3.827   2.433  12.420 -1.6388  0.6030  0.4420
 9105SOL    HW228757   3.841   2.393  12.274 -0.5595 -2.3547  1.2645
 9106SOL     OW28758   4.072   5.286   0.933  0.0535 -0.3434  0.2698
 9106SOL    HW128759   4.018   5.209   0.948  1.2090 -1.2526 -0.0525
 9106SOL    HW228760   4.162   5.255   0.948  0.5435  0.9296  0.0808
 9107SOL     OW28761   3.457   3.728   0.692  0.5448 -0.9625 -0.2524
 9107SOL    HW128762   3.550   3.746   0.700  0.1014  1.7923 -0.4619
 9107SOL    HW228763   3.433   3.761   0.606 -0.5346 -2.2936 -0.5109
 9108SOL     OW28764   1.806   4.304  11.812 -0.4826 -0.1143 -0.4511
 9108SOL    HW128765   1.870   4.255  11.760  0.5458 -0.2084  0.8726
 9108SOL    HW228766   1.781   4.245  11.882  2.4978  1.8141  2.5756
 9109SOL     OW28767   1.087   4.695   1.525  0.4821  0.3813 -0.6085
 9109SOL    HW128768   1.181   4.711   1.512  0.4881  1.3292  0.4809
 9109SOL    HW228769   1.083   4.624   1.589  0.4616  0.7734 -0.1723
 9110SOL     OW28770   3.053   2.459   1.990  0.1469 -0.0090 -0.3158
 9110SOL    HW128771   2.975   2.464   1.935 -0.0835  0.7020  0.0685
 9110SOL    HW228772   3.026   2.405   2.064  0.1430 -0.0939 -0.3786
 9111SOL     OW28773   4.657   2.915   2.354  0.0014  0.1804  0.9974
 9111SOL    HW128774   4.643   2.863   2.275 -0.5696  0.5339  0.8549
 9111SOL    HW228775   4.582   2.975   2.356 -1.3791 -1.4296  3.0847
 9112SOL     OW28776   1.996   5.725  11.512 -0.3538  0.0664 -0.2303
 9112SOL    HW128777   1.920   5.764  11.469  0.3170  1.6477 -0.0237
 9112SOL    HW228778   2.071   5.755  11.460  0.1452 -1.7269 -0.6154
 9113SOL     OW28779   0.876   2.407   1.827 -0.0871  0.8115 -0.3166
 9113SOL    HW128780   0.870   2.502   1.820  1.9310  0.9623 -0.6934
 9113SOL    HW228781   0.960   2.391   1.869  0.0788 -0.8208 -1.1642
 9114SOL     OW28782   0.859   3.600   0.632  0.0943  0.1342 -0.5173
 9114SOL    HW128783   0.920   3.606   0.558  0.3013  1.0940 -0.2787
 9114SOL    HW228784   0.783   3.651   0.604  0.0428  0.2340 -0.1942
 9115SOL     OW28785   7.066   2.049   1.122  0.0375  0.1448 -0.1032
 9115SOL    HW128786   7.025   1.963   1.115 -1.3781  0.6559  1.2911
 9115SOL    HW228787   7.158   2.029   1.143 -0.2748 -1.0386  0.2482
 9116SOL     OW28788   1.639   3.707  12.394 -0.5284  0.0811 -0.2141
 9116SOL    HW128789   1.710   3.757  12.352 -0.9511  0.6272 -0.2896
 9116SOL    HW228790   1.683   3.659  12.464 -0.0648  0.3363 -0.3204
 9117SOL     OW28791   4.025   4.519   2.260 -0.1320  0.2417 -0.1532
 9117SOL    HW128792   4.005   4.545   2.350 -1.2572  1.0189 -0.6013
 9117SOL    HW228793   4.032   4.424   2.263  1.1620  0.3299  0.9843
 9118SOL     OW28794   4.453   4.748   1.036 -0.0397 -0.1007  0.3488
 9118SOL    HW128795   4.365   4.786   1.030  0.2575  0.5179 -0.2677
 9118SOL    HW228796   4.443   4.675   1.096 -0.2837  1.9600  2.9817
 9119SOL     OW28797   3.239   3.558  12.206 -0.1868 -0.1587  0.3752
 9119SOL    HW128798   3.269   3.467  12.202 -1.3765 -0.5473 -0.2350
 9119SOL    HW228799   3.290   3.603  12.138 -1.3899 -0.9544 -1.1152
 9120SOL     OW28800   0.162   3.761   2.382 -0.4983  0.2053 -0.2698
 9120SOL    HW128801   0.208   3.810   2.314  0.3725  1.6011  1.2817
 9120SOL    HW228802   0.184   3.805   2.464 -2.6693 -0.5523  0.8044
 9121SOL     OW28803   4.537   3.750   0.968 -0.8025 -0.4140  0.4317
 9121SOL    HW128804   4.519   3.817   1.034 -0.4992  0.9691 -0.8158
 9121SOL    HW228805   4.451   3.715   0.945 -1.3240  1.4990 -0.8076
 9122SOL     OW28806   0.958   4.769   2.329  0.0935  0.3673 -0.0484
 9122SOL    HW128807   0.965   4.863   2.343 -3.5877  1.3103 -3.1060
 9122SOL    HW228808   1.019   4.750   2.258 -1.2174  1.1387 -1.4423
 9123SOL     OW28809   1.621   4.346   0.712  0.4028  0.1748 -0.6832
 9123SOL    HW128810   1.678   4.272   0.732  0.4663  0.6482  1.1354
 9123SOL    HW228811   1.642   4.411   0.779 -2.6610  0.1343  0.4809
 9124SOL     OW28812   2.298   5.945  12.042  0.2288 -0.0772 -0.0864
 9124SOL    HW128813   2.244   5.874  12.079 -1.5443  0.8971 -0.6661
 9124SOL    HW228814   2.311   5.920  11.951  1.5787 -0.7517  0.2717
 9125SOL     OW28815   1.208   4.100   0.031 -0.3654 -0.0802 -0.5075
 9125SOL    HW128816   1.202   4.005   0.041  2.6845 -0.2057  1.4253
 9125SOL    HW228817   1.266   4.113  -0.043  1.9454  0.0678  1.2081
 9126SOL     OW28818   1.505   5.493  12.478  0.2933  0.5632 -0.0661
 9126SOL    HW128819   1.429   5.552  12.479  0.3242  0.8398 -3.4822
 9126SOL    HW228820   1.471   5.411  12.444  0.9810 -0.3299  1.3180
 9127SOL     OW28821   2.687   4.076   0.386 -0.4909 -0.1204 -0.6400
 9127SOL    HW128822   2.623   4.047   0.321  0.6682 -0.9625 -1.4482
 9127SOL    HW228823   2.726   4.155   0.349 -1.1922  0.5160 -0.0487
 9128SOL     OW28824   2.978   2.272   0.735 -0.3243 -0.2717 -0.8382
 9128SOL    HW128825   2.960   2.270   0.829  1.1759 -0.0892 -0.5198
 9128SOL    HW228826   3.012   2.184   0.716  0.8711  0.1802 -0.8661
 9129SOL     OW28827   2.484   3.759   1.902 -0.0795 -0.1590 -0.0191
 9129SOL    HW128828   2.474   3.705   1.824 -0.1170  1.5155 -1.2298
 9129SOL    HW228829   2.579   3.766   1.915 -0.0734 -0.4191  0.0855
 9130SOL     OW28830   4.482   4.520   1.211  0.4255  0.0334 -0.3267
 9130SOL    HW128831   4.448   4.533   1.299 -1.3103  0.5068 -1.0371
 9130SOL    HW228832   4.455   4.431   1.188  0.5775  0.0345 -0.5099
 9131SOL     OW28833   7.805   4.527  11.507 -0.1715  0.4284 -0.1638
 9131SOL    HW128834   7.786   4.567  11.592  0.5555  1.2398 -0.3720
 9131SOL    HW228835   7.891   4.486  11.519 -1.1321 -1.6254  0.2237
 9132SOL     OW28836   3.457   3.018   1.793 -0.2139  0.3007  0.3489
 9132SOL    HW128837   3.413   2.977   1.867 -0.3627  0.9408  0.6244
 9132SOL    HW228838   3.548   3.027   1.820  0.1561 -1.2250 -0.3065
 9133SOL     OW28839   2.315   6.079  10.399 -0.9287  0.5305  0.1949
 9133SOL    HW128840   2.340   6.076  10.492 -0.1180  0.5077 -0.0144
 9133SOL    HW228841   2.324   6.171  10.376 -1.1469  0.5381  0.1464
 9134SOL     OW28842   1.982   3.696   3.022 -0.0497  0.4785 -0.3651
 9134SOL    HW128843   1.904   3.752   3.022 -0.5588 -0.1935 -1.4007
 9134SOL    HW228844   2.006   3.690   2.930  0.2626 -0.6411 -0.2174
 9135SOL     OW28845   2.817   4.835   0.177 -0.0581  0.4890 -0.3809
 9135SOL    HW128846   2.730   4.849   0.216  0.1090  1.3439 -0.2896
 9135SOL    HW228847   2.813   4.879   0.092  0.6431  1.5636  0.1171
 9136SOL     OW28848   2.351   4.707   2.213  0.3948  0.2994  0.3300
 9136SOL    HW128849   2.363   4.616   2.184 -0.4114  0.1230  0.5215
 9136SOL    HW228850   2.420   4.720   2.278  2.1124  0.6436 -1.4755
 9137SOL     OW28851   1.998   4.779  12.054  0.5074  0.1493  0.2189
 9137SOL    HW128852   1.979   4.715  11.985  0.8226 -0.3455  0.5822
 9137SOL    HW228853   2.091   4.799  12.043  0.4903  0.2824  0.3208
 9138SOL     OW28854   4.752   5.710   1.335  0.1057  0.1017 -0.4659
 9138SOL    HW128855   4.833   5.751   1.364  0.0008  0.3947 -0.5796
 9138SOL    HW228856   4.780   5.639   1.277  0.3912 -1.5200  1.5489
 9139SOL     OW28857   3.765   3.439   1.153  0.0633  0.5068 -0.1055
 9139SOL    HW128858   3.692   3.498   1.132 -0.4559  0.5028  1.5748
 9139SOL    HW228859   3.794   3.467   1.239 -0.7646 -2.2209  1.1730
 9140SOL     OW28860   0.531   2.893   0.631 -0.0163  0.2662  0.4253
 9140SOL    HW128861   0.440   2.862   0.630  0.3850 -0.9771 -0.6680
 9140SOL    HW228862   0.527   2.980   0.590 -0.4299 -0.7908 -1.9569
 9141SOL     OW28863   2.112   4.853  11.351 -0.0104 -0.4372  0.3331
 9141SOL    HW128864   2.153   4.896  11.277 -1.0893 -1.0581 -0.6544
 9141SOL    HW228865   2.061   4.922  11.393  1.0085  0.0363  0.8279
 9142SOL     OW28866   3.066   3.787   1.247 -0.1033 -0.2226  0.1482
 9142SOL    HW128867   3.058   3.783   1.152  2.7429 -0.4554 -0.1531
 9142SOL    HW228868   3.052   3.697   1.276 -1.9554  0.0054  0.1267
 9143SOL     OW28869   3.002   4.059  12.472 -0.3405 -0.4883  0.1778
 9143SOL    HW128870   2.982   4.101  12.556  1.9493  3.0981 -0.8637
 9143SOL    HW228871   3.056   3.983  12.496  1.5644  1.2997  2.0232
 9144SOL     OW28872   4.359   4.253   1.217  0.0886  0.0902 -0.4540
 9144SOL    HW128873   4.272   4.220   1.194  0.5717 -1.8758  0.3361
 9144SOL    HW228874   4.418   4.207   1.158  0.8809 -1.3722  1.3809
 9145SOL     OW28875   1.025   4.664   2.666 -0.2857  0.7517 -0.5191
 9145SOL    HW128876   0.942   4.648   2.712 -0.1130 -0.4474 -0.5693
 9145SOL    HW228877   1.092   4.651   2.732 -0.0800  0.0799 -0.8464
 9146SOL     OW28878   2.871   5.019   1.253 -0.4471 -0.3766 -0.2402
 9146SOL    HW128879   2.881   5.066   1.336  1.5675  0.6178 -1.0091
 9146SOL    HW228880   2.911   5.076   1.188 -0.4222 -1.9379 -1.6399
 9147SOL     OW28881   4.246   4.753   1.519 -0.0445 -0.1025 -0.3094
 9147SOL    HW128882   4.156   4.736   1.547 -0.4077  1.0067 -0.7371
 9147SOL    HW228883   4.281   4.813   1.585  0.4104 -0.5682 -0.1179
 9148SOL     OW28884   3.400   2.574   0.443  0.2548 -0.0319  0.4990
 9148SOL    HW128885   3.316   2.549   0.405  0.0865  0.2217  0.6985
 9148SOL    HW228886   3.411   2.666   0.420  1.0779 -0.3878 -0.6134
 9149SOL     OW28887   3.293   3.209   1.155 -0.1727  0.0748 -0.2312
 9149SOL    HW128888   3.351   3.264   1.207  0.9843 -0.9490 -0.3919
 9149SOL    HW228889   3.318   3.227   1.065  0.2802 -0.7816 -0.2787
 9150SOL     OW28890   4.554   3.478   1.536  0.3540  0.8383  0.0292
 9150SOL    HW128891   4.484   3.461   1.599 -0.7089  0.2726 -1.2484
 9150SOL    HW228892   4.595   3.559   1.566 -0.8854  1.2026  0.7802
 9151SOL     OW28893   2.754   3.529   1.033  0.1418 -0.2681 -0.2114
 9151SOL    HW128894   2.734   3.610   0.987  0.2588 -0.3473 -0.3998
 9151SOL    HW228895   2.714   3.460   0.980  0.8068 -0.4162 -0.5301
 9152SOL     OW28896   1.162   4.656   0.233 -0.0337  0.8400 -0.5641
 9152SOL    HW128897   1.192   4.621   0.317 -5.5759 -1.0243  1.0201
 9152SOL    HW228898   1.179   4.587   0.170  0.3282  0.4820 -0.0804
 9153SOL     OW28899   2.470   3.087   1.112 -0.3632 -0.5138 -0.0358
 9153SOL    HW128900   2.503   3.021   1.173 -0.9698 -0.1377  0.7213
 9153SOL    HW228901   2.403   3.042   1.062  2.3839 -1.8281 -2.8663
 9154SOL     OW28902   4.206   3.224   0.848  0.0497  0.4854 -0.0275
 9154SOL    HW128903   4.278   3.238   0.909  1.0361 -1.7893 -0.5631
 9154SOL    HW228904   4.136   3.185   0.900  0.3016  0.0127 -0.0393
 9155SOL     OW28905   1.672   3.604   1.626  0.0077  0.5829 -0.4182
 9155SOL    HW128906   1.763   3.575   1.617 -1.0100 -3.3556  0.1565
 9155SOL    HW228907   1.664   3.632   1.717  0.0928 -1.8323  0.4080
 9156SOL     OW28908   2.489   4.557   1.024  0.0171  0.2681 -0.1225
 9156SOL    HW128909   2.562   4.543   1.084 -0.3612 -0.2295  0.2272
 9156SOL    HW228910   2.456   4.469   1.005 -0.4850  0.4855 -0.2806
 9157SOL     OW28911   2.652   4.528   2.523  0.6577  0.6750 -0.0327
 9157SOL    HW128912   2.673   4.535   2.616 -1.2019 -0.4973  0.5306
 9157SOL    HW228913   2.575   4.473   2.520 -0.0857  1.7118 -2.2054
 9158SOL     OW28914   2.121   2.667   0.157 -0.2430 -0.2506  0.1811
 9158SOL    HW128915   2.033   2.632   0.141  0.5411 -2.7468  0.8764
 9158SOL    HW228916   2.132   2.661   0.252  0.7741 -0.2255  0.0695
 9159SOL     OW28917   2.193   4.336   0.871 -1.1256  0.4911 -0.5633
 9159SOL    HW128918   2.168   4.412   0.924 -0.8531  1.6100 -1.9619
 9159SOL    HW228919   2.288   4.329   0.884 -0.7775  1.7678 -2.0641
 9160SOL     OW28920   0.773   4.053   1.531  0.5130  0.4846 -0.4694
 9160SOL    HW128921   0.706   3.988   1.552 -0.0892  1.5252  0.9877
 9160SOL    HW228922   0.779   4.051   1.436 -1.0038 -0.2124 -0.5830
 9161SOL     OW28923   1.939   3.609   1.194  0.1985  0.0402  0.3390
 9161SOL    HW128924   1.954   3.535   1.253  0.8633  1.0799  1.5266
 9161SOL    HW228925   1.853   3.642   1.219 -0.0013 -0.1780 -0.0424
 9162SOL     OW28926   2.724   4.968  11.251 -0.0273 -0.0064  0.0709
 9162SOL    HW128927   2.642   5.009  11.278 -0.6681 -0.9894 -0.3497
 9162SOL    HW228928   2.706   4.931  11.165  0.4495 -1.3627  0.5243
 9163SOL     OW28929   2.852   2.509  11.372 -0.9624  0.7257  0.5398
 9163SOL    HW128930   2.815   2.580  11.320 -1.2386 -0.1825 -0.5379
 9163SOL    HW228931   2.776   2.456  11.398 -0.6657  0.2723  0.4905
 9164SOL     OW28932   3.298   2.300   0.386 -0.2268  0.0402  0.0518
 9164SOL    HW128933   3.255   2.308   0.300 -2.4874  0.1589  1.1270
 9164SOL    HW228934   3.267   2.376   0.435  0.1584 -0.6172  1.3357
 9165SOL     OW28935   2.495   3.851   2.291 -0.2129  0.1830 -0.1397
 9165SOL    HW128936   2.526   3.941   2.285  0.4623 -0.0813 -0.8547
 9165SOL    HW228937   2.500   3.830   2.384  0.1834  0.6963 -0.0413
 9166SOL     OW28938   6.041   3.544   2.682 -0.0921 -0.1738 -0.1155
 9166SOL    HW128939   6.064   3.523   2.591  0.2492 -0.4075  0.0223
 9166SOL    HW228940   6.074   3.633   2.694  2.3700 -1.0849  0.5935
 9167SOL     OW28941   2.089   4.293   1.308  0.2248 -0.0132  0.4884
 9167SOL    HW128942   2.076   4.199   1.318  1.2880 -0.1511  0.7232
 9167SOL    HW228943   2.129   4.320   1.391 -1.6773  0.9784  1.1463
 9168SOL     OW28944   2.623   4.699   1.541  0.1191  0.4763  0.2689
 9168SOL    HW128945   2.704   4.653   1.563 -0.0528 -0.3470 -0.7340
 9168SOL    HW228946   2.638   4.789   1.570  1.1722  0.2052  0.6139
 9169SOL     OW28947   3.133   3.892   2.076  0.2432 -0.2316 -0.0023
 9169SOL    HW128948   3.158   3.908   2.168 -0.1318 -3.3564  0.7691
 9169SOL    HW228949   3.164   3.803   2.059 -1.6889 -0.5523 -2.2049
 9170SOL     OW28950   2.177   4.668   0.575  0.4126 -0.8149  0.0142
 9170SOL    HW128951   2.102   4.718   0.543 -0.9979 -1.5215  1.9679
 9170SOL    HW228952   2.213   4.722   0.646  1.3834 -0.7728 -0.4935
 9171SOL     OW28953   2.186   5.197   2.732 -0.4949 -0.0260 -0.1175
 9171SOL    HW128954   2.141   5.268   2.686 -1.7939 -0.9115 -0.2618
 9171SOL    HW228955   2.212   5.236   2.815 -0.6141  0.7981 -0.4520
 9172SOL     OW28956   0.078   4.526   2.842  0.3669  0.0248  0.2345
 9172SOL    HW128957   0.006   4.482   2.798  0.4790 -1.1098  1.1246
 9172SOL    HW228958   0.079   4.614   2.805 -0.1080 -0.5942 -1.3374
 9173SOL     OW28959   1.420   5.659  11.812  0.0207 -0.0901 -0.6119
 9173SOL    HW128960   1.381   5.653  11.725 -0.2508 -2.9278 -0.3627
 9173SOL    HW228961   1.358   5.712  11.862 -0.2016  0.9278 -1.9071
 9174SOL     OW28962   3.494   4.608   2.044 -0.0750  0.2578  0.3289
 9174SOL    HW128963   3.434   4.569   2.109  1.0634 -1.7362  0.2690
 9174SOL    HW228964   3.577   4.616   2.090  0.5361 -0.4205 -0.6255
 9175SOL     OW28965   2.271   3.413   3.046  0.4514 -0.0717  0.3326
 9175SOL    HW128966   2.324   3.376   3.117 -1.6820 -0.3255  1.9020
 9175SOL    HW228967   2.316   3.493   3.021  2.0160 -0.7113  1.0050
 9176SOL     OW28968   1.006   4.859  11.816 -0.2274  0.3018 -0.4199
 9176SOL    HW128969   1.078   4.857  11.879 -1.2368 -0.3372  0.7705
 9176SOL    HW228970   1.039   4.911  11.743  0.7817  1.5905  0.8954
 9177SOL     OW28971   1.346   5.374  12.231 -0.1592  0.3471 -0.1082
 9177SOL    HW128972   1.366   5.428  12.155  1.8547 -0.9054 -0.5380
 9177SOL    HW228973   1.260   5.337  12.212 -0.4898  1.4460 -0.9108
 9178SOL     OW28974   2.371   4.997   2.208  0.1874 -0.2685 -0.4006
 9178SOL    HW128975   2.301   5.034   2.262  1.5480  0.9539  0.6184
 9178SOL    HW228976   2.358   4.903   2.212 -0.8774 -0.1019  0.4937
 9179SOL     OW28977   1.173   3.845   0.539  0.5323 -0.3270 -0.4901
 9179SOL    HW128978   1.268   3.843   0.552  0.4047 -0.2541  0.5713
 9179SOL    HW228979   1.137   3.820   0.624 -0.4068  1.4406 -0.3218
 9180SOL     OW28980   4.488   4.863   2.472 -0.2366  0.4504 -0.4203
 9180SOL    HW128981   4.570   4.879   2.518 -0.5638  1.1636 -0.0703
 9180SOL    HW228982   4.435   4.812   2.534  0.2153 -0.6729 -0.9354
 9181SOL     OW28983   2.302   3.883   2.056  0.2262  1.0476  0.5016
 9181SOL    HW128984   2.359   3.878   2.133  0.8621  0.5415 -0.0048
 9181SOL    HW228985   2.348   3.836   1.988 -1.1444 -0.0512  0.2903
 9182SOL     OW28986   3.041   5.430   0.253  0.0326 -0.2471  0.1464
 9182SOL    HW128987   2.960   5.469   0.283 -0.1304 -0.3047 -0.2175
 9182SOL    HW228988   3.089   5.410   0.334  0.2747  1.0149  0.3380
 9183SOL     OW28989   3.279   4.066   0.655 -0.0064 -0.1949  0.3231
 9183SOL    HW128990   3.211   4.132   0.666  0.9819  1.2810 -1.7589
 9183SOL    HW228991   3.357   4.103   0.697  0.3322 -0.4074 -0.1019
 9184SOL     OW28992   3.069   2.380  12.215  0.1062  0.1329  0.1024
 9184SOL    HW128993   2.981   2.390  12.178 -0.3789 -0.0084  1.1774
 9184SOL    HW228994   3.126   2.372  12.139 -1.0532 -1.7693 -0.6431
 9185SOL     OW28995   2.337   4.203   0.411  0.2724  0.1638 -0.0935
 9185SOL    HW128996   2.268   4.266   0.433 -0.8039 -0.4878 -1.4348
 9185SOL    HW228997   2.417   4.256   0.409 -0.3295  1.1400  0.5154
 9186SOL     OW28998   3.412   1.321   0.254  0.8293 -0.1105  0.2331
 9186SOL    HW128999   3.346   1.298   0.319  1.3557 -0.7223  0.5467
 9186SOL    HW229000   3.443   1.408   0.281  0.5462 -0.0585  0.3951
 9187SOL     OW29001   1.249   4.562   0.496 -0.1766 -0.3769  0.1726
 9187SOL    HW129002   1.237   4.622   0.569  1.7251  0.3969 -0.0719
 9187SOL    HW229003   1.264   4.477   0.536 -1.0529 -0.3394  0.5938
 9188SOL     OW29004   2.917   6.917   1.815  0.0804 -0.2268 -0.2510
 9188SOL    HW129005   3.007   6.886   1.812 -0.0599 -0.5908 -0.8313
 9188SOL    HW229006   2.864   6.840   1.795 -0.4602 -0.4257  1.7701
 9189SOL     OW29007   2.051   5.214   1.326  0.4712 -1.0186 -0.0095
 9189SOL    HW129008   2.014   5.132   1.359  0.3328  0.0777  2.7960
 9189SOL    HW229009   1.981   5.253   1.273 -0.5196 -1.3876  1.0039
 9190SOL     OW29010   1.442   4.300   2.151 -0.1050  0.3623 -0.2776
 9190SOL    HW129011   1.488   4.288   2.234  1.0257 -0.8228 -1.0438
 9190SOL    HW229012   1.398   4.217   2.136 -0.5362  0.6715 -0.7460
 9191SOL     OW29013   0.231   3.025   1.196  0.4433  0.1920  0.0373
 9191SOL    HW129014   0.157   2.967   1.212  2.1905 -2.1528  0.2056
 9191SOL    HW229015   0.240   3.027   1.100  0.1391  0.4999  0.0162
 9192SOL     OW29016   1.346   4.863   3.303  0.6382  0.5368  0.8043
 9192SOL    HW129017   1.328   4.882   3.395  0.5399 -1.3181  1.2218
 9192SOL    HW229018   1.389   4.777   3.305 -0.8757 -0.3350 -0.9725
 9193SOL     OW29019   5.454   5.310   3.482 -0.5913  0.7445  0.0119
 9193SOL    HW129020   5.546   5.300   3.457 -0.4378  1.2825  0.3477
 9193SOL    HW229021   5.417   5.367   3.414 -0.6115  0.7460  0.0243
 9194SOL     OW29022   2.869   3.301   0.522 -0.1580  0.0221  0.2335
 9194SOL    HW129023   2.906   3.350   0.448 -0.4470  0.2833  0.2603
 9194SOL    HW229024   2.781   3.276   0.492  0.0279 -0.5756  0.1790
 9195SOL     OW29025   3.824   2.748   2.409  0.3859  0.4392  0.1533
 9195SOL    HW129026   3.806   2.666   2.454 -0.3179 -0.3956 -1.5428
 9195SOL    HW229027   3.919   2.748   2.397  0.7378  1.1804  2.4305
 9196SOL     OW29028   1.482   4.491   0.275 -0.1421  0.1890 -0.6582
 9196SOL    HW129029   1.428   4.422   0.313 -0.1573 -0.3925 -1.7018
 9196SOL    HW229030   1.559   4.496   0.332  0.5319 -1.6669 -1.3440
 9197SOL     OW29031   0.288   4.442   3.258  0.9398  0.0839  0.1849
 9197SOL    HW129032   0.225   4.477   3.320  3.4417  2.0529  1.8267
 9197SOL    HW229033   0.262   4.478   3.174 -0.6850 -0.0456  0.5939
 9198SOL     OW29034   3.907   5.217   2.327 -0.2885 -0.2797 -0.1062
 9198SOL    HW129035   3.974   5.170   2.377 -0.6727  0.9076  1.6304
 9198SOL    HW229036   3.924   5.310   2.347 -0.4075  0.2621 -2.3225
 9199SOL     OW29037   1.590   3.752   2.975  0.7067  0.0105  0.4333
 9199SOL    HW129038   1.529   3.763   2.902 -0.4774 -0.1498  1.3717
 9199SOL    HW229039   1.631   3.668   2.958  0.9046  0.2553 -0.3702
 9200SOL     OW29040   3.961   6.057   2.835  0.0351 -0.0155 -0.4161
 9200SOL    HW129041   3.971   6.045   2.929 -0.7653  1.1449 -0.1539
 9200SOL    HW229042   3.951   5.969   2.800 -0.0327 -0.4387  0.6445
 9201SOL     OW29043   2.936   4.657   2.007 -0.3041 -0.1125 -0.1425
 9201SOL    HW129044   2.899   4.574   1.976 -0.3000 -1.1328  2.3462
 9201SOL    HW229045   2.864   4.699   2.054 -0.4024  1.5151 -1.6622
 9202SOL     OW29046   3.209   4.921   1.576 -0.3198  0.2692  0.4924
 9202SOL    HW129047   3.239   4.927   1.666  2.3323 -0.0929 -0.2769
 9202SOL    HW229048   3.226   4.830   1.551 -0.3869  0.5365 -0.5639
 9203SOL     OW29049   2.907   4.233   2.892  0.1936 -0.5932  0.4773
 9203SOL    HW129050   2.846   4.161   2.908 -0.5685  0.5966  3.6023
 9203SOL    HW229051   2.946   4.251   2.977  1.8298  1.4130 -0.6049
 9204SOL     OW29052   2.197   6.358   0.728  0.6244  0.6297  0.3481
 9204SOL    HW129053   2.209   6.396   0.642 -0.1927  2.2678  0.9206
 9204SOL    HW229054   2.285   6.343   0.761  0.9471 -0.3547 -0.8861
 9205SOL     OW29055   2.983   5.690   3.555 -0.3703  0.3375  0.3124
 9205SOL    HW129056   2.976   5.746   3.477 -1.3023 -0.1465  0.0344
 9205SOL    HW229057   2.987   5.601   3.521  1.8265  0.2155  0.7253
 9206SOL     OW29058   2.449   4.421   2.186 -0.1173 -0.1547  0.6537
 9206SOL    HW129059   2.515   4.407   2.118 -1.4438 -1.8623 -0.3703
 9206SOL    HW229060   2.497   4.414   2.268  1.2246  0.2216 -0.0666
 9207SOL     OW29061   0.828   4.146   4.137  0.1607  0.2687 -0.1657
 9207SOL    HW129062   0.889   4.175   4.204  0.8835  0.9840 -1.0942
 9207SOL    HW229063   0.838   4.050   4.135  0.9022  0.3325  0.0430
 9208SOL     OW29064   2.535   5.303   3.985  0.1322  0.4380 -0.1342
 9208SOL    HW129065   2.507   5.216   4.013  1.9262  0.3893  1.7334
 9208SOL    HW229066   2.588   5.287   3.906  0.1555 -0.1160 -0.0048
 9209SOL     OW29067   0.472   4.412   1.997  0.4172  0.3146 -0.4877
 9209SOL    HW129068   0.476   4.478   2.066 -1.2170 -1.4536  1.4548
 9209SOL    HW229069   0.522   4.338   2.032 -1.1261 -0.9206 -0.7471
 9210SOL     OW29070   1.883   3.731   3.405  0.4179 -0.0390 -0.0458
 9210SOL    HW129071   1.943   3.803   3.426  0.4624 -0.0525 -0.1232
 9210SOL    HW229072   1.842   3.759   3.323  0.8595 -0.3599 -0.3858
 9211SOL     OW29073   2.367   5.219   0.870  0.3039 -0.1552  0.0446
 9211SOL    HW129074   2.332   5.294   0.822  1.3587  0.7678  0.6615
 9211SOL    HW229075   2.331   5.227   0.958  0.2794 -0.4836  0.0668
 9212SOL     OW29076   0.786   4.745   2.033 -0.2149 -0.8542 -0.0081
 9212SOL    HW129077   0.846   4.675   2.060  0.0663 -0.8379 -0.5622
 9212SOL    HW229078   0.736   4.706   1.961 -0.9663 -0.9119  0.5410
 9213SOL     OW29079   2.488   5.443   3.525  0.5540  0.2835  0.0560
 9213SOL    HW129080   2.484   5.375   3.592  3.2991  0.8684  0.9439
 9213SOL    HW229081   2.482   5.396   3.442  0.9124 -0.8664  0.6715
 9214SOL     OW29082   2.585   4.568   0.649  0.0417  0.2524  0.0581
 9214SOL    HW129083   2.543   4.648   0.618 -0.6978 -0.2990 -0.4006
 9214SOL    HW229084   2.530   4.539   0.722 -1.2744 -1.2438 -1.4423
 9215SOL     OW29085   0.944   3.782   3.937  0.2648 -0.1402  0.1150
 9215SOL    HW129086   0.999   3.706   3.919 -1.9228 -1.7211 -0.3166
 9215SOL    HW229087   0.953   3.837   3.859 -0.5111 -1.5154 -0.9817
 9216SOL     OW29088   2.063   4.025   1.307  0.3508 -0.1415 -0.1869
 9216SOL    HW129089   2.102   3.997   1.225 -1.2560 -0.9048 -0.7475
 9216SOL    HW229090   2.071   3.949   1.365 -0.0944 -0.2331 -0.2403
 9217SOL     OW29091   3.340   4.154   1.160  0.0837  0.1749 -0.3190
 9217SOL    HW129092   3.387   4.237   1.167  0.2841  0.0062  0.4479
 9217SOL    HW229093   3.404   4.093   1.126  0.1070  0.2033 -0.3266
 9218SOL     OW29094   1.778   3.292   1.793 -0.0492  0.3893 -0.0044
 9218SOL    HW129095   1.710   3.342   1.748 -0.3457  0.2744  0.3145
 9218SOL    HW229096   1.734   3.211   1.821  0.6984 -0.5979 -1.5201
 9219SOL     OW29097   2.317   4.046   4.374  0.1637  0.3245 -0.1503
 9219SOL    HW129098   2.369   4.018   4.449  1.5677  0.2031 -1.1268
 9219SOL    HW229099   2.379   4.093   4.318 -0.3613 -1.1531 -2.1048
 9220SOL     OW29100   3.952   5.453   0.251 -0.2518  0.1789  0.1150
 9220SOL    HW129101   3.969   5.396   0.325 -0.0628  0.5143  0.3288
 9220SOL    HW229102   4.010   5.527   0.263 -0.3116  0.2977 -0.2999
 9221SOL     OW29103   2.670   4.751   3.262 -0.1240  0.3437  0.1946
 9221SOL    HW129104   2.614   4.823   3.294 -0.4383 -0.2399  0.9939
 9221SOL    HW229105   2.616   4.673   3.271  0.9707 -0.3012  1.4261
 9222SOL     OW29106   1.531   3.950   3.561  0.3844 -0.1565  0.0529
 9222SOL    HW129107   1.439   3.951   3.588  0.8733 -0.5337  1.9435
 9222SOL    HW229108   1.568   4.029   3.601  0.5212  1.0529 -2.3077
 9223SOL     OW29109   3.259   5.349   2.681  0.5993  0.5052 -0.0323
 9223SOL    HW129110   3.258   5.428   2.734  0.6006  1.4167 -1.3316
 9223SOL    HW229111   3.276   5.380   2.592  0.3703 -0.9366 -0.6136
 9224SOL     OW29112   4.069   5.241   2.705  0.3162  0.6980  0.3239
 9224SOL    HW129113   4.004   5.172   2.714 -0.0202  0.8405 -0.8697
 9224SOL    HW229114   4.145   5.198   2.667  0.1828  0.9390 -0.2200
 9225SOL     OW29115   1.789   4.992   2.235 -0.2040  0.0900 -0.3802
 9225SOL    HW129116   1.811   5.065   2.177 -1.4399 -0.5072 -1.6811
 9225SOL    HW229117   1.857   4.926   2.217  0.8861  0.8530  0.7640
 9226SOL     OW29118   1.780   2.354   1.215  0.0873 -0.0551  0.1721
 9226SOL    HW129119   1.856   2.411   1.198  0.8203 -1.0230  0.1194
 9226SOL    HW229120   1.782   2.290   1.143  0.9398 -1.8421  1.7101
 9227SOL     OW29121   4.867   4.957   3.390  0.2647  0.5529 -0.1240
 9227SOL    HW129122   4.848   4.863   3.394 -0.2093  0.6710  2.3323
 9227SOL    HW229123   4.834   4.985   3.305  0.4530 -1.5032 -0.9182
 9228SOL     OW29124   3.231   4.410   0.892 -0.6502  0.0471  0.2670
 9228SOL    HW129125   3.187   4.424   0.808  0.7124 -0.9988 -0.6698
 9228SOL    HW229126   3.202   4.323   0.921 -1.3352  0.5187  1.0511
 9229SOL     OW29127   3.305   4.082   3.913 -1.4610 -0.1176  0.2916
 9229SOL    HW129128   3.348   4.012   3.962  0.0453  0.1630 -0.5521
 9229SOL    HW229129   3.375   4.147   3.899 -2.0942  0.2426 -1.3784
 9230SOL     OW29130   2.481   4.610   4.620 -0.1362 -0.0830 -0.2611
 9230SOL    HW129131   2.493   4.629   4.527  1.5147  0.5981  0.0625
 9230SOL    HW229132   2.463   4.516   4.622  0.2973 -0.2084 -1.2361
 9231SOL     OW29133   2.499   3.846   1.146  0.2293 -0.0556  0.1355
 9231SOL    HW129134   2.592   3.869   1.138  0.5556 -0.7156  1.6033
 9231SOL    HW229135   2.460   3.876   1.064  2.0565 -1.3346 -1.2872
 9232SOL     OW29136   1.834   5.000   2.704 -0.2820  0.6871 -0.0957
 9232SOL    HW129137   1.926   5.002   2.676 -0.2451  2.3642  0.0348
 9232SOL    HW229138   1.806   5.091   2.701 -1.2321  0.5394  2.2294
 9233SOL     OW29139   1.996   4.934   3.174  0.0738  0.2124 -0.0048
 9233SOL    HW129140   1.925   4.962   3.116  0.8719  2.1831 -0.1063
 9233SOL    HW229141   2.016   5.011   3.227  0.2073 -1.1844  2.0579
 9234SOL     OW29142   1.521   4.150   1.098 -0.9243 -0.1253 -0.2941
 9234SOL    HW129143   1.476   4.071   1.069 -0.5942 -0.5453  0.3011
 9234SOL    HW229144   1.604   4.150   1.052 -0.8107 -0.2731 -0.0915
 9235SOL     OW29145   3.686   3.935   3.987  0.3242 -0.1129  0.0649
 9235SOL    HW129146   3.596   3.948   4.015 -0.3683 -0.4941 -1.8319
 9235SOL    HW229147   3.738   3.990   4.046 -0.8472 -1.7264  2.7637
 9236SOL     OW29148   1.894   2.588  12.319  0.3514 -0.1490  0.1456
 9236SOL    HW129149   1.805   2.557  12.306  0.2206  0.8362 -1.5478
 9236SOL    HW229150   1.884   2.682  12.336  0.9359 -0.4191  2.3468
 9237SOL     OW29151   2.817   4.356   4.145  0.1900 -0.1945 -0.0991
 9237SOL    HW129152   2.844   4.323   4.059 -0.4151 -1.3010  0.1117
 9237SOL    HW229153   2.896   4.351   4.199  0.9114  1.6856 -0.8797
 9238SOL     OW29154   1.655   4.528   2.865 -0.1615 -0.1039  0.2884
 9238SOL    HW129155   1.683   4.598   2.806 -1.7322  0.3087 -0.0087
 9238SOL    HW229156   1.683   4.558   2.952 -1.3472  1.2342  0.2503
 9239SOL     OW29157   1.878   5.102   1.977 -0.4906 -0.1652  0.3529
 9239SOL    HW129158   1.857   5.034   1.913 -0.7178 -0.3760  0.6434
 9239SOL    HW229159   1.944   5.156   1.935 -0.3154 -0.5632  0.1156
 9240SOL     OW29160   4.912   4.521   0.918 -0.2102  0.5940 -0.2595
 9240SOL    HW129161   4.875   4.602   0.952 -0.8340  0.4244 -0.5129
 9240SOL    HW229162   5.006   4.535   0.920 -0.2193  0.6330  1.4083
 9241SOL     OW29163   2.522   4.288   3.347 -0.1523 -0.1151  0.4982
 9241SOL    HW129164   2.428   4.299   3.331 -0.0322 -0.0158 -0.1768
 9241SOL    HW229165   2.548   4.217   3.288 -0.0072 -0.8759  1.4586
 9242SOL     OW29166   1.883   3.907   0.951 -0.2047  0.0108 -0.0808
 9242SOL    HW129167   1.926   3.841   0.897  0.4239  0.6478 -0.3778
 9242SOL    HW229168   1.798   3.869   0.973  0.3785 -1.1401  0.2433
 9243SOL     OW29169   0.976   4.524   1.038  0.0903 -0.5115  0.3389
 9243SOL    HW129170   0.892   4.563   1.013  1.0209  2.8940  1.9204
 9243SOL    HW229171   0.954   4.435   1.064 -2.6889 -0.3679 -1.1427
 9244SOL     OW29172   4.510   5.864   4.265  0.2668  0.0168  0.6545
 9244SOL    HW129173   4.434   5.832   4.313 -1.3574  2.0685 -0.3897
 9244SOL    HW229174   4.502   5.826   4.178 -0.3599  1.2629  0.1369
 9245SOL     OW29175   3.584   6.504   3.063 -0.1116 -0.1269  0.1637
 9245SOL    HW129176   3.548   6.552   3.137 -0.5000 -1.8251  1.1317
 9245SOL    HW229177   3.679   6.513   3.072 -0.1845  0.7298  0.1207
 9246SOL     OW29178   1.507   3.418   4.708 -0.1291  0.0192 -0.1250
 9246SOL    HW129179   1.598   3.447   4.709  0.3283 -1.3411 -0.7601
 9246SOL    HW229180   1.511   3.323   4.705 -1.5886 -0.1190  1.1024
 9247SOL     OW29181   2.998   3.510   0.149 -0.2029 -0.4721 -0.4878
 9247SOL    HW129182   3.084   3.469   0.136  0.5281  0.0991  2.0004
 9247SOL    HW229183   2.949   3.446   0.200  0.0267  0.6110  1.1477
 9248SOL     OW29184   1.254   5.231   1.729 -0.5525  0.4053  0.7585
 9248SOL    HW129185   1.177   5.219   1.784 -0.7992 -0.7132  0.2079
 9248SOL    HW229186   1.281   5.141   1.706 -0.2008  0.8318 -0.5811
 9249SOL     OW29187   2.261   2.982   1.917 -0.1904  0.0224  0.5246
 9249SOL    HW129188   2.338   3.031   1.945  0.4680  0.0664 -1.2700
 9249SOL    HW229189   2.293   2.893   1.901 -0.9191 -0.4574  1.5694
 9250SOL     OW29190   2.451   4.656   2.787 -0.2726  0.1696 -0.3415
 9250SOL    HW129191   2.485   4.697   2.867 -1.6287 -0.6921  0.7199
 9250SOL    HW229192   2.508   4.689   2.717  0.8267  1.1011  0.9417
 9251SOL     OW29193   0.748   6.132   2.383 -0.2325 -0.1329  0.0436
 9251SOL    HW129194   0.753   6.082   2.464  0.8591  0.9939  0.7005
 9251SOL    HW229195   0.812   6.202   2.393 -1.2773  1.0573 -1.0817
 9252SOL     OW29196   3.709   4.681   2.182  0.2902  0.1649  0.0093
 9252SOL    HW129197   3.680   4.755   2.235  2.1416  1.1274 -0.2477
 9252SOL    HW229198   3.742   4.617   2.245  1.1792  0.7118  0.1108
 9253SOL     OW29199   3.773   4.283   3.638  0.2722 -0.3946 -0.1525
 9253SOL    HW129200   3.809   4.228   3.707  0.5977  0.8585  0.7154
 9253SOL    HW229201   3.712   4.226   3.591 -0.7525 -1.0117  1.8276
 9254SOL     OW29202   2.260   2.178   0.714 -0.0306 -0.5964 -0.3073
 9254SOL    HW129203   2.192   2.113   0.697 -0.3624 -0.4117  0.3093
 9254SOL    HW229204   2.232   2.224   0.793  0.2943  0.1696 -0.6175
 9255SOL     OW29205   1.467   3.115   2.818  0.1307  0.4805  0.4165
 9255SOL    HW129206   1.442   3.199   2.856  0.6083  0.8525 -0.0699
 9255SOL    HW229207   1.503   3.065   2.892 -1.7216  0.0402  1.0668
 9256SOL     OW29208   2.947   4.852   3.516  0.3432  0.3549  0.0418
 9256SOL    HW129209   2.950   4.774   3.572  0.0709  0.3016 -0.0148
 9256SOL    HW229210   2.947   4.925   3.577 -0.1771  0.2925  0.1228
 9257SOL     OW29211   1.532   4.938   2.150  0.2476 -0.1613 -0.1763
 9257SOL    HW129212   1.499   4.917   2.237 -1.1451  0.0066 -0.6504
 9257SOL    HW229213   1.625   4.958   2.164  0.0837 -0.3125  1.2328
 9258SOL     OW29214   1.038   4.945   1.625 -0.3126 -0.0782 -0.1569
 9258SOL    HW129215   1.120   4.989   1.602  0.0670 -0.2469  0.8075
 9258SOL    HW229216   1.057   4.852   1.617 -0.3806 -0.1212  0.1654
 9259SOL     OW29217   3.275   4.853   0.817 -0.3261 -0.4710  0.1030
 9259SOL    HW129218   3.321   4.772   0.839  0.2046 -0.3790 -0.6244
 9259SOL    HW229219   3.211   4.865   0.887  1.2774 -0.1898  1.5646
 9260SOL     OW29220   2.076   4.003   2.294 -0.1388 -0.5800  0.1475
 9260SOL    HW129221   2.121   4.059   2.357  0.8439  0.5332 -1.4704
 9260SOL    HW229222   2.124   3.920   2.298  0.2709 -0.3322  0.4534
 9261SOL     OW29223   2.946   3.089   1.596 -0.0067 -0.6692  0.7137
 9261SOL    HW129224   3.001   3.100   1.519 -0.7715 -2.0916 -0.0905
 9261SOL    HW229225   3.007   3.086   1.670  0.7594  0.3859  0.1407
 9262SOL     OW29226   3.871   3.569   1.644  0.4049 -0.4879 -0.0191
 9262SOL    HW129227   3.855   3.577   1.738  2.5357  0.5710  0.3316
 9262SOL    HW229228   3.889   3.658   1.615  1.3310 -0.9930 -1.0919
 9263SOL     OW29229   3.129   5.701   4.239 -0.0078  0.5981 -0.6106
 9263SOL    HW129230   3.137   5.610   4.267 -0.5844  0.1454 -1.8366
 9263SOL    HW229231   3.132   5.752   4.321 -1.8076 -0.6564  0.3107
 9264SOL     OW29232   1.050   3.664   2.424  0.0543  0.5006 -0.6124
 9264SOL    HW129233   1.033   3.626   2.510  0.6270 -0.6123 -0.9667
 9264SOL    HW229234   1.120   3.728   2.439  0.8245 -0.3695 -0.3809
 9265SOL     OW29235   1.364   4.452   3.076  0.1200 -0.0930 -0.5949
 9265SOL    HW129236   1.292   4.511   3.097  1.3907  1.3556 -0.1212
 9265SOL    HW229237   1.394   4.480   2.990  0.7607 -0.0164 -0.3501
 9266SOL     OW29238   2.340   3.323   1.859  0.0123 -0.0400  0.3879
 9266SOL    HW129239   2.340   3.336   1.954 -1.3174 -2.0470  0.7260
 9266SOL    HW229240   2.418   3.270   1.842 -1.3622 -2.3680  0.8840
 9267SOL     OW29241   2.721   5.224   3.810 -0.1472 -0.4171 -0.4196
 9267SOL    HW129242   2.781   5.251   3.881 -0.7656 -0.6371  0.1921
 9267SOL    HW229243   2.736   5.130   3.800 -1.6773 -0.8596  1.0063
 9268SOL     OW29244   3.397   3.016   2.632  0.3501 -0.1622 -1.0941
 9268SOL    HW129245   3.358   2.977   2.554 -1.6393  0.9543 -0.7062
 9268SOL    HW229246   3.362   2.966   2.705  1.6616 -0.7538 -0.8322
 9269SOL     OW29247   1.550   3.886   2.276  0.0494  0.0976  0.7055
 9269SOL    HW129248   1.513   3.818   2.332  0.4289  0.2669  1.1706
 9269SOL    HW229249   1.645   3.874   2.283  0.1035  0.2164  0.2161
 9270SOL     OW29250   3.983   3.894   2.357  0.3198  0.0428  0.1970
 9270SOL    HW129251   4.051   3.935   2.305  0.0491 -0.8683 -0.9153
 9270SOL    HW229252   3.937   3.836   2.296 -0.4127 -0.5888  1.3016
 9271SOL     OW29253   1.654   2.204   2.013  0.1772 -0.7500  0.0190
 9271SOL    HW129254   1.685   2.285   1.973  0.4296  0.3228  2.2598
 9271SOL    HW229255   1.562   2.222   2.035  0.2410 -1.0543  0.5515
 9272SOL     OW29256   3.392   4.742   2.428 -0.3634  1.0126 -0.7753
 9272SOL    HW129257   3.334   4.778   2.494  1.3613  1.3781  0.6308
 9272SOL    HW229258   3.404   4.651   2.453 -1.5316  0.5091 -1.9725
 9273SOL     OW29259   5.610   4.536   2.755  0.1194  0.0441  0.1382
 9273SOL    HW129260   5.654   4.588   2.822  0.3124 -0.8772  0.7519
 9273SOL    HW229261   5.577   4.600   2.692  0.5301  0.8817  0.7571
 9274SOL     OW29262   1.056   4.374   1.407  0.3330  0.1284  0.0598
 9274SOL    HW129263   0.978   4.352   1.459  0.8217 -0.9918  0.3330
 9274SOL    HW229264   1.047   4.322   1.327 -0.2019  1.5267 -0.8474
 9275SOL     OW29265   5.352   3.344   1.287 -0.1777 -0.3185  0.0870
 9275SOL    HW129266   5.297   3.266   1.295 -1.6664  0.8534  2.1237
 9275SOL    HW229267   5.292   3.413   1.257  0.2533  0.8541  1.7628
 9276SOL     OW29268   2.770   3.451   1.850 -0.1351 -0.4093 -0.0872
 9276SOL    HW129269   2.727   3.482   1.770  0.1347  2.7652  0.8691
 9276SOL    HW229270   2.751   3.518   1.915  2.7935 -0.9445  1.4884
 9277SOL     OW29271   1.801   3.766   2.348 -0.0610  0.2958  0.2359
 9277SOL    HW129272   1.877   3.785   2.292  0.1171 -0.3528  0.2492
 9277SOL    HW229273   1.780   3.674   2.330 -2.0402  0.9612 -1.1833
 9278SOL     OW29274   2.262   4.662   3.503 -0.1615  1.1588 -0.7654
 9278SOL    HW129275   2.332   4.602   3.477 -0.3036  0.2448  0.8425
 9278SOL    HW229276   2.302   4.716   3.572 -0.9788  0.7239  0.0651
 9279SOL     OW29277   4.019   3.721   1.989 -0.1875  0.3482  0.1967
 9279SOL    HW129278   3.980   3.678   2.065 -0.2290 -0.0588 -0.0553
 9279SOL    HW229279   4.040   3.809   2.020  0.4716 -0.0421  0.9058
 9280SOL     OW29280   3.972   5.966   3.211  0.2208  0.8054 -0.4060
 9280SOL    HW129281   3.947   5.892   3.155 -1.4838  0.3690  0.8699
 9280SOL    HW229282   4.067   5.959   3.217  0.1207 -1.3077 -0.3092
 9281SOL     OW29283   3.840   4.950   1.538 -0.1965  0.5033 -0.8761
 9281SOL    HW129284   3.863   4.963   1.630 -1.6052  0.2798 -0.4825
 9281SOL    HW229285   3.906   5.001   1.490  1.5141 -0.6207  0.1623
 9282SOL     OW29286   5.419   4.929   4.250  0.0630  0.5816 -0.1681
 9282SOL    HW129287   5.392   4.936   4.158  0.9768  1.7211 -0.3682
 9282SOL    HW229288   5.507   4.966   4.253  0.2708  0.0486  1.0755
 9283SOL     OW29289   3.680   4.135   2.696 -0.0042 -0.1299  0.2431
 9283SOL    HW129290   3.737   4.133   2.773  0.0796 -1.6072  0.1722
 9283SOL    HW229291   3.739   4.124   2.622 -0.2455 -0.2523  0.0681
 9284SOL     OW29292   1.473   3.687   2.496 -0.3398 -0.7836 -0.0295
 9284SOL    HW129293   1.532   3.613   2.512 -0.4758 -0.6977  0.9466
 9284SOL    HW229294   1.398   3.671   2.553 -0.6321 -0.1804 -0.2324
 9285SOL     OW29295   2.433   5.381   2.559 -0.0212 -0.0031 -0.0467
 9285SOL    HW129296   2.453   5.356   2.649  0.2239 -1.4421 -0.4729
 9285SOL    HW229297   2.509   5.433   2.532  0.2356 -0.1643  0.3499
 9286SOL     OW29298   1.368   5.569   2.747  0.0975  0.1612  0.9093
 9286SOL    HW129299   1.273   5.563   2.733  0.3826 -0.4495 -1.0687
 9286SOL    HW229300   1.405   5.502   2.690  1.7845  0.9469  1.0173
 9287SOL     OW29301   1.777   4.914   0.820  0.0941 -0.0393  0.1582
 9287SOL    HW129302   1.721   4.982   0.783 -1.3014 -1.0938  0.2338
 9287SOL    HW229303   1.836   4.890   0.748 -0.2374  0.3910 -0.2661
 9288SOL     OW29304   1.378   4.785   1.141  0.6259  0.2522  0.2658
 9288SOL    HW129305   1.324   4.713   1.172  1.7650 -0.1269  1.4807
 9288SOL    HW229306   1.449   4.744   1.092 -0.7701  0.8110 -2.4357
 9289SOL     OW29307   4.335   4.718   2.631 -0.3760  0.3409 -0.5935
 9289SOL    HW129308   4.304   4.627   2.632 -1.6211  0.7414  0.6388
 9289SOL    HW229309   4.316   4.751   2.719  2.2591  1.1062 -0.2323
 9290SOL     OW29310   2.732   4.569   3.607 -0.3785 -0.0559  0.0714
 9290SOL    HW129311   2.806   4.622   3.638  0.6661 -0.9277 -0.8409
 9290SOL    HW229312   2.740   4.486   3.655 -0.6722 -0.2131 -0.1484
 9291SOL     OW29313   2.565   3.603   2.144 -0.6016  0.1929 -0.1344
 9291SOL    HW129314   2.519   3.675   2.186  0.0984  0.1706  0.6920
 9291SOL    HW229315   2.624   3.644   2.081 -1.2280  0.2537 -0.6998
 9292SOL     OW29316   1.792   4.039   3.352  0.0068  0.3563  0.2213
 9292SOL    HW129317   1.718   4.086   3.390  0.5276  0.4742  1.1000
 9292SOL    HW229318   1.864   4.053   3.413  0.6674 -0.0452 -0.4489
 9293SOL     OW29319   2.653   3.546   2.441  0.0064 -0.2404  0.3943
 9293SOL    HW129320   2.621   3.548   2.350 -0.0165 -0.0790  0.4058
 9293SOL    HW229321   2.617   3.626   2.480  1.8271  0.8754 -0.0777
 9294SOL     OW29322   3.467   4.562   3.642  1.1173  0.0197  0.0077
 9294SOL    HW129323   3.479   4.566   3.737  0.3018 -0.7550  0.1571
 9294SOL    HW229324   3.428   4.476   3.626 -2.2863  1.5120 -0.6054
 9295SOL     OW29325   2.815   4.068   4.359 -0.1188  0.1923  0.2754
 9295SOL    HW129326   2.876   4.096   4.291 -1.0775  1.7920  0.0404
 9295SOL    HW229327   2.869   4.017   4.420  1.4387  1.5308  0.0704
 9296SOL     OW29328   2.481   3.369   1.075 -0.4335  0.2025  0.1338
 9296SOL    HW129329   2.463   3.277   1.094 -0.9005  0.2392 -0.1183
 9296SOL    HW229330   2.550   3.367   1.009 -1.1658  0.0054 -0.6441
 9297SOL     OW29331   3.633   5.226   0.978 -0.0012 -0.2804 -0.1603
 9297SOL    HW129332   3.599   5.302   1.025 -0.9193 -0.6934 -0.1356
 9297SOL    HW229333   3.589   5.228   0.893 -0.1695 -0.8736 -0.0952
 9298SOL     OW29334   2.795   3.374   2.596 -0.5038  0.3063 -0.5259
 9298SOL    HW129335   2.721   3.429   2.570 -1.7676 -1.8573 -1.7819
 9298SOL    HW229336   2.761   3.321   2.668 -1.1897 -2.6079 -2.8331
 9299SOL     OW29337   3.041   3.119   2.355 -0.3769 -0.8062  0.5079
 9299SOL    HW129338   3.125   3.074   2.345  0.1620  0.3030 -0.0598
 9299SOL    HW229339   2.976   3.048   2.352  0.4618 -1.5798 -0.0513
 9300SOL     OW29340   0.117   6.151   1.352 -0.1755  0.2661 -0.4052
 9300SOL    HW129341   0.032   6.195   1.361 -0.5900 -0.6951  0.7021
 9300SOL    HW229342   0.177   6.204   1.405 -0.7931 -0.7447  1.3846
 9301SOL     OW29343   3.638   3.122   4.603  0.1799  0.1231 -0.2896
 9301SOL    HW129344   3.583   3.175   4.545 -0.1077 -0.4560 -0.5495
 9301SOL    HW229345   3.696   3.186   4.645 -1.9637  1.0300  1.4792
 9302SOL     OW29346   3.257   4.071   3.602 -0.4299 -0.2215 -0.6765
 9302SOL    HW129347   3.163   4.055   3.613 -1.0287  0.4310 -3.6998
 9302SOL    HW229348   3.300   3.999   3.648 -2.3463 -0.0017  1.5985
 9303SOL     OW29349   1.197   3.099   0.941 -0.4934 -0.6244  0.0332
 9303SOL    HW129350   1.279   3.136   0.973 -1.9038  2.6950  0.1352
 9303SOL    HW229351   1.218   3.067   0.853  0.7204  1.0136 -0.3214
 9304SOL     OW29352   1.695   3.840   2.585 -0.3699  0.5141  0.1552
 9304SOL    HW129353   1.611   3.797   2.570 -0.0295 -0.0603 -0.1398
 9304SOL    HW229354   1.737   3.843   2.499  1.1283 -1.8250  0.7160
 9305SOL     OW29355   3.688   5.101   2.201  0.2983 -0.0391  0.5400
 9305SOL    HW129356   3.689   5.016   2.245  1.8772 -0.2024  0.2496
 9305SOL    HW229357   3.757   5.152   2.245 -0.5665  1.0676  0.6540
 9306SOL     OW29358   3.928   3.730   2.573  0.7314 -0.1671 -0.3467
 9306SOL    HW129359   4.009   3.688   2.601 -1.0806 -2.8679  1.3424
 9306SOL    HW229360   3.954   3.784   2.498  4.5526  1.5755  1.9416
 9307SOL     OW29361   5.050   6.631   2.709 -0.3719 -0.4346 -0.1278
 9307SOL    HW129362   5.009   6.650   2.793 -0.6217  0.0989 -0.3584
 9307SOL    HW229363   5.141   6.611   2.730 -0.8249 -2.0156  0.4332
 9308SOL     OW29364   2.520   4.792   5.033 -0.0380 -0.5268 -0.7116
 9308SOL    HW129365   2.535   4.863   4.971 -1.4372  0.9335  0.5304
 9308SOL    HW229366   2.601   4.786   5.083 -0.9037  2.5780  1.3912
 9309SOL     OW29367   0.901   3.034   1.317 -0.8829 -0.0308 -0.0602
 9309SOL    HW129368   0.947   2.969   1.371 -2.5743 -0.9800  0.3120
 9309SOL    HW229369   0.854   3.089   1.381 -1.1597  0.2159 -0.4748
 9310SOL     OW29370   3.344   3.453   2.730 -0.1004  0.2392 -0.6121
 9310SOL    HW129371   3.298   3.538   2.730 -0.1513  0.2164 -0.1600
 9310SOL    HW229372   3.416   3.465   2.792 -0.0713 -0.0293 -0.5928
 9311SOL     OW29373   3.044   4.214   1.845  0.3858 -0.6352  0.7582
 9311SOL    HW129374   2.974   4.152   1.862 -0.6266  0.0880 -0.5990
 9311SOL    HW229375   3.098   4.172   1.778 -0.8307  0.2765 -0.8564
 9312SOL     OW29376   0.574   3.868   2.084 -0.1641  0.3522  0.4804
 9312SOL    HW129377   0.604   3.940   2.028  0.6768 -0.4292 -0.0923
 9312SOL    HW229378   0.634   3.796   2.065 -0.7273 -0.3711  1.3694
 9313SOL     OW29379   0.010   3.571   1.371 -0.2368 -0.1253 -0.0563
 9313SOL    HW129380   0.066   3.640   1.335  0.4695  0.9208  2.7983
 9313SOL    HW229381   0.064   3.492   1.365  0.8188  0.4981  0.8756
 9314SOL     OW29382   1.766   4.991   4.422 -0.0124 -0.6256 -0.3729
 9314SOL    HW129383   1.831   5.022   4.485 -2.0088  0.8166  1.1200
 9314SOL    HW229384   1.743   5.070   4.372 -0.1427 -1.2566 -1.3176
 9315SOL     OW29385   0.810   4.968   3.620 -0.3024  0.0826  0.1749
 9315SOL    HW129386   0.820   4.963   3.715 -0.2129 -1.5733  0.1119
 9315SOL    HW229387   0.895   4.997   3.588 -0.5296  1.2981  0.6222
 9316SOL     OW29388   1.909   4.731   1.713 -0.1250  0.4261  0.4569
 9316SOL    HW129389   1.876   4.646   1.742 -0.0873  0.2485 -0.0037
 9316SOL    HW229390   1.838   4.792   1.732 -0.4645  0.1540  0.0674
 9317SOL     OW29391   4.474   5.887   2.724 -0.6335  0.2462 -0.2783
 9317SOL    HW129392   4.557   5.903   2.680 -0.3319 -1.4752 -0.4238
 9317SOL    HW229393   4.408   5.926   2.667 -0.1759 -1.1473 -1.8446
 9318SOL     OW29394   1.487   3.733   2.027  0.0043  0.5756  0.2673
 9318SOL    HW129395   1.474   3.669   1.957  1.8487 -1.8303  1.9714
 9318SOL    HW229396   1.422   3.712   2.093  0.0539  1.0356  0.4710
 9319SOL     OW29397   1.126   4.143   2.022 -0.2803  0.2928  0.5071
 9319SOL    HW129398   1.148   4.234   2.041  1.9252 -0.1237  0.1937
 9319SOL    HW229399   1.192   4.092   2.068 -1.7929 -1.2147  1.1150
 9320SOL     OW29400   3.001   4.457   3.907  0.3519  0.1966 -0.4407
 9320SOL    HW129401   3.033   4.367   3.909 -0.4863 -0.1262  1.9605
 9320SOL    HW229402   3.074   4.510   3.938  0.8945  0.3923 -1.9977
 9321SOL     OW29403   1.950   2.309   1.959 -0.1191 -0.1001 -0.6487
 9321SOL    HW129404   1.958   2.253   2.036  0.2956 -0.0649 -0.6644
 9321SOL    HW229405   1.904   2.387   1.991  1.1627  0.4773 -0.1253
 9322SOL     OW29406   1.093   4.453   1.801  0.2736 -0.8975 -0.6653
 9322SOL    HW129407   1.004   4.429   1.825 -0.8043  2.4292 -0.8127
 9322SOL    HW229408   1.138   4.465   1.885 -0.2385  0.0131 -0.5087
 9323SOL     OW29409   2.544   4.744   2.377 -0.2174  0.3369 -0.5532
 9323SOL    HW129410   2.590   4.668   2.413 -1.5086 -1.0538 -1.6909
 9323SOL    HW229411   2.534   4.803   2.451 -0.3763 -1.2137  0.7179
 9324SOL     OW29412   0.607   4.495   3.480  0.0644  0.4739  0.2257
 9324SOL    HW129413   0.632   4.434   3.411  1.6008  0.4543  0.7537
 9324SOL    HW229414   0.540   4.449   3.531 -1.1093  0.5044 -1.2397
 9325SOL     OW29415   3.360   6.195   1.779  0.5279  0.3094 -0.1413
 9325SOL    HW129416   3.320   6.142   1.847  1.3702  1.2834  1.1493
 9325SOL    HW229417   3.446   6.154   1.764  0.3728  0.1377 -0.5856
 9326SOL     OW29418   3.018   5.085   3.653  0.4095  1.0796 -0.2530
 9326SOL    HW129419   3.105   5.046   3.649 -0.0213  0.1799 -1.5324
 9326SOL    HW229420   3.023   5.148   3.725  2.3959  1.7764 -0.9540
 9327SOL     OW29421   3.164   5.122   2.052 -0.3595  0.1541  0.2476
 9327SOL    HW129422   3.211   5.160   2.126 -1.8122 -0.0276  1.2818
 9327SOL    HW229423   3.141   5.198   1.998  0.8688  0.2675 -0.1567
 9328SOL     OW29424   2.567   4.000   3.287  0.5257 -0.7649  0.7373
 9328SOL    HW129425   2.527   3.915   3.307  0.9775 -1.2847 -0.4177
 9328SOL    HW229426   2.571   4.002   3.191 -1.6942  1.6357  0.5947
 9329SOL     OW29427   2.177   4.920   0.780 -0.3658 -0.0035 -0.1757
 9329SOL    HW129428   2.262   4.904   0.821 -1.5135 -1.1110  1.9226
 9329SOL    HW229429   2.113   4.890   0.844 -2.3946  1.4844 -1.3831
 9330SOL     OW29430   2.009   5.701   3.660  0.3618  0.2672  0.2667
 9330SOL    HW129431   2.046   5.747   3.735 -0.3620  1.1955  0.0774
 9330SOL    HW229432   1.999   5.611   3.689  1.2485  0.3467  0.8567
 9331SOL     OW29433   3.484   5.586   1.067 -0.1595  0.0803 -0.3285
 9331SOL    HW129434   3.422   5.580   0.994 -0.3078 -0.5882 -0.1566
 9331SOL    HW229435   3.483   5.498   1.106  0.1991  0.3275  0.2462
 9332SOL     OW29436   2.623   6.196   5.761 -0.0357 -0.2514 -0.3468
 9332SOL    HW129437   2.604   6.108   5.727  0.6384 -0.6838  0.3629
 9332SOL    HW229438   2.634   6.250   5.683 -0.7704 -0.7231 -0.7912
 9333SOL     OW29439   3.137   3.363   2.235 -0.2455  0.2374 -0.2040
 9333SOL    HW129440   3.094   3.288   2.278 -0.4061  0.3686 -0.1330
 9333SOL    HW229441   3.123   3.349   2.142 -0.8665  0.5287 -0.1597
 9334SOL     OW29442   3.186   4.480   1.924 -0.9516  0.2298 -0.7535
 9334SOL    HW129443   3.188   4.507   2.016  0.7789  1.8866 -1.1940
 9334SOL    HW229444   3.142   4.395   1.925  0.4654 -0.6090  1.8293
 9335SOL     OW29445   2.080   3.649   1.966 -0.3647 -0.5122 -0.1302
 9335SOL    HW129446   2.066   3.740   1.941 -0.9627 -0.3795  0.6340
 9335SOL    HW229447   2.122   3.609   1.891 -1.4625  0.0382 -1.0691
 9336SOL     OW29448   3.270   4.649   2.997 -0.2222  0.4869 -0.2832
 9336SOL    HW129449   3.260   4.620   3.088 -1.5480  0.3531 -0.4565
 9336SOL    HW229450   3.293   4.742   3.004  1.6033  0.0398  0.2131
 9337SOL     OW29451   3.491   4.485   3.925 -0.5098  0.1216  0.1217
 9337SOL    HW129452   3.510   4.396   3.956  2.2581  0.1676 -1.1401
 9337SOL    HW229453   3.548   4.541   3.978 -0.5858  0.8895 -0.5965
 9338SOL     OW29454   4.107   4.237   1.412  0.5798 -0.9094 -0.2767
 9338SOL    HW129455   4.076   4.174   1.477  1.1765 -1.2328 -0.2940
 9338SOL    HW229456   4.110   4.188   1.330 -0.4659 -0.4154 -0.6210
 9339SOL     OW29457   2.472   4.480   3.524 -0.7024 -0.0311  0.1015
 9339SOL    HW129458   2.515   4.410   3.475 -1.1233  0.6471 -1.2985
 9339SOL    HW229459   2.544   4.534   3.557 -0.2435 -2.2377  3.0969
 9340SOL     OW29460   1.684   3.296   3.492 -0.7813  0.4423 -0.8640
 9340SOL    HW129461   1.770   3.335   3.510 -0.3751 -0.3816 -0.9760
 9340SOL    HW229462   1.659   3.329   3.406 -1.2373  1.8096 -0.2401
 9341SOL     OW29463   5.052   7.406   1.391  0.6261 -0.1151 -0.8068
 9341SOL    HW129464   5.038   7.495   1.422 -3.6151 -0.5420 -0.9602
 9341SOL    HW229465   5.012   7.350   1.458  1.5406 -1.7980 -1.5963
 9342SOL     OW29466   3.457   5.349   1.203 -0.6326 -0.4025 -0.5916
 9342SOL    HW129467   3.517   5.328   1.275 -0.5320  1.1470 -0.2011
 9342SOL    HW229468   3.376   5.376   1.247 -1.5976 -2.2439 -1.1082
 9343SOL     OW29469   3.589   4.288   2.124  0.2469 -0.6606  0.6706
 9343SOL    HW129470   3.514   4.333   2.162  1.4129  0.9467  1.1604
 9343SOL    HW229471   3.556   4.201   2.101 -1.6408 -0.1300  1.2356
 9344SOL     OW29472   2.067   4.478   3.010  0.3868  0.3928 -0.5145
 9344SOL    HW129473   2.081   4.500   3.102  0.0606 -1.3321 -0.0136
 9344SOL    HW229474   2.010   4.401   3.012  0.8786 -0.0570 -2.1446
 9345SOL     OW29475   2.586   4.806   3.589 -0.2741 -0.3172  0.4665
 9345SOL    HW129476   2.623   4.719   3.574 -2.1477 -1.1934  0.6199
 9345SOL    HW229477   2.515   4.791   3.652 -1.4439  1.1214 -0.4475
 9346SOL     OW29478   2.280   4.455   2.844 -0.2045  0.0269 -0.3516
 9346SOL    HW129479   2.211   4.482   2.903  0.5282  0.4116  0.3502
 9346SOL    HW229480   2.344   4.526   2.846  1.0701 -1.0766  0.4227
 9347SOL     OW29481   2.988   5.585   2.878 -0.3404 -0.1647  0.4017
 9347SOL    HW129482   2.988   5.681   2.871 -0.8624 -0.2295 -0.7526
 9347SOL    HW229483   2.997   5.568   2.972  1.7794  0.9815  0.4737
 9348SOL     OW29484   7.850   2.691   2.809  0.7160  0.3849 -0.4435
 9348SOL    HW129485   7.794   2.736   2.872  0.2648 -1.1241  0.2732
 9348SOL    HW229486   7.928   2.747   2.803 -0.1726  1.6901 -0.2511
 9349SOL     OW29487   2.521   4.526   3.231 -0.7841 -0.4762  0.3944
 9349SOL    HW129488   2.569   4.456   3.274 -2.8459 -1.1196  1.8072
 9349SOL    HW229489   2.431   4.492   3.223 -1.1136  0.7083 -1.9796
 9350SOL     OW29490   2.080   5.236   3.853 -0.4498 -0.4948 -0.5129
 9350SOL    HW129491   2.133   5.162   3.824  0.8424  0.8567 -1.7723
 9350SOL    HW229492   2.142   5.296   3.893 -1.4570 -0.0089  0.3722
 9351SOL     OW29493   1.447   3.600   3.175  0.7414 -0.3066 -0.4490
 9351SOL    HW129494   1.360   3.621   3.141  0.9869  1.0672 -0.3014
 9351SOL    HW229495   1.505   3.663   3.131  1.7443 -1.5029 -0.9026
 9352SOL     OW29496   2.070   3.842   3.558  0.8359 -0.3649  0.3562
 9352SOL    HW129497   2.002   3.812   3.618 -1.9836  1.9511 -1.4386
 9352SOL    HW229498   2.151   3.838   3.610 -1.1640  0.1439  3.8354
 9353SOL     OW29499   0.744   3.978   2.755 -0.1195 -0.0881  0.6028
 9353SOL    HW129500   0.837   3.955   2.744  0.1188  0.2263  1.7731
 9353SOL    HW229501   0.731   3.977   2.850 -1.2379  0.1914  0.4595
 9354SOL     OW29502   1.323   4.756   1.782  0.2850 -0.2170 -0.3506
 9354SOL    HW129503   1.235   4.765   1.818  0.4040 -0.7863  0.0909
 9354SOL    HW229504   1.375   4.721   1.854  0.2935 -2.4203 -1.3530
 9355SOL     OW29505   1.894   3.965   0.004  0.1012 -0.5998 -0.0930
 9355SOL    HW129506   1.813   3.953   0.054 -0.6051  1.1891 -0.7032
 9355SOL    HW229507   1.964   3.941   0.064 -0.8482 -1.4368  0.7181
 9356SOL     OW29508   2.700   6.727   1.915 -0.5097  0.3409  0.2941
 9356SOL    HW129509   2.669   6.640   1.894  0.7676  0.4541 -2.4891
 9356SOL    HW229510   2.754   6.715   1.994 -0.7370 -1.2798  0.2276
 9357SOL     OW29511   2.539   4.399   1.936 -0.1425 -0.2300 -0.1220
 9357SOL    HW129512   2.501   4.486   1.950 -1.1322 -0.2780 -2.1221
 9357SOL    HW229513   2.633   4.413   1.936 -0.2731  0.7041  0.3544
 9358SOL     OW29514   3.960   6.053   2.182 -0.2499  0.7823  0.0917
 9358SOL    HW129515   3.983   6.063   2.274 -1.1160 -2.1567  0.7297
 9358SOL    HW229516   3.924   6.138   2.157  0.4245  1.7997  2.2951
 9359SOL     OW29517   7.924   4.340   3.429 -0.0660 -0.2082 -0.3935
 9359SOL    HW129518   7.830   4.356   3.416 -0.1046 -0.0155  0.0819
 9359SOL    HW229519   7.931   4.314   3.521  0.5613  1.5025  0.0739
 9360SOL     OW29520   1.856   4.300   3.094  0.3550 -0.1120 -0.2439
 9360SOL    HW129521   1.893   4.308   3.182  0.6520 -0.0383 -0.3755
 9360SOL    HW229522   1.798   4.224   3.099  0.3213 -0.0688  0.0316
 9361SOL     OW29523   1.654   6.197   3.665 -0.1110  0.1801  0.0841
 9361SOL    HW129524   1.561   6.190   3.640  0.5813 -0.8945 -2.5572
 9361SOL    HW229525   1.701   6.159   3.591  2.4144 -0.4891  1.9221
 9362SOL     OW29526   3.673   4.546   2.998 -0.5065  0.2897 -0.2210
 9362SOL    HW129527   3.693   4.610   3.066 -0.1395  0.4610 -0.4931
 9362SOL    HW229528   3.699   4.462   3.036 -0.3829  0.3753 -0.1165
 9363SOL     OW29529   3.340   2.963  11.784 -0.7829  0.5647 -0.1318
 9363SOL    HW129530   3.361   3.048  11.744 -0.1504  0.8068  0.6896
 9363SOL    HW229531   3.309   2.910  11.711  1.8488  0.4721 -1.2934
 9364SOL     OW29532   1.717   2.665   2.530  0.0782  0.1131  0.4542
 9364SOL    HW129533   1.738   2.757   2.514  1.3525 -0.1237  0.6287
 9364SOL    HW229534   1.633   2.652   2.487 -0.5853  1.5842  1.2126
 9365SOL     OW29535   3.442   5.301   3.732 -0.3158  0.6999  0.4599
 9365SOL    HW129536   3.486   5.216   3.738 -0.8742  0.2155 -1.5561
 9365SOL    HW229537   3.362   5.290   3.784 -0.0557  0.2207  0.7638
 9366SOL     OW29538   4.186   4.260   3.221 -0.2102  0.1265 -0.1639
 9366SOL    HW129539   4.104   4.269   3.268 -0.0730 -0.3931  0.1956
 9366SOL    HW229540   4.250   4.308   3.274 -0.3645  0.8998 -0.6750
 9367SOL     OW29541   1.202   3.876   2.434  0.3617 -0.1495  0.5583
 9367SOL    HW129542   1.262   3.853   2.505  1.3454 -0.0554 -0.2231
 9367SOL    HW229543   1.148   3.946   2.470 -1.7170 -2.5556  2.4903
 9368SOL     OW29544   2.489   3.983   2.990  0.3444  0.1273 -0.0422
 9368SOL    HW129545   2.416   3.932   2.955  0.1140  0.0505  0.5438
 9368SOL    HW229546   2.466   4.074   2.972 -0.3126  0.1609  0.9001
 9369SOL     OW29547   1.558   6.540   0.842  0.4101  0.6755 -0.0574
 9369SOL    HW129548   1.534   6.517   0.752  1.6151 -0.9867  0.0013
 9369SOL    HW229549   1.478   6.577   0.879 -0.2165  1.0670 -1.6961
 9370SOL     OW29550   1.142   4.418   3.347 -0.2209 -0.5551  0.1561
 9370SOL    HW129551   1.159   4.344   3.290  0.1952  1.2122 -2.1682
 9370SOL    HW229552   1.189   4.397   3.428  0.0998 -2.6635 -0.5143
 9371SOL     OW29553   2.883   5.846   2.244  0.0627 -0.0493  0.0778
 9371SOL    HW129554   2.809   5.907   2.245  1.2850  1.6605 -2.4736
 9371SOL    HW229555   2.854   5.772   2.298 -3.9246  0.0522 -1.5504
 9372SOL     OW29556   1.979   5.606   5.594 -0.3286  0.0153  0.0589
 9372SOL    HW129557   1.938   5.543   5.654  0.8577  0.6997  1.6782
 9372SOL    HW229558   2.071   5.577   5.589  0.1493  1.3619  0.5424
 9373SOL     OW29559   2.502   3.967   4.578  0.0569  0.4028 -0.6626
 9373SOL    HW129560   2.588   3.999   4.607 -0.2910  0.4774  0.3164
 9373SOL    HW229561   2.468   3.918   4.653  0.4310 -2.0297 -1.9937
 9374SOL     OW29562   3.496   6.695   3.274 -0.7198 -0.2877  0.0784
 9374SOL    HW129563   3.418   6.743   3.247 -0.7469  0.1088  0.8162
 9374SOL    HW229564   3.462   6.622   3.326 -0.7093 -1.4640 -1.5198
 9375SOL     OW29565   1.361   5.336   2.594  0.1560  0.0427 -0.3864
 9375SOL    HW129566   1.267   5.352   2.585  0.2849  0.8975 -0.2657
 9375SOL    HW229567   1.387   5.298   2.510 -0.7177 -2.4604  0.3890
 9376SOL     OW29568   4.677   4.166   2.899 -0.5351 -0.1775 -0.1255
 9376SOL    HW129569   4.667   4.252   2.859 -5.5978 -0.7482 -0.7075
 9376SOL    HW229570   4.684   4.184   2.993 -2.1283  0.9486 -0.1838
 9377SOL     OW29571   1.355   3.776   4.243 -0.0336  0.2177  0.0389
 9377SOL    HW129572   1.355   3.688   4.278 -0.8862  0.1960  0.0096
 9377SOL    HW229573   1.446   3.805   4.250  0.2535 -0.6536  0.0502
 9378SOL     OW29574   1.214   5.911   1.450  0.0918 -0.2274  0.5229
 9378SOL    HW129575   1.258   5.853   1.512 -0.0328 -1.4201 -0.4624
 9378SOL    HW229576   1.122   5.911   1.477 -0.0264 -1.0248  0.1535
 9379SOL     OW29577   2.506   2.753   2.955  0.3388 -0.7290 -0.2839
 9379SOL    HW129578   2.591   2.794   2.971 -0.7640  0.8622  2.2327
 9379SOL    HW229579   2.453   2.822   2.915 -0.4923 -0.8070  0.6322
 9380SOL     OW29580   4.215   4.027   3.070  0.0384 -0.1621 -0.0189
 9380SOL    HW129581   4.301   4.033   3.029  0.7292  0.1606  1.4264
 9380SOL    HW229582   4.213   4.100   3.132 -1.3265 -0.1098 -0.0900
 9381SOL     OW29583   2.922   4.978   1.916 -0.2850 -0.8539  0.1743
 9381SOL    HW129584   2.935   4.976   2.010 -2.5670 -2.8639  0.5558
 9381SOL    HW229585   2.992   4.923   1.880  0.2122 -0.6013  0.7562
 9382SOL     OW29586   3.601   4.807   1.857 -0.8794  0.1657 -0.1109
 9382SOL    HW129587   3.566   4.736   1.911 -0.7742 -0.5553 -0.9793
 9382SOL    HW229588   3.523   4.854   1.827 -0.9009  1.3938  1.7185
 9383SOL     OW29589   2.975   4.299   2.204  0.6220  0.2738  0.0225
 9383SOL    HW129590   3.018   4.376   2.240 -0.3551  0.9371 -0.2061
 9383SOL    HW229591   3.040   4.229   2.215  0.9284  0.7571  1.7146
 9384SOL     OW29592   3.237   4.059   1.684 -0.3618 -0.0320  0.3056
 9384SOL    HW129593   3.245   3.964   1.692 -1.4255 -0.1770 -0.1459
 9384SOL    HW229594   3.253   4.076   1.591  0.5515  0.3256  0.5187
 9385SOL     OW29595   1.958   4.441   2.418  0.5450 -0.3324 -0.0550
 9385SOL    HW129596   2.002   4.520   2.387  0.7714 -0.2496  0.4632
 9385SOL    HW229597   1.898   4.417   2.347  0.3252  0.4236 -0.1315
 9386SOL     OW29598   3.649   7.200   1.126 -0.0120  0.3766 -0.2798
 9386SOL    HW129599   3.563   7.163   1.147  0.3112 -0.9792 -1.2628
 9386SOL    HW229600   3.694   7.207   1.210 -0.6284 -0.0555  0.0882
 9387SOL     OW29601   2.267   5.150   3.344 -0.5825 -0.0201  0.2423
 9387SOL    HW129602   2.223   5.139   3.260  0.9042  0.9020 -0.7004
 9387SOL    HW229603   2.197   5.175   3.405 -1.4662  0.8306 -1.0753
 9388SOL     OW29604   1.736   3.651   4.751 -0.0593  0.3941  0.6640
 9388SOL    HW129605   1.786   3.727   4.780 -0.3024  0.7746  0.0856
 9388SOL    HW229606   1.650   3.662   4.791 -0.0544  0.3514  0.6868
 9389SOL     OW29607   1.993   4.368   3.721 -0.2666  0.3782  0.0746
 9389SOL    HW129608   2.083   4.398   3.712 -0.0629 -0.4006 -0.5717
 9389SOL    HW229609   1.986   4.340   3.812  0.4199 -0.4133 -0.1083
 9390SOL     OW29610   2.746   5.579   2.125 -0.2350  0.0159  0.2405
 9390SOL    HW129611   2.837   5.562   2.101 -0.4990 -0.2009 -0.6793
 9390SOL    HW229612   2.751   5.627   2.207  0.7691  1.2360 -0.4939
 9391SOL     OW29613   3.539   4.159   4.381 -0.1931  0.4789  0.3857
 9391SOL    HW129614   3.632   4.155   4.402  0.2915  0.1783 -1.5731
 9391SOL    HW229615   3.518   4.253   4.383 -0.1168  0.4790  1.8129
 9392SOL     OW29616   3.414   4.287   3.512 -0.4861  0.2821  0.7961
 9392SOL    HW129617   3.477   4.231   3.468 -1.4817  0.4202 -0.9191
 9392SOL    HW229618   3.348   4.227   3.547 -1.4835  0.2867 -0.9295
 9393SOL     OW29619   0.539   3.272   5.668 -0.6435  0.1489 -0.6075
 9393SOL    HW129620   0.527   3.193   5.616 -0.3893 -0.5334  0.3451
 9393SOL    HW229621   0.614   3.316   5.629  0.0710 -0.7845 -0.3015
 9394SOL     OW29622   1.934   3.989   5.361 -0.2024  0.6640 -0.3620
 9394SOL    HW129623   1.957   4.073   5.320 -0.0672  1.2691  0.9020
 9394SOL    HW229624   1.976   3.992   5.446  1.3345 -1.4891 -0.9554
 9395SOL     OW29625   7.795   5.157   3.416 -0.9902 -0.3015  0.8701
 9395SOL    HW129626   7.714   5.186   3.375 -1.1092 -1.6605  0.0800
 9395SOL    HW229627   7.768   5.111   3.495 -0.9503 -0.1693  0.9602
 9396SOL     OW29628   2.754   4.171   5.471 -0.0007 -0.1263 -0.2949
 9396SOL    HW129629   2.710   4.172   5.386  0.7177 -0.7304 -0.6840
 9396SOL    HW229630   2.846   4.156   5.451  0.0345 -1.3907  0.6392
 9397SOL     OW29631   3.029   5.257   4.627  0.2534  0.2831 -0.1306
 9397SOL    HW129632   3.095   5.326   4.629 -0.6984  1.2460  2.2723
 9397SOL    HW229633   3.079   5.176   4.631  1.3320  0.9533  0.4033
 9398SOL     OW29634   2.546   4.042   3.579 -0.1471  0.4765  0.2241
 9398SOL    HW129635   2.537   4.056   3.485 -0.9672 -0.3834  0.1496
 9398SOL    HW229636   2.631   3.999   3.590 -0.6134 -0.6128 -0.2881
 9399SOL     OW29637   1.076   3.595   4.550  0.4695  0.8281  0.6995
 9399SOL    HW129638   0.999   3.652   4.548  0.7175  1.1459 -0.8357
 9399SOL    HW229639   1.144   3.647   4.592  0.8899  1.9732 -1.2813
 9400SOL     OW29640   3.779   4.133   4.141 -0.4851  0.3289 -0.0556
 9400SOL    HW129641   3.844   4.079   4.187 -0.5934  0.5033  0.3087
 9400SOL    HW229642   3.762   4.206   4.201  1.1943  1.8940 -1.3880
 9401SOL     OW29643   2.660   6.066   4.565  0.0134 -0.2999  0.3041
 9401SOL    HW129644   2.708   6.037   4.487  1.5249 -0.0946  1.1330
 9401SOL    HW229645   2.571   6.081   4.533  1.0049  1.6644 -1.8382
 9402SOL     OW29646   1.511   3.730   6.525  0.3350  0.4499 -0.4581
 9402SOL    HW129647   1.464   3.653   6.493  0.0659  0.1192  0.6525
 9402SOL    HW229648   1.580   3.694   6.581 -0.7401  0.9794  1.3259
 9403SOL     OW29649   1.239   3.898   5.032 -0.3038  0.0887  0.1178
 9403SOL    HW129650   1.152   3.918   4.997 -0.5130  0.2954  0.7361
 9403SOL    HW229651   1.223   3.832   5.099  0.2970 -1.6570 -1.3664
 9404SOL     OW29652   0.875   3.788   4.494  0.4491  0.4548  0.2092
 9404SOL    HW129653   0.836   3.738   4.422  0.4907 -1.0269  1.1714
 9404SOL    HW229654   0.802   3.806   4.553  0.9770 -1.7040  1.6571
 9405SOL     OW29655   1.573   4.209   4.458  0.6372 -0.1196  0.1171
 9405SOL    HW129656   1.617   4.294   4.455  1.3953 -0.4908  0.2713
 9405SOL    HW229657   1.488   4.227   4.498  0.5312  0.6697 -0.4470
 9406SOL     OW29658   0.707   4.633   2.501 -0.1834 -0.0547  0.2466
 9406SOL    HW129659   0.780   4.625   2.440  0.7846 -1.0414  1.4962
 9406SOL    HW229660   0.733   4.702   2.562 -0.6422  0.1199  0.2529
 9407SOL     OW29661   1.608   2.428   3.972  0.0594  0.0317  0.3326
 9407SOL    HW129662   1.638   2.512   3.939 -0.9325  0.4909  0.5739
 9407SOL    HW229663   1.686   2.371   3.967  0.9407  1.1609  0.9227
 9408SOL     OW29664   4.214   5.004   3.457  0.4922 -0.0210 -0.0046
 9408SOL    HW129665   4.187   4.996   3.548  0.1523  1.1352  0.0211
 9408SOL    HW229666   4.133   4.991   3.407  0.5761 -0.1404 -0.1089
 9409SOL     OW29667   1.741   4.614   3.087  0.3344 -0.0461 -0.5456
 9409SOL    HW129668   1.737   4.635   3.180  0.5403  0.3153 -0.6158
 9409SOL    HW229669   1.824   4.651   3.058 -0.3744  1.1151 -1.1773
 9410SOL     OW29670   3.536   4.555   4.240 -0.4644  0.5774  0.2181
 9410SOL    HW129671   3.540   4.467   4.277 -0.1200 -0.1883 -1.5314
 9410SOL    HW229672   3.451   4.589   4.268 -1.9892 -1.4959 -1.5118
 9411SOL     OW29673   2.964   4.758   5.402 -0.0622 -0.1834 -0.2932
 9411SOL    HW129674   2.971   4.663   5.405  1.7957 -0.0646  2.2024
 9411SOL    HW229675   3.052   4.790   5.424 -0.8597  2.0964 -0.0992
 9412SOL     OW29676   1.425   6.147   2.982  0.4569  0.1413 -0.2819
 9412SOL    HW129677   1.435   6.169   3.075  0.3423  1.1418 -0.4975
 9412SOL    HW229678   1.457   6.224   2.935 -2.1865  0.8747 -1.0465
 9413SOL     OW29679   3.085   5.537   6.120  0.2625  0.2139  0.4514
 9413SOL    HW129680   3.043   5.543   6.205 -0.1640 -1.1667  0.3561
 9413SOL    HW229681   3.156   5.601   6.124 -0.4531  0.9842  1.4124
 9414SOL     OW29682   1.852   3.816   5.008  0.0930  0.0031  0.1548
 9414SOL    HW129683   1.794   3.889   5.030 -1.4966 -1.0787 -0.2409
 9414SOL    HW229684   1.876   3.831   4.916  1.2500  0.9582  0.5950
 9415SOL     OW29685   2.937   4.893   4.513 -0.1559  0.5863 -0.6862
 9415SOL    HW129686   3.015   4.843   4.488 -1.5610 -0.7026 -2.8322
 9415SOL    HW229687   2.873   4.826   4.540 -1.0604  1.4806 -0.5375
 9416SOL     OW29688   3.417   4.794   4.030 -0.0887 -0.7450 -0.3470
 9416SOL    HW129689   3.402   4.774   4.123 -0.4541 -0.6107 -0.3762
 9416SOL    HW229690   3.501   4.839   4.028 -0.4009 -0.1363  0.0006
 9417SOL     OW29691   2.384   3.982   5.529 -0.3706  0.2740 -0.0263
 9417SOL    HW129692   2.392   4.031   5.447 -1.4926  0.8960  0.2065
 9417SOL    HW229693   2.473   3.977   5.563 -0.2288  2.3866  0.0420
 9418SOL     OW29694   2.695   4.587   4.806  0.1532  0.7090 -0.9905
 9418SOL    HW129695   2.628   4.635   4.758 -0.2614  0.2182 -0.9118
 9418SOL    HW229696   2.747   4.545   4.738 -0.9022 -0.6179 -1.0220
 9419SOL     OW29697   3.805   4.754   3.302 -0.2539  0.3819 -0.0142
 9419SOL    HW129698   3.855   4.673   3.305  1.3776  1.3491  0.4045
 9419SOL    HW229699   3.751   4.751   3.381  0.8281  0.2981  0.7592
 9420SOL     OW29700   2.046   5.790   5.811 -0.0624  0.3278  0.0867
 9420SOL    HW129701   2.058   5.853   5.739  2.5283 -0.8501 -0.6316
 9420SOL    HW229702   2.011   5.712   5.769 -0.1858  0.2129  0.4003
 9421SOL     OW29703   3.069   4.199   3.856  0.0204  0.7924 -0.1351
 9421SOL    HW129704   3.148   4.164   3.895  0.0493  0.7575 -0.2257
 9421SOL    HW229705   3.038   4.130   3.796 -0.0107  0.8549 -0.1916
 9422SOL     OW29706   2.640   3.951   5.577 -0.4098  0.3448 -1.0368
 9422SOL    HW129707   2.681   4.036   5.561 -1.8179  1.4763  0.8902
 9422SOL    HW229708   2.685   3.917   5.654 -1.2837  0.3595 -0.5118
 9423SOL     OW29709   3.278   3.230   4.604 -0.3031 -0.0218 -0.1581
 9423SOL    HW129710   3.335   3.261   4.533  0.9335 -0.5862  0.5499
 9423SOL    HW229711   3.339   3.209   4.675 -1.6228  2.0888  1.6958
 9424SOL     OW29712   2.661   4.239   4.761  0.5091  0.4202  0.1986
 9424SOL    HW129713   2.734   4.181   4.740 -0.4246 -1.6073  2.1197
 9424SOL    HW229714   2.675   4.317   4.708  3.3267 -0.4493 -0.4526
 9425SOL     OW29715   7.876   5.006   4.320 -0.4080  0.0253  0.3770
 9425SOL    HW129716   7.866   4.931   4.379  0.8613  0.7712  1.5884
 9425SOL    HW229717   7.854   4.971   4.233 -0.1514 -1.6654  0.9543
 9426SOL     OW29718   0.003   5.158   6.941 -0.9388 -0.0434  0.2774
 9426SOL    HW129719  -0.087   5.136   6.919 -0.7797 -1.5019  0.9553
 9426SOL    HW229720   0.032   5.087   6.999  0.1816  1.1349  1.2410
 9427SOL     OW29721   2.037   3.819   4.445  0.0653  0.0629  0.1526
 9427SOL    HW129722   2.054   3.902   4.401 -0.3396 -0.1554 -0.4432
 9427SOL    HW229723   1.942   3.807   4.437  0.3789 -1.6953 -2.1244
 9428SOL     OW29724   3.111   3.608   4.182  0.4373 -0.3045  0.3608
 9428SOL    HW129725   3.130   3.618   4.088 -0.0650  0.8803  0.3660
 9428SOL    HW229726   3.057   3.529   4.187 -0.4313  0.2112 -0.4865
 9429SOL     OW29727   3.470   5.083   5.121  0.0716 -0.0292 -0.1534
 9429SOL    HW129728   3.538   5.034   5.074  1.4718  0.6647  1.0817
 9429SOL    HW229729   3.392   5.028   5.113  0.6091 -0.6077 -2.0625
 9430SOL     OW29730   1.258   5.055   3.121 -0.5864  0.3503  0.2644
 9430SOL    HW129731   1.292   5.000   3.191  0.6486  2.1099  1.1438
 9430SOL    HW229732   1.166   5.068   3.144 -0.9120 -1.3486 -0.0039
 9431SOL     OW29733   0.856   4.833   5.846 -0.0171 -0.0646  0.4545
 9431SOL    HW129734   0.854   4.779   5.925 -1.3169 -0.2211  0.3232
 9431SOL    HW229735   0.766   4.864   5.835  0.3216  0.6341 -0.5029
 9432SOL     OW29736   3.437   5.255   5.353 -0.8195  0.4123 -0.4873
 9432SOL    HW129737   3.441   5.199   5.276 -1.4851  2.8638 -2.4055
 9432SOL    HW229738   3.526   5.252   5.389 -0.5978 -1.0793 -1.0569
 9433SOL     OW29739   3.018   4.308   4.341 -0.1389  0.1752 -0.9177
 9433SOL    HW129740   2.998   4.240   4.404  0.6779  1.2222  0.5162
 9433SOL    HW229741   3.097   4.278   4.296 -0.2733 -0.2048 -0.8975
 9434SOL     OW29742   2.182   4.549   5.294 -0.0284  0.2649 -0.5268
 9434SOL    HW129743   2.194   4.454   5.295 -1.0004  0.1391  0.2662
 9434SOL    HW229744   2.264   4.583   5.258  0.3319 -0.8703 -0.8172
 9435SOL     OW29745   3.378   6.157   4.073 -0.6039 -0.4414  0.2917
 9435SOL    HW129746   3.384   6.243   4.114 -0.1628 -0.2244 -0.2069
 9435SOL    HW229747   3.295   6.121   4.103 -0.6989  0.0773  0.6588
 9436SOL     OW29748   0.964   3.612   5.607 -0.2939 -0.1137 -0.4283
 9436SOL    HW129749   0.980   3.682   5.544 -0.5787  1.4715  1.1822
 9436SOL    HW229750   1.041   3.556   5.601  0.7355  1.2628 -0.6005
 9437SOL     OW29751   1.748   5.226   4.300 -0.1251 -0.4189 -0.5098
 9437SOL    HW129752   1.764   5.302   4.357 -1.6782 -0.9487  0.7057
 9437SOL    HW229753   1.794   5.247   4.219  1.2544  0.8591  0.5438
 9438SOL     OW29754   2.470   4.056   2.653  0.1661  0.5390 -0.0110
 9438SOL    HW129755   2.467   4.117   2.728  1.7855  0.1189  0.4176
 9438SOL    HW229756   2.563   4.043   2.636 -0.1303 -1.6038 -0.2645
 9439SOL     OW29757   3.633   3.960   3.713 -0.8274 -0.1726 -0.4473
 9439SOL    HW129758   3.660   3.871   3.690 -1.6241 -0.3292 -0.8176
 9439SOL    HW229759   3.655   3.969   3.806  0.1066 -0.4286 -0.6386
 9440SOL     OW29760   1.676   4.626   3.865  0.3891  0.0011  0.4795
 9440SOL    HW129761   1.688   4.559   3.933  0.4358  1.2653  1.7674
 9440SOL    HW229762   1.595   4.601   3.821 -0.8236  0.3010  2.4251
 9441SOL     OW29763   3.355   6.954   2.545  0.0947 -0.2325  0.1960
 9441SOL    HW129764   3.333   7.000   2.464  0.4649 -0.4706 -0.0407
 9441SOL    HW229765   3.289   6.886   2.554 -0.9912  0.8852  1.0058
 9442SOL     OW29766   3.265   4.171   4.263  0.5575 -0.3757  0.4539
 9442SOL    HW129767   3.318   4.168   4.343  0.7577  2.4296  0.5254
 9442SOL    HW229768   3.329   4.173   4.192  0.5704  1.1738  0.4641
 9443SOL     OW29769   1.326   3.436   3.377  0.6018  0.3926  0.2338
 9443SOL    HW129770   1.317   3.523   3.418  0.3078  0.6992 -0.4620
 9443SOL    HW229771   1.393   3.448   3.310 -0.3519  0.4259 -0.7455
 9444SOL     OW29772   3.156   3.684   5.950 -0.5383 -0.2057 -0.3347
 9444SOL    HW129773   3.159   3.592   5.977 -0.7255 -0.5453 -1.3935
 9444SOL    HW229774   3.239   3.721   5.979 -0.4201 -0.7411  0.0121
 9445SOL     OW29775   2.808   6.019   5.094  0.5153 -0.2723 -0.5733
 9445SOL    HW129776   2.807   6.000   5.188  0.5057  0.8447 -0.3396
 9445SOL    HW229777   2.820   5.933   5.053 -0.4291 -0.9110  0.4038
 9446SOL     OW29778   2.885   5.665   3.963 -0.3652 -0.0243  0.3483
 9446SOL    HW129779   2.891   5.721   3.885 -2.4432  0.9432  0.8036
 9446SOL    HW229780   2.960   5.606   3.956  0.6170  1.3195 -1.3503
 9447SOL     OW29781   2.778   4.633   4.449  0.1126  0.0397  0.3933
 9447SOL    HW129782   2.855   4.631   4.392 -1.7099 -1.2908 -2.2426
 9447SOL    HW229783   2.782   4.551   4.498  0.2045 -0.2093 -0.0263
 9448SOL     OW29784   0.905   4.391   5.080 -0.1277  0.4562  0.7048
 9448SOL    HW129785   0.844   4.460   5.108  0.2852  1.2056 -0.1854
 9448SOL    HW229786   0.977   4.438   5.039  0.2619 -0.5042  0.2638
 9449SOL     OW29787   3.456   3.974   4.144 -0.0582  0.4624 -0.0152
 9449SOL    HW129788   3.466   4.015   4.231  0.0247 -0.1746  0.2796
 9449SOL    HW229789   3.451   3.880   4.162 -0.1338  0.3312 -0.6973
 9450SOL     OW29790   1.903   3.750   3.763 -0.0474  0.4665  0.7873
 9450SOL    HW129791   1.887   3.746   3.857  0.6300  0.7236  0.9191
 9450SOL    HW229792   1.817   3.741   3.723 -0.3757  0.6809  1.4407
 9451SOL     OW29793   1.484   3.140   4.691  0.0310 -0.6594  0.0754
 9451SOL    HW129794   1.515   3.146   4.601 -0.7720 -0.2637 -0.1860
 9451SOL    HW229795   1.400   3.095   4.685 -0.6091  0.4528  0.4791
 9452SOL     OW29796   2.460   6.009   6.042  0.3768 -0.3371 -0.3234
 9452SOL    HW129797   2.394   6.077   6.055 -1.2544 -2.0310  0.7472
 9452SOL    HW229798   2.417   5.944   5.988  0.4457 -2.3640  1.9031
 9453SOL     OW29799   2.682   4.890   5.248 -0.5432  0.1793  0.4262
 9453SOL    HW129800   2.743   4.847   5.307  0.2977  0.6117 -0.1091
 9453SOL    HW229801   2.617   4.930   5.305  0.1278  0.4005  1.0491
 9454SOL     OW29802   3.357   5.109   3.270  0.0297  0.4706 -0.1522
 9454SOL    HW129803   3.313   5.026   3.292 -0.1148  0.5918  0.0135
 9454SOL    HW229804   3.428   5.116   3.333  1.3589 -0.5654 -1.4603
 9455SOL     OW29805   3.709   3.665   4.371  0.4185 -0.3399  0.1866
 9455SOL    HW129806   3.619   3.695   4.364  0.9583  1.2233 -0.3345
 9455SOL    HW229807   3.724   3.614   4.291 -0.6270 -2.4662  1.2700
 9456SOL     OW29808   2.466   4.337   4.280 -0.0599 -1.2761  0.4910
 9456SOL    HW129809   2.539   4.317   4.339  0.8184 -0.7967 -0.3847
 9456SOL    HW229810   2.489   4.293   4.198  0.5228  0.8810 -0.5812
 9457SOL     OW29811   1.646   3.989   5.497  0.1407  0.6335  0.2585
 9457SOL    HW129812   1.627   3.901   5.465  0.8179  0.5545  0.0521
 9457SOL    HW229813   1.737   4.005   5.472  0.5210  0.7965  1.6279
 9458SOL     OW29814   2.489   3.604   4.897 -0.9570 -0.1855 -0.1143
 9458SOL    HW129815   2.462   3.583   4.986 -0.7208 -1.7019 -0.3567
 9458SOL    HW229816   2.573   3.649   4.907 -2.7154  3.2302  0.5699
 9459SOL     OW29817   3.017   3.963   4.533  0.1590 -0.4573  0.3043
 9459SOL    HW129818   3.044   4.047   4.569  0.6351  0.2680 -1.5837
 9459SOL    HW229819   3.096   3.909   4.536 -0.5164 -1.4270  2.9138
 9460SOL     OW29820   2.701   5.064   3.550  0.0358 -0.3250 -0.0776
 9460SOL    HW129821   2.658   4.981   3.574  1.5605 -0.8734  0.8860
 9460SOL    HW229822   2.790   5.055   3.584  0.5922  1.2237 -1.0606
 9461SOL     OW29823   2.108   4.961   2.654 -0.1928  0.0873 -0.2823
 9461SOL    HW129824   2.130   5.047   2.689  0.4126  0.0779 -0.6140
 9461SOL    HW229825   2.134   4.899   2.723  0.3245  0.1126 -0.4486
 9462SOL     OW29826   2.070   5.420   5.173 -0.1521 -0.4251  0.5614
 9462SOL    HW129827   2.018   5.357   5.124  0.5153 -1.2729  0.9317
 9462SOL    HW229828   2.005   5.475   5.218 -0.7580 -2.0670  1.7895
 9463SOL     OW29829   1.951   3.508   2.738 -0.0990 -0.5589  0.0635
 9463SOL    HW129830   2.002   3.450   2.794  1.0103  0.3416  0.0118
 9463SOL    HW229831   1.984   3.492   2.649  0.4597  0.3646  0.0863
 9464SOL     OW29832   2.571   4.301   4.020  0.5464 -0.0564 -0.7294
 9464SOL    HW129833   2.605   4.220   3.983 -0.2798 -1.5397  1.5491
 9464SOL    HW229834   2.640   4.331   4.079  0.3263  0.2119 -0.6079
 9465SOL     OW29835   4.306   5.252   4.992  0.5092 -0.4729 -0.4336
 9465SOL    HW129836   4.357   5.254   5.073  0.0418 -1.6772 -0.0884
 9465SOL    HW229837   4.278   5.161   4.984 -0.1166 -0.1979 -1.5416
 9466SOL     OW29838   3.160   4.595   5.213 -0.0017 -0.2488  0.4024
 9466SOL    HW129839   3.116   4.559   5.136 -0.7520  0.9481  0.2395
 9466SOL    HW229840   3.239   4.541   5.224  1.0638  0.6188 -2.2441
 9467SOL     OW29841   3.721   6.102   3.702  0.0127  0.4613  0.5146
 9467SOL    HW129842   3.701   6.041   3.631  1.4439  0.5003  0.0339
 9467SOL    HW229843   3.641   6.106   3.755 -0.5531 -0.7713 -0.2155
 9468SOL     OW29844   0.708   4.368   4.404 -0.7400  0.2258  0.4704
 9468SOL    HW129845   0.645   4.376   4.476 -1.3404 -2.9626  0.4326
 9468SOL    HW229846   0.775   4.309   4.437  0.4651  0.9007 -0.6797
 9469SOL     OW29847   1.444   4.743   2.832 -0.0006  0.0379 -0.1979
 9469SOL    HW129848   1.471   4.809   2.768 -0.6670  0.4426 -0.0715
 9469SOL    HW229849   1.508   4.750   2.903 -0.4422  1.0026  0.1133
 9470SOL     OW29850   2.077   5.023   4.281  0.2422  0.4282 -0.1434
 9470SOL    HW129851   2.035   5.084   4.342 -1.9336 -0.4043 -0.7294
 9470SOL    HW229852   2.142   4.978   4.334 -0.4609  0.8763  1.1528
 9471SOL     OW29853   1.609   5.491   5.182  0.0294  0.0185 -0.6601
 9471SOL    HW129854   1.578   5.460   5.097 -0.1062  0.2492 -0.6953
 9471SOL    HW229855   1.673   5.560   5.161 -1.3205  1.3495 -0.5703
 9472SOL     OW29856   0.260   4.801   3.402 -0.3681 -0.5849  0.1143
 9472SOL    HW129857   0.333   4.765   3.451 -0.6159 -0.2045  0.7822
 9472SOL    HW229858   0.184   4.750   3.430 -0.2620 -1.4626 -1.1140
 9473SOL     OW29859   3.460   3.307   4.824  0.3706 -0.0207 -0.3442
 9473SOL    HW129860   3.411   3.388   4.810 -0.3186 -0.5964 -1.4476
 9473SOL    HW229861   3.461   3.296   4.919 -1.6030  0.0710 -0.2718
 9474SOL     OW29862   2.343   6.031   5.269 -0.0216  0.2798 -0.5751
 9474SOL    HW129863   2.285   5.959   5.291  1.8659 -0.5926  2.0302
 9474SOL    HW229864   2.303   6.108   5.311 -0.8091  0.3049 -1.3498
 9475SOL     OW29865   2.797   5.315   5.306 -0.3078 -0.3293  0.1435
 9475SOL    HW129866   2.719   5.327   5.360  0.1116  1.9374  0.3044
 9475SOL    HW229867   2.867   5.359   5.354  0.9259 -1.6124 -0.4072
 9476SOL     OW29868   3.282   4.215   4.590 -0.7264  0.8463 -0.0956
 9476SOL    HW129869   3.303   4.135   4.638 -1.4650  1.3253  1.0570
 9476SOL    HW229870   3.187   4.219   4.589 -0.6998  2.1854  0.6975
 9477SOL     OW29871   1.263   5.427   4.915  0.0474 -0.1478 -0.3254
 9477SOL    HW129872   1.336   5.392   4.965 -1.2281 -2.7008 -0.0735
 9477SOL    HW229873   1.298   5.443   4.828  1.3546  0.6249  0.3172
 9478SOL     OW29874   1.699   1.633   5.690  0.3211  0.0455 -0.0786
 9478SOL    HW129875   1.691   1.631   5.595  0.1814  0.3459 -0.0747
 9478SOL    HW229876   1.733   1.546   5.714 -2.0774 -1.0020 -0.1744
 9479SOL     OW29877   1.482   3.726   4.851  0.2971  0.2380 -0.2425
 9479SOL    HW129878   1.419   3.729   4.779  0.2901 -1.2039 -0.3064
 9479SOL    HW229879   1.435   3.764   4.926 -0.4596 -0.3130 -0.4287
 9480SOL     OW29880   2.085   2.414   5.593  1.3057 -0.3247  0.8923
 9480SOL    HW129881   2.011   2.404   5.653  0.3688 -2.1997 -0.4692
 9480SOL    HW229882   2.138   2.336   5.607  0.5151 -1.3648 -1.3300
 9481SOL     OW29883   0.834   5.708   6.278  0.1642  0.1399  0.3607
 9481SOL    HW129884   0.900   5.768   6.243 -0.9518 -0.0299 -2.2446
 9481SOL    HW229885   0.879   5.624   6.282  0.4115  0.2149 -0.5082
 9482SOL     OW29886   4.156   4.686   3.737 -0.1369  0.3446  0.6913
 9482SOL    HW129887   4.084   4.694   3.800 -0.8547 -0.0631 -0.0576
 9482SOL    HW229888   4.188   4.775   3.726 -0.2972  0.4829  1.2827
 9483SOL     OW29889   1.291   2.708   5.352 -0.5762  0.2374 -0.5134
 9483SOL    HW129890   1.216   2.729   5.408  0.0150 -1.2926  0.9620
 9483SOL    HW229891   1.338   2.791   5.343 -3.0140  1.5321 -2.4985
 9484SOL     OW29892   0.877   4.612   3.662 -0.0945  0.1863  0.3739
 9484SOL    HW129893   0.895   4.639   3.572 -1.6720 -0.8995 -0.3007
 9484SOL    HW229894   0.945   4.655   3.714  0.7351  0.9755 -1.3042
 9485SOL     OW29895   1.615   4.170   4.183 -0.1475  0.0316 -0.1071
 9485SOL    HW129896   1.628   4.196   4.274 -0.6000  0.0593 -0.0491
 9485SOL    HW229897   1.700   4.135   4.156 -0.6825 -2.5210  1.1520
 9486SOL     OW29898   2.013   5.220   3.194  0.0776 -0.6606  0.2135
 9486SOL    HW129899   1.958   5.284   3.239 -0.3233 -0.4956 -0.4991
 9486SOL    HW229900   2.092   5.268   3.169 -0.7741 -0.0767 -1.4730
 9487SOL     OW29901   3.714   3.433   4.203  0.8825 -0.2906 -0.3094
 9487SOL    HW129902   3.648   3.366   4.183  0.3065 -0.6440  2.3526
 9487SOL    HW229903   3.777   3.389   4.260 -0.5113  1.7038  3.1100
 9488SOL     OW29904   3.655   7.054   5.273  0.7072  0.5750 -0.1115
 9488SOL    HW129905   3.744   7.084   5.253  0.7509 -0.3851 -1.4809
 9488SOL    HW229906   3.666   6.970   5.316  0.4756  0.6003  0.0008
 9489SOL     OW29907   4.835   5.176   4.850 -0.1648  0.0399 -0.0903
 9489SOL    HW129908   4.860   5.219   4.768  2.3068 -2.3709 -0.7792
 9489SOL    HW229909   4.751   5.134   4.830  0.2370 -0.2295 -1.3287
 9490SOL     OW29910   0.880   5.370   3.811 -0.0771  0.1982  0.0805
 9490SOL    HW129911   0.974   5.366   3.796 -0.1931  0.7727 -0.9212
 9490SOL    HW229912   0.860   5.464   3.809 -0.8421  0.0301 -0.9598
 9491SOL     OW29913   3.124   4.337   3.592 -0.2253  0.4247 -0.0793
 9491SOL    HW129914   3.036   4.312   3.619 -0.0467 -1.1823 -0.8277
 9491SOL    HW229915   3.182   4.278   3.641  0.2589 -0.2670 -1.4146
 9492SOL     OW29916   3.045   3.853   3.923 -0.3792  0.4586 -0.0815
 9492SOL    HW129917   3.129   3.899   3.925 -0.2575  0.2652 -0.6059
 9492SOL    HW229918   3.064   3.770   3.881 -0.4193 -0.4592  1.6247
 9493SOL     OW29919   3.059   4.447   5.535 -0.0246  0.1812  0.5474
 9493SOL    HW129920   3.013   4.460   5.452  0.8437 -0.6482 -0.0839
 9493SOL    HW229921   3.049   4.354   5.554 -0.2569  0.3694  1.4139
 9494SOL     OW29922   3.189   5.236   5.481 -0.0634  0.1227 -0.1173
 9494SOL    HW129923   3.198   5.141   5.490  0.5707  0.0999 -0.8212
 9494SOL    HW229924   3.266   5.262   5.429 -1.6451  0.6383 -2.3486
 9495SOL     OW29925   2.430   4.999   5.357 -0.2573 -0.0970 -0.4621
 9495SOL    HW129926   2.338   5.024   5.356 -1.0382 -2.7337 -1.1426
 9495SOL    HW229927   2.463   5.032   5.441 -2.9428 -2.6056  1.7946
 9496SOL     OW29928   3.021   3.895   5.642  0.4539 -0.7052  0.2434
 9496SOL    HW129929   3.072   3.818   5.668 -0.3353 -0.6637  2.0490
 9496SOL    HW229930   2.932   3.876   5.673  0.0628  0.5652 -0.0613
 9497SOL     OW29931   0.946   6.080   3.577  0.1467  0.0973 -0.0159
 9497SOL    HW129932   0.981   6.121   3.656  0.2698  0.4530 -0.2521
 9497SOL    HW229933   0.851   6.085   3.587  0.1456  1.3635 -0.5051
 9498SOL     OW29934   2.789   3.993   4.669 -0.6554  0.0465  0.1703
 9498SOL    HW129935   2.866   4.001   4.614 -1.4001 -1.1790 -1.1194
 9498SOL    HW229936   2.809   3.921   4.729 -0.6052  0.0684  0.1792
 9499SOL     OW29937   2.960   6.245   4.942 -0.7543 -0.1433  0.0400
 9499SOL    HW129938   2.926   6.220   4.856 -0.1025  0.7176 -0.4862
 9499SOL    HW229939   2.920   6.184   5.003 -1.0956 -0.8736 -0.9030
 9500SOL     OW29940   2.096   3.635   4.647 -0.3825  0.0253  0.4398
 9500SOL    HW129941   2.187   3.626   4.616  0.0334  0.4173  1.4989
 9500SOL    HW229942   2.053   3.687   4.579 -0.4692 -2.1058 -1.2599
 9501SOL     OW29943   2.950   3.806   4.289  0.3581  0.6946 -0.4333
 9501SOL    HW129944   3.007   3.737   4.255  0.9174  0.6652  0.5322
 9501SOL    HW229945   2.993   3.835   4.369 -0.5300  1.2960 -0.1624
 9502SOL     OW29946   3.417   5.274   4.690  0.3034  0.3123  0.0553
 9502SOL    HW129947   3.369   5.229   4.759  1.9679 -0.0369  1.0347
 9502SOL    HW229948   3.440   5.359   4.727  0.2464  0.5715 -0.4879
 9503SOL     OW29949   2.356   4.784   4.799  0.2331  0.3763 -0.0369
 9503SOL    HW129950   2.398   4.760   4.882 -1.9294  0.1442  1.0717
 9503SOL    HW229951   2.397   4.727   4.734  0.0157 -1.4888  1.3761
 9504SOL     OW29952   1.362   3.027   5.633 -0.1376  0.6990  0.4247
 9504SOL    HW129953   1.396   3.071   5.555  0.0373  1.7173  1.0499
 9504SOL    HW229954   1.309   3.094   5.677 -1.3406 -0.2671  0.4932
 9505SOL     OW29955   3.509   3.895   4.925 -0.1433  0.3003 -0.3352
 9505SOL    HW129956   3.597   3.903   4.887 -0.3216  1.7013 -0.5023
 9505SOL    HW229957   3.510   3.954   5.000 -0.2656 -1.3404  1.0045
 9506SOL     OW29958   2.098   4.851   4.805  0.2256  0.0137  0.3175
 9506SOL    HW129959   2.102   4.880   4.896 -1.0838 -1.9685  1.0855
 9506SOL    HW229960   2.187   4.822   4.785  0.4661  0.2122  1.0549
 9507SOL     OW29961   7.884   4.319   3.717 -0.0305 -0.1688  0.1265
 9507SOL    HW129962   7.872   4.380   3.789 -0.5464 -0.5159  0.3439
 9507SOL    HW229963   7.813   4.255   3.728  0.5272 -0.8339 -0.0610
 9508SOL     OW29964   1.899   3.331   5.029  0.9634 -0.7437 -0.3922
 9508SOL    HW129965   1.936   3.418   5.013  0.5358 -0.4375  0.2565
 9508SOL    HW229966   1.900   3.289   4.943  1.1532 -0.0919 -0.7173
 9509SOL     OW29967   3.102   3.211   4.843  0.1219  0.6259  0.1312
 9509SOL    HW129968   3.163   3.186   4.912  0.8223  1.3720 -0.1959
 9509SOL    HW229969   3.158   3.237   4.770 -0.5393 -2.3584 -1.6068
 9510SOL     OW29970   3.555   5.397   3.219 -0.0294 -0.6641  0.1645
 9510SOL    HW129971   3.634   5.419   3.170 -1.8023 -0.2742 -2.7741
 9510SOL    HW229972   3.581   5.323   3.275  2.1111 -1.3471 -1.5942
 9511SOL     OW29973   4.773   5.168   3.564  0.2755  0.7201 -0.5310
 9511SOL    HW129974   4.823   5.125   3.634 -0.6877  1.6567  0.7768
 9511SOL    HW229975   4.746   5.097   3.507  1.1116 -0.0667  0.0228
 9512SOL     OW29976   2.445   3.148   5.479  0.5963  0.2425  0.2696
 9512SOL    HW129977   2.521   3.179   5.430  0.3759  1.0296  0.4127
 9512SOL    HW229978   2.482   3.098   5.551  0.9201 -2.6614 -1.7209
 9513SOL     OW29979   2.993   4.104   5.378 -0.3208  0.1103  0.0205
 9513SOL    HW129980   2.992   4.023   5.327  1.1739 -0.3084  0.5964
 9513SOL    HW229981   3.066   4.092   5.440 -0.0659  1.8926  0.1103
 9514SOL     OW29982   3.887   4.585   3.875 -0.0752  0.0187  0.0946
 9514SOL    HW129983   3.910   4.492   3.879 -0.7858 -0.1955 -0.4969
 9514SOL    HW229984   3.808   4.593   3.929  0.6794  0.5224  1.1506
 9515SOL     OW29985   1.785   5.330   3.295  0.1901  0.7999  0.0152
 9515SOL    HW129986   1.750   5.367   3.376 -1.8811 -0.1105 -0.4056
 9515SOL    HW229987   1.782   5.402   3.233  0.2494  1.0638  0.3141
 9516SOL     OW29988   1.579   4.248   5.968 -0.2323 -0.1529 -0.0055
 9516SOL    HW129989   1.612   4.188   5.901  0.0612 -0.1033  0.0925
 9516SOL    HW229990   1.489   4.267   5.941 -0.0395  0.0551 -0.5185
 9517SOL     OW29991   2.523   4.631   4.300  0.0388  0.3948  0.2079
 9517SOL    HW129992   2.497   4.539   4.310 -0.0227  0.5217  1.2302
 9517SOL    HW229993   2.619   4.628   4.296  0.0207  0.2469 -0.3139
 9518SOL     OW29994   1.794   5.023   2.986  0.1331  0.4378 -0.3949
 9518SOL    HW129995   1.795   5.004   2.892 -1.2430 -1.4966 -0.0970
 9518SOL    HW229996   1.705   4.997   3.014  0.6544  0.5526  1.5010
 9519SOL     OW29997   2.433   6.491   7.297  0.5573  0.3523  0.1305
 9519SOL    HW129998   2.433   6.425   7.366  2.2069  0.6716  0.4761
 9519SOL    HW229999   2.463   6.571   7.340  2.1198  0.4327 -1.0319
 9520SOL     OW30000   4.448   3.186   4.738 -0.1164  0.3110 -1.0639
 9520SOL    HW130001   4.498   3.261   4.707  1.1574  0.1245  0.4189
 9520SOL    HW230002   4.378   3.224   4.791  0.5064  0.4827 -0.3407
 9521SOL     OW30003   3.054   3.594   3.056 -0.1526  0.4448  0.0389
 9521SOL    HW130004   3.120   3.663   3.061  0.2747 -0.0428  1.3724
 9521SOL    HW230005   3.102   3.513   3.074 -0.8916 -0.0675 -0.2385
 9522SOL     OW30006   2.806   5.259   3.073 -0.4953  0.0408  0.6407
 9522SOL    HW130007   2.891   5.247   3.032  0.1303  4.0174  0.3532
 9522SOL    HW230008   2.826   5.290   3.161 -1.6787 -0.0788  0.9760
 9523SOL     OW30009   1.784   4.425   4.028  0.2123 -0.0204  0.2426
 9523SOL    HW130010   1.835   4.461   4.101  0.8676  1.4959 -0.9102
 9523SOL    HW230011   1.832   4.346   4.001  0.4087 -0.1381  0.9196
 9524SOL     OW30012   1.343   4.761   4.450 -0.0191 -0.2010 -0.3406
 9524SOL    HW130013   1.270   4.709   4.483 -0.8966  1.1778 -0.0202
 9524SOL    HW230014   1.404   4.768   4.523 -0.6930  0.6181  0.1445
 9525SOL     OW30015   3.015   6.143   5.995  0.2496 -0.7571 -0.4119
 9525SOL    HW130016   2.994   6.059   5.954  0.9227 -1.1688  0.0905
 9525SOL    HW230017   3.027   6.123   6.088  0.9264 -0.1947 -0.3720
 9526SOL     OW30018   1.876   4.878   4.102  0.5801 -0.4952  0.0578
 9526SOL    HW130019   1.783   4.900   4.112  0.6414  0.3959 -1.1535
 9526SOL    HW230020   1.919   4.923   4.174  0.2748  0.5840 -0.4125
 9527SOL     OW30021   4.870   5.923   5.363 -0.3641  0.0971  0.0882
 9527SOL    HW130022   4.836   5.840   5.396 -0.0564  0.7937  2.2614
 9527SOL    HW230023   4.861   5.984   5.436 -0.2069  1.8962 -1.3296
 9528SOL     OW30024   1.591   4.863   2.635 -0.5632 -0.5949  0.2838
 9528SOL    HW130025   1.667   4.909   2.671 -1.2664 -1.2916  2.8975
 9528SOL    HW230026   1.628   4.790   2.585  0.4799  0.2425 -0.2104
 9529SOL     OW30027   2.824   5.171   4.272  0.1656  0.3759  0.5092
 9529SOL    HW130028   2.905   5.124   4.295 -0.9843 -1.0168  1.8869
 9529SOL    HW230029   2.774   5.108   4.220 -1.0326  0.3499  1.6472
 9530SOL     OW30030   2.270   3.975   3.956  0.3210 -0.5351  0.1649
 9530SOL    HW130031   2.290   4.050   3.899 -1.6648 -1.9265 -2.6490
 9530SOL    HW230032   2.353   3.930   3.968  0.9080  0.0432 -1.4124
 9531SOL     OW30033   0.770   4.369   2.216  0.2831  0.3097  0.4016
 9531SOL    HW130034   0.726   4.293   2.180  1.9023 -0.4753 -0.0084
 9531SOL    HW230035   0.700   4.432   2.233 -0.9570 -0.8445 -0.2907
 9532SOL     OW30036   1.892   5.285   6.104  0.1564 -0.4858 -0.3361
 9532SOL    HW130037   1.960   5.352   6.093 -0.0148 -0.4563 -1.3331
 9532SOL    HW230038   1.915   5.240   6.185  1.8783 -1.0404 -1.0856
 9533SOL     OW30039   7.534   4.673   4.017  0.2214  0.3797  0.2810
 9533SOL    HW130040   7.616   4.627   3.995  0.3268 -0.3092  1.9762
 9533SOL    HW230041   7.510   4.639   4.103 -1.5303  1.0478  0.0855
 9534SOL     OW30042   3.621   4.770   2.642 -0.6003  0.2275  0.1689
 9534SOL    HW130043   3.558   4.700   2.622 -2.0938  1.3660  0.6804
 9534SOL    HW230044   3.690   4.727   2.693 -1.9889 -0.7070  1.3255
 9535SOL     OW30045   1.982   4.319   3.352  0.0255 -0.0340  0.4668
 9535SOL    HW130046   1.983   4.245   3.412 -0.8774 -1.0340 -0.6971
 9535SOL    HW230047   1.948   4.392   3.403 -0.1080 -0.6963  1.3375
 9536SOL     OW30048   2.051   3.549   3.698  0.2953 -0.6173  0.4696
 9536SOL    HW130049   2.017   3.635   3.724  0.0909 -0.9651  1.3802
 9536SOL    HW230050   2.146   3.559   3.703  0.2558 -0.6915  1.3956
 9537SOL     OW30051   1.603   5.098   5.257  0.6377  0.8631 -0.5506
 9537SOL    HW130052   1.513   5.119   5.283  0.3086 -0.8598 -0.1781
 9537SOL    HW230053   1.595   5.057   5.171  1.1368  1.1702 -0.7515
 9538SOL     OW30054   4.034   6.234   3.141 -0.5997  0.3498 -0.2762
 9538SOL    HW130055   4.118   6.249   3.185  0.0873  3.0862 -2.2287
 9538SOL    HW230056   3.989   6.170   3.196  1.8185  0.5036  2.0898
 9539SOL     OW30057   1.329   4.172   4.551  0.5080 -0.2223  0.5935
 9539SOL    HW130058   1.309   4.172   4.645  0.0011  1.5596  0.5319
 9539SOL    HW230059   1.247   4.143   4.510  0.9838 -1.8031  0.7095
 9540SOL     OW30060   2.869   5.342   4.900 -0.1009 -0.2206  0.3747
 9540SOL    HW130061   2.870   5.289   4.980  1.7944  0.3056  0.7375
 9540SOL    HW230062   2.903   5.284   4.832 -0.7738 -0.3554  0.1438
 9541SOL     OW30063   3.584   5.623   4.284 -0.5484 -0.0161  0.3719
 9541SOL    HW130064   3.545   5.665   4.207 -0.8602 -3.2517 -1.4358
 9541SOL    HW230065   3.679   5.633   4.271 -0.6148  0.7680  0.4219
 9542SOL     OW30066   3.118   3.535   4.696  0.1052 -0.1887  0.3434
 9542SOL    HW130067   3.185   3.472   4.723  0.5336  0.2823  0.3845
 9542SOL    HW230068   3.105   3.591   4.772  1.3555  1.1753 -0.3797
 9543SOL     OW30069   1.891   4.602   4.253 -0.1598 -0.6314  0.3583
 9543SOL    HW130070   1.883   4.684   4.204  0.5630 -0.3796  0.6544
 9543SOL    HW230071   1.972   4.562   4.221 -1.1030 -1.8390 -0.6578
 9544SOL     OW30072   3.385   4.239   2.777  0.1159 -0.3008  0.1880
 9544SOL    HW130073   3.476   4.211   2.766  0.1885  0.4417 -1.3717
 9544SOL    HW230074   3.391   4.333   2.797 -0.3249  0.0517 -1.2376
 9545SOL     OW30075   4.451   6.373   3.817  1.0950  0.1840 -0.0130
 9545SOL    HW130076   4.498   6.428   3.754  0.0720 -1.7050 -2.6137
 9545SOL    HW230077   4.359   6.388   3.797  0.7875 -1.9464 -0.4081
 9546SOL     OW30078   3.578   5.073   3.748  0.6612 -0.3565 -0.1866
 9546SOL    HW130079   3.592   4.985   3.713  0.1975 -0.2763 -0.5779
 9546SOL    HW230080   3.650   5.085   3.811  1.6306 -0.4215 -1.2456
 9547SOL     OW30081   3.474   5.326   4.313 -0.2637  0.3755 -0.4511
 9547SOL    HW130082   3.539   5.391   4.283 -2.6917  2.9032 -0.6303
 9547SOL    HW230083   3.472   5.337   4.408 -1.1847  1.1254 -0.5453
 9548SOL     OW30084   3.189   5.334   0.938 -0.2996 -0.1399 -0.7827
 9548SOL    HW130085   3.167   5.297   0.852  2.3519  0.9937 -2.0492
 9548SOL    HW230086   3.225   5.261   0.987 -0.6662 -0.5280 -1.0804
 9549SOL     OW30087   1.378   4.803   5.948 -0.0624  0.4334 -0.7310
 9549SOL    HW130088   1.297   4.840   5.983  1.6711  1.8995  2.0140
 9549SOL    HW230089   1.358   4.710   5.937 -2.1290  0.7679 -0.3037
 9550SOL     OW30090   2.370   4.714   3.756 -0.3560 -0.1781  0.3118
 9550SOL    HW130091   2.286   4.761   3.758  0.2803  1.0090  0.1815
 9550SOL    HW230092   2.358   4.640   3.815 -1.6500 -0.3019 -0.0666
 9551SOL     OW30093   2.206   3.122   6.031  0.6154  0.7592  0.5933
 9551SOL    HW130094   2.273   3.141   6.096  1.1421  0.8538  0.0302
 9551SOL    HW230095   2.226   3.180   5.958  1.4099 -0.9308 -0.5970
 9552SOL     OW30096   3.654   3.798   4.590  0.1483  0.1561  0.4619
 9552SOL    HW130097   3.719   3.840   4.647  0.8389  0.9583 -0.8724
 9552SOL    HW230098   3.705   3.744   4.530 -0.4230  0.6012 -0.4427
 9553SOL     OW30099   0.879   4.845   5.363 -0.4806  0.2356  0.2404
 9553SOL    HW130100   0.891   4.885   5.449  0.3744 -0.9885  0.7225
 9553SOL    HW230101   0.791   4.807   5.366 -0.2306 -0.3154  0.8056
 9554SOL     OW30102   5.095   5.649   3.412 -0.5946 -0.2430 -0.3903
 9554SOL    HW130103   5.048   5.712   3.358 -0.2617 -1.1896 -1.8462
 9554SOL    HW230104   5.187   5.675   3.406 -0.4197 -1.0088 -1.2328
 9555SOL     OW30105   2.053   4.165   5.158  0.3861 -0.0944  0.1136
 9555SOL    HW130106   2.126   4.126   5.205  0.4910 -0.6456 -0.4805
 9555SOL    HW230107   2.077   4.157   5.066 -0.6658 -0.8098 -0.1216
 9556SOL     OW30108   2.834   5.364   3.613  0.3602  0.1908  0.3772
 9556SOL    HW130109   2.785   5.284   3.628 -1.1532  0.9693 -0.1839
 9556SOL    HW230110   2.903   5.363   3.680 -0.1773 -1.1249  0.9485
 9557SOL     OW30111   2.671   4.300   4.467 -0.2892 -0.0172  0.2605
 9557SOL    HW130112   2.721   4.230   4.425 -0.1695  0.9092 -1.2251
 9557SOL    HW230113   2.736   4.345   4.522  0.4207  0.8248 -1.2123
 9558SOL     OW30114   2.723   5.911   3.088 -0.0861 -0.4140 -0.4090
 9558SOL    HW130115   2.643   5.875   3.049 -1.5804  1.5699  0.6477
 9558SOL    HW230116   2.713   5.896   3.182  1.4932 -1.3943 -0.3557
 9559SOL     OW30117   3.463   5.664   4.046  0.3669 -0.8166  0.0944
 9559SOL    HW130118   3.383   5.687   4.000  0.2031 -1.0290  0.2697
 9559SOL    HW230119   3.487   5.578   4.012  0.6146 -0.6806 -0.0811
 9560SOL     OW30120   3.948   4.341   3.995  0.0301  0.4373  0.2275
 9560SOL    HW130121   4.020   4.402   4.010  0.2517  0.1632  0.2980
 9560SOL    HW230122   3.925   4.309   4.082 -0.5926  0.9854  0.2703
 9561SOL     OW30123   2.170   3.534   2.198 -0.6559 -0.0532 -0.5984
 9561SOL    HW130124   2.169   3.600   2.268 -0.9586 -0.7654  0.0823
 9561SOL    HW230125   2.150   3.583   2.119 -4.9868  0.1437  0.3853
 9562SOL     OW30126   4.456   6.434   3.430  0.5697 -0.2772 -0.2443
 9562SOL    HW130127   4.382   6.470   3.478  0.9185 -1.3644  1.1898
 9562SOL    HW230128   4.416   6.374   3.367  0.1395  0.6548 -0.8739
 9563SOL     OW30129   0.635   3.227   5.105 -0.4207 -0.4727 -0.0581
 9563SOL    HW130130   0.604   3.317   5.096 -0.9567 -0.7816 -1.6499
 9563SOL    HW230131   0.714   3.234   5.158 -0.7428  0.8753  0.2749
 9564SOL     OW30132   1.905   5.207   5.841 -0.2683  0.1040  0.1016
 9564SOL    HW130133   1.995   5.195   5.811  0.0321  0.4108  0.8700
 9564SOL    HW230134   1.912   5.231   5.933 -1.1850 -1.0570  0.5166
 9565SOL     OW30135   2.106   4.498   5.585  0.3858 -0.5665  0.1879
 9565SOL    HW130136   2.134   4.543   5.665  0.0531 -2.0923  1.2037
 9565SOL    HW230137   2.120   4.563   5.516  1.8396  0.3890  1.2969
 9566SOL     OW30138   2.445   5.897   6.416 -0.0032 -0.2172 -0.3179
 9566SOL    HW130139   2.427   5.911   6.323  1.6613  0.3595 -0.5968
 9566SOL    HW230140   2.467   5.804   6.423 -0.7435 -0.3965 -0.3877
 9567SOL     OW30141   2.665   4.789   5.951 -0.5520 -0.3033  0.2221
 9567SOL    HW130142   2.635   4.708   5.910  1.1553 -1.1720  0.5548
 9567SOL    HW230143   2.754   4.768   5.981  0.0476  1.7926  0.0647
 9568SOL     OW30144   2.513   5.856   8.468 -0.3573 -0.3612 -0.3273
 9568SOL    HW130145   2.556   5.772   8.450 -0.4902 -0.5713  0.3046
 9568SOL    HW230146   2.532   5.910   8.391  0.3420 -0.7288 -0.4209
 9569SOL     OW30147   1.532   3.751   5.218 -0.1600 -0.3912 -0.0990
 9569SOL    HW130148   1.578   3.830   5.192 -0.9429 -0.0503 -0.4885
 9569SOL    HW230149   1.597   3.682   5.212  0.6291  0.2722  0.5953
 9570SOL     OW30150   1.711   4.461   4.399  0.3807 -0.2975  0.1483
 9570SOL    HW130151   1.692   4.543   4.446 -3.1510 -0.1581 -1.2474
 9570SOL    HW230152   1.765   4.489   4.325  1.2912  0.3237  1.0053
 9571SOL     OW30153   2.947   5.212   6.894  0.5810  0.2251  0.0405
 9571SOL    HW130154   2.971   5.253   6.811  3.2618  0.9158  1.0572
 9571SOL    HW230155   2.982   5.123   6.887  2.3731  0.8055  1.0090
 9572SOL     OW30156   2.637   4.402   5.542 -0.0369  0.4341  0.6142
 9572SOL    HW130157   2.682   4.426   5.623  2.2459 -1.9641  0.1770
 9572SOL    HW230158   2.661   4.311   5.527 -3.1553 -0.2491 -1.0163
 9573SOL     OW30159   2.612   4.732   6.250  0.2634 -0.3086 -0.5845
 9573SOL    HW130160   2.575   4.728   6.162 -0.2698 -3.1466 -0.3418
 9573SOL    HW230161   2.654   4.646   6.261 -0.7341 -0.5196  2.3251
 9574SOL     OW30162   0.897   4.661   7.590 -0.0081 -0.2367  0.0827
 9574SOL    HW130163   0.963   4.631   7.527  0.5901  0.3452  0.4172
 9574SOL    HW230164   0.930   4.746   7.621 -1.0753  0.2150  0.0250
 9575SOL     OW30165   2.735   4.980   6.352  0.2988 -0.4774 -0.0061
 9575SOL    HW130166   2.676   4.920   6.306 -0.9040  1.1432 -0.6527
 9575SOL    HW230167   2.815   4.928   6.366 -0.5467 -2.0969 -0.8760
 9576SOL     OW30168   3.965   6.119   7.517 -0.1315 -0.3006  0.0627
 9576SOL    HW130169   3.942   6.075   7.599 -0.2535 -0.9367 -0.3103
 9576SOL    HW230170   4.029   6.062   7.476 -1.2063 -0.7643 -1.0181
 9577SOL     OW30171   1.463   5.432   5.740  0.2663  0.0292 -0.0271
 9577SOL    HW130172   1.472   5.338   5.725  1.8512  0.0247  0.6762
 9577SOL    HW230173   1.525   5.471   5.679  1.2259  0.4553  1.1694
 9578SOL     OW30174   2.741   5.064   5.483 -0.3752 -0.2177  0.3942
 9578SOL    HW130175   2.705   5.123   5.416 -2.1193  0.5243  1.8930
 9578SOL    HW230176   2.832   5.093   5.494 -0.3140  0.2073 -1.0056
 9579SOL     OW30177   3.381   5.576   6.184  0.5850  0.3553  0.1364
 9579SOL    HW130178   3.422   5.541   6.104 -0.3488  0.7467 -0.5269
 9579SOL    HW230179   3.400   5.510   6.251  0.4777 -0.5077 -0.6511
 9580SOL     OW30180   2.184   4.854   4.454 -0.1725 -0.1661  0.1736
 9580SOL    HW130181   2.116   4.788   4.472  0.0471 -0.7640 -1.0472
 9580SOL    HW230182   2.234   4.860   4.535  0.5729 -2.4596 -0.0322
 9581SOL     OW30183   3.971   4.163   7.179  0.3338  0.4062  0.1981
 9581SOL    HW130184   3.996   4.080   7.140  0.5728  0.7706 -0.4340
 9581SOL    HW230185   4.043   4.183   7.240  1.1429  0.9878 -0.9221
 9582SOL     OW30186   1.911   3.129   6.056 -0.0632 -0.2761  1.0182
 9582SOL    HW130187   2.000   3.093   6.047 -0.0451  0.0903 -0.7017
 9582SOL    HW230188   1.925   3.221   6.081  0.2271  0.5691 -1.8684
 9583SOL     OW30189   3.216   7.458   5.865 -0.3131 -0.0237  0.7510
 9583SOL    HW130190   3.218   7.474   5.960 -2.0319  0.1772  0.7779
 9583SOL    HW230191   3.272   7.527   5.829  1.9125 -1.2063  1.7012
 9584SOL     OW30192   1.179   5.124   4.677 -0.0353 -0.4287 -0.3339
 9584SOL    HW130193   1.114   5.054   4.683 -0.5567 -0.0887 -1.7509
 9584SOL    HW230194   1.127   5.205   4.679  0.5029 -0.0811  0.4495
 9585SOL     OW30195   2.518   4.699   7.637 -0.1733  0.4343  0.0924
 9585SOL    HW130196   2.525   4.615   7.684 -1.1145 -0.0528 -0.6075
 9585SOL    HW230197   2.608   4.719   7.610  0.1250 -0.1259  0.6393
 9586SOL     OW30198   2.421   4.270   5.402  0.1241  0.5772  0.2101
 9586SOL    HW130199   2.488   4.298   5.464 -0.1516  0.2424  0.6660
 9586SOL    HW230200   2.344   4.323   5.424 -0.6701 -1.0732  1.6362
 9587SOL     OW30201   2.664   6.451   7.568  0.3038 -0.1246 -0.2110
 9587SOL    HW130202   2.658   6.376   7.628  3.1092 -0.6630 -0.5055
 9587SOL    HW230203   2.663   6.412   7.481  1.2633  0.2119 -0.3785
 9588SOL     OW30204   2.558   1.695   4.985  0.7191  0.3219 -0.0356
 9588SOL    HW130205   2.616   1.731   5.052  0.6867 -0.3400  0.3600
 9588SOL    HW230206   2.606   1.620   4.949 -0.6011 -1.4292  1.6124
 9589SOL     OW30207   7.978   4.183   8.232  0.0928 -0.6139  0.4210
 9589SOL    HW130208   8.024   4.255   8.188  2.1502 -0.9880  1.8249
 9589SOL    HW230209   7.893   4.220   8.255  1.1522  1.4608  1.2474
 9590SOL     OW30210   2.964   6.243   6.853 -0.1184  0.2021 -0.0377
 9590SOL    HW130211   2.869   6.247   6.843  0.0905  0.6586 -2.2404
 9590SOL    HW230212   2.998   6.289   6.777  1.8937 -0.4912  0.3911
 9591SOL     OW30213   1.586   5.714   6.957  0.2973 -0.0079  0.2475
 9591SOL    HW130214   1.680   5.702   6.971  0.6416  2.9190  0.9958
 9591SOL    HW230215   1.556   5.630   6.921  3.1263 -1.0759  0.1734
 9592SOL     OW30216   3.812   4.823   6.092  0.0610 -0.6549  0.2340
 9592SOL    HW130217   3.720   4.847   6.079 -0.2902 -1.9263  0.2082
 9592SOL    HW230218   3.832   4.765   6.018  1.4066  0.9268 -0.7072
 9593SOL     OW30219   3.646   5.380   5.515 -0.1337 -0.1442  0.1101
 9593SOL    HW130220   3.579   5.349   5.576 -0.8414  1.3747  0.1339
 9593SOL    HW230221   3.720   5.403   5.570  0.0117 -0.7580  0.1834
 9594SOL     OW30222   1.755   4.134   6.126  0.0121 -0.2143 -0.8744
 9594SOL    HW130223   1.834   4.162   6.080 -0.2774  1.2832 -0.5184
 9594SOL    HW230224   1.683   4.169   6.073 -0.3222  2.1255  0.9722
 9595SOL     OW30225   3.213   4.558   6.647 -0.6050  0.3495  0.1243
 9595SOL    HW130226   3.274   4.487   6.669  4.7372  4.3246  0.2204
 9595SOL    HW230227   3.215   4.562   6.551 -0.1414  0.8377  0.1470
 9596SOL     OW30228   2.258   3.383   6.568 -0.7068 -0.4681 -0.5341
 9596SOL    HW130229   2.227   3.438   6.496 -0.0335  3.2583  1.7542
 9596SOL    HW230230   2.196   3.398   6.639  0.3141 -1.6013  0.6691
 9597SOL     OW30231   4.012   3.315   7.349 -0.4654  0.3371 -0.1728
 9597SOL    HW130232   4.024   3.394   7.297  1.2421 -0.2375 -0.7172
 9597SOL    HW230233   4.101   3.287   7.371 -1.0309 -1.4450 -0.0054
 9598SOL     OW30234   0.976   3.445   5.990 -0.2441 -0.0393  0.2351
 9598SOL    HW130235   0.947   3.531   6.020  1.0768 -0.3334  2.6078
 9598SOL    HW230236   1.071   3.452   5.986 -0.1763 -1.1366 -0.4511
 9599SOL     OW30237   3.088   3.841   7.060  0.9524 -0.4080 -0.0834
 9599SOL    HW130238   3.083   3.794   6.977  1.1060  1.5912 -1.2646
 9599SOL    HW230239   3.177   3.824   7.092  0.9390 -1.0623 -0.3795
 9600SOL     OW30240   2.980   5.198   6.285  0.7095  0.1542  1.0551
 9600SOL    HW130241   3.073   5.204   6.264  1.0076  0.6490  2.4539
 9600SOL    HW230242   2.976   5.142   6.363 -0.1138  0.5934  1.3455
 9601SOL     OW30243   1.435   4.300   5.722  0.2350 -0.3299  0.2875
 9601SOL    HW130244   1.356   4.325   5.676  0.4456  1.0300  0.6376
 9601SOL    HW230245   1.506   4.345   5.675  0.5426  0.3548  1.3675
 9602SOL     OW30246   2.554   5.329   7.740 -0.0364 -0.7757  0.9644
 9602SOL    HW130247   2.611   5.254   7.724  2.2007  0.7592  1.4034
 9602SOL    HW230248   2.546   5.372   7.655 -0.0038 -0.6286  1.0355
 9603SOL     OW30249   2.201   3.231   5.747  0.0789 -0.0463  0.1101
 9603SOL    HW130250   2.199   3.272   5.661 -0.0307  0.9889  0.5897
 9603SOL    HW230251   2.275   3.272   5.791 -0.3748  0.0410  0.8031
 9604SOL     OW30252   3.438   3.656   7.293  0.3192  0.0271 -0.0509
 9604SOL    HW130253   3.501   3.725   7.275  0.8273 -0.6302 -0.8803
 9604SOL    HW230254   3.436   3.604   7.213  0.5072 -1.3578  0.8114
 9605SOL     OW30255   0.720   3.981   6.292  0.4521 -0.3945  0.3673
 9605SOL    HW130256   0.813   3.961   6.293  0.3630 -1.0082 -1.4000
 9605SOL    HW230257   0.678   3.906   6.335  0.7150 -0.3904  0.6315
 9606SOL     OW30258   2.746   4.944   4.148  0.1623  0.0719  0.4114
 9606SOL    HW130259   2.718   4.952   4.056  0.8812 -1.1709  0.0592
 9606SOL    HW230260   2.798   4.864   4.150 -2.6147 -1.8828  2.5780
 9607SOL     OW30261   2.516   5.169   5.151  0.5024 -0.1406 -0.4224
 9607SOL    HW130262   2.511   5.077   5.178 -0.6027  0.3026  1.0667
 9607SOL    HW230263   2.609   5.184   5.134  0.6767 -1.5712 -0.9055
 9608SOL     OW30264   3.438   4.020   6.951 -0.1292  0.0888 -0.2851
 9608SOL    HW130265   3.411   3.932   6.977 -1.4603  0.8354  1.0336
 9608SOL    HW230266   3.419   4.025   6.858 -0.6794 -0.8143 -0.2305
 9609SOL     OW30267   2.878   6.398   8.872 -0.1701  0.2512  0.1041
 9609SOL    HW130268   2.864   6.371   8.782 -0.5233  1.9447 -0.3753
 9609SOL    HW230269   2.853   6.490   8.874 -0.5455  0.1476  2.0266
 9610SOL     OW30270   3.448   5.542   4.908  0.2157 -0.1321 -0.3304
 9610SOL    HW130271   3.478   5.453   4.929 -0.7010 -0.1537  1.0188
 9610SOL    HW230272   3.355   5.541   4.928  0.5040  1.5923  1.4275
 9611SOL     OW30273   1.681   6.123   8.333 -0.5314  0.3857  0.1388
 9611SOL    HW130274   1.739   6.191   8.300  0.9277 -0.5762  0.6068
 9611SOL    HW230275   1.740   6.051   8.356 -1.8723 -0.4280  1.1641
 9612SOL     OW30276   4.941   5.185   6.288  0.0971 -0.2031  0.5771
 9612SOL    HW130277   4.932   5.093   6.264  0.1654  0.0547 -0.4513
 9612SOL    HW230278   4.854   5.210   6.320 -0.3747 -0.1918 -0.6806
 9613SOL     OW30279   2.303   4.882   8.120 -0.5336 -0.0198  0.8203
 9613SOL    HW130280   2.329   4.971   8.096 -1.2420  0.0191  0.1858
 9613SOL    HW230281   2.208   4.885   8.127 -0.7992 -1.2316 -1.3955
 9614SOL     OW30282   0.937   5.383   3.451  0.6782 -0.3171  0.5116
 9614SOL    HW130283   1.027   5.396   3.421  0.2750  1.7324 -0.0238
 9614SOL    HW230284   0.914   5.467   3.492 -1.9069  0.3310 -1.9627
 9615SOL     OW30285   1.396   5.354   6.579  0.3842  0.2684  0.4205
 9615SOL    HW130286   1.370   5.267   6.549 -2.3936  1.0826  0.2025
 9615SOL    HW230287   1.443   5.392   6.504 -3.2953  0.9349 -1.8054
 9616SOL     OW30288   2.052   3.400   6.745  0.1252 -0.4199  0.5033
 9616SOL    HW130289   1.995   3.338   6.790  0.2642 -0.4621  0.6239
 9616SOL    HW230290   2.080   3.460   6.813  0.3116 -0.4650  0.4671
 9617SOL     OW30291   1.852   5.896   4.107  0.0543 -0.1753 -0.1072
 9617SOL    HW130292   1.796   5.924   4.034  1.1731  2.2389 -0.1531
 9617SOL    HW230293   1.810   5.933   4.185  0.1663 -0.6570  0.1857
 9618SOL     OW30294   3.336   3.722   7.014  0.1664 -0.3627  0.0311
 9618SOL    HW130295   3.302   3.633   7.020 -2.0294  0.3213 -1.0560
 9618SOL    HW230296   3.369   3.730   6.924  1.3953 -0.4011  0.4664
 9619SOL     OW30297   1.666   3.710   5.497  0.2840 -0.1182 -0.0703
 9619SOL    HW130298   1.742   3.652   5.489 -0.2868 -0.6207 -3.3321
 9619SOL    HW230299   1.594   3.651   5.523  0.6570  0.0749  1.4661
 9620SOL     OW30300   2.080   4.088   8.171  0.4887 -0.3574 -0.2305
 9620SOL    HW130301   2.154   4.148   8.176 -0.1684  0.3843  1.0357
 9620SOL    HW230302   2.071   4.053   8.259 -1.4959  0.6203  0.0099
 9621SOL     OW30303   3.402   3.421   7.477  0.1864  0.7188  0.4442
 9621SOL    HW130304   3.373   3.503   7.437 -0.6998  0.3120  0.2509
 9621SOL    HW230305   3.377   3.429   7.569  1.3927  1.2578  0.7546
 9622SOL     OW30306   3.001   5.621   6.349 -0.1363 -0.0395  0.0820
 9622SOL    HW130307   2.985   5.711   6.321 -0.3356  0.3740  1.4725
 9622SOL    HW230308   3.071   5.628   6.414 -0.4864 -0.8376  0.5617
 9623SOL     OW30309   0.622   4.652   4.809  0.3381  0.0195 -0.0545
 9623SOL    HW130310   0.621   4.580   4.872  0.7033 -0.6507 -0.7966
 9623SOL    HW230311   0.530   4.666   4.787  0.2396 -0.0054  0.3381
 9624SOL     OW30312   2.630   4.105   6.229 -0.7401 -0.0868  0.0100
 9624SOL    HW130313   2.577   4.029   6.256 -2.7403  1.0453 -0.5036
 9624SOL    HW230314   2.683   4.125   6.306 -3.1750  0.4472  1.6647
 9625SOL     OW30315   2.163   5.054   4.984  0.0960  0.0617 -0.1799
 9625SOL    HW130316   2.148   5.055   5.078  1.4198  0.1564  0.0487
 9625SOL    HW230317   2.107   5.124   4.950  2.1350  2.4181  0.9846
 9626SOL     OW30318   1.456   5.136   5.700  0.4891 -0.0792  0.0520
 9626SOL    HW130319   1.398   5.063   5.677 -2.6373  2.1171  0.4050
 9626SOL    HW230320   1.473   5.125   5.793 -3.7767  1.8562  1.2974
 9627SOL     OW30321   2.496   3.344   6.446 -0.1393 -0.1234 -1.0421
 9627SOL    HW130322   2.558   3.347   6.519 -1.1634  0.4953 -0.1593
 9627SOL    HW230323   2.412   3.368   6.485 -0.9112 -0.7582 -2.2366
 9628SOL     OW30324   3.503   3.744   6.782  0.2342 -1.0028 -0.2661
 9628SOL    HW130325   3.597   3.753   6.771  0.2810 -1.6622 -0.4673
 9628SOL    HW230326   3.465   3.813   6.727  0.6133  0.6299  1.4030
 9629SOL     OW30327   3.319   5.158   6.704  0.2178 -0.3605 -0.0767
 9629SOL    HW130328   3.395   5.125   6.752 -1.4664 -0.3836  2.8676
 9629SOL    HW230329   3.283   5.081   6.660  3.0607  0.0467 -3.6092
 9630SOL     OW30330   2.927   3.850   5.963  0.6882 -0.4660 -0.0026
 9630SOL    HW130331   2.986   3.778   5.939  1.1577 -0.4983  1.1602
 9630SOL    HW230332   2.901   3.830   6.053 -1.0050 -0.3713 -0.4427
 9631SOL     OW30333   3.760   5.141   4.788 -0.4574  0.1154 -0.4383
 9631SOL    HW130334   3.720   5.068   4.834  0.3109  0.9837  1.7330
 9631SOL    HW230335   3.690   5.206   4.781 -0.3469  0.3273  0.3434
 9632SOL     OW30336   2.132   4.390   5.917  0.4959  0.3932 -0.0038
 9632SOL    HW130337   2.215   4.434   5.898  0.7753 -0.3196 -0.4599
 9632SOL    HW230338   2.136   4.309   5.867  0.6570 -0.9040  2.0166
 9633SOL     OW30339   1.621   5.131   7.120  0.1642  0.1489  0.4744
 9633SOL    HW130340   1.691   5.142   7.056 -1.1520 -0.2889 -1.1254
 9633SOL    HW230341   1.666   5.106   7.201  1.7681 -2.2460 -1.0162
 9634SOL     OW30342   2.022   4.559   4.910 -0.4507 -0.1894  0.2247
 9634SOL    HW130343   2.047   4.590   4.998 -1.3116 -0.8348  0.7140
 9634SOL    HW230344   1.997   4.639   4.863 -1.9613 -0.0231  1.2399
 9635SOL     OW30345   1.781   4.137   6.558 -0.3245 -0.4386 -0.6124
 9635SOL    HW130346   1.850   4.203   6.562  0.1811 -0.9532 -0.7437
 9635SOL    HW230347   1.701   4.185   6.577  0.2925 -0.1946  1.6943
 9636SOL     OW30348   2.387   3.553   6.142  0.1288  0.0612  0.0795
 9636SOL    HW130349   2.375   3.462   6.117  0.6766  0.3188 -1.2300
 9636SOL    HW230350   2.462   3.552   6.201  0.4137 -0.2923 -0.2810
 9637SOL     OW30351   3.530   4.759   6.694  0.2072  0.0392 -0.1094
 9637SOL    HW130352   3.551   4.738   6.603  0.5053 -2.1133  0.4070
 9637SOL    HW230353   3.570   4.689   6.745 -1.5541  0.1315  1.5399
 9638SOL     OW30354   2.910   4.137   5.915 -0.1037  0.3583  0.3384
 9638SOL    HW130355   2.916   4.047   5.949  0.8948  0.3119  0.0625
 9638SOL    HW230356   2.963   4.189   5.976  0.8755  0.4416 -0.5640
 9639SOL     OW30357   3.874   4.331   5.839  0.5191 -0.1465 -0.1428
 9639SOL    HW130358   3.780   4.349   5.844  0.4992 -0.6092  1.9861
 9639SOL    HW230359   3.879   4.236   5.834  0.8578 -0.3814  2.8436
 9640SOL     OW30360   3.266   5.704   5.588 -0.5482  0.2092 -0.9610
 9640SOL    HW130361   3.323   5.742   5.655 -0.9187 -0.5875 -0.1690
 9640SOL    HW230362   3.319   5.634   5.549 -0.5629  0.2445 -1.0438
 9641SOL     OW30363   1.891   4.050   6.339  0.0283 -0.4049 -0.3534
 9641SOL    HW130364   1.841   4.068   6.259 -0.9896 -2.6402 -0.2827
 9641SOL    HW230365   1.856   4.112   6.402 -1.9901 -1.2064 -0.6040
 9642SOL     OW30366   1.422   6.371   5.275  0.0916  0.5955  0.2066
 9642SOL    HW130367   1.440   6.281   5.303 -0.1294  0.8820  1.3215
 9642SOL    HW230368   1.427   6.367   5.180  0.9544 -0.4142  0.2594
 9643SOL     OW30369   3.111   4.993   6.880 -0.1687  0.0278 -0.3745
 9643SOL    HW130370   3.152   4.912   6.850 -1.0218 -0.0705 -1.3197
 9643SOL    HW230371   3.074   4.971   6.966 -1.1241 -0.8590 -0.9820
 9644SOL     OW30372   3.278   5.604   6.790 -0.4680  0.0831  0.2197
 9644SOL    HW130373   3.235   5.521   6.767 -0.1273 -0.3756  1.2016
 9644SOL    HW230374   3.363   5.578   6.827 -0.5930  0.8386  1.0734
 9645SOL     OW30375   3.594   4.585   6.149 -0.2895  0.0833 -0.3577
 9645SOL    HW130376   3.557   4.673   6.139 -0.6796 -0.1676 -1.1681
 9645SOL    HW230377   3.682   4.592   6.112  0.6546  0.7518  1.8198
 9646SOL     OW30378   2.070   2.618   5.792 -0.3409  0.4066  0.2029
 9646SOL    HW130379   2.160   2.587   5.793 -0.5947 -0.3564  0.6857
 9646SOL    HW230380   2.063   2.676   5.868 -0.6457 -0.7545  1.0977
 9647SOL     OW30381   1.933   5.013   6.577 -0.1773  0.4007  0.3031
 9647SOL    HW130382   1.986   4.981   6.505 -0.3670  1.2004 -0.1963
 9647SOL    HW230383   1.847   5.028   6.539  0.1455  2.3965  0.2998
 9648SOL     OW30384   3.241   4.692   5.462 -0.0075  0.1645  0.2747
 9648SOL    HW130385   3.313   4.640   5.497 -0.6166 -1.1586 -0.3705
 9648SOL    HW230386   3.226   4.656   5.374 -0.3737  1.5204 -0.2388
 9649SOL     OW30387   1.447   5.802   5.745 -0.9461 -0.0627  0.3390
 9649SOL    HW130388   1.425   5.825   5.836  1.1572  1.6258  0.5055
 9649SOL    HW230389   1.520   5.742   5.753 -0.2584  0.6787 -0.2256
 9650SOL     OW30390   3.769   3.217   7.409  0.2464 -0.3808  0.0665
 9650SOL    HW130391   3.752   3.196   7.318 -1.0944  0.2902  0.1345
 9650SOL    HW230392   3.842   3.279   7.407 -1.3947  1.6627 -0.8032
 9651SOL     OW30393   2.146   4.707   6.758 -0.0802  0.2792  0.6230
 9651SOL    HW130394   2.164   4.699   6.664  0.6199 -0.4730  0.8068
 9651SOL    HW230395   2.160   4.618   6.792 -1.3626  0.3034  1.2684
 9652SOL     OW30396   0.543   5.446   6.268  0.4850  0.0937 -0.0088
 9652SOL    HW130397   0.562   5.489   6.185  1.0918 -0.0779  0.0364
 9652SOL    HW230398   0.553   5.353   6.250  0.6406  0.0561  0.2656
 9653SOL     OW30399   2.554   4.552   5.925  0.3116 -0.2565 -0.6641
 9653SOL    HW130400   2.516   4.541   6.012 -1.0499  1.4027 -0.9936
 9653SOL    HW230401   2.584   4.464   5.901  0.4395 -0.8163  1.3219
 9654SOL     OW30402   2.925   4.829   5.696 -0.4012  0.6401  0.2897
 9654SOL    HW130403   2.939   4.899   5.759 -1.2319  0.1079  1.0838
 9654SOL    HW230404   2.985   4.850   5.624  0.7749  1.1086  1.3585
 9655SOL     OW30405   1.936   5.237   5.035 -0.1636  0.7491  0.3244
 9655SOL    HW130406   1.865   5.208   4.976  0.4270  0.1877 -0.1309
 9655SOL    HW230407   1.896   5.238   5.122 -0.3950 -0.8878  0.2771
 9656SOL     OW30408   3.895   5.321   8.643  0.0416 -0.2736 -0.1115
 9656SOL    HW130409   3.911   5.406   8.684  2.0701 -0.6431 -0.0377
 9656SOL    HW230410   3.937   5.258   8.702 -3.1390 -1.6237  0.9291
 9657SOL     OW30411   2.097   3.966   8.407  0.6229 -0.4408  0.4651
 9657SOL    HW130412   2.096   3.873   8.386 -1.4161 -1.0124  2.6069
 9657SOL    HW230413   2.031   3.975   8.476 -0.9895  2.9925 -1.3056
 9658SOL     OW30414   3.114   4.479   7.251 -0.2798  0.3351  0.7628
 9658SOL    HW130415   3.122   4.396   7.297  1.4347  0.5405  0.8862
 9658SOL    HW230416   3.201   4.518   7.256 -0.1174  0.5827 -2.2021
 9659SOL     OW30417   1.162   3.418   5.527  0.1565  0.0044  0.2211
 9659SOL    HW130418   1.230   3.357   5.555  1.1857  0.6743 -0.6859
 9659SOL    HW230419   1.146   3.394   5.435 -0.8556 -0.1543  0.4339
 9660SOL     OW30420   2.032   5.744   7.103  0.4871  0.0094 -0.0571
 9660SOL    HW130421   2.016   5.802   7.178  1.3469 -1.1720  1.1050
 9660SOL    HW230422   2.124   5.757   7.082  0.3289  0.0966 -0.7193
 9661SOL     OW30423   3.201   5.818   8.206 -0.3022 -0.3733 -0.0520
 9661SOL    HW130424   3.139   5.747   8.192  0.1304 -0.3957 -1.9963
 9661SOL    HW230425   3.166   5.891   8.155  0.0005  0.3935  0.8020
 9662SOL     OW30426   1.668   3.706   6.813 -0.0246 -0.0502  0.7995
 9662SOL    HW130427   1.738   3.771   6.809  0.1169 -0.2169  0.4917
 9662SOL    HW230428   1.680   3.663   6.897  0.1574  0.0167  0.8090
 9663SOL     OW30429   1.457   4.352   8.457  0.0011  0.2038 -0.1857
 9663SOL    HW130430   1.405   4.370   8.379 -1.7664  0.8866  1.0986
 9663SOL    HW230431   1.481   4.260   8.450  0.0489  0.2996 -1.6070
 9664SOL     OW30432   3.707   4.568   7.142 -0.1179 -0.4090 -0.6338
 9664SOL    HW130433   3.783   4.528   7.100  0.1693  0.4585 -0.9541
 9664SOL    HW230434   3.650   4.593   7.069 -0.7185 -1.0437 -0.3987
 9665SOL     OW30435   1.208   5.096   6.315  0.2054  0.3591  0.1255
 9665SOL    HW130436   1.269   5.027   6.290  0.9476  1.3807 -0.9747
 9665SOL    HW230437   1.163   5.061   6.392  2.2467 -0.3656  1.0514
 9666SOL     OW30438   2.893   4.850   6.655 -0.7634  0.3770 -0.6679
 9666SOL    HW130439   2.906   4.870   6.747 -1.1750  1.2444 -0.7882
 9666SOL    HW230440   2.898   4.754   6.650  2.8480  0.4032 -0.3125
 9667SOL     OW30441   0.416   4.721   7.847 -0.4569  0.2133 -0.2543
 9667SOL    HW130442   0.411   4.701   7.940 -0.6630  2.0146  0.1746
 9667SOL    HW230443   0.507   4.708   7.824 -0.7931 -2.3797 -0.3789
 9668SOL     OW30444   3.167   6.446   8.010 -0.4329 -0.2989 -0.6652
 9668SOL    HW130445   3.229   6.499   7.960 -1.6806  0.3220 -1.6170
 9668SOL    HW230446   3.212   6.427   8.092  0.3912  1.5495 -0.6296
 9669SOL     OW30447   2.035   4.799   6.263 -0.2405  0.0162 -0.3737
 9669SOL    HW130448   2.078   4.774   6.345  0.3605  0.9739 -0.3772
 9669SOL    HW230449   2.036   4.719   6.210 -0.7610 -0.6564  0.5964
 9670SOL     OW30450   2.204   5.414   4.730 -0.2474 -0.5619 -0.0808
 9670SOL    HW130451   2.177   5.357   4.658 -0.9907  0.2235 -0.4398
 9670SOL    HW230452   2.262   5.359   4.783 -0.0922 -1.3169 -0.9906
 9671SOL     OW30453   1.005   5.122   6.157 -0.2390  0.4339  0.2575
 9671SOL    HW130454   0.966   5.203   6.188 -0.9893 -0.9502  3.2633
 9671SOL    HW230455   1.077   5.105   6.218  0.2716 -0.8809 -0.6533
 9672SOL     OW30456   1.368   4.492   5.954  0.4896 -0.2483 -0.1613
 9672SOL    HW130457   1.306   4.419   5.950  0.0077  0.1214  0.3818
 9672SOL    HW230458   1.411   4.491   5.869 -2.0621  1.0465 -1.5736
 9673SOL     OW30459   0.422   5.394   4.508  0.3830  0.3507 -0.3235
 9673SOL    HW130460   0.400   5.359   4.421  1.6525 -3.5970  0.7437
 9673SOL    HW230461   0.350   5.366   4.564  0.3987  1.3826  0.2289
 9674SOL     OW30462   3.862   3.714   7.176 -0.0505 -0.0878 -0.3002
 9674SOL    HW130463   3.855   3.625   7.141  0.9946  0.3041 -1.5953
 9674SOL    HW230464   3.898   3.766   7.103 -2.7391  1.9093 -0.3641
 9675SOL     OW30465   3.964   4.784   6.875 -0.0463 -0.2346  0.3907
 9675SOL    HW130466   3.886   4.839   6.885 -1.1611 -1.9590  2.1861
 9675SOL    HW230467   4.034   4.832   6.918 -1.0353 -0.2366  2.0849
 9676SOL     OW30468   1.918   6.260   6.048 -0.1925  0.2055  0.5853
 9676SOL    HW130469   1.856   6.238   6.117  0.1133 -0.0496  0.7840
 9676SOL    HW230470   1.999   6.215   6.074  0.7928  2.3688  1.5565
 9677SOL     OW30471   1.445   6.148   7.737  0.3961 -0.0807  0.0524
 9677SOL    HW130472   1.463   6.130   7.645 -0.0733 -0.3995  0.0172
 9677SOL    HW230473   1.434   6.061   7.776 -1.7649  0.0639 -0.0827
 9678SOL     OW30474   3.127   4.977   5.068 -0.2119 -0.1450 -0.0041
 9678SOL    HW130475   3.093   5.037   5.135 -0.0285  1.6382 -1.4335
 9678SOL    HW230476   3.049   4.940   5.028 -0.3697  0.2676 -0.0855
 9679SOL     OW30477   1.431   6.115   6.519 -0.3370 -0.0564 -0.0636
 9679SOL    HW130478   1.352   6.153   6.557 -0.5429  0.1627 -0.6954
 9679SOL    HW230479   1.429   6.023   6.545  0.1684  0.3325  1.4859
 9680SOL     OW30480   2.358   5.828   7.529 -0.5411 -0.3668  0.5676
 9680SOL    HW130481   2.291   5.773   7.488 -1.7795  0.7315  1.0340
 9680SOL    HW230482   2.430   5.829   7.466 -0.7874 -1.8790  0.2128
 9681SOL     OW30483   2.572   4.929   7.438  0.5887 -0.3126  0.2446
 9681SOL    HW130484   2.647   4.960   7.389  0.8817 -1.5560 -0.1325
 9681SOL    HW230485   2.500   4.927   7.374  0.4773 -0.0725  0.3596
 9682SOL     OW30486   1.601   4.092   5.760 -0.7122  0.2630 -0.2805
 9682SOL    HW130487   1.533   4.159   5.746 -1.9888 -0.8353  0.4111
 9682SOL    HW230488   1.601   4.041   5.679 -1.7409 -0.5863  0.2230
 9683SOL     OW30489   3.014   4.914   7.127  0.5667 -0.3197  0.7349
 9683SOL    HW130490   3.092   4.925   7.181  0.9684 -3.2901  0.9180
 9683SOL    HW230491   3.017   4.823   7.099 -0.7938  0.5139 -2.5665
 9684SOL     OW30492   2.370   7.039   6.994  0.9177  0.3398  0.6640
 9684SOL    HW130493   2.427   6.995   6.931  0.7486  0.8933  0.1211
 9684SOL    HW230494   2.324   7.106   6.944 -0.7219 -0.5184  0.9379
 9685SOL     OW30495   2.561   5.932   4.318  0.4922  0.4731  0.4815
 9685SOL    HW130496   2.639   5.888   4.284 -1.0621 -0.5963 -1.9425
 9685SOL    HW230497   2.518   5.865   4.372  1.6731  1.3882  2.7038
 9686SOL     OW30498   2.778   4.446   6.967 -0.3859  0.1248  0.2678
 9686SOL    HW130499   2.864   4.469   6.933  0.2532  1.4963  2.5580
 9686SOL    HW230500   2.790   4.359   7.006  0.0271  0.3500  0.6624
 9687SOL     OW30501   1.460   4.570   4.907  0.2179 -0.7853  0.6074
 9687SOL    HW130502   1.506   4.492   4.937 -0.0893 -0.3902  2.2243
 9687SOL    HW230503   1.369   4.557   4.935 -0.1757 -0.5502 -0.5252
 9688SOL     OW30504   1.205   6.398   6.536  0.6797 -0.3130  0.4872
 9688SOL    HW130505   1.130   6.368   6.587  0.3733 -0.9318 -0.3095
 9688SOL    HW230506   1.182   6.379   6.445  1.8850 -0.7001  0.2435
 9689SOL     OW30507   1.823   5.109   6.940  0.1159 -0.4425  0.0835
 9689SOL    HW130508   1.880   5.033   6.947 -0.2418 -0.8856 -1.4436
 9689SOL    HW230509   1.880   5.181   6.915  0.7023  0.1924  2.9296
 9690SOL     OW30510   3.961   5.457   6.267  0.1082  0.9900  0.2106
 9690SOL    HW130511   4.011   5.383   6.302 -1.0729 -0.4994 -1.1071
 9690SOL    HW230512   3.871   5.440   6.294 -0.3551  1.3074 -1.0781
 9691SOL     OW30513   1.351   5.717   4.622  0.4298  0.5474  0.3562
 9691SOL    HW130514   1.271   5.721   4.569  1.5954 -0.5881 -1.6043
 9691SOL    HW230515   1.396   5.799   4.603 -0.3652  1.3521  1.7390
 9692SOL     OW30516   0.936   6.568   6.439 -0.2119  0.4293 -0.2519
 9692SOL    HW130517   0.984   6.490   6.411 -3.6012 -1.6465 -0.8136
 9692SOL    HW230518   0.878   6.589   6.366 -1.8277  1.3397  1.2142
 9693SOL     OW30519   1.869   4.450   6.106 -0.3981 -0.0811  0.0213
 9693SOL    HW130520   1.849   4.509   6.033 -1.3485 -0.7285 -0.2633
 9693SOL    HW230521   1.964   4.441   6.104 -0.5293 -2.1836 -2.8716
 9694SOL     OW30522   4.542   4.515   6.427 -0.1938 -1.0508  0.0573
 9694SOL    HW130523   4.595   4.595   6.424 -1.0216 -0.4673  0.7883
 9694SOL    HW230524   4.568   4.467   6.348 -1.0587  0.8094 -1.4266
 9695SOL     OW30525   2.732   0.842   8.887 -0.0292 -0.4645  0.4122
 9695SOL    HW130526   2.730   0.751   8.857  1.5743 -0.8092  1.2457
 9695SOL    HW230527   2.767   0.890   8.812 -0.7190 -0.5444  0.0287
 9696SOL     OW30528   2.401   6.255   9.480  0.2848  0.2447  0.3495
 9696SOL    HW130529   2.373   6.347   9.478 -0.6816 -0.0287  0.4417
 9696SOL    HW230530   2.471   6.249   9.416  1.1469  1.2909  1.1562
 9697SOL     OW30531   2.979   5.018   5.881  0.7613  0.6670 -0.4899
 9697SOL    HW130532   2.963   5.108   5.852 -0.3024  0.5491 -0.3017
 9697SOL    HW230533   2.915   5.003   5.950  0.7083 -0.3532 -0.7433
 9698SOL     OW30534   3.542   5.005   6.799 -0.1733 -0.0188  0.7168
 9698SOL    HW130535   3.621   4.995   6.852  0.7665 -0.0884 -0.6360
 9698SOL    HW230536   3.523   4.916   6.768 -0.9506 -0.0457  1.2486
 9699SOL     OW30537   3.748   3.866   6.808 -0.0513 -0.4065  0.2127
 9699SOL    HW130538   3.779   3.883   6.719  0.4205  0.1499  0.4773
 9699SOL    HW230539   3.801   3.792   6.838 -0.0047 -0.4046  0.1353
 9700SOL     OW30540   2.268   5.589   6.575 -0.2472 -0.2086  0.0813
 9700SOL    HW130541   2.358   5.606   6.547  0.0627 -2.2031 -0.2838
 9700SOL    HW230542   2.262   5.629   6.662  1.6631 -1.6971  0.9818
 9701SOL     OW30543   1.453   5.878   6.640 -0.0026 -0.1271  0.2877
 9701SOL    HW130544   1.363   5.851   6.661 -0.5779 -0.8034 -2.6424
 9701SOL    HW230545   1.500   5.796   6.624  0.5665  0.3037 -0.2904
 9702SOL     OW30546   2.097   4.981   8.658 -0.5541  0.0943  0.4107
 9702SOL    HW130547   2.084   5.060   8.710  0.0365  0.7126 -0.3679
 9702SOL    HW230548   2.122   4.914   8.722  1.1275  1.0724  0.8336
 9703SOL     OW30549   2.002   4.689   3.566  0.2571 -0.1061 -0.1270
 9703SOL    HW130550   1.962   4.636   3.635 -0.3402 -0.3571 -0.6526
 9703SOL    HW230551   2.095   4.671   3.573 -0.0366 -2.6173 -1.3681
 9704SOL     OW30552   2.628   4.987   4.880 -0.0612 -0.3350 -0.1404
 9704SOL    HW130553   2.683   5.024   4.949  2.5247 -0.8187 -1.7963
 9704SOL    HW230554   2.675   5.005   4.799 -0.8479 -3.3782 -1.4427
 9705SOL     OW30555   0.331   3.281   8.670  0.0530  0.2696 -0.1511
 9705SOL    HW130556   0.365   3.194   8.648  1.1114  0.5762  0.2128
 9705SOL    HW230557   0.351   3.335   8.594  0.0459  0.3642 -0.0864
 9706SOL     OW30558   3.396   4.370   6.730 -0.0214  0.4040 -0.3848
 9706SOL    HW130559   3.491   4.383   6.732 -0.0808  0.7769  0.6829
 9706SOL    HW230560   3.374   4.340   6.818 -1.3408  3.7522  0.5905
 9707SOL     OW30561   2.417   6.962   7.468  0.2884 -0.0984 -0.0265
 9707SOL    HW130562   2.415   6.884   7.523 -0.4091  0.6925  1.1190
 9707SOL    HW230563   2.503   7.000   7.485  0.4148 -0.3226 -0.1604
 9708SOL     OW30564   2.674   6.593   5.226 -0.1882 -0.1241 -0.6975
 9708SOL    HW130565   2.627   6.616   5.306 -1.0106 -0.2212 -1.1345
 9708SOL    HW230566   2.750   6.544   5.256 -0.1726  0.3462  0.0532
 9709SOL     OW30567   4.104   5.668   6.675 -0.1829  0.5565  0.3978
 9709SOL    HW130568   4.070   5.699   6.759  0.0636  0.7821  0.4115
 9709SOL    HW230569   4.134   5.578   6.693 -0.1249  0.6065  0.5511
 9710SOL     OW30570   0.972   4.126   5.195  0.2868  0.3994 -0.2970
 9710SOL    HW130571   1.045   4.095   5.141  1.7100 -0.6327  2.0537
 9710SOL    HW230572   0.961   4.218   5.171  0.1128 -0.2705 -3.0468
 9711SOL     OW30573   2.782   4.069   6.885  0.0906 -0.8441 -0.0603
 9711SOL    HW130574   2.799   3.978   6.863 -0.1493 -0.7746 -0.5530
 9711SOL    HW230575   2.854   4.118   6.845  1.3925 -1.0023  1.9940
 9712SOL     OW30576   1.198   5.356   3.792 -0.1004  0.4644  0.3924
 9712SOL    HW130577   1.223   5.282   3.736  0.6462  1.1504 -0.2101
 9712SOL    HW230578   1.258   5.350   3.867  0.0392  0.5263  0.2859
 9713SOL     OW30579   2.705   2.060   5.468 -0.1161 -0.0197 -0.4287
 9713SOL    HW130580   2.749   2.142   5.487 -1.7235  0.5482  1.1509
 9713SOL    HW230581   2.612   2.082   5.468 -0.6473 -1.9673  1.0297
 9714SOL     OW30582   3.682   4.929   7.824  0.3261  0.5797 -0.9553
 9714SOL    HW130583   3.591   4.912   7.801  0.3244 -0.5804 -0.1729
 9714SOL    HW230584   3.721   4.842   7.835  1.1006  1.0595  0.2889
 9715SOL     OW30585   7.896   4.563   4.596  0.2556  0.2681 -0.2454
 9715SOL    HW130586   7.865   4.647   4.564 -1.1997 -0.1366  0.0253
 9715SOL    HW230587   7.846   4.548   4.677 -0.8826 -1.6543 -1.2217
 9716SOL     OW30588   3.061   5.802   6.810 -0.1262 -0.1645  0.4430
 9716SOL    HW130589   3.107   5.878   6.774 -1.1228 -0.4142 -1.5102
 9716SOL    HW230590   3.129   5.734   6.816  0.6382  0.6617  1.6421
 9717SOL     OW30591   2.625   2.676   7.150 -0.6664  0.9008  0.6753
 9717SOL    HW130592   2.683   2.662   7.075  0.6177  3.1738  1.1443
 9717SOL    HW230593   2.599   2.768   7.144 -4.6207 -0.0738  0.3150
 9718SOL     OW30594   1.823   6.280   5.492 -0.5629  0.6568  0.3872
 9718SOL    HW130595   1.897   6.310   5.440 -0.0436 -0.3965  0.4997
 9718SOL    HW230596   1.856   6.280   5.582 -0.2927 -0.9842  0.3070
 9719SOL     OW30597   3.078   3.664   6.849 -0.0789 -0.1095  0.0603
 9719SOL    HW130598   3.058   3.691   6.760  1.4530 -0.7507 -0.5177
 9719SOL    HW230599   3.154   3.606   6.840 -0.3940 -0.8393  1.7006
 9720SOL     OW30600   1.451   5.886   8.005  0.4159  0.1788  0.4150
 9720SOL    HW130601   1.471   5.969   8.049  3.1032  0.4616 -1.1397
 9720SOL    HW230602   1.531   5.864   7.958 -0.8268 -2.4189 -0.6641
 9721SOL     OW30603   3.932   4.289   6.369  0.3410 -0.0127  0.3185
 9721SOL    HW130604   3.880   4.235   6.310  0.7836 -0.1418  0.0346
 9721SOL    HW230605   3.869   4.347   6.411 -0.0133 -0.0855 -0.1042
 9722SOL     OW30606   1.916   5.898   4.611  0.4580 -0.0694 -0.3948
 9722SOL    HW130607   1.876   5.921   4.695  0.2724  0.4128 -0.6103
 9722SOL    HW230608   1.901   5.804   4.603 -0.8926  0.1339 -0.5913
 9723SOL     OW30609   2.939   5.361   7.175  0.0311  0.3381 -0.4999
 9723SOL    HW130610   2.883   5.360   7.097  0.7552  2.3393 -1.1205
 9723SOL    HW230611   3.026   5.337   7.142  0.0895 -0.0206 -0.0842
 9724SOL     OW30612   3.532   4.458   7.302  0.4626  0.0771  0.0647
 9724SOL    HW130613   3.466   4.523   7.277  2.5165  1.6871 -1.5389
 9724SOL    HW230614   3.610   4.483   7.253  1.4808 -3.4789 -0.3621
 9725SOL     OW30615   1.676   4.656   5.117  0.3863 -0.2252  0.1849
 9725SOL    HW130616   1.592   4.651   5.072 -0.9337  0.4363  2.4325
 9725SOL    HW230617   1.721   4.729   5.074 -1.4570  1.3809  0.8117
 9726SOL     OW30618   1.872   6.684   8.158  0.2054 -0.0598 -0.1597
 9726SOL    HW130619   1.915   6.731   8.087 -2.1864  4.2136  0.8934
 9726SOL    HW230620   1.939   6.673   8.225  1.6042 -1.0827 -1.6676
 9727SOL     OW30621   3.011   6.513   5.844 -0.8003 -0.1958  0.6633
 9727SOL    HW130622   2.961   6.492   5.922  0.2150  2.0572  2.0053
 9727SOL    HW230623   3.099   6.532   5.876 -0.3409  0.7587 -1.0248
 9728SOL     OW30624   2.892   4.740   6.085 -0.1284 -0.7155 -0.2242
 9728SOL    HW130625   2.936   4.658   6.109  1.2547 -0.3238 -1.2547
 9728SOL    HW230626   2.899   4.794   6.163  0.9444 -0.8073 -0.2298
 9729SOL     OW30627   3.749   5.850   6.215 -0.1055  0.1717  0.3648
 9729SOL    HW130628   3.698   5.779   6.255  1.5287 -1.1469  0.2195
 9729SOL    HW230629   3.819   5.868   6.277 -0.6269  1.8856  0.5143
 9730SOL     OW30630   2.333   0.800   9.945  0.0626  0.2756  0.0891
 9730SOL    HW130631   2.287   0.796  10.030 -0.7237 -0.1331 -0.3444
 9730SOL    HW230632   2.368   0.889   9.941 -1.2071  0.8008  0.1836
 9731SOL     OW30633   1.089   5.117   5.398 -0.7337 -0.1301  0.1141
 9731SOL    HW130634   1.046   5.082   5.476 -1.8360 -0.0888 -0.4475
 9731SOL    HW230635   1.087   5.212   5.410  1.0154 -0.1777  1.0005
 9732SOL     OW30636   2.111   5.355   6.523  0.1524  0.4532 -0.2592
 9732SOL    HW130637   2.129   5.309   6.605 -0.3324 -0.4634 -0.6499
 9732SOL    HW230638   2.177   5.424   6.518  1.1365 -0.4480  0.1587
 9733SOL     OW30639   2.917   4.974   7.547 -0.8062  0.0714  0.0992
 9733SOL    HW130640   2.867   4.894   7.565  1.2570 -1.0551  1.2326
 9733SOL    HW230641   3.006   4.943   7.529  1.1158  2.1360  4.4440
 9734SOL     OW30642   2.161   4.057   6.820  0.1319  0.1835  0.0412
 9734SOL    HW130643   2.077   4.054   6.865 -0.3293 -0.7307 -0.8337
 9734SOL    HW230644   2.191   3.966   6.819  0.3752  0.2610 -1.0192
 9735SOL     OW30645   2.351   5.061   6.838 -0.2475  0.3176  0.1614
 9735SOL    HW130646   2.305   5.012   6.770 -1.1748  0.1309  0.9015
 9735SOL    HW230647   2.402   4.995   6.885 -0.7227  0.2064  0.5330
 9736SOL     OW30648   2.237   4.397   6.292 -0.5167  0.3706  0.7407
 9736SOL    HW130649   2.320   4.421   6.251 -0.3821 -0.1683  0.6925
 9736SOL    HW230650   2.263   4.349   6.371 -0.7867 -0.1301  0.5248
 9737SOL     OW30651   0.912   4.131   6.533  0.6491 -0.1311  0.2956
 9737SOL    HW130652   0.969   4.080   6.590 -0.4738  0.2483  1.8386
 9737SOL    HW230653   0.823   4.112   6.564  0.1015  1.4956 -0.1292
 9738SOL     OW30654   0.991   3.138   6.422  0.2076 -1.0387  0.2427
 9738SOL    HW130655   0.899   3.162   6.423 -0.0276 -1.7912 -0.9310
 9738SOL    HW230656   0.992   3.044   6.442  1.0294 -0.3921  3.8209
 9739SOL     OW30657   2.291   6.887   5.474  0.1649  0.1296  0.0059
 9739SOL    HW130658   2.382   6.866   5.454  0.0025  0.7670 -1.5388
 9739SOL    HW230659   2.242   6.807   5.456  0.4781 -0.4163  1.4721
 9740SOL     OW30660   2.803   5.996   8.464  0.1949  0.5307 -0.2836
 9740SOL    HW130661   2.750   6.075   8.474  0.2952  0.5662  0.0031
 9740SOL    HW230662   2.749   5.926   8.500  1.0681  0.8641  1.8568
 9741SOL     OW30663   3.380   3.951   6.668 -0.0779 -0.1188  0.6003
 9741SOL    HW130664   3.286   3.965   6.663  0.0648  0.6042 -0.2214
 9741SOL    HW230665   3.416   4.001   6.595  0.9209 -0.6161  0.7346
 9742SOL     OW30666   2.560   4.321   5.014  0.6508 -0.5287  0.0566
 9742SOL    HW130667   2.568   4.252   5.080  0.0986 -0.5413  0.1215
 9742SOL    HW230668   2.583   4.278   4.932  0.6572 -0.7007  0.1474
 9743SOL     OW30669   1.279   5.946   4.131 -0.0704 -0.5222  0.3823
 9743SOL    HW130670   1.198   5.910   4.096  0.0806 -0.0914 -0.4563
 9743SOL    HW230671   1.270   5.940   4.226  0.4776 -3.9982  0.3739
 9744SOL     OW30672   2.254   5.382   6.805  0.9759  0.3955 -0.5533
 9744SOL    HW130673   2.316   5.312   6.786  1.0700  0.6794 -1.3704
 9744SOL    HW230674   2.299   5.462   6.777  1.7216  1.0764  2.3033
 9745SOL     OW30675   2.376   2.899   9.621 -0.1997  0.4783  0.6029
 9745SOL    HW130676   2.397   2.954   9.697 -0.9521  1.6579 -0.0260
 9745SOL    HW230677   2.347   2.816   9.660 -2.0906  1.5764  1.7073
 9746SOL     OW30678   1.116   6.575   7.059  0.2031  0.3769 -0.1772
 9746SOL    HW130679   1.151   6.663   7.044 -0.7907  0.8078 -0.1139
 9746SOL    HW230680   1.030   6.591   7.098 -0.2557 -0.6150 -0.7492
 9747SOL     OW30681   2.491   4.850   9.006  0.3835  0.3135 -0.0240
 9747SOL    HW130682   2.464   4.923   9.062 -0.4867  2.0078 -2.4971
 9747SOL    HW230683   2.587   4.850   9.012  0.3189  0.2763  1.5977
 9748SOL     OW30684   4.640   6.765   8.087  0.3197 -0.1866  0.1949
 9748SOL    HW130685   4.654   6.723   8.002 -2.6836 -1.6885  0.2952
 9748SOL    HW230686   4.671   6.701   8.151  0.1005 -0.2215  0.2674
 9749SOL     OW30687   2.803   4.708   7.594  0.3149  0.2170 -0.2247
 9749SOL    HW130688   2.791   4.613   7.584 -0.2095  0.3801 -1.2093
 9749SOL    HW230689   2.868   4.731   7.528 -0.1085  0.6608 -0.4923
 9750SOL     OW30690   4.284   4.519   9.297  0.2552  0.6771 -0.2040
 9750SOL    HW130691   4.274   4.575   9.220 -0.2957 -0.5302 -1.0429
 9750SOL    HW230692   4.201   4.530   9.345 -0.0621  0.1885 -0.6377
 9751SOL     OW30693   3.127   3.815   8.584 -0.1399  0.4318 -0.1515
 9751SOL    HW130694   3.103   3.820   8.676 -1.9253 -0.0604 -0.5497
 9751SOL    HW230695   3.099   3.728   8.556  3.4614 -0.8217 -0.3973
 9752SOL     OW30696   1.212   3.796   7.674 -0.2201 -0.1664 -0.4206
 9752SOL    HW130697   1.239   3.714   7.716  0.8015  0.1238 -0.4875
 9752SOL    HW230698   1.120   3.806   7.699 -0.2740 -1.1742 -0.1594
 9753SOL     OW30699   2.008   7.541   9.671 -0.0713 -0.0455  0.2942
 9753SOL    HW130700   1.936   7.509   9.617  0.5657 -0.2093 -0.4718
 9753SOL    HW230701   1.978   7.627   9.702 -0.1880  0.3406 -0.8552
 9754SOL     OW30702   1.484   4.785   8.691 -0.0836  0.8713 -0.0672
 9754SOL    HW130703   1.571   4.825   8.684  0.1938  0.1920 -0.7188
 9754SOL    HW230704   1.445   4.798   8.604  0.2801 -0.8409 -0.5164
 9755SOL     OW30705   2.707   4.945   8.666  0.4350  0.2701  0.0841
 9755SOL    HW130706   2.750   4.876   8.716  0.2801 -0.2466 -0.4889
 9755SOL    HW230707   2.704   5.020   8.726  0.4815 -0.2598  0.7557
 9756SOL     OW30708   1.744   3.487   8.136 -0.0938 -0.4892  0.5763
 9756SOL    HW130709   1.722   3.405   8.180  0.4724 -1.0928 -0.2216
 9756SOL    HW230710   1.778   3.544   8.205  0.3778 -1.2601  0.9923
 9757SOL     OW30711   2.450   4.802   8.740 -0.2476 -0.7475  0.5162
 9757SOL    HW130712   2.474   4.818   8.831  0.3479 -0.9549  0.4027
 9757SOL    HW230713   2.517   4.848   8.689 -2.0179  1.5707  0.1299
 9758SOL     OW30714   2.910   4.820   8.108  0.1333 -0.1045  0.6844
 9758SOL    HW130715   2.837   4.860   8.156 -0.0107  1.8481 -1.0466
 9758SOL    HW230716   2.913   4.730   8.140 -1.3258  0.5043  2.7284
 9759SOL     OW30717   1.398   4.840   8.449  0.1638 -0.4794  0.3539
 9759SOL    HW130718   1.415   4.766   8.391  2.7708  0.7444 -0.5918
 9759SOL    HW230719   1.462   4.906   8.424 -0.7914  1.3928  2.4519
 9760SOL     OW30720   2.028   3.700   7.962  0.1735  0.2580 -0.1333
 9760SOL    HW130721   2.013   3.606   7.974  1.9099 -0.2355 -1.3956
 9760SOL    HW230722   2.095   3.705   7.894  0.6022  2.3999  0.3694
 9761SOL     OW30723   3.557   5.361   9.604  0.4168 -0.2329  0.2464
 9761SOL    HW130724   3.485   5.408   9.646  0.1600 -0.7668  0.4233
 9761SOL    HW230725   3.635   5.411   9.626  0.0504  0.6274 -0.3564
 9762SOL     OW30726   1.712   5.009   6.402  0.2507 -0.3635  0.0646
 9762SOL    HW130727   1.634   5.058   6.428  1.2300  0.0928  2.4691
 9762SOL    HW230728   1.682   4.918   6.396 -1.3491  0.2659 -3.4255
 9763SOL     OW30729   1.690   4.284   7.758 -0.0745 -0.2415  0.3853
 9763SOL    HW130730   1.775   4.312   7.723 -0.7022  1.3723  0.0565
 9763SOL    HW230731   1.698   4.297   7.853  0.2302 -0.6553  0.4204
 9764SOL     OW30732   5.818   5.803   8.851  0.3377  0.0304  0.0597
 9764SOL    HW130733   5.897   5.762   8.886 -0.3240  0.2764  2.0088
 9764SOL    HW230734   5.800   5.757   8.770  1.7423 -0.9244  0.2664
 9765SOL     OW30735   0.564   6.566   6.476 -0.2097  0.0245 -0.4779
 9765SOL    HW130736   0.635   6.628   6.488  1.6500 -1.9598 -0.7036
 9765SOL    HW230737   0.580   6.526   6.391 -1.7873 -0.2877 -0.6666
 9766SOL     OW30738   0.621   3.992   8.805  0.1868 -0.9710  0.1615
 9766SOL    HW130739   0.535   3.953   8.790 -0.0444 -0.7233  0.8177
 9766SOL    HW230740   0.615   4.079   8.765  1.3110 -2.1896 -3.0164
 9767SOL     OW30741   1.799   4.726   7.937 -0.3027  0.1787  0.2850
 9767SOL    HW130742   1.723   4.701   7.990 -0.6585 -0.4043 -0.4802
 9767SOL    HW230743   1.873   4.714   7.996 -0.7048 -0.3251  0.7039
 9768SOL     OW30744   3.731   5.852   7.282 -0.0415 -0.4295 -0.9504
 9768SOL    HW130745   3.705   5.787   7.348 -1.9182  0.8848 -0.3309
 9768SOL    HW230746   3.715   5.809   7.198 -1.4371 -0.7205 -0.5508
 9769SOL     OW30747   2.782   4.213   7.131  0.1705  0.1625  0.1175
 9769SOL    HW130748   2.775   4.158   7.053  0.7811 -0.1831  0.3025
 9769SOL    HW230749   2.867   4.191   7.168  0.0970  0.6912  0.6072
 9770SOL     OW30750   1.356   5.712   8.332  0.0293  0.1867 -0.6021
 9770SOL    HW130751   1.436   5.673   8.367  0.3866 -0.0830 -1.6760
 9770SOL    HW230752   1.341   5.665   8.250  0.7985  2.6590 -2.2585
 9771SOL     OW30753   4.953   5.226   9.745  0.1599 -0.6072 -0.3890
 9771SOL    HW130754   4.898   5.155   9.711 -0.1960 -1.0519  1.0305
 9771SOL    HW230755   4.892   5.296   9.766 -0.5712 -2.1942  4.1640
 9772SOL     OW30756   1.857   3.936   6.736  0.1445  0.3013 -0.8108
 9772SOL    HW130757   1.843   3.977   6.821  4.0066 -0.5214  0.4369
 9772SOL    HW230758   1.833   4.003   6.672  0.0522  2.0983  1.0155
 9773SOL     OW30759   0.773   4.331   8.279 -0.0257 -0.5575  0.0722
 9773SOL    HW130760   0.838   4.388   8.322 -0.6086  0.1563  0.0228
 9773SOL    HW230761   0.783   4.247   8.324  0.9181 -0.4534  0.0833
 9774SOL     OW30762   2.677   5.114   7.937  0.4184 -0.2132  0.2057
 9774SOL    HW130763   2.615   5.066   7.882  0.8889 -1.8819  1.0645
 9774SOL    HW230764   2.743   5.146   7.876  0.2933 -0.9895 -0.3601
 9775SOL     OW30765   3.372   5.147   8.405  0.3882 -0.6305 -0.1141
 9775SOL    HW130766   3.442   5.174   8.465 -1.5177 -0.6721  2.2988
 9775SOL    HW230767   3.338   5.065   8.442 -0.5846 -0.9055 -1.5231
 9776SOL     OW30768   2.532   4.914   7.813 -0.2127 -0.4161  0.5425
 9776SOL    HW130769   2.440   4.933   7.799  0.1067  1.3622  0.5799
 9776SOL    HW230770   2.561   4.873   7.731 -1.0157 -0.9297  0.5114
 9777SOL     OW30771   5.129   4.705   6.831  0.3286 -0.0936  0.3338
 9777SOL    HW130772   5.069   4.633   6.811  2.2382 -1.5166 -0.6047
 9777SOL    HW230773   5.129   4.711   6.926  0.8998 -2.0895  0.5051
 9778SOL     OW30774   0.380   4.168   9.501 -0.3148 -0.0943 -0.5444
 9778SOL    HW130775   0.405   4.082   9.468 -0.9649  0.2001 -1.8958
 9778SOL    HW230776   0.284   4.168   9.498 -0.3613  0.2817  0.5305
 9779SOL     OW30777   3.017   4.251   8.582 -0.3719 -0.1323  0.2203
 9779SOL    HW130778   3.039   4.191   8.511 -2.9200 -1.0169  0.0896
 9779SOL    HW230779   3.045   4.206   8.662 -1.4500 -1.1356  0.0584
 9780SOL     OW30780   2.684   5.401   8.617  0.6394  0.4265 -0.2906
 9780SOL    HW130781   2.714   5.452   8.541 -1.5354  1.5878 -0.4569
 9780SOL    HW230782   2.744   5.327   8.621  0.3862 -0.1112 -3.6141
 9781SOL     OW30783   2.465   3.150   7.060 -0.2777 -0.0746  0.3915
 9781SOL    HW130784   2.534   3.197   7.014 -0.7923  1.3122  0.9777
 9781SOL    HW230785   2.423   3.097   6.992 -0.7271  1.5811 -0.6888
 9782SOL     OW30786   3.368   5.538   9.694  0.0032 -0.2274  0.5960
 9782SOL    HW130787   3.358   5.624   9.736 -0.5193 -0.1720  0.3593
 9782SOL    HW230788   3.279   5.507   9.680  0.0644  0.4595 -1.9115
 9783SOL     OW30789   1.345   4.968   9.380 -0.1502  0.1141  0.1920
 9783SOL    HW130790   1.374   4.897   9.323 -2.8443 -0.9005 -0.0578
 9783SOL    HW230791   1.386   5.046   9.342  2.0728 -1.1040 -0.1304
 9784SOL     OW30792   2.722   3.717   6.519 -0.1626  0.0451  0.6835
 9784SOL    HW130793   2.670   3.770   6.580 -0.4122  2.3520 -1.3456
 9784SOL    HW230794   2.810   3.752   6.526 -0.2651  0.5931 -0.4687
 9785SOL     OW30795   3.639   4.445   9.354 -0.1764 -0.1689 -0.4307
 9785SOL    HW130796   3.659   4.473   9.264 -0.1052 -0.5361 -0.5317
 9785SOL    HW230797   3.544   4.433   9.354 -0.2273  0.2113 -0.3441
 9786SOL     OW30798   3.107   6.168   8.734  0.0261  0.0646  0.7218
 9786SOL    HW130799   3.054   6.089   8.741  1.2989 -0.8063  0.9380
 9786SOL    HW230800   3.068   6.230   8.795 -2.4057  0.4781 -1.1197
 9787SOL     OW30801   1.665   4.947   5.549 -0.0381  0.4545  0.0355
 9787SOL    HW130802   1.625   4.955   5.462 -0.4730  0.7469  0.2573
 9787SOL    HW230803   1.645   4.857   5.575  1.3531 -0.1183 -0.7653
 9788SOL     OW30804   2.209   5.863   8.065 -0.4906 -0.1363 -0.3188
 9788SOL    HW130805   2.257   5.938   8.101  1.0768 -1.7491  1.1784
 9788SOL    HW230806   2.262   5.833   7.992  0.3269 -1.3074  0.7084
 9789SOL     OW30807   2.625   6.499   7.995 -0.1224 -0.1247  0.1234
 9789SOL    HW130808   2.716   6.472   7.980  1.1265  2.5792  1.9764
 9789SOL    HW230809   2.603   6.554   7.920 -0.1354 -0.5338 -0.1769
 9790SOL     OW30810   1.872   4.386   8.146 -0.6520  0.7033  0.2819
 9790SOL    HW130811   1.943   4.391   8.082  0.4574  1.4287  1.5270
 9790SOL    HW230812   1.912   4.345   8.223 -2.2406 -1.1943  0.1816
 9791SOL     OW30813   2.122   4.802   8.377  0.0038  0.0741 -0.1600
 9791SOL    HW130814   2.199   4.839   8.419  0.5012 -0.5992 -0.4587
 9791SOL    HW230815   2.067   4.772   8.450 -0.9036  2.2752  0.1402
 9792SOL     OW30816   2.417   3.930   7.360 -0.3451 -0.3746 -0.7285
 9792SOL    HW130817   2.502   3.966   7.385 -0.6865  0.1811 -0.3447
 9792SOL    HW230818   2.424   3.915   7.265  0.2155 -0.4401 -0.6775
 9793SOL     OW30819   1.751   5.270   9.520 -0.7317  0.0690 -0.1718
 9793SOL    HW130820   1.827   5.303   9.569  0.1252  0.8466 -1.9458
 9793SOL    HW230821   1.696   5.347   9.507 -0.9291 -0.1273 -0.4934
 9794SOL     OW30822   3.252   6.302   8.231 -0.5028 -0.3835 -0.2265
 9794SOL    HW130823   3.318   6.245   8.191 -0.8869 -0.1278 -1.2470
 9794SOL    HW230824   3.256   6.281   8.324  2.6716  1.2412  0.1556
 9795SOL     OW30825   2.994   4.512   8.646  0.7694  0.0726  0.3554
 9795SOL    HW130826   3.005   4.417   8.642  1.5654 -0.2268  4.5930
 9795SOL    HW230827   3.079   4.548   8.618  1.1682 -0.5965  0.6848
 9796SOL     OW30828   2.757   4.510   7.276 -0.0906 -0.0231  0.0669
 9796SOL    HW130829   2.707   4.456   7.338 -0.7829 -0.2598 -0.6819
 9796SOL    HW230830   2.830   4.454   7.248  0.6261  0.3266  1.1717
 9797SOL     OW30831   0.823   5.316   6.687 -0.3970 -0.5791  0.2761
 9797SOL    HW130832   0.870   5.389   6.728 -1.0530  0.5913 -0.9797
 9797SOL    HW230833   0.756   5.292   6.751  0.2667 -0.5524  0.9959
 9798SOL     OW30834   3.040   5.297   9.874  0.4939  0.0248  0.9313
 9798SOL    HW130835   2.997   5.251   9.802 -0.2161 -0.6228  1.7398
 9798SOL    HW230836   3.133   5.294   9.852  0.4349 -1.5187  0.7791
 9799SOL     OW30837   2.655   5.226   9.133  0.6634  0.0471  0.3155
 9799SOL    HW130838   2.701   5.166   9.191  2.4374 -0.7531 -1.7601
 9799SOL    HW230839   2.696   5.311   9.151  0.9692 -0.1307  0.4803
 9800SOL     OW30840   1.487   5.063   6.866 -0.6906 -0.1667 -0.2068
 9800SOL    HW130841   1.455   4.973   6.863 -0.6815 -0.1895  0.2984
 9800SOL    HW230842   1.534   5.069   6.949 -2.1908  0.7959  0.6320
 9801SOL     OW30843   1.753   0.782   6.839 -0.1434 -0.3787  0.0969
 9801SOL    HW130844   1.828   0.841   6.827  0.0679 -0.6936 -0.1391
 9801SOL    HW230845   1.711   0.779   6.753  1.0482 -2.1949 -0.4713
 9802SOL     OW30846   4.022   2.117   9.489  0.2424  0.1846  0.7892
 9802SOL    HW130847   4.085   2.117   9.417  0.0093  0.9258  0.5749
 9802SOL    HW230848   3.967   2.041   9.473  0.0583  0.4684  0.0681
 9803SOL     OW30849   2.323   5.820   9.998 -0.1415  0.1175 -0.1863
 9803SOL    HW130850   2.383   5.793   9.928 -0.4985 -1.1923 -0.0112
 9803SOL    HW230851   2.249   5.861   9.951 -0.4170 -0.8194 -0.6094
 9804SOL     OW30852   2.043   5.477   8.103  0.5283  0.3528 -0.3676
 9804SOL    HW130853   2.041   5.396   8.154 -0.0143 -0.1743 -1.1979
 9804SOL    HW230854   1.965   5.473   8.048  0.7374  1.2249 -0.7463
 9805SOL     OW30855   2.619   4.204   8.756 -0.2055  0.3921  0.4840
 9805SOL    HW130856   2.555   4.133   8.755 -1.1980  1.2761 -0.6726
 9805SOL    HW230857   2.630   4.228   8.664  2.3304 -0.1908  0.5713
 9806SOL     OW30858   3.181   3.971   7.413 -0.0441 -0.1219 -0.1139
 9806SOL    HW130859   3.202   4.020   7.492  1.2366 -1.5593  0.4726
 9806SOL    HW230860   3.264   3.961   7.367 -0.5944 -0.1887 -1.1277
 9807SOL     OW30861   1.552   4.068   6.920 -0.9046 -0.4507 -0.1650
 9807SOL    HW130862   1.476   4.114   6.956  1.0542  2.6216  0.4008
 9807SOL    HW230863   1.597   4.033   6.997 -0.5321 -0.2669 -0.3004
 9808SOL     OW30864   3.674   3.850   7.301 -0.0008  0.1824 -0.3019
 9808SOL    HW130865   3.735   3.804   7.243  0.5463 -0.0525  0.4490
 9808SOL    HW230866   3.695   3.942   7.290 -0.0261  0.1508 -0.6180
 9809SOL     OW30867   3.093   4.603   8.178  0.0763  0.1929 -0.3823
 9809SOL    HW130868   3.171   4.651   8.205 -0.2328  0.9333 -0.7885
 9809SOL    HW230869   3.122   4.548   8.105  0.3875 -0.1055 -0.0362
 9810SOL     OW30870   3.466   5.733   8.297 -0.1124  0.5182  0.3628
 9810SOL    HW130871   3.373   5.754   8.292 -0.3855 -0.6951 -0.2213
 9810SOL    HW230872   3.475   5.653   8.245  1.5487  1.5325 -1.0227
 9811SOL     OW30873   2.895   3.347   6.388 -0.1650 -0.0688  0.2905
 9811SOL    HW130874   2.944   3.269   6.412 -1.2641 -1.5800 -2.0244
 9811SOL    HW230875   2.827   3.354   6.455  1.3558  0.3445  1.8506
 9812SOL     OW30876   3.271   4.858   8.547  0.4766  0.5542 -0.6855
 9812SOL    HW130877   3.273   4.764   8.562  0.4000  0.7488  0.6778
 9812SOL    HW230878   3.341   4.875   8.484  0.3395 -0.4346 -1.1144
 9813SOL     OW30879   1.088   5.736   8.652 -0.2688  0.0994  0.0615
 9813SOL    HW130880   1.032   5.746   8.575 -0.3260  0.6216  0.1682
 9813SOL    HW230881   1.046   5.668   8.704 -0.8903  0.5874  0.2142
 9814SOL     OW30882   2.922   4.400   8.305  0.0634 -0.6236  0.2022
 9814SOL    HW130883   2.866   4.416   8.229  0.7544 -0.6853 -0.3302
 9814SOL    HW230884   3.005   4.442   8.284  0.1207 -0.2445  1.1262
 9815SOL     OW30885   3.482   3.036   7.811  0.7391 -0.1358  0.4820
 9815SOL    HW130886   3.501   3.103   7.745 -0.5568 -0.0784  0.1434
 9815SOL    HW230887   3.477   3.083   7.894  1.9684 -0.1484  0.5853
 9816SOL     OW30888   1.355   3.726   6.862  0.1944 -0.3147  0.5637
 9816SOL    HW130889   1.446   3.746   6.882  0.2137 -0.9515  1.1386
 9816SOL    HW230890   1.340   3.765   6.776  1.2207 -0.8439  0.1305
 9817SOL     OW30891   3.469   6.660   7.623  0.3788 -0.2037 -0.4661
 9817SOL    HW130892   3.557   6.680   7.656  1.0509  0.0942 -2.3165
 9817SOL    HW230893   3.484   6.620   7.537 -1.3120  1.5603 -1.6694
 9818SOL     OW30894   2.507   4.879   6.928 -0.1275  0.3359  0.0778
 9818SOL    HW130895   2.592   4.909   6.960  1.2388  0.5825 -3.3220
 9818SOL    HW230896   2.522   4.789   6.901 -1.2384  0.0650  0.3178
 9819SOL     OW30897   0.309   7.716   5.367  0.1978  0.4540  0.0688
 9819SOL    HW130898   0.366   7.640   5.374 -3.4042 -2.7206 -1.5307
 9819SOL    HW230899   0.332   7.756   5.283  0.6448 -0.2236 -0.1337
 9820SOL     OW30900   3.665   5.230   8.958  0.5044  0.1737  0.3099
 9820SOL    HW130901   3.761   5.224   8.949  0.3808 -0.7550 -0.5330
 9820SOL    HW230902   3.643   5.165   9.024  0.3022 -0.8660 -0.7399
 9821SOL     OW30903   2.606   3.721   7.857  0.1273  0.7919 -0.0990
 9821SOL    HW130904   2.660   3.797   7.834  0.5572  0.1688 -1.2438
 9821SOL    HW230905   2.557   3.702   7.777 -1.0111  0.6901  0.5980
 9822SOL     OW30906   3.031   5.330   8.799 -0.4009 -0.3336 -0.1568
 9822SOL    HW130907   3.114   5.364   8.765 -0.5423 -0.2407 -0.4148
 9822SOL    HW230908   3.024   5.366   8.887 -0.7879  0.7227 -0.6006
 9823SOL     OW30909   3.451   5.285   8.802 -0.0821 -0.0206 -0.6706
 9823SOL    HW130910   3.534   5.264   8.844  0.1164  0.0921 -1.0033
 9823SOL    HW230911   3.414   5.200   8.778 -0.1125 -0.0756 -0.4257
 9824SOL     OW30912   2.490   4.113   6.843 -0.1281 -0.2690 -0.9688
 9824SOL    HW130913   2.455   4.054   6.776  1.2510 -0.0214 -1.9486
 9824SOL    HW230914   2.583   4.090   6.849 -0.6158 -1.9770  2.6741
 9825SOL     OW30915   2.861   3.682   8.103  0.0576 -0.3482  0.4267
 9825SOL    HW130916   2.925   3.646   8.042  0.6383 -1.5339  1.6903
 9825SOL    HW230917   2.785   3.623   8.096  0.1505 -0.5257  0.8886
 9826SOL     OW30918   1.825   5.110   9.091  0.2310  0.3737 -0.1118
 9826SOL    HW130919   1.847   5.078   9.179 -1.6172  1.8517  0.9715
 9826SOL    HW230920   1.802   5.031   9.042 -2.1484 -0.2669  1.8304
 9827SOL     OW30921   2.681   5.452   6.987 -0.1606 -0.2736  0.2280
 9827SOL    HW130922   2.648   5.456   6.897  0.5655 -0.6192 -0.0619
 9827SOL    HW230923   2.612   5.407   7.036 -0.4629 -0.2881 -0.2057
 9828SOL     OW30924   2.400   5.189   8.132 -0.4802  0.0575 -0.1000
 9828SOL    HW130925   2.465   5.221   8.070 -0.1690  0.1496  0.2721
 9828SOL    HW230926   2.447   5.181   8.215 -0.5803 -1.1885 -0.1299
 9829SOL     OW30927   2.335   5.195   9.087  0.2538 -0.5187  0.4065
 9829SOL    HW130928   2.355   5.286   9.065  0.9200 -0.6735  0.3411
 9829SOL    HW230929   2.412   5.165   9.135  0.6591 -1.4590 -0.7726
 9830SOL     OW30930   1.125   3.397  10.028 -0.0011  0.5682  0.4247
 9830SOL    HW130931   1.121   3.474  10.086 -0.8711 -0.2733  1.5287
 9830SOL    HW230932   1.033   3.373  10.014  0.0610  1.6303 -2.6057
 9831SOL     OW30933   1.879   4.506   8.864 -0.7942 -0.2546 -0.3489
 9831SOL    HW130934   1.927   4.427   8.841  1.5984  0.9921  0.0503
 9831SOL    HW230935   1.870   4.554   8.782  0.1638  0.2708 -0.1604
 9832SOL     OW30936   3.045   5.590   8.242 -0.1701  0.2270 -0.3718
 9832SOL    HW130937   3.083   5.602   8.329  2.1946 -2.6691 -0.8500
 9832SOL    HW230938   2.984   5.518   8.252 -0.0149 -0.0100 -1.0781
 9833SOL     OW30939   1.971   5.932   7.592  0.2467 -0.3125  0.1410
 9833SOL    HW130940   2.037   5.865   7.574 -1.4757 -1.9174 -0.5026
 9833SOL    HW230941   1.962   5.979   7.509  0.3302 -0.3296  0.1219
 9834SOL     OW30942   1.848   5.426   6.573 -0.1386 -0.2062 -0.2100
 9834SOL    HW130943   1.784   5.355   6.580 -0.1968 -0.0840  0.7295
 9834SOL    HW230944   1.928   5.383   6.543  0.0158 -0.8167  0.9775
 9835SOL     OW30945   3.938   5.070  10.418 -0.6510 -0.0214  0.2620
 9835SOL    HW130946   3.958   5.039  10.329  1.0235 -1.3667  1.0549
 9835SOL    HW230947   3.888   5.150  10.404  1.0878  0.7983 -1.9299
 9836SOL     OW30948   3.993   5.141   9.290  0.0312  0.3404 -0.3694
 9836SOL    HW130949   3.992   5.164   9.383  0.7838 -2.8705  0.5715
 9836SOL    HW230950   4.079   5.100   9.277 -0.6236 -0.5961 -2.0934
 9837SOL     OW30951   1.373   5.197   8.234 -0.0897  0.6555 -0.0324
 9837SOL    HW130952   1.376   5.153   8.149 -0.1677  1.9246 -0.7294
 9837SOL    HW230953   1.282   5.191   8.262  0.1114 -0.5290  0.3936
 9838SOL     OW30954   3.119   4.090   8.787 -0.1947  0.1378 -0.0891
 9838SOL    HW130955   3.214   4.102   8.782 -0.0843 -0.6127  0.0715
 9838SOL    HW230956   3.108   3.999   8.817 -0.9578  0.3242  0.2059
 9839SOL     OW30957   1.146   4.226   9.334  0.1923 -0.3482 -0.1483
 9839SOL    HW130958   1.139   4.159   9.402 -0.1434  0.1322  0.3041
 9839SOL    HW230959   1.056   4.257   9.321  0.4122  0.4162  0.0721
 9840SOL     OW30960   3.311   4.339   7.010 -0.3996 -0.3747  0.1241
 9840SOL    HW130961   3.229   4.362   7.054 -1.3585 -2.6651 -0.2877
 9840SOL    HW230962   3.348   4.422   6.982 -3.5069  0.6973 -1.2539
 9841SOL     OW30963   1.737   4.554   8.617  0.3860 -0.0798  0.2669
 9841SOL    HW130964   1.746   4.646   8.639 -2.0307  0.4403 -0.6401
 9841SOL    HW230965   1.728   4.553   8.521 -0.2449 -1.1773  0.3178
 9842SOL     OW30966   1.312   6.908  10.290  0.0075  0.2515 -0.5623
 9842SOL    HW130967   1.308   6.815  10.310  0.3362  0.1146 -1.1030
 9842SOL    HW230968   1.258   6.950  10.357  1.6409 -0.0909  1.0249
 9843SOL     OW30969   1.664   5.135   7.812 -0.0598  0.3963 -0.1276
 9843SOL    HW130970   1.757   5.123   7.832  0.1456  2.4630  0.3602
 9843SOL    HW230971   1.624   5.051   7.833  1.4591 -0.0514  1.1323
 9844SOL     OW30972   4.463   6.174  10.156 -0.0991 -0.0165  0.0784
 9844SOL    HW130973   4.458   6.142  10.066  1.7022 -2.0808  0.6096
 9844SOL    HW230974   4.404   6.116  10.205  0.2364 -0.0242  0.4790
 9845SOL     OW30975   1.707   4.032   7.982 -0.0848 -0.0596  0.2614
 9845SOL    HW130976   1.631   4.045   7.924  0.6943  1.7194 -0.4122
 9845SOL    HW230977   1.775   3.998   7.924 -0.7613 -3.3094  1.1690
 9846SOL     OW30978   2.922   6.147   9.696  0.0844  0.7940  0.0178
 9846SOL    HW130979   2.844   6.163   9.641 -0.2030  0.1230  0.2132
 9846SOL    HW230980   2.887   6.139   9.785  0.2114 -0.7298 -0.0510
 9847SOL     OW30981   3.537   6.867   9.091  0.3598 -0.1912 -0.2118
 9847SOL    HW130982   3.514   6.921   9.016 -2.4795 -0.9530 -0.0175
 9847SOL    HW230983   3.561   6.782   9.054  0.4832 -0.0997 -0.3374
 9848SOL     OW30984   4.908   6.339  11.085 -0.5486  0.4033  0.0703
 9848SOL    HW130985   4.962   6.354  11.008  1.2780 -1.5814  0.8660
 9848SOL    HW230986   4.948   6.395  11.153  0.3241 -0.7575  0.5497
 9849SOL     OW30987   7.750   7.381  10.890 -0.3143  0.0613  0.2056
 9849SOL    HW130988   7.757   7.415  10.801 -3.1694  1.5744  0.4625
 9849SOL    HW230989   7.769   7.288  10.882 -1.8120 -0.0997 -2.2403
 9850SOL     OW30990   3.444   3.973   7.629  0.3212  0.3142 -0.5139
 9850SOL    HW130991   3.512   4.031   7.594  0.7381  0.1789  0.0584
 9850SOL    HW230992   3.366   4.028   7.632  0.5004  0.5888 -0.8151
 9851SOL     OW30993   3.210   5.682   7.555 -0.2372  0.0079  0.1875
 9851SOL    HW130994   3.243   5.687   7.465 -0.4176  1.5207  0.1796
 9851SOL    HW230995   3.284   5.650   7.606  0.4276  0.8029 -0.2451
 9852SOL     OW30996   2.609   4.643   6.920  0.2529 -0.0760  0.2569
 9852SOL    HW130997   2.687   4.598   6.952  1.9544  1.8770 -0.8549
 9852SOL    HW230998   2.560   4.576   6.873  2.0356 -1.0755 -0.2759
 9853SOL     OW30999   3.092   5.905   7.465  0.0110 -0.0015 -0.9378
 9853SOL    HW131000   3.087   5.879   7.373  0.6186  1.4302 -1.4110
 9853SOL    HW231001   3.129   5.829   7.510 -2.8924 -1.8232 -1.3377
 9854SOL     OW31002   3.348   4.384   8.379 -0.5464 -0.1966  1.0953
 9854SOL    HW131003   3.440   4.401   8.401 -0.0879 -0.6496 -0.3235
 9854SOL    HW231004   3.348   4.378   8.283 -1.8178 -1.5492  1.1548
 9855SOL     OW31005   1.931   4.021   7.003  0.4603 -0.7367 -1.0601
 9855SOL    HW131006   1.941   3.931   7.036 -3.7757 -1.2217 -0.5118
 9855SOL    HW231007   1.947   4.076   7.080  1.4752 -1.1196 -0.9876
 9856SOL     OW31008   2.897   6.316   9.377  0.1123 -0.1662  0.3745
 9856SOL    HW131009   2.977   6.268   9.399  0.4343  0.4549  0.5760
 9856SOL    HW231010   2.893   6.312   9.281  0.3030 -0.3222  0.3713
 9857SOL     OW31011   1.716   6.032   9.545  0.3586  0.6779  0.3133
 9857SOL    HW131012   1.636   6.006   9.591  0.2617  0.2953 -0.0641
 9857SOL    HW231013   1.692   6.028   9.452  1.2887 -1.0033  0.1206
 9858SOL     OW31014   3.381   5.041   8.717 -0.8518  0.3571 -0.1434
 9858SOL    HW131015   3.295   4.998   8.716 -1.1716  0.9777 -1.0464
 9858SOL    HW231016   3.437   4.982   8.768 -2.1842  0.6946  1.8168
 9859SOL     OW31017   7.432   3.784   7.531 -0.4096 -0.0664 -0.1672
 9859SOL    HW131018   7.350   3.825   7.559 -0.3731 -0.0430 -0.0935
 9859SOL    HW231019   7.498   3.850   7.550  0.1391 -1.3947  3.2015
 9860SOL     OW31020   2.832   4.273   7.884  0.2552 -0.3003  0.0424
 9860SOL    HW131021   2.903   4.252   7.823  0.8648 -1.1106  0.9896
 9860SOL    HW231022   2.772   4.199   7.877 -0.9710  0.7606 -1.3568
 9861SOL     OW31023   1.716   3.614   7.066 -0.1017 -0.0754  0.1338
 9861SOL    HW131024   1.756   3.538   7.107 -0.2868 -1.5143 -2.1441
 9861SOL    HW231025   1.624   3.610   7.093  0.2035  0.2899  1.2836
 9862SOL     OW31026   2.807   6.223   9.116 -0.0931  0.0072 -0.0035
 9862SOL    HW131027   2.820   6.284   9.043 -0.0663 -0.4426 -0.3795
 9862SOL    HW231028   2.781   6.141   9.074 -2.7465  0.4447  0.6054
 9863SOL     OW31029   2.910   4.641   9.406 -0.1578 -0.1750 -0.1160
 9863SOL    HW131030   2.940   4.552   9.424  0.0520 -0.5993 -2.2139
 9863SOL    HW231031   2.947   4.662   9.320 -0.8151  1.6639 -0.0078
 9864SOL     OW31032   2.126   7.219   8.579  0.0842 -0.2278  0.3888
 9864SOL    HW131033   2.031   7.223   8.592  0.2627  0.2661  1.6323
 9864SOL    HW231034   2.161   7.191   8.664  1.1091  0.3897  0.1826
 9865SOL     OW31035   1.631   6.081   7.086  0.2882 -0.0191 -0.1360
 9865SOL    HW131036   1.537   6.083   7.066  0.1931 -0.3991  0.2625
 9865SOL    HW231037   1.651   6.170   7.115  0.0896  0.1087 -0.3831
 9866SOL     OW31038   3.049   4.361   6.880  0.2075 -0.2195  0.5837
 9866SOL    HW131039   3.070   4.269   6.899  0.6979 -0.3502 -0.5422
 9866SOL    HW231040   3.093   4.379   6.797 -1.0777  0.6145  0.0551
 9867SOL     OW31041   2.293   4.659   7.960 -0.0476  0.3574 -0.0775
 9867SOL    HW131042   2.299   4.713   8.038  0.2613  0.5603 -0.2404
 9867SOL    HW231043   2.332   4.712   7.890  0.4883 -0.1652 -0.1871
 9868SOL     OW31044   5.908   4.642   8.944 -0.0240  0.3246  0.3651
 9868SOL    HW131045   5.939   4.558   8.978  1.5449  1.1298  1.0807
 9868SOL    HW231046   5.896   4.627   8.851 -0.6127 -0.9157  0.6224
 9869SOL     OW31047   2.849   5.382   8.240  0.7621  0.4321 -0.7723
 9869SOL    HW131048   2.770   5.371   8.188  0.0621 -0.7457  0.4664
 9869SOL    HW231049   2.887   5.294   8.246  1.9551  0.9023 -0.9951
 9870SOL     OW31050   2.602   3.666   9.011 -0.5672 -0.2934 -0.7034
 9870SOL    HW131051   2.676   3.623   9.053 -1.1896  0.6093  1.4667
 9870SOL    HW231052   2.635   3.693   8.925  0.8483 -2.0034 -0.7582
 9871SOL     OW31053   2.935   7.125   9.695  0.4644 -0.5384 -0.3588
 9871SOL    HW131054   2.857   7.073   9.678 -1.2162  2.0497 -0.9611
 9871SOL    HW231055   2.905   7.197   9.751  2.5436  0.2182 -0.1220
 9872SOL     OW31056   4.067   3.597   8.227 -0.0937 -0.9163 -0.1054
 9872SOL    HW131057   4.111   3.613   8.144  0.7466  0.8479  0.6420
 9872SOL    HW231058   3.978   3.571   8.203  0.1426 -0.4582 -1.5378
 9873SOL     OW31059   2.448   5.841   9.655 -0.2119  0.1220  0.7630
 9873SOL    HW131060   2.501   5.890   9.718  0.9010 -1.4488  1.1087
 9873SOL    HW231061   2.365   5.888   9.651  0.3253  1.2313  2.1088
 9874SOL     OW31062   4.679   6.339   8.560 -0.4254 -0.2238  0.3844
 9874SOL    HW131063   4.739   6.283   8.610  0.4048  1.3187  1.1871
 9874SOL    HW231064   4.725   6.355   8.478 -0.4559 -0.3418  0.3442
 9875SOL     OW31065   2.725   4.482   6.350 -0.5184 -0.3736 -0.1422
 9875SOL    HW131066   2.684   4.465   6.435  0.6260  1.0250  0.7308
 9875SOL    HW231067   2.818   4.486   6.368 -0.3058  0.7122 -1.3312
 9876SOL     OW31068   2.498   5.131   8.382  0.0715 -0.2067  0.1758
 9876SOL    HW131069   2.431   5.097   8.441 -0.1110 -0.4938 -0.1924
 9876SOL    HW231070   2.578   5.134   8.435 -0.0650 -0.5544  0.4051
 9877SOL     OW31071   3.704   5.865   6.737  0.1198 -0.1774 -0.1294
 9877SOL    HW131072   3.744   5.786   6.775 -0.2582 -1.1746 -1.7305
 9877SOL    HW231073   3.762   5.888   6.664 -0.4460  0.3247 -0.4260
 9878SOL     OW31074   4.246   7.245   6.956 -0.3248 -0.3834  0.0740
 9878SOL    HW131075   4.184   7.180   6.987 -0.5184 -0.1430  0.1984
 9878SOL    HW231076   4.307   7.258   7.029 -0.8113  0.2199  0.3906
 9879SOL     OW31077   1.252   4.632   8.130  0.6266 -0.0187  0.4675
 9879SOL    HW131078   1.304   4.651   8.052 -0.1156  1.4131  0.2921
 9879SOL    HW231079   1.161   4.644   8.102  0.3972  2.2135  1.9444
 9880SOL     OW31080   2.722   6.733   8.167  0.1096 -0.0501 -0.2261
 9880SOL    HW131081   2.795   6.779   8.126 -0.5657 -0.0184 -1.4190
 9880SOL    HW231082   2.741   6.641   8.152  0.4917 -0.0963  0.4983
 9881SOL     OW31083   2.767   6.726   8.731 -0.2172  0.1524  0.1107
 9881SOL    HW131084   2.822   6.763   8.800 -0.3787 -0.9436  0.8518
 9881SOL    HW231085   2.829   6.695   8.664  0.0019  0.1231  0.3281
 9882SOL     OW31086   1.477   4.872   7.163 -0.4434 -0.0444 -0.8554
 9882SOL    HW131087   1.505   4.958   7.194 -0.0450 -0.4493 -0.0709
 9882SOL    HW231088   1.556   4.818   7.169 -0.6719 -0.4496 -1.4186
 9883SOL     OW31089   2.605   5.246   7.306  0.4314 -0.3820 -0.0185
 9883SOL    HW131090   2.644   5.245   7.219 -2.2993 -4.3186 -1.4393
 9883SOL    HW231091   2.655   5.182   7.356  0.0679 -0.4087  0.3188
 9884SOL     OW31092   1.437   5.603   9.315  0.0927  0.5374  0.4067
 9884SOL    HW131093   1.504   5.556   9.364 -0.1088 -0.4570 -0.2236
 9884SOL    HW231094   1.485   5.646   9.244  0.1967  0.7086  0.5823
 9885SOL     OW31095   2.166   5.652   7.477  0.8854 -0.3317  0.3567
 9885SOL    HW131096   2.085   5.662   7.428  0.7803 -0.1588  0.5674
 9885SOL    HW231097   2.223   5.601   7.419  1.9498  2.5619 -1.3449
 9886SOL     OW31098   1.018   3.612   7.828  0.2816 -0.2838  0.0103
 9886SOL    HW131099   0.951   3.592   7.893 -0.4518 -1.9925 -1.1876
 9886SOL    HW231100   1.083   3.542   7.839  0.7318  0.0794 -0.3213
 9887SOL     OW31101   1.763   6.297   7.709  0.2940  0.1989  0.4945
 9887SOL    HW131102   1.841   6.339   7.673  1.8140 -1.1908  2.0009
 9887SOL    HW231103   1.732   6.240   7.640  0.0887  1.3760 -0.4167
 9888SOL     OW31104   3.159   6.951   7.120 -0.3715  0.1490 -0.4135
 9888SOL    HW131105   3.151   6.947   7.024 -0.4080  0.9798 -0.4564
 9888SOL    HW231106   3.217   7.026   7.135 -0.7507  0.3174  0.2293
 9889SOL     OW31107   0.987   4.579  10.107  0.1491  0.1750 -0.2556
 9889SOL    HW131108   0.985   4.484  10.093  1.1536 -0.0503  0.9227
 9889SOL    HW231109   1.006   4.616  10.021 -1.4535 -0.5868 -0.9800
 9890SOL     OW31110   1.871   5.415   8.644  0.1789 -0.3177  0.5665
 9890SOL    HW131111   1.886   5.401   8.550  1.0871  2.0347  0.3161
 9890SOL    HW231112   1.881   5.327   8.682  2.0079 -0.9965 -1.2459
 9891SOL     OW31113   0.923   2.831   8.550  0.0851 -0.2552  0.4204
 9891SOL    HW131114   0.900   2.826   8.643 -0.5746  0.1239  0.2857
 9891SOL    HW231115   0.970   2.914   8.542 -1.8055  0.8608  0.0453
 9892SOL     OW31116   2.020   5.114   8.406 -0.5277  0.0330 -0.4730
 9892SOL    HW131117   2.064   5.069   8.478  1.2707 -1.5717 -2.4489
 9892SOL    HW231118   1.948   5.056   8.382 -1.4049  0.7833  0.2619
 9893SOL     OW31119   3.046   5.357   7.442  0.2258  0.5987  0.2830
 9893SOL    HW131120   3.091   5.279   7.410 -1.3934  0.0916 -0.8901
 9893SOL    HW231121   2.982   5.378   7.373 -0.2537  2.2043  1.1565
 9894SOL     OW31122   2.029   5.416   8.868 -0.0771  0.1030 -0.0127
 9894SOL    HW131123   2.083   5.395   8.791 -1.4592 -0.3793 -0.8860
 9894SOL    HW231124   1.940   5.421   8.834 -0.7343 -0.1729  1.5795
 9895SOL     OW31125   2.091   3.611   9.408 -0.0302 -0.1691 -0.0654
 9895SOL    HW131126   2.034   3.618   9.332 -2.5141  1.2813  1.7859
 9895SOL    HW231127   2.158   3.678   9.394 -0.3251 -0.0639 -1.0364
 9896SOL     OW31128   2.755   3.787   6.839  0.2623  0.1719 -0.3629
 9896SOL    HW131129   2.818   3.739   6.893  0.1918  0.0781 -0.3636
 9896SOL    HW231130   2.806   3.817   6.764  0.0544 -0.9410 -0.9817
 9897SOL     OW31131   2.633   3.315   7.850  0.4135 -0.1074  0.0691
 9897SOL    HW131132   2.587   3.340   7.770  0.3754  1.5244  0.5685
 9897SOL    HW231133   2.723   3.345   7.837  0.0103  1.8481  1.2971
 9898SOL     OW31134   2.543   6.020  10.575 -0.1799 -0.1370  0.4524
 9898SOL    HW131135   2.525   5.952  10.639 -0.0412  0.5519  1.2390
 9898SOL    HW231136   2.568   6.097  10.627  0.4829  0.2742 -0.4430
 9899SOL     OW31137   3.649   6.553   7.437 -0.3236  0.1998 -0.2504
 9899SOL    HW131138   3.670   6.465   7.405 -0.1905  1.2015 -3.2631
 9899SOL    HW231139   3.723   6.578   7.491 -1.3270 -2.2767  2.5179
 9900SOL     OW31140   3.980   7.730   7.775  0.6220 -0.1955  0.4883
 9900SOL    HW131141   3.962   7.786   7.852  2.2761  0.0753  0.7093
 9900SOL    HW231142   4.000   7.792   7.705 -1.7854 -0.3980 -0.4880
 9901SOL     OW31143   3.660   7.858   7.554  0.3717 -0.3717  0.5341
 9901SOL    HW131144   3.689   7.913   7.627  0.5088  1.0879 -0.5795
 9901SOL    HW231145   3.707   7.776   7.567  1.2723  0.2543  1.4585
 9902SOL     OW31146   2.013   5.780   9.001  0.5679 -0.1103  0.0993
 9902SOL    HW131147   2.043   5.785   8.911 -0.2041 -0.9173 -0.2230
 9902SOL    HW231148   2.035   5.691   9.029 -2.9353 -1.4017 -0.7283
 9903SOL     OW31149   3.758   5.182   9.693 -0.3607  0.4116  0.5481
 9903SOL    HW131150   3.694   5.110   9.685 -0.5351  0.4961  1.1255
 9903SOL    HW231151   3.718   5.254   9.645 -0.2814  0.1857  0.1383
 9904SOL     OW31152   4.149   4.943   7.801 -0.2597 -0.1252 -0.1400
 9904SOL    HW131153   4.146   4.924   7.707  0.7121  0.3755 -0.2825
 9904SOL    HW231154   4.191   4.866   7.839  0.6793  0.2982 -0.3052
 9905SOL     OW31155   3.291   7.609  10.339  0.2837 -0.1819 -0.3285
 9905SOL    HW131156   3.322   7.608  10.248  1.1051 -0.3919 -0.0562
 9905SOL    HW231157   3.352   7.552  10.386 -0.0316  0.0611  0.3945
 9906SOL     OW31158   2.511   6.588   8.458 -0.0027  1.1943  0.2286
 9906SOL    HW131159   2.526   6.540   8.539 -4.3122 -5.0829 -1.9420
 9906SOL    HW231160   2.443   6.651   8.480 -1.3555 -0.6287  1.5922
 9907SOL     OW31161   2.119   5.679   8.287 -0.1345 -0.0254  0.2794
 9907SOL    HW131162   2.083   5.612   8.229  0.0580 -1.1061  1.3615
 9907SOL    HW231163   2.153   5.747   8.228 -1.0541 -0.4888 -0.8225
 9908SOL     OW31164   2.043   4.959   6.825 -0.3026 -0.2591  0.3140
 9908SOL    HW131165   2.011   5.011   6.752 -0.9599  0.7352  1.2622
 9908SOL    HW231166   2.067   4.875   6.787 -0.2191  0.3755 -1.0964
 9909SOL     OW31167   3.927   6.534   7.563 -0.1143  0.5820 -0.2143
 9909SOL    HW131168   3.991   6.599   7.590  0.7348 -0.1554 -0.3814
 9909SOL    HW231169   3.961   6.500   7.480  2.1059 -3.3320  1.9431
 9910SOL     OW31170   1.629   5.317   8.209 -0.3731  0.0325 -0.0205
 9910SOL    HW131171   1.616   5.339   8.116  0.1348  1.2589  0.1868
 9910SOL    HW231172   1.540   5.301   8.241 -0.4914 -1.3151 -0.9117
 9911SOL     OW31173   3.459   4.874   8.308 -0.1837  0.0318  0.8001
 9911SOL    HW131174   3.531   4.931   8.280 -0.9389  0.6778  0.1011
 9911SOL    HW231175   3.416   4.847   8.227 -0.6245 -0.4876  1.1945
 9912SOL     OW31176   2.126   3.937   7.652  0.4000 -0.2812 -0.4411
 9912SOL    HW131177   2.104   3.938   7.559 -4.3203  0.4677  0.4105
 9912SOL    HW231178   2.183   4.012   7.665  0.9795 -0.2716 -2.6312
 9913SOL     OW31179   3.037   6.270   7.736 -0.1379  0.1580  0.1713
 9913SOL    HW131180   2.969   6.287   7.671  0.1869 -0.4205 -0.3269
 9913SOL    HW231181   3.011   6.188   7.777  0.6168 -0.4293 -0.5015
 9914SOL     OW31182   2.164   7.109  10.077  0.6102  0.5417 -0.5122
 9914SOL    HW131183   2.167   7.074   9.988  0.5347  1.8284 -1.0433
 9914SOL    HW231184   2.073   7.133  10.090  0.1922 -1.5170  0.6983
 9915SOL     OW31185   3.474   3.780   7.837 -0.0684 -0.1672 -0.3989
 9915SOL    HW131186   3.478   3.851   7.773 -1.7114  0.5328  0.2167
 9915SOL    HW231187   3.389   3.738   7.822  0.1384 -0.9028  0.3831
 9916SOL     OW31188   1.717   5.260   7.545  0.4296  0.0836  0.5324
 9916SOL    HW131189   1.711   5.202   7.468  1.9263  0.0445  0.4014
 9916SOL    HW231190   1.712   5.201   7.620 -0.7389  0.0885  0.4645
 9917SOL     OW31191   2.945   5.366   9.074  0.0675  0.0758 -0.1395
 9917SOL    HW131192   2.935   5.460   9.086 -0.7143  0.1134 -1.0334
 9917SOL    HW231193   3.004   5.339   9.145 -0.0046  1.1684  0.3486
 9918SOL     OW31194   2.598   4.329   7.442  0.7301 -0.3079  0.5513
 9918SOL    HW131195   2.617   4.237   7.426 -1.0311 -0.6136  0.0103
 9918SOL    HW231196   2.504   4.338   7.426  1.1045  1.9121 -0.9353
 9919SOL     OW31197   2.745   3.501  10.949 -0.0251 -0.1713 -0.0566
 9919SOL    HW131198   2.834   3.536  10.943 -0.0921  0.3342  1.4450
 9919SOL    HW231199   2.694   3.555  10.889  0.4616  0.3443 -0.0116
 9920SOL     OW31200   1.890   4.801  10.099 -0.8082 -0.3151 -0.8262
 9920SOL    HW131201   1.823   4.829  10.036 -2.4718 -0.3785  0.8117
 9920SOL    HW231202   1.912   4.712  10.073 -3.1369 -1.1788 -0.0746
 9921SOL     OW31203   2.707   6.163  11.052 -0.1916  0.4114  0.2982
 9921SOL    HW131204   2.733   6.179  10.962 -0.5450 -1.8508 -0.2720
 9921SOL    HW231205   2.645   6.089  11.047  1.3729 -1.1988  2.5320
 9922SOL     OW31206   3.691   6.846   9.751 -0.2344 -0.0152 -0.0368
 9922SOL    HW131207   3.686   6.832   9.656  0.2974 -0.2329 -0.0378
 9922SOL    HW231208   3.777   6.886   9.764 -1.1912  2.1438  0.1118
 9923SOL     OW31209   3.717   5.477   9.067 -0.7821  0.4473 -0.2941
 9923SOL    HW131210   3.736   5.404   9.008  1.5220  0.5043  0.3045
 9923SOL    HW231211   3.652   5.441   9.128  1.5920 -1.8004  1.1029
 9924SOL     OW31212   4.643   3.779   9.734  0.3364  0.4745 -0.5107
 9924SOL    HW131213   4.590   3.857   9.752 -1.0466 -0.6698  0.6863
 9924SOL    HW231214   4.683   3.757   9.818 -3.2637 -2.8504  0.6642
 9925SOL     OW31215   3.101   6.447   9.970 -0.0139 -0.0591 -0.1030
 9925SOL    HW131216   3.166   6.517   9.971  0.1663 -0.2295  0.0351
 9925SOL    HW231217   3.105   6.411   9.882  1.1968 -1.1108  0.3397
 9926SOL     OW31218   2.731   4.830  10.073 -0.3768  0.0899 -0.1123
 9926SOL    HW131219   2.660   4.894  10.081  1.5016  2.6059 -2.0112
 9926SOL    HW231220   2.708   4.778   9.996  0.9359  2.6499 -2.3989
 9927SOL     OW31221   3.297   4.709  11.074 -0.2522  0.0425 -0.0700
 9927SOL    HW131222   3.351   4.682  11.000  0.0123  1.2268 -0.3250
 9927SOL    HW231223   3.214   4.736  11.035  0.1050  1.2625 -0.0181
 9928SOL     OW31224   3.889   6.450   9.672 -0.5729 -0.0692  0.2239
 9928SOL    HW131225   3.975   6.491   9.665  0.2956 -1.5646  1.5524
 9928SOL    HW231226   3.893   6.376   9.611 -0.6680 -0.5294  0.7696
 9929SOL     OW31227   1.379   7.276  11.440 -0.1443 -0.6602  0.2546
 9929SOL    HW131228   1.400   7.253  11.531  0.5673 -0.9382  0.0287
 9929SOL    HW231229   1.459   7.255  11.392 -1.2806 -2.7417 -0.8342
 9930SOL     OW31230   3.818   3.182  10.667 -0.7216 -0.0182 -0.0119
 9930SOL    HW131231   3.875   3.203  10.741 -2.5781  0.5288  1.3138
 9930SOL    HW231232   3.745   3.134  10.705 -0.5064 -1.9971 -1.8858
 9931SOL     OW31233   2.229   5.257   9.480  0.4449  0.2724 -0.2601
 9931SOL    HW131234   2.149   5.304   9.504 -0.3988 -1.2309  0.0071
 9931SOL    HW231235   2.204   5.206   9.403  1.1345 -0.2419 -0.1462
 9932SOL     OW31236   3.423   4.215   9.565  0.6162 -0.4224 -0.5463
 9932SOL    HW131237   3.366   4.144   9.594 -2.1563  1.5732 -0.6731
 9932SOL    HW231238   3.390   4.239   9.479  0.9794  1.4347 -0.2191
 9933SOL     OW31239   2.017   7.762   8.563 -0.0056  0.3073 -0.1515
 9933SOL    HW131240   2.092   7.717   8.526 -1.1350  0.1300 -2.4116
 9933SOL    HW231241   1.960   7.692   8.595 -1.7009 -0.0657 -3.5456
 9934SOL     OW31242   3.678   6.154  10.530 -0.3584  0.4240 -0.3777
 9934SOL    HW131243   3.608   6.113  10.479 -0.6163  0.5961 -0.1631
 9934SOL    HW231244   3.750   6.091  10.527 -0.2186  0.6118 -1.3021
 9935SOL     OW31245   1.471   5.796   9.871  0.0061 -1.0197  0.4205
 9935SOL    HW131246   1.397   5.738   9.851 -0.2261 -0.6386  0.1532
 9935SOL    HW231247   1.484   5.787   9.965 -0.8345 -0.5722  0.5899
 9936SOL     OW31248   0.826   4.684  10.319  0.0978  0.6236  0.0340
 9936SOL    HW131249   0.863   4.641  10.242 -1.7234  0.8092 -0.9933
 9936SOL    HW231250   0.892   4.672  10.387  0.3873 -2.4178 -0.6371
 9937SOL     OW31251   0.250   5.498  11.563  0.0718  0.2603  0.0405
 9937SOL    HW131252   0.304   5.577  11.569 -0.9360  1.0182 -0.6366
 9937SOL    HW231253   0.313   5.426  11.555  0.9866  1.0969 -0.4068
 9938SOL     OW31254   1.177   4.248   9.788 -0.1423  0.6062 -0.4737
 9938SOL    HW131255   1.217   4.172   9.746  0.5256  2.1618 -2.8331
 9938SOL    HW231256   1.134   4.212   9.866  1.3619 -1.9348 -0.7019
 9939SOL     OW31257   4.790   4.989   9.735  0.2534 -0.1265  0.1951
 9939SOL    HW131258   4.846   4.933   9.681  0.9767  0.1423  0.6524
 9939SOL    HW231259   4.710   5.000   9.683  0.6760 -0.4085 -0.5301
 9940SOL     OW31260   2.489   3.555   9.889  0.1773 -0.1625 -0.2235
 9940SOL    HW131261   2.481   3.568   9.984 -0.7674 -0.3865 -0.2631
 9940SOL    HW231262   2.571   3.507   9.878 -0.3931 -1.3809  0.6060
 9941SOL     OW31263   4.391   5.512   9.982  0.0727  0.6006  0.2142
 9941SOL    HW131264   4.312   5.536   9.933  0.9068  1.3343 -0.8037
 9941SOL    HW231265   4.396   5.577  10.052 -0.6619  0.0521  0.7976
 9942SOL     OW31266   2.729   4.862  10.350  0.3206 -0.2470 -0.4561
 9942SOL    HW131267   2.779   4.943  10.349  0.0504 -0.0369  0.8393
 9942SOL    HW231268   2.736   4.828  10.261  0.2743  1.2890 -1.0667
 9943SOL     OW31269   2.369   4.404   8.875  0.0304  0.1049 -0.1336
 9943SOL    HW131270   2.447   4.351   8.861 -0.8135 -1.2231 -0.0285
 9943SOL    HW231271   2.399   4.479   8.926  1.2834 -0.2062 -0.3871
 9944SOL     OW31272   3.776   3.230  10.164 -0.1600 -0.5292 -0.0745
 9944SOL    HW131273   3.801   3.141  10.192  1.8928  0.1466  0.4053
 9944SOL    HW231274   3.848   3.258  10.108 -0.2955  1.1955  0.5769
 9945SOL     OW31275   1.478   4.018  10.158 -0.6283 -0.0765  0.1255
 9945SOL    HW131276   1.475   3.930  10.197  1.0959 -0.1882  0.0796
 9945SOL    HW231277   1.449   4.005  10.068 -1.4437 -0.3964  0.4223
 9946SOL     OW31278   0.600   3.980   9.713  0.0588  0.3061 -0.2086
 9946SOL    HW131279   0.524   4.030   9.743 -0.4654 -0.7645  0.3129
 9946SOL    HW231280   0.586   3.892   9.749  1.2790 -0.0437 -0.5558
 9947SOL     OW31281   2.330   4.547   8.632 -0.1952 -0.9213  0.0689
 9947SOL    HW131282   2.413   4.594   8.635 -1.4245  1.3752  2.2480
 9947SOL    HW231283   2.325   4.501   8.715 -0.4280 -2.3853 -0.7226
 9948SOL     OW31284   3.201   4.627   9.575  0.1793  0.4924  0.1031
 9948SOL    HW131285   3.171   4.564   9.509 -0.1635  0.7543  0.0064
 9948SOL    HW231286   3.295   4.611   9.582  0.2329  0.5187 -0.5077
 9949SOL     OW31287   0.098   3.469  10.086  0.4395  0.1076 -0.5380
 9949SOL    HW131288   0.149   3.489  10.164  0.2274  1.8374 -0.7999
 9949SOL    HW231289   0.090   3.374  10.086  2.0788 -0.0721  0.4951
 9950SOL     OW31290   3.472   4.706   9.303  0.5213 -0.0813  0.0484
 9950SOL    HW131291   3.447   4.622   9.342  1.0950  0.1317  0.8941
 9950SOL    HW231292   3.490   4.684   9.211  2.2811 -1.2388  0.6147
 9951SOL     OW31293   3.441   3.406  11.577  0.3631 -0.2892  0.5866
 9951SOL    HW131294   3.385   3.330  11.588 -0.6997  0.8347  4.6389
 9951SOL    HW231295   3.493   3.410  11.657  1.3657  2.5171 -0.0574
 9952SOL     OW31296   3.072   4.951  10.431  0.4345 -0.1554  0.1724
 9952SOL    HW131297   3.135   5.012  10.469  0.5689 -0.5997  0.6766
 9952SOL    HW231298   3.045   4.993  10.350  2.6931 -0.7271 -0.9787
 9953SOL     OW31299   3.413   5.250   9.104 -0.4991 -0.4306  0.4529
 9953SOL    HW131300   3.459   5.282   9.027 -3.0421 -2.6092 -2.2231
 9953SOL    HW231301   3.467   5.178   9.137  0.3478  0.1875  0.4498
 9954SOL     OW31302   2.947   5.641  11.483  0.2373 -0.0043  0.3791
 9954SOL    HW131303   3.035   5.607  11.498  0.6619  0.7378 -0.3546
 9954SOL    HW231304   2.911   5.584  11.414  0.4030  0.1214  0.1879
 9955SOL     OW31305   0.831   3.563   9.343 -0.4539 -0.5453  0.3542
 9955SOL    HW131306   0.895   3.500   9.377 -1.2751 -0.6238  1.8602
 9955SOL    HW231307   0.866   3.589   9.258  0.0941 -2.7792 -0.1897
 9956SOL     OW31308   3.217   5.140  10.546  0.2614 -0.2633 -0.0539
 9956SOL    HW131309   3.246   5.154  10.636 -1.9364 -0.0998  0.7027
 9956SOL    HW231310   3.200   5.228  10.512 -0.1455 -0.3819 -0.1695
 9957SOL     OW31311   5.146   6.830  11.954  0.5392  0.0879  0.1222
 9957SOL    HW131312   5.102   6.788  11.881 -0.9428 -2.9048  2.4986
 9957SOL    HW231313   5.079   6.885  11.995  1.2766  1.5261 -0.5398
 9958SOL     OW31314   4.334   2.419  10.832  0.1956 -0.4129  0.1640
 9958SOL    HW131315   4.302   2.509  10.838 -1.0877 -0.8127 -0.3774
 9958SOL    HW231316   4.272   2.368  10.885  1.6909 -0.8124  1.6241
 9959SOL     OW31317   3.802   5.751  10.132 -0.0134 -0.2817 -0.4456
 9959SOL    HW131318   3.887   5.763  10.090  0.3037  1.0571  0.5512
 9959SOL    HW231319   3.801   5.658  10.156  0.8277 -0.4930 -1.1617
 9960SOL     OW31320   2.828   6.392  10.582 -0.0107 -0.6082  0.1603
 9960SOL    HW131321   2.823   6.358  10.492  0.5782  2.1550 -1.0091
 9960SOL    HW231322   2.748   6.443  10.593 -0.1190 -0.9883  1.2608
 9961SOL     OW31323   2.220   4.304   6.729  0.1088 -0.1484  0.5877
 9961SOL    HW131324   2.132   4.322   6.696 -0.2782 -0.7950  1.2352
 9961SOL    HW231325   2.214   4.215   6.764  1.2344 -0.5103 -0.0819
 9962SOL     OW31326   4.566   4.346  10.444 -0.4126  0.3159  0.1132
 9962SOL    HW131327   4.514   4.304  10.512  0.9741  0.4362  1.3104
 9962SOL    HW231328   4.503   4.396  10.392 -1.5111  0.2079  1.3078
 9963SOL     OW31329   2.765   4.894   9.016 -0.1519  0.1279 -0.8438
 9963SOL    HW131330   2.802   4.828   8.958 -0.8754 -0.1935 -0.9401
 9963SOL    HW231331   2.836   4.958   9.028 -0.6279  1.3668 -3.8236
 9964SOL     OW31332   2.424   7.820   0.668  0.5033  0.1114 -0.0298
 9964SOL    HW131333   2.334   7.809   0.636 -0.1897  0.7098  1.5988
 9964SOL    HW231334   2.414   7.861   0.754  2.3404  0.0315  0.2613
 9965SOL     OW31335   2.392   4.586   9.075 -0.2901  0.1048 -0.5576
 9965SOL    HW131336   2.454   4.657   9.058  0.1611  0.2722  1.5129
 9965SOL    HW231337   2.319   4.628   9.120 -1.0045 -0.4311 -1.1861
 9966SOL     OW31338   3.940   3.464  10.922  0.0975 -0.5826 -0.1730
 9966SOL    HW131339   3.988   3.487  11.002  0.6997  1.1462 -0.9736
 9966SOL    HW231340   3.864   3.415  10.952 -0.0469  0.6019  1.5344
 9967SOL     OW31341   3.645   6.675   9.954 -0.4535 -0.1491  0.1016
 9967SOL    HW131342   3.669   6.591   9.916 -0.8712  0.4577 -1.5667
 9967SOL    HW231343   3.640   6.735   9.880 -4.5389  0.3741  0.5908
 9968SOL     OW31344   3.660   4.238   9.676 -0.5438 -0.0463 -0.3743
 9968SOL    HW131345   3.575   4.229   9.633 -0.8246 -1.0967  0.3819
 9968SOL    HW231346   3.706   4.156   9.658  0.9249  1.0328 -1.9982
 9969SOL     OW31347   2.454   5.224   9.632  0.0027  0.4705 -0.5364
 9969SOL    HW131348   2.499   5.143   9.608  0.0247  0.3553 -0.1076
 9969SOL    HW231349   2.381   5.229   9.570 -0.9916 -0.7430  0.4750
 9970SOL     OW31350   4.317   6.857   9.559  0.4272 -0.2991  0.1997
 9970SOL    HW131351   4.294   6.805   9.635 -0.6371  0.4155  0.3797
 9970SOL    HW231352   4.244   6.846   9.498  1.5668 -1.4214 -1.0418
 9971SOL     OW31353   3.697   3.383  10.526  0.0912  0.1336 -0.0948
 9971SOL    HW131354   3.710   3.439  10.602 -1.7476 -1.4678  1.5461
 9971SOL    HW231355   3.753   3.307  10.542 -1.0907 -0.7033  0.3006
 9972SOL     OW31356   3.682   4.755  10.643  0.4046  0.7949 -0.0579
 9972SOL    HW131357   3.724   4.674  10.673  1.5025  1.8206  1.3587
 9972SOL    HW231358   3.694   4.755  10.548  0.7892 -0.4749 -0.0268
 9973SOL     OW31359   1.429   2.801   9.031  0.1074 -0.4177  0.3939
 9973SOL    HW131360   1.471   2.719   9.007  1.0368  0.1400  0.0672
 9973SOL    HW231361   1.414   2.846   8.948 -0.5418 -0.3206  0.5558
 9974SOL     OW31362   3.917   4.296   8.932  0.3256 -0.2371  0.4943
 9974SOL    HW131363   3.842   4.327   8.882  1.2978 -0.8041 -1.4346
 9974SOL    HW231364   3.945   4.217   8.886  0.8098 -1.2434  2.4445
 9975SOL     OW31365   0.349   7.115   9.771  0.8073 -0.3274 -0.0455
 9975SOL    HW131366   0.288   7.128   9.699  0.5219 -1.6185 -0.0610
 9975SOL    HW231367   0.433   7.096   9.729  0.4767 -1.8589 -0.0916
 9976SOL     OW31368   3.993   4.573   9.322  0.1416  0.2296 -0.2252
 9976SOL    HW131369   4.026   4.517   9.251 -0.3848 -0.8746  0.3718
 9976SOL    HW231370   3.903   4.593   9.297  0.3975  1.0051 -0.5435
 9977SOL     OW31371   2.655   3.281   9.068  0.0768  0.3200 -0.0447
 9977SOL    HW131372   2.687   3.229   9.141 -1.2830 -2.3312 -1.1912
 9977SOL    HW231373   2.709   3.255   8.993 -1.6334 -0.7440 -0.9791
 9978SOL     OW31374   3.459   4.516   9.622  0.1691  0.0063 -0.2605
 9978SOL    HW131375   3.538   4.463   9.632 -1.0658 -2.0024 -0.6703
 9978SOL    HW231376   3.430   4.498   9.532  0.5212  2.6324 -0.9965
 9979SOL     OW31377   2.546   7.000   8.578 -0.0991  0.5187  0.0688
 9979SOL    HW131378   2.620   6.949   8.545  0.2124  0.5173  0.7484
 9979SOL    HW231379   2.515   7.050   8.502  2.2087  2.4991  0.3200
 9980SOL     OW31380   2.807   5.911  11.252  0.6030  0.4471  0.1552
 9980SOL    HW131381   2.882   5.966  11.276  0.7216 -0.0622  0.9973
 9980SOL    HW231382   2.845   5.840  11.201  0.5512  0.7153 -0.2658
 9981SOL     OW31383   1.973   5.614   9.373 -0.1153  0.4833  0.4981
 9981SOL    HW131384   2.013   5.693   9.409 -0.5587  0.6696  0.5934
 9981SOL    HW231385   2.035   5.583   9.307 -0.6728  1.8212 -0.6969
 9982SOL     OW31386   1.322   3.674  11.057  0.0382  0.1407  0.2002
 9982SOL    HW131387   1.344   3.580  11.056 -0.6342 -0.2058 -4.6494
 9982SOL    HW231388   1.403   3.718  11.031 -0.5068  0.4999 -0.9660
 9983SOL     OW31389   2.473   4.109  12.014 -0.0826 -0.4239  0.1177
 9983SOL    HW131390   2.409   4.038  12.007 -0.1943 -0.6532  2.7215
 9983SOL    HW231391   2.425   4.180  12.057  0.6832  0.3970 -0.3525
 9984SOL     OW31392   0.193   4.348   7.269 -0.1723 -0.3718  0.6590
 9984SOL    HW131393   0.286   4.365   7.284 -0.4812  1.3707  0.7604
 9984SOL    HW231394   0.164   4.420   7.214 -1.0824 -1.8867 -0.9519
 9985SOL     OW31395   4.107   3.655   0.252  0.4274  0.2119 -0.6327
 9985SOL    HW131396   4.166   3.729   0.240  0.8385 -0.2204 -1.3779
 9985SOL    HW231397   4.144   3.586   0.197 -0.6106 -0.1625 -0.8904
 9986SOL     OW31398   2.227   6.504  10.287 -0.2484 -0.5792 -0.2419
 9986SOL    HW131399   2.200   6.433  10.345 -0.6539  0.1104  0.4366
 9986SOL    HW231400   2.286   6.557  10.340  0.9266 -0.9960 -1.0945
 9987SOL     OW31401   3.644   4.352  10.668 -0.4724 -0.1932  0.4012
 9987SOL    HW131402   3.557   4.363  10.631 -0.1009 -0.2852 -0.5271
 9987SOL    HW231403   3.650   4.259  10.689  0.2041 -0.6814 -1.6917
 9988SOL     OW31404   2.669   6.157   9.596  0.4849 -0.5474 -0.1803
 9988SOL    HW131405   2.620   6.075   9.608  1.3156 -1.4217 -2.1848
 9988SOL    HW231406   2.638   6.191   9.512 -0.3677  1.6518  0.9371
 9989SOL     OW31407   3.909   5.683   9.129 -0.3490 -0.0509 -0.0190
 9989SOL    HW131408   3.838   5.620   9.118  0.2878 -1.0039  1.2131
 9989SOL    HW231409   3.868   5.756   9.177 -1.0666  0.4883 -1.3919
 9990SOL     OW31410   1.002   3.827   9.800  0.3752  0.3695  0.6397
 9990SOL    HW131411   0.960   3.842   9.884 -0.9439 -0.2507  0.1186
 9990SOL    HW231412   0.931   3.801   9.741  0.8202  3.1052 -1.3271
 9991SOL     OW31413   3.553   4.936   9.513  0.1433  0.5372 -0.2017
 9991SOL    HW131414   3.525   4.855   9.470  1.7329 -0.3860  0.3997
 9991SOL    HW231415   3.634   4.960   9.470 -0.2045  1.7254 -0.2356
 9992SOL     OW31416   1.305   4.302   9.125  0.1587 -0.2859  0.8662
 9992SOL    HW131417   1.270   4.308   9.214  0.1496  2.5579  0.7594
 9992SOL    HW231418   1.285   4.212   9.098 -0.6664 -0.9602  3.3651
 9993SOL     OW31419   2.447   3.989   8.794 -0.2835  0.3040 -0.0017
 9993SOL    HW131420   2.388   3.969   8.721  0.0171 -2.4341  0.3991
 9993SOL    HW231421   2.390   3.993   8.871 -0.1740 -0.5398  0.1286
 9994SOL     OW31422   2.989   3.613  10.926  0.1437  0.1799 -0.1434
 9994SOL    HW131423   2.973   3.689  10.871  1.4787  1.5034  1.1712
 9994SOL    HW231424   3.080   3.588  10.906  0.1319 -0.2771  0.3480
 9995SOL     OW31425   1.470   4.926   9.051 -0.0940 -0.0493 -0.5007
 9995SOL    HW131426   1.503   4.980   9.123 -0.1059 -0.9478  0.2032
 9995SOL    HW231427   1.391   4.884   9.086  0.2239 -0.9527 -0.8177
 9996SOL     OW31428   1.983   5.927   9.591 -0.7239 -0.2483  0.3456
 9996SOL    HW131429   1.990   5.927   9.687  0.6014  2.7269  0.3462
 9996SOL    HW231430   1.895   5.958   9.574 -0.7019 -0.0345  0.6087
 9997SOL     OW31431   4.681   0.199  11.441 -0.0501  0.1991 -0.4366
 9997SOL    HW131432   4.592   0.232  11.459  0.3196  0.6392  0.7364
 9997SOL    HW231433   4.676   0.163  11.353 -1.4301  0.1080 -0.3488
 9998SOL     OW31434   0.949   3.161   7.267  0.8068 -0.5488  0.0398
 9998SOL    HW131435   0.889   3.235   7.263  1.9655  0.4243 -0.0897
 9998SOL    HW231436   1.004   3.178   7.343  1.3689 -1.0515 -0.2388
 9999SOL     OW31437   3.211   3.806   0.309  0.2716 -0.3222 -0.3294
 9999SOL    HW131438   3.200   3.804   0.404 -0.7713 -1.2814 -0.4534
 9999SOL    HW231439   3.278   3.873   0.294 -0.1937  0.4659  1.0125
10000SOL     OW31440   3.364   3.697  10.388  0.0393  0.1724  0.2415
10000SOL    HW131441   3.445   3.745  10.372 -0.4603  0.7493 -0.6651
10000SOL    HW231442   3.336   3.667  10.301 -1.6960  1.6358  0.2224
10001SOL     OW31443   4.456   5.210  10.234 -0.4061  0.3841  0.4642
10001SOL    HW131444   4.363   5.230  10.238 -0.9357 -1.9417  1.2180
10001SOL    HW231445   4.461   5.123  10.194  1.2402 -0.4709  2.3508
10002SOL     OW31446   2.611   4.582   8.602  0.5485  0.0926  0.3732
10002SOL    HW131447   2.665   4.623   8.536  1.6786  0.9120  1.7472
10002SOL    HW231448   2.633   4.489   8.598 -0.3962 -0.1057 -1.2593
10003SOL     OW31449   4.732   5.711  10.219 -0.2369  0.1355 -0.0030
10003SOL    HW131450   4.758   5.693  10.129  2.0720 -0.7401  0.7766
10003SOL    HW231451   4.761   5.634  10.268  1.0822  1.7758  1.9157
10004SOL     OW31452   4.585   4.591   9.674 -0.3992  0.1192 -0.1024
10004SOL    HW131453   4.590   4.518   9.612  0.6120 -0.3290  0.4805
10004SOL    HW231454   4.492   4.599   9.694 -0.5010 -1.2136  0.0486
10005SOL     OW31455   5.870   5.292  11.126  0.4754  0.2968  0.1174
10005SOL    HW131456   5.832   5.241  11.198 -1.2075 -0.3584 -1.1816
10005SOL    HW231457   5.909   5.227  11.068  0.4972  0.6909 -0.3142
10006SOL     OW31458   2.090   4.317   8.765  0.4902  0.1070  0.3482
10006SOL    HW131459   2.175   4.350   8.735  0.0862  0.5398 -0.3403
10006SOL    HW231460   2.108   4.281   8.852  1.1013  1.4512  0.7998
10007SOL     OW31461   3.745   5.241  10.352 -0.1095 -0.3183 -0.0782
10007SOL    HW131462   3.652   5.262  10.365 -0.4482 -2.4820  1.3776
10007SOL    HW231463   3.748   5.200  10.265 -0.3109  0.6486 -0.5612
10008SOL     OW31464   2.930   4.018   8.321 -0.3881 -0.5535  0.0074
10008SOL    HW131465   3.024   4.018   8.340 -0.2739 -1.0188 -0.5387
10008SOL    HW231466   2.909   4.109   8.300  0.1684 -0.6412 -0.9641
10009SOL     OW31467   3.503   6.374   9.385  0.0238 -0.3830  0.1346
10009SOL    HW131468   3.412   6.382   9.359 -0.2294 -1.8892  0.4619
10009SOL    HW231469   3.521   6.280   9.382  1.0874 -0.2694  1.6411
10010SOL     OW31470   2.175   4.184   9.347  0.5014 -0.2862  0.0242
10010SOL    HW131471   2.202   4.207   9.436 -0.1163 -0.0184  0.1489
10010SOL    HW231472   2.231   4.238   9.291  1.1915 -0.7768  0.2359
10011SOL     OW31473   2.058   6.426   9.864  0.1317  0.0774  0.0848
10011SOL    HW131474   2.151   6.449   9.859 -0.1039  0.7881 -1.5785
10011SOL    HW231475   2.012   6.510   9.865 -0.5810 -0.2576 -1.7086
10012SOL     OW31476   5.376   2.498  10.094  0.3796  0.6092 -0.2996
10012SOL    HW131477   5.402   2.583  10.059 -0.7333  1.4780  0.8594
10012SOL    HW231478   5.292   2.515  10.136  0.4718 -0.9190  0.5703
10013SOL     OW31479   3.830   4.948  10.823 -0.4734 -0.0593 -0.4245
10013SOL    HW131480   3.841   4.865  10.777  0.6393 -0.3144  0.2588
10013SOL    HW231481   3.752   4.987  10.784  0.1093 -0.5074 -2.1200
10014SOL     OW31482   2.433   4.230  12.367  0.2026 -0.4200 -0.6749
10014SOL    HW131483   2.506   4.252  12.425 -0.1631 -1.9784  0.4333
10014SOL    HW231484   2.434   4.135  12.362 -1.4386 -0.4411 -1.0762
10015SOL     OW31485   3.118   5.436  10.198 -0.4786  0.0149  0.0512
10015SOL    HW131486   3.160   5.488  10.130  0.2056  2.1254  1.9746
10015SOL    HW231487   3.027   5.466  10.199 -0.5975 -0.3321 -0.2132
10016SOL     OW31488   1.505   5.164   9.745  0.0738 -0.1366 -0.3683
10016SOL    HW131489   1.513   5.151   9.840 -2.7127  1.9521  0.2868
10016SOL    HW231490   1.442   5.097   9.717 -0.1954  0.1518 -0.4576
10017SOL     OW31491   0.895   4.861  12.209  0.1940 -0.2686 -0.0234
10017SOL    HW131492   0.817   4.915  12.222 -0.2407 -1.2120  1.4799
10017SOL    HW231493   0.867   4.791  12.151  0.0983 -0.2794  0.0375
10018SOL     OW31494   3.419   6.124   9.618  0.1213  0.0574  0.4226
10018SOL    HW131495   3.417   6.028   9.615  0.0569  0.0597  0.3953
10018SOL    HW231496   3.512   6.146   9.618  0.1403  0.0200 -0.5596
10019SOL     OW31497   1.341   4.901  10.031  0.1264 -0.0345 -0.4775
10019SOL    HW131498   1.272   4.883  10.095  0.7222  0.1986  0.2496
10019SOL    HW231499   1.321   4.843   9.958 -0.5577 -0.3325 -0.0706
10020SOL     OW31500   1.459   6.434   9.246 -0.1017  0.2031  0.9192
10020SOL    HW131501   1.524   6.439   9.315 -2.6612 -0.2184  3.5363
10020SOL    HW231502   1.395   6.369   9.276 -1.8108  0.6206 -1.4274
10021SOL     OW31503   2.755   5.251   9.495 -0.1689 -0.1955  0.6392
10021SOL    HW131504   2.690   5.181   9.497  1.6150 -1.9653  0.2997
10021SOL    HW231505   2.812   5.229   9.421  0.1487  1.9461  0.1827
10022SOL     OW31506   5.261   4.134  10.148 -0.4653  0.7632 -0.0020
10022SOL    HW131507   5.216   4.051  10.162 -0.6593  1.0854  1.3903
10022SOL    HW231508   5.197   4.190  10.105 -0.0428 -0.0627 -1.8236
10023SOL     OW31509   3.391   6.124  11.716  0.8101  0.1235 -0.0239
10023SOL    HW131510   3.381   6.118  11.621  1.0030  1.1675 -0.1247
10023SOL    HW231511   3.304   6.103  11.751  0.7875 -0.4481 -0.4164
10024SOL     OW31512   3.904   4.902   8.988  0.0139 -0.0118  0.0061
10024SOL    HW131513   3.824   4.850   8.997  0.5793 -1.0624 -0.7776
10024SOL    HW231514   3.885   4.963   8.917  0.2750 -1.0456 -0.9885
10025SOL     OW31515   3.017   7.754  11.115  0.6159  0.0117  0.0393
10025SOL    HW131516   2.990   7.751  11.206  1.9447 -1.0451  0.4275
10025SOL    HW231517   2.961   7.690  11.071 -1.7184  2.2266 -0.4291
10026SOL     OW31518   0.522   4.621  11.001 -0.8524 -0.3241  0.0102
10026SOL    HW131519   0.610   4.624  10.963 -0.2889  0.8386  1.3115
10026SOL    HW231520   0.469   4.575  10.936  0.5646 -0.4401 -1.1073
10027SOL     OW31521   3.088   4.608  12.411 -0.5253  0.0158 -0.3149
10027SOL    HW131522   3.075   4.703  12.411 -1.9352 -0.1231 -2.4422
10027SOL    HW231523   3.008   4.573  12.449 -0.1357 -0.3567  0.1798
10028SOL     OW31524   1.881   5.065   9.376 -0.2568  0.1347  0.6200
10028SOL    HW131525   1.845   5.143   9.418 -1.8004 -0.5116  0.5833
10028SOL    HW231526   1.812   4.999   9.384  1.5326 -1.7105  1.9270
10029SOL     OW31527   3.245   5.656  10.092  0.5421  0.1470  0.1601
10029SOL    HW131528   3.335   5.623  10.097  0.7573  0.8797  1.5811
10029SOL    HW231529   3.253   5.740  10.047  0.4748 -0.0590 -0.2445
10030SOL     OW31530   1.321   5.472  11.336 -0.5717 -0.4780 -0.3881
10030SOL    HW131531   1.256   5.433  11.278  0.8327 -1.9683 -1.0345
10030SOL    HW231532   1.340   5.404  11.401  0.8691 -0.3762 -0.6617
10031SOL     OW31533   3.529   5.838   9.469 -0.3664 -0.4068 -0.0690
10031SOL    HW131534   3.471   5.837   9.393  1.2133 -0.7674 -1.3307
10031SOL    HW231535   3.617   5.824   9.433  0.4279 -0.7541  1.8477
10032SOL     OW31536   3.739   5.154   8.278  0.2355 -0.8308 -0.1049
10032SOL    HW131537   3.728   5.061   8.259 -1.2778 -0.6005 -0.4676
10032SOL    HW231538   3.811   5.181   8.220  0.5143 -1.7141 -0.1871
10033SOL     OW31539   3.252   5.445  10.828 -0.0001 -0.4795  0.2444
10033SOL    HW131540   3.164   5.421  10.859 -0.9673  1.6293 -0.6487
10033SOL    HW231541   3.289   5.363  10.794 -2.0557 -1.2361 -0.3358
10034SOL     OW31542   1.516   0.319   9.530  0.0356 -0.4140 -0.2642
10034SOL    HW131543   1.611   0.313   9.517  0.3154 -0.0494  1.3485
10034SOL    HW231544   1.483   0.234   9.501  1.0945 -1.2234  0.7397
10035SOL     OW31545   1.724   6.288  10.156 -0.0831  0.1204 -0.0401
10035SOL    HW131546   1.811   6.326  10.169 -0.0574 -0.5118  1.9002
10035SOL    HW231547   1.740   6.210  10.103  0.4790  0.2298 -0.0397
10036SOL     OW31548   2.234   2.553  11.724 -0.1402  0.0532  0.5404
10036SOL    HW131549   2.176   2.534  11.650 -1.4712 -0.1265  1.5812
10036SOL    HW231550   2.255   2.646  11.715  0.6448 -0.2241 -0.6764
10037SOL     OW31551   2.364   3.594   8.562  0.0586  0.2232  0.2706
10037SOL    HW131552   2.403   3.511   8.590 -0.2222  0.0404  0.1234
10037SOL    HW231553   2.428   3.631   8.503  0.7173  0.6720  1.2352
10038SOL     OW31554   3.878   4.348   9.519  0.1241 -0.5769 -0.0460
10038SOL    HW131555   3.783   4.335   9.522  0.2364 -1.9567 -1.2647
10038SOL    HW231556   3.890   4.420   9.458 -0.0749 -1.9503 -1.7770
10039SOL     OW31557   1.152   4.806  10.184 -0.0949  0.2749  0.2474
10039SOL    HW131558   1.190   4.763  10.261  1.1995 -0.1108 -0.5761
10039SOL    HW231559   1.117   4.734  10.132 -0.7769  0.5191  0.3583
10040SOL     OW31560   1.395   5.294   9.505 -0.1293  0.6361 -0.1197
10040SOL    HW131561   1.448   5.228   9.550 -0.8030 -0.5651 -0.9992
10040SOL    HW231562   1.376   5.360   9.571 -2.0096 -1.5824  1.7399
10041SOL     OW31563   4.659   5.346  10.610  0.4667  0.3011 -0.0207
10041SOL    HW131564   4.589   5.344  10.676  0.0661 -1.8632 -0.4285
10041SOL    HW231565   4.645   5.267  10.558  2.1469  0.7727 -1.2824
10042SOL     OW31566   3.643   5.115  10.682  0.1099  0.3865  0.0431
10042SOL    HW131567   3.568   5.061  10.709  0.2425  0.0696 -0.2189
10042SOL    HW231568   3.650   5.100  10.588 -0.1281  1.2056 -0.1078
10043SOL     OW31569   3.903   7.323   9.201  0.5914 -0.3522 -0.1055
10043SOL    HW131570   3.933   7.305   9.112  2.5166  0.2827  0.3749
10043SOL    HW231571   3.883   7.417   9.200  1.5060 -0.1465  0.3596
10044SOL     OW31572   2.946   5.531   9.992 -0.5750  0.4301 -0.2904
10044SOL    HW131573   3.008   5.599   9.966 -2.0059  0.8898 -2.8376
10044SOL    HW231574   2.984   5.449   9.959  1.5183 -0.3112  3.4175
10045SOL     OW31575   3.286   2.736   9.029 -0.3944 -0.2031  0.1620
10045SOL    HW131576   3.320   2.778   9.108  2.3971  0.4558 -1.2459
10045SOL    HW231577   3.205   2.783   9.010  0.2081  1.3722  1.2460
10046SOL     OW31578   4.518   5.533  11.011 -0.8009  0.5600  0.1585
10046SOL    HW131579   4.455   5.475  10.969 -1.2694  1.2242 -0.0692
10046SOL    HW231580   4.602   5.510  10.972 -1.4153  2.1810 -2.2963
10047SOL     OW31581   4.582   5.049  10.500 -0.3373 -0.2110 -0.3784
10047SOL    HW131582   4.563   4.956  10.497 -0.0475 -0.2654 -0.4879
10047SOL    HW231583   4.547   5.084  10.418 -1.5431 -0.0161  0.1932
10048SOL     OW31584   3.382   5.822   9.252  0.1549  0.0031  0.0624
10048SOL    HW131585   3.419   5.867   9.175 -0.4727 -0.9055 -0.7920
10048SOL    HW231586   3.352   5.738   9.218  1.7788 -1.3265  1.7263
10049SOL     OW31587   2.269   6.042   9.597 -0.1029  0.2424 -0.4403
10049SOL    HW131588   2.175   6.045   9.576  0.0709 -0.0141 -1.2677
10049SOL    HW231589   2.307   6.115   9.548 -0.2289  1.9950  1.8924
10050SOL     OW31590   3.396   6.343  10.025 -0.4382  0.2657  0.6574
10050SOL    HW131591   3.340   6.296   9.963 -0.1214  2.3140 -1.3199
10050SOL    HW231592   3.418   6.424   9.979  1.7972  0.8055  2.5462
10051SOL     OW31593   2.527   4.607  10.868 -0.0062  0.7257 -0.4067
10051SOL    HW131594   2.547   4.649  10.784 -0.0635  0.7653 -0.3998
10051SOL    HW231595   2.512   4.516  10.846 -0.0553  0.7427 -0.4445
10052SOL     OW31596   3.272   5.771  11.141 -0.3029 -0.5632  0.0865
10052SOL    HW131597   3.196   5.714  11.129 -1.4116  0.9529 -0.4218
10052SOL    HW231598   3.238   5.859  11.129  1.5701  0.1666 -0.2229
10053SOL     OW31599   1.332   6.301   8.738  0.1725  0.2347 -0.3740
10053SOL    HW131600   1.408   6.329   8.789  0.5182  0.2586 -0.8894
10053SOL    HW231601   1.369   6.250   8.666 -0.1887  1.2940 -1.3510
10054SOL     OW31602   3.630   4.043  12.403 -0.3375  0.7162 -0.2902
10054SOL    HW131603   3.550   4.063  12.452 -1.5572 -2.8266 -0.4835
10054SOL    HW231604   3.598   4.022  12.315  0.9579  0.3635 -0.6868
10055SOL     OW31605   7.982   4.479   7.442 -0.1962 -0.2216  0.2964
10055SOL    HW131606   7.966   4.538   7.368 -0.7325 -1.5677 -0.7114
10055SOL    HW231607   7.932   4.518   7.514  1.0057  1.5748  0.2288
10056SOL     OW31608   3.979   6.166   9.889 -0.1077  0.4317 -0.0184
10056SOL    HW131609   4.007   6.138   9.802  0.3584  1.1185 -0.0996
10056SOL    HW231610   3.915   6.101   9.916 -1.3225  0.9804 -1.4739
10057SOL     OW31611   2.944   5.844   9.861 -0.0465  0.3645  0.4226
10057SOL    HW131612   2.890   5.864   9.937 -0.8902  2.5919 -0.6584
10057SOL    HW231613   2.954   5.928   9.816  1.6161 -0.6007 -1.1750
10058SOL     OW31614   2.056   4.634   9.779 -0.0639  0.0514 -0.7058
10058SOL    HW131615   2.003   4.711   9.799  0.1536  0.4492 -1.6241
10058SOL    HW231616   2.084   4.602   9.864 -1.7649 -0.1707 -0.1798
10059SOL     OW31617   1.702   5.889   7.268  0.1029  0.1257 -0.0044
10059SOL    HW131618   1.685   5.945   7.193 -0.3575  0.9634  0.7026
10059SOL    HW231619   1.618   5.846   7.286 -0.0643  0.7147  0.6520
10060SOL     OW31620   2.302   3.777   9.310  0.3567  0.2060  0.4866
10060SOL    HW131621   2.391   3.793   9.338  0.1934 -1.8027  2.3747
10060SOL    HW231622   2.311   3.735   9.224  1.1820  0.3637  0.4896
10061SOL     OW31623   1.475   5.144   9.995  0.1736  0.1534  0.3026
10061SOL    HW131624   1.503   5.176  10.081 -0.2888 -0.2678  0.6169
10061SOL    HW231625   1.412   5.075  10.015  2.3131 -2.1458 -0.2765
10062SOL     OW31626   1.437   4.253  10.330  0.1934 -0.2184  0.0381
10062SOL    HW131627   1.504   4.229  10.393  0.3775  1.3106  0.4782
10062SOL    HW231628   1.445   4.189  10.260  0.6631 -1.3418  1.0871
10063SOL     OW31629   3.325   4.716   8.091  0.1042 -0.0153 -0.1447
10063SOL    HW131630   3.264   4.782   8.058  0.9479  0.9731  0.2277
10063SOL    HW231631   3.343   4.661   8.015  0.1163  0.7576 -0.7156
10064SOL     OW31632   3.477   5.693  12.167  0.6523  0.6640  0.3658
10064SOL    HW131633   3.429   5.771  12.139 -0.2537  0.5906  1.6091
10064SOL    HW231634   3.502   5.649  12.086 -0.2700  1.3902 -0.3331
10065SOL     OW31635   4.796   4.402  11.458 -0.5122 -0.0407  0.8644
10065SOL    HW131636   4.840   4.427  11.377 -0.7882  2.6548  1.4724
10065SOL    HW231637   4.706   4.385  11.432 -0.0420 -1.8992  0.2389
10066SOL     OW31638   1.606   4.627   9.234  0.1275 -0.2223  0.4729
10066SOL    HW131639   1.559   4.575   9.170 -0.4930  1.3398 -0.3979
10066SOL    HW231640   1.684   4.658   9.187 -1.0453  2.1174 -0.0923
10067SOL     OW31641   2.949   4.355   9.599 -0.0294 -0.2045 -0.3032
10067SOL    HW131642   3.018   4.399   9.548 -0.6727  3.0620  1.3829
10067SOL    HW231643   2.995   4.319   9.675  0.0224  0.8752  0.1906
10068SOL     OW31644   2.902   3.482   9.505 -0.2043 -0.2803  0.0171
10068SOL    HW131645   2.940   3.428   9.436 -0.5034  0.0483 -0.4131
10068SOL    HW231646   2.901   3.425   9.582  0.4365 -0.5418 -0.1623
10069SOL     OW31647   4.268   4.497  10.539 -0.3027  0.0969  0.3203
10069SOL    HW131648   4.222   4.561  10.484 -0.5222 -0.2191  0.1364
10069SOL    HW231649   4.286   4.544  10.621  1.0354  0.9414 -0.4281
10070SOL     OW31650   1.261   4.468   9.884 -0.3431  0.6653  0.3930
10070SOL    HW131651   1.209   4.393   9.856 -0.4884 -0.0679  2.4588
10070SOL    HW231652   1.349   4.450   9.852 -0.1715 -0.8848  1.6179
10071SOL     OW31653   2.434   7.133   9.771  0.0421  0.2972  0.0902
10071SOL    HW131654   2.344   7.168   9.774  0.2427  0.8890 -0.5170
10071SOL    HW231655   2.489   7.211   9.767  0.4816 -0.0790 -2.1102
10072SOL     OW31656   2.721   1.925  10.896  0.2083 -0.3057  0.0690
10072SOL    HW131657   2.780   1.984  10.849 -0.4501 -0.8499 -1.4958
10072SOL    HW231658   2.750   1.837  10.871  0.1613 -0.6172  1.0896
10073SOL     OW31659   2.352   4.029   7.096  0.1909  0.2110  0.2268
10073SOL    HW131660   2.371   4.049   7.004 -0.5154  0.9966  0.2335
10073SOL    HW231661   2.370   4.111   7.142 -1.7200  0.5665  0.4316
10074SOL     OW31662   3.073   4.955   9.284 -0.0715  0.2574 -0.6155
10074SOL    HW131663   3.159   4.996   9.272  0.4989 -0.8119 -0.4059
10074SOL    HW231664   3.080   4.873   9.235 -0.4870 -0.4852  0.5344
10075SOL     OW31665   3.190   5.326   9.219 -0.1639 -0.3365 -0.3473
10075SOL    HW131666   3.183   5.320   9.315 -0.5054 -0.2272 -0.3639
10075SOL    HW231667   3.273   5.283   9.199  0.9165  1.4203  0.1741
10076SOL     OW31668   2.789   4.481   8.062  0.3088  0.1204 -0.1921
10076SOL    HW131669   2.823   4.414   8.002  0.3243 -0.2513  0.2308
10076SOL    HW231670   2.794   4.562   8.011  0.1723 -0.2148 -0.7530
10077SOL     OW31671   2.182   6.115   8.557  0.2878 -0.3788  0.6379
10077SOL    HW131672   2.128   6.180   8.602  0.5642  1.8178 -1.9154
10077SOL    HW231673   2.129   6.036   8.555 -0.3839 -0.0645  3.2161
10078SOL     OW31674   2.578   4.922   9.779 -0.0386  0.1489 -0.1087
10078SOL    HW131675   2.641   4.923   9.707 -2.1554  1.6935 -2.0795
10078SOL    HW231676   2.578   4.831   9.809  4.6452  0.4118  1.6208
10079SOL     OW31677   2.983   6.729   8.429  0.2639 -0.2019 -0.6679
10079SOL    HW131678   2.995   6.639   8.397  0.1053 -0.4953  0.0758
10079SOL    HW231679   2.979   6.782   8.350 -0.9918 -1.0113 -1.1751
10080SOL     OW31680   3.216   0.132   9.273  0.3136  0.4845 -0.3789
10080SOL    HW131681   3.163   0.061   9.236  0.7916 -0.1218  0.0686
10080SOL    HW231682   3.283   0.087   9.324  0.5938  1.2684 -0.0414
10081SOL     OW31683   2.075   5.213  10.214 -0.4926  0.2053 -0.0803
10081SOL    HW131684   2.125   5.132  10.211  0.1012  0.5386 -3.6771
10081SOL    HW231685   1.984   5.185  10.227 -0.3179 -1.0917 -1.3943
10082SOL     OW31686   2.132   4.820   9.472 -0.2064  0.4372  0.2446
10082SOL    HW131687   2.116   4.840   9.564 -0.4468 -0.2169  0.3498
10082SOL    HW231688   2.126   4.905   9.428 -2.1072  0.5034  0.5444
10083SOL     OW31689   0.654   4.960  10.860  0.3402 -0.3092  0.4360
10083SOL    HW131690   0.674   5.019  10.788  2.6933  1.0484  2.0534
10083SOL    HW231691   0.674   4.873  10.826 -1.3076 -0.0749 -1.3591
10084SOL     OW31692   4.404   4.595  11.431  0.5151 -0.1775 -0.2734
10084SOL    HW131693   4.481   4.622  11.481 -1.0722 -0.1031  2.2737
10084SOL    HW231694   4.425   4.506  11.403  2.3248  0.5527 -1.4323
10085SOL     OW31695   2.351   6.502   9.858  0.0259 -0.0903  0.3122
10085SOL    HW131696   2.378   6.410   9.864  0.1098 -0.1252 -0.4453
10085SOL    HW231697   2.370   6.539   9.944 -0.8265 -0.9984  0.9173
10086SOL     OW31698   2.868   4.429  11.489  0.0986  0.4861  0.3398
10086SOL    HW131699   2.808   4.389  11.426  0.4392  1.3790 -0.5684
10086SOL    HW231700   2.935   4.362  11.504 -0.3268  0.0344  0.2402
10087SOL     OW31701   2.736   5.681  10.659 -0.1703  0.1349 -0.2544
10087SOL    HW131702   2.818   5.689  10.611 -0.0165 -1.1428 -0.2375
10087SOL    HW231703   2.671   5.659  10.591 -0.5137  1.1832 -0.2757
10088SOL     OW31704   1.711   5.705   9.747 -0.1127 -0.5556 -0.1279
10088SOL    HW131705   1.701   5.631   9.686 -0.3397 -0.5801 -0.0613
10088SOL    HW231706   1.622   5.728   9.772 -0.0107 -0.6515  0.3277
10089SOL     OW31707   2.832   4.535  10.704  0.1739 -0.4538 -0.7443
10089SOL    HW131708   2.803   4.531  10.796  1.8857 -2.0724 -0.2258
10089SOL    HW231709   2.783   4.465  10.661 -1.3186  0.8898 -1.3308
10090SOL     OW31710   0.821   3.897   9.984 -0.4203 -0.4064 -0.4576
10090SOL    HW131711   0.831   3.922  10.076 -1.1090  0.8176 -0.7077
10090SOL    HW231712   0.748   3.949   9.952 -0.4553 -1.1201 -1.6033
10091SOL     OW31713   2.223   3.085  12.115 -0.3843  0.3990 -0.0771
10091SOL    HW131714   2.316   3.072  12.094 -1.2381 -3.1856 -2.6177
10091SOL    HW231715   2.192   2.997  12.138 -3.5548  1.0531 -1.3962
10092SOL     OW31716   7.893   3.630   8.094  0.1114  0.0244  0.2682
10092SOL    HW131717   7.836   3.682   8.038  0.4119 -0.5302 -0.5747
10092SOL    HW231718   7.835   3.596   8.162 -0.8267 -1.4071 -1.1755
10093SOL     OW31719   3.139   6.339   8.973  0.4082 -0.3712  0.6943
10093SOL    HW131720   3.060   6.371   8.928 -0.2367 -0.5501  1.6585
10093SOL    HW231721   3.148   6.398   9.048  2.0022  0.5032 -0.1364
10094SOL     OW31722   1.361   5.479   9.701  0.3270 -0.0891  0.0500
10094SOL    HW131723   1.312   5.560   9.715  0.0558 -0.1456 -0.5366
10094SOL    HW231724   1.299   5.410   9.725  0.6789 -0.1226  0.9063
10095SOL     OW31725   2.969   7.551  10.467 -0.4326  0.0444  0.2772
10095SOL    HW131726   3.006   7.628  10.424  1.2115 -0.3970  0.8367
10095SOL    HW231727   2.946   7.581  10.555  0.6226 -0.1903  0.6449
10096SOL     OW31728   3.074   4.170   1.069 -0.4052  0.5631  0.6749
10096SOL    HW131729   3.031   4.117   1.137 -0.1146 -0.2561  0.2313
10096SOL    HW231730   3.163   4.183   1.102  0.2728 -1.2529 -0.2556
10097SOL     OW31731   3.019   3.575  10.376  0.1550 -0.0170  0.0676
10097SOL    HW131732   2.940   3.542  10.333 -0.4545  1.1585  0.2222
10097SOL    HW231733   3.027   3.665  10.344  2.7067 -0.7704 -1.6527
10098SOL     OW31734   1.837   5.782  11.989  0.2287 -0.3413  0.3743
10098SOL    HW131735   1.920   5.764  11.944 -0.2769  0.4175 -0.9366
10098SOL    HW231736   1.771   5.779  11.920 -0.9004 -1.2255  1.4481
10099SOL     OW31737   4.479   6.101  11.515  0.0882 -0.2055 -0.0876
10099SOL    HW131738   4.448   6.030  11.459 -0.5669  0.2141 -0.2660
10099SOL    HW231739   4.518   6.057  11.591 -0.8688 -0.7513  0.0974
10100SOL     OW31740   2.896   4.953   8.484 -0.0342  0.2167  0.0055
10100SOL    HW131741   2.814   4.940   8.531 -0.9503 -0.2519 -1.6309
10100SOL    HW231742   2.928   4.865   8.465  1.2380  0.3780  1.1900
10101SOL     OW31743   1.841   4.936   7.761  0.8567 -0.7572 -0.5084
10101SOL    HW131744   1.788   4.878   7.815 -0.7078  0.8954 -0.1626
10101SOL    HW231745   1.816   4.916   7.671  0.0561 -0.3977 -0.3723
10102SOL     OW31746   3.078   4.266  10.289  0.1444 -0.5352 -0.4173
10102SOL    HW131747   3.112   4.316  10.215 -0.3010  0.7254  0.1949
10102SOL    HW231748   2.984   4.257  10.270 -0.2790  1.1551  0.7085
10103SOL     OW31749   2.537   3.069  11.458 -0.1957 -0.1902  0.0597
10103SOL    HW131750   2.480   3.040  11.387  1.9358 -1.5000 -1.2622
10103SOL    HW231751   2.606   3.119  11.414  0.5741 -0.0738  1.3552
10104SOL     OW31752   2.173   4.246   9.009 -0.3140  0.6898  0.2710
10104SOL    HW131753   2.221   4.164   9.024 -0.6497 -0.0951 -2.4992
10104SOL    HW231754   2.242   4.312   8.999 -0.0132  0.5689  1.3594
10105SOL     OW31755   2.019   7.553  10.246 -0.0428  0.3606 -0.8280
10105SOL    HW131756   1.926   7.568  10.264 -0.3187  0.6072 -2.3111
10105SOL    HW231757   2.022   7.532  10.153  1.5036  1.3525 -1.0434
10106SOL     OW31758   5.188   4.901  10.734  1.0438 -0.5189  0.2360
10106SOL    HW131759   5.193   4.886  10.640  3.7973 -0.1957  0.2389
10106SOL    HW231760   5.095   4.895  10.755  0.4772 -1.8963 -2.2741
10107SOL     OW31761   2.373   5.143   8.704  0.0403  0.4318  0.3757
10107SOL    HW131762   2.429   5.202   8.755  0.9276 -0.3750  0.3451
10107SOL    HW231763   2.385   5.057   8.744  1.8466 -0.5337 -1.9548
10108SOL     OW31764   2.400   6.801   9.734 -0.7403  0.3223  0.0613
10108SOL    HW131765   2.407   6.707   9.752 -1.8500  0.3401  0.6912
10108SOL    HW231766   2.430   6.811   9.644 -0.8564 -0.6810 -0.1005
10109SOL     OW31767   3.903   4.430  10.624  0.3348  0.3949 -0.0550
10109SOL    HW131768   3.912   4.390  10.538  1.4996 -0.8732  0.6216
10109SOL    HW231769   3.812   4.413  10.649  0.1864  0.1750 -0.7391
10110SOL     OW31770   7.919   5.175  10.369  0.2082  0.0987  0.1614
10110SOL    HW131771   7.855   5.189  10.439 -0.4030 -1.3043 -0.0966
10110SOL    HW231772   7.879   5.110  10.311  2.1927 -1.5353  0.4935
10111SOL     OW31773   1.715   6.236  10.615  0.1380  0.6205  0.6009
10111SOL    HW131774   1.673   6.166  10.565  0.8751 -0.5250  1.5369
10111SOL    HW231775   1.642   6.291  10.644 -0.3508  0.9575 -1.1536
10112SOL     OW31776   2.939   2.074  10.846 -0.2276 -0.2625 -0.4307
10112SOL    HW131777   2.966   2.055  10.936 -2.1979  0.7010  0.4430
10112SOL    HW231778   3.007   2.132  10.812 -0.5149  1.1855  1.2636
10113SOL     OW31779   1.065   3.391   9.451  0.7945 -0.4728 -0.2518
10113SOL    HW131780   1.093   3.309   9.409 -0.5873 -0.2500 -1.7332
10113SOL    HW231781   1.146   3.438   9.467  1.4713 -0.9606 -1.9567
10114SOL     OW31782   2.245   0.095   9.263 -0.2014  0.1870  0.1868
10114SOL    HW131783   2.285   0.137   9.187 -0.7077  0.3908  0.0261
10114SOL    HW231784   2.154   0.125   9.261 -0.7238 -1.3621 -0.2465
10115SOL     OW31785   1.169   3.599   9.819 -0.1043 -0.3271 -0.4151
10115SOL    HW131786   1.156   3.585   9.913 -0.0707 -1.8442 -0.6216
10115SOL    HW231787   1.122   3.681   9.802  1.5798  1.0784  1.2745
10116SOL     OW31788   4.003   5.602  10.729 -0.0357 -0.4022 -0.1430
10116SOL    HW131789   3.933   5.576  10.668 -0.0300 -0.0336 -0.3094
10116SOL    HW231790   4.002   5.534  10.796  0.5153 -1.2806 -0.9943
10117SOL     OW31791   2.940   6.971   9.978 -0.4321 -0.3962  1.1498
10117SOL    HW131792   2.941   6.974   9.883 -2.0950  2.8080  1.1053
10117SOL    HW231793   3.002   6.902  10.001  0.2572 -1.0332 -2.2103
10118SOL     OW31794   2.114   4.594  10.261  0.5434  0.3780  0.4868
10118SOL    HW131795   2.025   4.563  10.277 -0.0856  1.0481 -1.4537
10118SOL    HW231796   2.136   4.560  10.174  1.6915  1.3051  0.3890
10119SOL     OW31797   4.323   4.602  10.806 -0.1596  0.1376 -0.2412
10119SOL    HW131798   4.325   4.610  10.901 -0.9455  1.1342 -0.2938
10119SOL    HW231799   4.381   4.671  10.774 -1.2149  0.9301 -0.5096
10120SOL     OW31800   1.485   5.448  10.867 -0.6538  0.3963 -0.0988
10120SOL    HW131801   1.493   5.501  10.946 -0.5066  0.3234 -0.0648
10120SOL    HW231802   1.451   5.364  10.898  0.6912 -0.1025  0.0718
10121SOL     OW31803   4.907   5.182  10.126  0.4958  0.6521  0.5662
10121SOL    HW131804   4.968   5.151  10.059  0.4644 -0.7030  1.1371
10121SOL    HW231805   4.821   5.179  10.084  0.3944 -0.8076  0.8453
10122SOL     OW31806   2.647   6.733  10.156  0.2043  0.4654 -0.3118
10122SOL    HW131807   2.562   6.689  10.157 -0.0069  0.8400 -0.9618
10122SOL    HW231808   2.629   6.819  10.116  0.7668  0.8033  0.1445
10123SOL     OW31809   1.606   5.257  10.210 -0.8566  0.2359  0.0866
10123SOL    HW131810   1.540   5.292  10.269 -2.5482 -0.6457 -1.1849
10123SOL    HW231811   1.645   5.335  10.169  1.6135  0.9948  3.4594
10124SOL     OW31812   4.404   6.554  10.364 -0.1071 -0.2525 -0.3238
10124SOL    HW131813   4.401   6.650  10.355  1.9164 -0.1360 -0.3683
10124SOL    HW231814   4.398   6.522  10.275  0.5022 -0.0765 -0.4369
10125SOL     OW31815   0.496   5.387   9.543 -0.1270  0.6819 -0.2786
10125SOL    HW131816   0.467   5.374   9.452 -1.8411 -2.2350  0.5211
10125SOL    HW231817   0.526   5.300   9.571 -1.0103  1.1208  2.3349
10126SOL     OW31818   2.457   4.778  11.271 -0.2190  0.4815  0.0973
10126SOL    HW131819   2.388   4.842  11.291 -0.1040  0.3279  1.0554
10126SOL    HW231820   2.523   4.793  11.339 -0.9039 -1.7122  1.3541
10127SOL     OW31821   1.746   3.518  10.741 -0.0980 -0.3427 -0.4986
10127SOL    HW131822   1.824   3.465  10.727 -0.1350 -1.0413  1.5193
10127SOL    HW231823   1.679   3.455  10.768 -1.0965  0.3579 -1.2813
10128SOL     OW31824   3.991   1.996   0.035 -0.1618  0.1561  0.4856
10128SOL    HW131825   4.087   1.987   0.033 -0.3337 -3.3223  0.4229
10128SOL    HW231826   3.964   1.980  -0.055 -0.8048  3.5014 -0.0245
10129SOL     OW31827   2.110   6.346  11.810 -0.6907 -0.0164 -0.3929
10129SOL    HW131828   2.101   6.251  11.801 -0.2973 -0.4197  2.5075
10129SOL    HW231829   2.195   6.366  11.771  0.2623 -1.2658  0.9464
10130SOL     OW31830   2.497   3.797  11.472 -0.1326  0.4219 -0.2008
10130SOL    HW131831   2.547   3.839  11.542  0.5467  1.2091 -1.1369
10130SOL    HW231832   2.475   3.711  11.506  1.1073  0.3963  0.5623
10131SOL     OW31833   5.036   6.158  11.496  0.6226  0.0969  0.0464
10131SOL    HW131834   4.971   6.153  11.426  1.5830 -1.5353 -0.7851
10131SOL    HW231835   5.070   6.247  11.492 -0.8773  0.6858 -0.1148
10132SOL     OW31836   2.023   5.587  12.375  0.5581  0.0994 -0.0036
10132SOL    HW131837   1.996   5.541  12.295  1.3589 -0.5594  0.0842
10132SOL    HW231838   1.964   5.661  12.381 -0.4294 -0.6263 -0.4483
10133SOL     OW31839   4.080   4.461  11.222 -0.5360 -0.1087 -0.1115
10133SOL    HW131840   4.039   4.525  11.164 -0.2964 -1.3469 -1.6967
10133SOL    HW231841   4.090   4.382  11.169  2.8450 -0.2589  0.4938
10134SOL     OW31842   1.725   5.880   0.740  0.1718  0.0056 -0.2564
10134SOL    HW131843   1.763   5.824   0.672 -0.0927 -0.6019  0.0800
10134SOL    HW231844   1.755   5.840   0.822  0.5789  0.7923 -0.0076
10135SOL     OW31845   4.745   2.834  11.988 -0.0364 -0.6974 -0.1132
10135SOL    HW131846   4.835   2.857  11.967 -0.3739 -0.4275 -1.3093
10135SOL    HW231847   4.738   2.741  11.965 -0.4300 -0.3803 -1.3185
10136SOL     OW31848   1.545   5.379   9.034  0.4852  0.1823 -0.4412
10136SOL    HW131849   1.607   5.417   9.097  1.8726 -0.5462 -1.3034
10136SOL    HW231850   1.559   5.429   8.953  1.0407 -0.9258 -1.0637
10137SOL     OW31851   1.403   3.891  12.209 -0.0258 -0.3624  0.8442
10137SOL    HW131852   1.308   3.879  12.207 -0.2858  1.5160 -0.8652
10137SOL    HW231853   1.417   3.959  12.274  0.0389  0.1168  0.3321
10138SOL     OW31854   2.129   5.046   9.299 -0.4712 -0.0788 -0.2798
10138SOL    HW131855   2.137   5.028   9.205  0.8447 -0.3077 -0.1488
10138SOL    HW231856   2.035   5.043   9.316 -0.6959 -0.6144 -1.4791
10139SOL     OW31857   3.216   2.864  10.846  0.1569  0.0601 -0.7494
10139SOL    HW131858   3.131   2.884  10.806 -1.4735 -0.9792  1.9019
10139SOL    HW231859   3.224   2.769  10.839 -1.6432 -0.6342  3.6301
10140SOL     OW31860   2.068   3.325  11.619  0.1720 -0.3213 -0.1385
10140SOL    HW131861   2.068   3.415  11.588 -1.0027 -0.4874 -0.6858
10140SOL    HW231862   2.132   3.281  11.564  0.4455  0.0955 -0.1552
10141SOL     OW31863   3.830   6.216  12.313  0.0818 -0.5081 -0.0516
10141SOL    HW131864   3.916   6.177  12.331  0.1720 -0.5648 -0.5944
10141SOL    HW231865   3.801   6.175  12.232  1.0948  2.0232 -1.8012
10142SOL     OW31866   3.874   5.032  12.158 -0.2173 -0.1979 -0.1320
10142SOL    HW131867   3.849   5.121  12.135 -1.3221 -0.0126  1.5616
10142SOL    HW231868   3.839   5.020  12.246  0.8472 -1.9473  0.0957
10143SOL     OW31869   3.201   3.778  11.223  0.0847  0.1691 -0.5996
10143SOL    HW131870   3.286   3.809  11.191  0.5329 -1.3538 -0.9908
10143SOL    HW231871   3.223   3.719  11.295 -0.5552 -0.9268 -1.2659
10144SOL     OW31872   2.458   3.371  11.841 -0.3155 -0.1452 -0.0136
10144SOL    HW131873   2.536   3.399  11.888 -1.0207  1.3939  0.2935
10144SOL    HW231874   2.487   3.296  11.789  1.7576  1.3142 -1.1132
10145SOL     OW31875   2.408   5.026  10.198 -0.5721  0.1584  0.4102
10145SOL    HW131876   2.418   4.934  10.221  1.1773 -0.3652 -2.0538
10145SOL    HW231877   2.316   5.035  10.172 -0.2049 -1.6159 -1.8215
10146SOL     OW31878   0.378   5.642  11.281  0.0440 -0.0028 -0.3474
10146SOL    HW131879   0.428   5.659  11.361 -1.2793  1.6244  0.1785
10146SOL    HW231880   0.391   5.720  11.227 -2.6548  0.9636  0.2414
10147SOL     OW31881   0.902   3.231  12.206 -0.0222  0.6284 -0.0739
10147SOL    HW131882   0.904   3.148  12.159 -0.9217 -0.6331  1.9991
10147SOL    HW231883   0.977   3.280  12.172  1.1904 -1.4697 -0.5702
10148SOL     OW31884   1.587   4.759  10.250  0.1953 -0.0452 -0.2186
10148SOL    HW131885   1.660   4.759  10.312 -0.7524  0.3241  0.9427
10148SOL    HW231886   1.614   4.819  10.181  1.3146 -0.5277 -0.2137
10149SOL     OW31887   2.471   4.915   0.018  0.1575  0.9191  0.1227
10149SOL    HW131888   2.501   4.902   0.108  0.2686  0.4144  0.0169
10149SOL    HW231889   2.383   4.952   0.027 -0.0297  0.4067  0.4424
10150SOL     OW31890   4.796   3.190   0.455 -0.0553  0.7197 -0.2166
10150SOL    HW131891   4.756   3.117   0.502 -1.1990  0.4845 -1.5069
10150SOL    HW231892   4.885   3.160   0.435 -0.1447  0.1352  0.2364
10151SOL     OW31893   3.743   3.108  11.278 -0.4348 -0.7530 -0.4079
10151SOL    HW131894   3.678   3.116  11.348  1.0105  0.9699  0.8118
10151SOL    HW231895   3.800   3.184  11.289  1.2398 -1.7045 -2.0112
10152SOL     OW31896   3.950   3.931   9.857  0.3009  0.0716  0.6088
10152SOL    HW131897   3.976   3.990   9.929  2.0597 -0.9538  0.8584
10152SOL    HW231898   3.998   3.963   9.781 -0.3500  0.1888  0.2344
10153SOL     OW31899   2.926   6.024  10.529 -0.3501 -0.5689 -0.3337
10153SOL    HW131900   2.952   6.007  10.620  0.0342 -1.0228 -0.5203
10153SOL    HW231901   2.961   5.949  10.481  0.0419  0.0120 -0.9607
10154SOL     OW31902   4.356   7.231   9.191  0.3468 -0.2779 -0.5156
10154SOL    HW131903   4.334   7.165   9.256  0.6930  0.9056  0.8485
10154SOL    HW231904   4.437   7.199   9.150  1.1459 -0.1749  0.9287
10155SOL     OW31905   1.205   5.853  10.404 -0.3593  0.0495 -0.2113
10155SOL    HW131906   1.243   5.832  10.489 -1.5910  0.4310  0.4609
10155SOL    HW231907   1.270   5.909  10.361  0.6367 -0.8355  0.1309
10156SOL     OW31908   3.075   4.756   0.561  0.2241  0.1844  0.2588
10156SOL    HW131909   3.129   4.738   0.484  0.1061  1.9846 -0.3117
10156SOL    HW231910   3.130   4.811   0.617  0.3884 -1.2886  1.6070
10157SOL     OW31911   1.324   5.250  10.953  0.0117  0.3080  0.5279
10157SOL    HW131912   1.262   5.291  11.013  0.2962  0.7874  0.4934
10157SOL    HW231913   1.330   5.159  10.984 -2.0020 -0.2351 -0.4905
10158SOL     OW31914   2.670   4.084  10.071 -0.2361  0.5302 -0.1466
10158SOL    HW131915   2.759   4.048  10.070 -0.7301 -0.7957  0.4013
10158SOL    HW231916   2.679   4.172  10.034  1.0973 -0.0285 -1.2606
10159SOL     OW31917   2.477   4.012   0.542 -0.2994  0.1044 -0.3610
10159SOL    HW131918   2.561   4.038   0.504  1.1795 -1.2355  1.8282
10159SOL    HW231919   2.413   4.065   0.494  1.4903 -0.4375 -3.7010
10160SOL     OW31920   2.782   4.764  12.280 -0.6582 -0.1676 -0.0414
10160SOL    HW131921   2.761   4.719  12.362 -0.2930  1.0128  0.7352
10160SOL    HW231922   2.696   4.792  12.247 -1.0269 -2.4727 -1.2151
10161SOL     OW31923   3.030   3.957   9.899 -0.3804  0.8984  0.5659
10161SOL    HW131924   3.074   3.916   9.973 -1.0950 -0.0953  0.4732
10161SOL    HW231925   3.076   3.923   9.822 -1.5238 -0.5212  0.4436
10162SOL     OW31926   1.624   4.590  11.343 -0.3144  0.4349 -0.6505
10162SOL    HW131927   1.650   4.499  11.351 -0.9907  0.3625  1.1447
10162SOL    HW231928   1.703   4.640  11.367 -0.4730  0.2787  0.2300
10163SOL     OW31929   4.869   4.215  10.886  0.1230 -0.3005  0.2192
10163SOL    HW131930   4.838   4.126  10.901 -1.1455 -0.1646 -1.2724
10163SOL    HW231931   4.895   4.247  10.972  1.3697 -2.3741  0.6692
10164SOL     OW31932   3.168   3.799   0.585  0.0091  0.1595  0.0785
10164SOL    HW131933   3.082   3.799   0.627  0.3334 -1.3839  0.8589
10164SOL    HW231934   3.215   3.870   0.627 -1.1055  1.5434 -0.9221
10165SOL     OW31935   2.786   3.425  10.345  0.1991 -0.0154  0.2673
10165SOL    HW131936   2.849   3.367  10.302  1.0787 -0.8066  2.4809
10165SOL    HW231937   2.700   3.389  10.321  0.5583  0.3460 -1.7842
10166SOL     OW31938   3.339   4.378  11.108 -0.1905  0.0877  0.4957
10166SOL    HW131939   3.430   4.394  11.136  0.7722 -1.4739 -1.4609
10166SOL    HW231940   3.312   4.459  11.065  1.3695 -0.3460 -1.4481
10167SOL     OW31941   4.240   6.234  11.806  0.0610 -0.4115  0.8174
10167SOL    HW131942   4.229   6.204  11.716  0.3309  0.5269  0.4602
10167SOL    HW231943   4.172   6.189  11.856  0.4447 -1.5914  0.3038
10168SOL     OW31944   3.342   5.269   9.854 -0.1023 -0.3389  0.6463
10168SOL    HW131945   3.379   5.202   9.797  1.3627  1.1284 -0.2218
10168SOL    HW231946   3.410   5.284   9.921 -0.1010  0.7280  0.4253
10169SOL     OW31947   3.817   2.458  10.469  0.0129 -0.2946  0.0920
10169SOL    HW131948   3.766   2.390  10.514 -0.4550 -0.0277 -0.0226
10169SOL    HW231949   3.821   2.530  10.532 -1.1375  0.3047 -0.4768
10170SOL     OW31950   2.238   4.974  11.096 -0.1128 -0.1835 -0.2552
10170SOL    HW131951   2.168   5.039  11.086 -1.0196 -0.9226  0.9099
10170SOL    HW231952   2.221   4.911  11.027 -0.3678 -0.1484 -0.2281
10171SOL     OW31953   1.816   6.062  10.932  0.3998 -0.1799  0.1898
10171SOL    HW131954   1.759   5.990  10.907 -1.1225  1.7104 -2.1453
10171SOL    HW231955   1.883   6.065  10.863  1.7516 -0.6349  1.4210
10172SOL     OW31956   2.365   5.542   9.673 -0.1077  0.2824  0.2272
10172SOL    HW131957   2.378   5.447   9.666  0.7351  0.3771  0.3709
10172SOL    HW231958   2.395   5.563   9.762 -1.1349  0.5582  0.5220
10173SOL     OW31959   2.686   4.194  10.968 -0.5374 -0.0476  0.2406
10173SOL    HW131960   2.609   4.201  11.024  1.0904  0.7707  2.5161
10173SOL    HW231961   2.715   4.103  10.978 -0.0988  0.1633  1.0167
10174SOL     OW31962   2.780   3.621  11.948  0.0680 -0.4823 -0.3542
10174SOL    HW131963   2.840   3.640  12.020 -0.7937  2.3488 -0.2636
10174SOL    HW231964   2.833   3.632  11.869 -0.2913  2.5532 -0.2979
10175SOL     OW31965   1.998   5.598  10.925  0.1019 -0.1381  0.1634
10175SOL    HW131966   1.941   5.521  10.913  1.1238 -0.6978 -1.4567
10175SOL    HW231967   2.018   5.598  11.019  0.4660 -2.1808  0.1481
10176SOL     OW31968   2.573   4.653   9.348  0.4933  0.2960 -0.0379
10176SOL    HW131969   2.561   4.646   9.254 -0.3927  0.0931  0.0880
10176SOL    HW231970   2.647   4.714   9.358  1.3163 -0.5355 -0.8748
10177SOL     OW31971   2.908   4.962   9.874 -0.0084  0.1875  0.1255
10177SOL    HW131972   2.891   4.883   9.824  0.3209  0.0200  0.2799
10177SOL    HW231973   2.851   4.955   9.951  0.1006  0.0525  0.1930
10178SOL     OW31974   2.278   3.917  11.378 -0.9000 -0.2480  0.1697
10178SOL    HW131975   2.250   3.864  11.303  0.5011  0.8477 -1.1783
10178SOL    HW231976   2.363   3.880  11.402  0.1542  1.3790 -0.8653
10179SOL     OW31977   1.773   2.049  10.918  0.6777  0.1327  0.5172
10179SOL    HW131978   1.784   1.960  10.886 -0.8290  0.0492  0.1667
10179SOL    HW231979   1.791   2.044  11.012  0.5241 -0.5472  0.5090
10180SOL     OW31980   4.326   5.936  12.316  0.1915  0.1311  0.2150
10180SOL    HW131981   4.384   5.966  12.246  0.9789 -0.4295  0.6101
10180SOL    HW231982   4.365   5.972  12.396 -0.9594  1.1548  0.3310
10181SOL     OW31983   4.134   5.902  10.411  0.0751 -0.2320 -0.0820
10181SOL    HW131984   4.105   5.813  10.392 -2.0138  0.3157  0.2696
10181SOL    HW231985   4.098   5.921  10.498  0.2015  1.0747 -0.2942
10182SOL     OW31986   3.367   3.792  10.658 -0.2165  0.2190 -0.1548
10182SOL    HW131987   3.459   3.809  10.678 -0.2272  0.3033 -0.1813
10182SOL    HW231988   3.365   3.778  10.564 -0.0385 -0.9489 -0.0084
10183SOL     OW31989   5.111   3.015   1.507  0.0255  0.1040  0.5553
10183SOL    HW131990   5.178   2.998   1.573 -0.8046  0.2992  1.4621
10183SOL    HW231991   5.031   3.028   1.556 -0.3717  1.5290 -0.4107
10184SOL     OW31992   2.566   3.937  10.774  0.5639  0.8232  0.0234
10184SOL    HW131993   2.491   3.943  10.715  0.2880  0.1725  0.3013
10184SOL    HW231994   2.531   3.960  10.860  1.3646  3.7072 -0.3175
10185SOL     OW31995   3.221   2.586  10.855 -0.2845 -0.2053 -0.3402
10185SOL    HW131996   3.151   2.570  10.918 -1.7408 -0.6870 -2.0053
10185SOL    HW231997   3.290   2.524  10.880 -0.7952 -0.3523  0.7859
10186SOL     OW31998   3.496   4.083  10.569  0.0213  0.2734 -0.0717
10186SOL    HW131999   3.402   4.091  10.555 -0.0190  0.5876  0.3777
10186SOL    HW232000   3.533   4.084  10.481 -0.3128  1.1550 -0.2144
10187SOL     OW32001   4.603   3.663  11.262 -0.3102  0.2020 -0.1967
10187SOL    HW132002   4.532   3.652  11.326 -0.0145 -0.0897  0.0891
10187SOL    HW232003   4.676   3.694  11.314  0.1601 -0.7582 -0.2539
10188SOL     OW32004   2.434   4.591  12.153  0.1951 -0.4020 -0.2840
10188SOL    HW132005   2.508   4.570  12.096  1.1544 -2.7178  1.6593
10188SOL    HW232006   2.472   4.645  12.223  0.5236 -2.8379  1.5519
10189SOL     OW32007   2.957   6.136  11.201 -0.9075 -0.3121 -0.4653
10189SOL    HW132008   2.960   6.150  11.296  0.3598  0.4591 -0.5919
10189SOL    HW232009   2.864   6.126  11.181 -1.1948 -0.4955  0.8575
10190SOL     OW32010   2.989   4.935  10.844  0.0713 -0.1928  0.2662
10190SOL    HW132011   2.940   4.896  10.771  1.0852 -0.1841 -0.4404
10190SOL    HW232012   2.994   4.865  10.909  0.2205 -0.6149 -0.1931
10191SOL     OW32013   3.008   4.692  10.438 -0.1795 -0.3233 -0.2534
10191SOL    HW132014   3.027   4.786  10.439  0.4613 -0.4446 -0.3725
10191SOL    HW232015   3.036   4.661  10.525 -0.9456 -0.2998  0.0031
10192SOL     OW32016   1.825   4.033  11.560  0.6423 -0.1732  0.0325
10192SOL    HW132017   1.849   3.961  11.617  1.2511 -0.5117 -0.6381
10192SOL    HW232018   1.907   4.077  11.540  0.6333 -0.8086 -1.5643
10193SOL     OW32019   2.078   4.085  10.490  0.0627  0.4120  0.7758
10193SOL    HW132020   1.990   4.048  10.498  0.0524  0.4175  0.6855
10193SOL    HW232021   2.064   4.180  10.487  0.0743  0.4146  0.8032
10194SOL     OW32022   1.814   3.809   1.821  0.1032 -0.7183 -0.2509
10194SOL    HW132023   1.841   3.816   1.730 -0.2104  1.3271 -0.2369
10194SOL    HW232024   1.861   3.879   1.866 -0.1579 -1.3434  1.0777
10195SOL     OW32025   2.283   5.211   9.851  0.2864  0.1223  0.2375
10195SOL    HW132026   2.291   5.116   9.860 -0.2981  0.0783  0.2835
10195SOL    HW232027   2.359   5.236   9.798  0.6891 -0.3136  0.6035
10196SOL     OW32028   3.815   3.002  12.072 -0.0547 -0.4483 -0.3755
10196SOL    HW132029   3.765   2.946  12.012  0.0146 -1.3339  0.3568
10196SOL    HW232030   3.891   2.949  12.094 -0.8858 -0.8412  1.7605
10197SOL     OW32031   4.202   2.604  12.430  0.1634  0.2246 -0.1504
10197SOL    HW132032   4.117   2.632  12.463 -1.3937 -1.3171 -2.5339
10197SOL    HW232033   4.222   2.524  12.478  0.7942  1.0905  1.0864
10198SOL     OW32034   1.655   5.408  10.648  0.0701  0.3357  0.1754
10198SOL    HW132035   1.596   5.405  10.724 -0.6791 -0.7893 -0.4204
10198SOL    HW232036   1.606   5.456  10.581 -0.9141 -1.9691 -0.8702
10199SOL     OW32037   3.350   5.914   9.979  0.3350 -0.1046 -0.2009
10199SOL    HW132038   3.383   5.872   9.899 -1.7869 -1.2537 -0.5452
10199SOL    HW232039   3.298   5.988   9.947 -1.3607 -1.1693  0.0218
10200SOL     OW32040   1.665   3.889   0.161  0.0895  0.0772  0.0526
10200SOL    HW132041   1.662   3.918   0.253  1.4695 -0.8849  0.4277
10200SOL    HW232042   1.588   3.833   0.151  0.4736 -0.6335  0.9304
10201SOL     OW32043   5.131   2.907  11.172  0.3039 -0.6432 -0.0626
10201SOL    HW132044   5.131   2.911  11.267  2.9434  0.1498 -0.0095
10201SOL    HW232045   5.177   2.986  11.144  0.0758 -1.1207 -1.9645
10202SOL     OW32046   2.567   4.301  11.762 -0.5954  0.1092  0.3335
10202SOL    HW132047   2.652   4.263  11.781  0.6232  2.1150 -0.7997
10202SOL    HW232048   2.512   4.274  11.836  0.3893 -2.9216  0.0958
10203SOL     OW32049   2.227   3.500  10.822 -0.0788 -0.1238 -0.1054
10203SOL    HW132050   2.298   3.548  10.779 -0.9267  1.4663  0.1734
10203SOL    HW232051   2.248   3.507  10.916 -1.5659  2.1106  0.1352
10204SOL     OW32052   2.653   5.562   9.477  0.2350  0.3840 -0.2782
10204SOL    HW132053   2.681   5.471   9.476  1.1091  0.5757  1.5857
10204SOL    HW232054   2.732   5.611   9.502 -0.8767  1.3005  1.7090
10205SOL     OW32055   1.836   4.013  11.286 -0.4022  0.5233 -0.5526
10205SOL    HW132056   1.898   4.085  11.301 -0.0876  0.1222  0.1685
10205SOL    HW232057   1.806   3.989  11.374 -1.6887  0.7930 -0.9004
10206SOL     OW32058   3.071   5.567  11.089  0.2208 -0.6154  0.1087
10206SOL    HW132059   3.084   5.500  11.022  0.8508 -1.4414  1.0317
10206SOL    HW232060   3.028   5.522  11.161  0.2859  0.0687  0.5901
10207SOL     OW32061   2.402   2.611   0.479  0.5861 -0.1878 -0.2842
10207SOL    HW132062   2.438   2.564   0.554  1.2572  0.1963 -0.3544
10207SOL    HW232063   2.366   2.542   0.423 -1.0027 -0.4013  0.9201
10208SOL     OW32064   7.734   5.364  10.628  0.4294  0.0728 -0.2799
10208SOL    HW132065   7.799   5.336  10.691  1.5478 -1.1564 -1.9095
10208SOL    HW232066   7.651   5.331  10.663  1.3845 -3.3251 -0.8937
10209SOL     OW32067   3.511   5.841  10.184 -0.1041  0.3859 -0.2515
10209SOL    HW132068   3.560   5.778  10.131  0.2189  0.5205 -0.1124
10209SOL    HW232069   3.454   5.885  10.121  2.2050  2.4775 -1.0242
10210SOL     OW32070   0.040   5.129  10.669  0.2393  0.1397 -0.2642
10210SOL    HW132071   0.088   5.139  10.587  0.9608 -0.1735  0.1115
10210SOL    HW232072   0.034   5.034  10.682  0.9479  0.1970  0.5150
10211SOL     OW32073   4.872   4.619  12.111  0.8633 -0.4272  0.4079
10211SOL    HW132074   4.900   4.664  12.031  1.0504  0.3676  0.9068
10211SOL    HW232075   4.778   4.606  12.099  0.6122  0.9862  0.6548
10212SOL     OW32076   2.105   3.899   0.193 -0.0456 -0.3320 -0.2417
10212SOL    HW132077   2.180   3.957   0.182 -0.5703  0.4728  0.3498
10212SOL    HW232078   2.143   3.811   0.193  0.9201  0.0713  0.2939
10213SOL     OW32079   2.749   3.407  11.486  0.0756  0.7397 -0.1532
10213SOL    HW132080   2.798   3.472  11.536 -0.5412  0.0130  1.4891
10213SOL    HW232081   2.758   3.434  11.395  1.8361  1.7467  0.2670
10214SOL     OW32082   3.094   3.426  10.606  0.0734  0.3880  0.0639
10214SOL    HW132083   3.016   3.375  10.627 -0.4232  0.7984 -0.7258
10214SOL    HW232084   3.070   3.477  10.529  1.6186 -0.6576 -1.1892
10215SOL     OW32085   3.047   4.870   9.552 -0.6078  0.5317 -0.0816
10215SOL    HW132086   3.097   4.791   9.532 -0.4374  0.6296 -0.0382
10215SOL    HW232087   3.037   4.914   9.468 -0.1758  0.7750 -0.0049
10216SOL     OW32088   2.060   4.920   9.727  0.2482  0.2037  0.4428
10216SOL    HW132089   2.150   4.920   9.758  0.7957 -1.6198 -0.9611
10216SOL    HW232090   2.023   5.002   9.758  2.0149  0.4199  2.1009
10217SOL     OW32091   1.951   5.117  12.381  0.2053 -0.4113 -0.1251
10217SOL    HW132092   1.991   5.112  12.468  1.8062  1.3223 -0.6730
10217SOL    HW232093   1.858   5.130  12.397  0.6469  1.1832  1.3744
10218SOL     OW32094   4.679   3.527   0.094 -0.3147 -0.1368  0.2345
10218SOL    HW132095   4.753   3.588   0.095 -0.4876  0.1539 -1.4444
10218SOL    HW232096   4.706   3.457   0.034 -0.9287 -0.6536  0.5506
10219SOL     OW32097   2.583   5.541  12.084 -0.0524  0.0087 -0.2424
10219SOL    HW132098   2.650   5.601  12.050  0.2507  0.5426  1.2586
10219SOL    HW232099   2.616   5.514  12.170 -0.2510 -2.2241 -0.8001
10220SOL     OW32100   2.270   4.760  10.439  0.3172 -0.3138 -0.2623
10220SOL    HW132101   2.352   4.738  10.396  0.5460 -0.2730  0.1508
10220SOL    HW232102   2.203   4.714  10.388  0.8172 -2.5061  0.9149
10221SOL     OW32103   2.088   4.611  11.674 -0.1324 -0.3343 -0.0447
10221SOL    HW132104   2.054   4.579  11.591  0.3958 -1.5116  0.1630
10221SOL    HW232105   2.036   4.566  11.740 -2.0990  2.2833  0.3380
10222SOL     OW32106   0.098   2.756   1.429 -0.8092 -0.3673 -0.4436
10222SOL    HW132107   0.070   2.691   1.363  1.3793 -0.7976 -1.0216
10222SOL    HW232108   0.193   2.757   1.422 -0.7099  1.8750  0.5954
10223SOL     OW32109   1.868   4.489  10.318  0.3675  0.4605  0.4866
10223SOL    HW132110   1.862   4.434  10.240 -0.3828 -0.4408  1.1489
10223SOL    HW232111   1.778   4.506  10.343  0.5643  2.6221 -0.0844
10224SOL     OW32112   2.410   5.835   9.044 -0.2520  0.6561 -0.5161
10224SOL    HW132113   2.439   5.910   8.993  3.8782 -0.7605 -0.6278
10224SOL    HW232114   2.407   5.763   8.982  0.3073 -0.1533  0.3660
10225SOL     OW32115   3.813   3.897  11.661  0.6413  0.6210 -0.3264
10225SOL    HW132116   3.882   3.909  11.727  2.0066 -0.0197 -1.5882
10225SOL    HW232117   3.769   3.981  11.657 -0.9977  0.1032  2.9878
10226SOL     OW32118   1.934   1.405  12.138 -0.4602  0.1853 -0.4612
10226SOL    HW132119   1.858   1.454  12.104 -0.3463  0.5375 -0.2157
10226SOL    HW232120   1.923   1.408  12.233  0.2346  0.8604 -0.3922
10227SOL     OW32121   1.199   4.944   0.061  0.2136  0.2622 -0.2029
10227SOL    HW132122   1.178   4.905  -0.023  0.6257  0.5298 -0.4371
10227SOL    HW232123   1.188   4.873   0.124  0.0683  0.0143 -0.5038
10228SOL     OW32124   2.558   2.560  12.365  0.2362 -0.5568 -0.2069
10228SOL    HW132125   2.653   2.559  12.350  0.3103  1.4736 -0.1035
10228SOL    HW232126   2.520   2.565  12.278  0.1752 -2.1051 -0.2875
10229SOL     OW32127   3.573   3.625   1.139  0.2053  0.2307 -0.1904
10229SOL    HW132128   3.487   3.630   1.097  0.6747 -0.2232 -1.2525
10229SOL    HW232129   3.556   3.644   1.231 -1.1413 -0.5432 -0.2484
10230SOL     OW32130   5.185   3.059  10.625 -0.0697 -0.4810  0.0518
10230SOL    HW132131   5.108   3.103  10.661 -0.3017  0.2098 -1.2357
10230SOL    HW232132   5.255   3.124  10.632 -0.0627 -0.4228 -0.5097
10231SOL     OW32133   3.727   4.956  11.521  0.1810  0.5152 -0.5114
10231SOL    HW132134   3.774   5.032  11.487 -0.6868  0.2049 -2.5338
10231SOL    HW232135   3.671   4.992  11.590  0.7617  1.4771 -0.5249
10232SOL     OW32136   3.651   6.641   8.928  0.3550 -0.2486  0.1378
10232SOL    HW132137   3.608   6.560   8.903  1.4702 -0.8067 -0.0347
10232SOL    HW232138   3.719   6.654   8.861  1.1492  0.0369  0.9782
10233SOL     OW32139   1.142   2.983   0.064  0.2265  0.4426 -0.1029
10233SOL    HW132140   1.169   2.943   0.147 -1.5402 -1.7430 -0.4933
10233SOL    HW232141   1.164   2.917  -0.002  0.2931  1.5575 -1.2215
10234SOL     OW32142   3.873   4.100   0.409  0.1119 -0.2630 -0.0959
10234SOL    HW132143   3.890   4.193   0.396  0.5517 -0.4078 -0.5877
10234SOL    HW232144   3.913   4.057   0.333  2.1933 -1.0990  1.3812
10235SOL     OW32145   4.061   5.325  10.441  0.2640 -0.1816 -0.2720
10235SOL    HW132146   4.000   5.372  10.497 -1.0281 -1.4621 -0.5318
10235SOL    HW232147   4.101   5.259  10.498  0.1022 -0.4746 -0.4928
10236SOL     OW32148   3.004   6.596  10.985 -0.1213  0.2523  0.0756
10236SOL    HW132149   2.942   6.662  10.954 -0.9835 -0.3067  0.5726
10236SOL    HW232150   3.058   6.642  11.049 -1.6635  0.1382  1.5035
10237SOL     OW32151   2.154   5.364  10.421 -0.0845  0.0252 -0.0366
10237SOL    HW132152   2.117   5.357  10.333 -0.7918  1.8820  0.0632
10237SOL    HW232153   2.232   5.309  10.418 -1.0890 -1.4288 -1.2447
10238SOL     OW32154   3.702   4.758  12.097 -0.1566 -0.5976  0.1825
10238SOL    HW132155   3.655   4.738  12.015 -0.6590  0.5891  0.1493
10238SOL    HW232156   3.781   4.803  12.068 -0.6246  0.3675  0.3432
10239SOL     OW32157   3.760   2.437  11.916  0.0377  0.2585 -0.1582
10239SOL    HW132158   3.833   2.484  11.876 -0.8641  0.7808 -1.2552
10239SOL    HW232159   3.711   2.505  11.963  0.8176 -0.2648  1.4949
10240SOL     OW32160   1.309   3.399  11.109  0.6811 -0.1187  0.3679
10240SOL    HW132161   1.331   3.306  11.103 -0.2463 -0.5255  2.2298
10240SOL    HW232162   1.299   3.415  11.203 -1.3707  1.3239 -0.0233
10241SOL     OW32163   1.835   4.787  10.401 -0.2027  0.1516 -0.0236
10241SOL    HW132164   1.896   4.812  10.332 -1.3618  1.6558 -0.5430
10241SOL    HW232165   1.891   4.747  10.468  1.2080  0.5071 -0.9332
10242SOL     OW32166   3.700   3.433  11.836  0.7639 -0.4953 -0.6195
10242SOL    HW132167   3.787   3.452  11.871  1.2710  0.7568 -2.3784
10242SOL    HW232168   3.640   3.450  11.908  1.8629  0.2278  0.1457
10243SOL     OW32169   4.546   2.400   0.077 -0.4303  0.2309 -0.4159
10243SOL    HW132170   4.639   2.395   0.097 -0.3825  3.2416  0.6309
10243SOL    HW232171   4.504   2.420   0.160 -2.0113 -0.7854 -0.9237
10244SOL     OW32172   3.387   4.924  12.028  0.4724 -0.5291 -0.0378
10244SOL    HW132173   3.405   4.938  12.121  1.6054  0.0345 -0.3255
10244SOL    HW232174   3.360   4.832  12.023  0.6853 -0.6478  0.8050
10245SOL     OW32175   3.310   5.397  11.269  0.1220 -0.5341  0.1553
10245SOL    HW132176   3.361   5.317  11.277 -1.3962 -1.5275  0.4335
10245SOL    HW232177   3.259   5.385  11.189 -1.8370 -0.9618  1.3639
10246SOL     OW32178   2.695   2.305   0.421 -0.0904 -0.3760 -0.3289
10246SOL    HW132179   2.607   2.293   0.386 -0.6486  3.0171 -0.4836
10246SOL    HW232180   2.685   2.290   0.515 -1.2234  1.2512 -0.1418
10247SOL     OW32181   4.357   6.581  11.641  0.9368  0.7541 -0.5167
10247SOL    HW132182   4.360   6.661  11.589 -1.2116  0.4407 -1.2401
10247SOL    HW232183   4.394   6.514  11.584 -3.3245 -0.0328 -2.7625
10248SOL     OW32184   4.092   4.741   1.799  0.6723  0.5546  0.2703
10248SOL    HW132185   4.059   4.702   1.718 -0.9596  2.3904 -0.0223
10248SOL    HW232186   4.024   4.723   1.864  0.7539  1.3265  0.5758
10249SOL     OW32187   1.167   6.842  11.998  0.8583 -0.6168 -0.1739
10249SOL    HW132188   1.224   6.846  12.075  1.0399  1.3532 -0.3691
10249SOL    HW232189   1.095   6.784  12.025  0.7757  0.2226  1.5984
10250SOL     OW32190   2.605   4.642   9.891 -0.3203 -0.4068 -0.2494
10250SOL    HW132191   2.579   4.579   9.958 -2.9940  1.6109  0.8105
10250SOL    HW232192   2.627   4.589   9.814 -3.0806 -2.6678  0.3555
10251SOL     OW32193   2.357   2.056   8.677 -0.0416  0.2682 -0.2586
10251SOL    HW132194   2.354   2.148   8.649 -0.5302  0.7952  1.4170
10251SOL    HW232195   2.385   2.008   8.599  1.2684  1.9525 -0.8785
10252SOL     OW32196   2.946   3.825  10.736  0.3158  0.3680  0.2033
10252SOL    HW132197   2.888   3.825  10.661 -1.2025  1.2798  1.3020
10252SOL    HW232198   3.020   3.880  10.709  0.2873 -0.1342 -0.9432
10253SOL     OW32199   2.227   5.391  11.227  0.1072 -0.1832 -0.2500
10253SOL    HW132200   2.248   5.413  11.137 -0.5428 -1.9853 -0.8858
10253SOL    HW232201   2.312   5.381  11.270  0.4668 -0.9814 -1.1189
10254SOL     OW32202   3.985   2.819  11.755  0.1631 -0.1096 -0.6079
10254SOL    HW132203   4.016   2.737  11.717  1.1321  0.2175 -0.5487
10254SOL    HW232204   3.940   2.864  11.684  1.7154  0.3745 -1.3089
10255SOL     OW32205   2.901   3.990   9.499  0.1860  0.0266  0.3521
10255SOL    HW132206   2.856   3.966   9.580 -1.8206 -3.1854 -1.5016
10255SOL    HW232207   2.989   3.953   9.509  1.0291  2.2460  2.1044
10256SOL     OW32208   2.266   4.735  12.007 -0.5304  0.0388  0.0223
10256SOL    HW132209   2.336   4.683  12.048 -0.2870 -0.6940 -1.2585
10256SOL    HW232210   2.312   4.798  11.951 -0.8662  0.7551  0.5374
10257SOL     OW32211   3.638   3.891   0.210  0.0692 -0.4676 -0.5435
10257SOL    HW132212   3.727   3.922   0.226  0.0485  1.5554 -3.4485
10257SOL    HW232213   3.646   3.796   0.205  1.6483 -0.4742  1.2106
10258SOL     OW32214   4.282   4.345  10.792  0.6026  0.2736  0.5856
10258SOL    HW132215   4.295   4.439  10.801  0.9501  0.3340 -0.4228
10258SOL    HW232216   4.292   4.328  10.699 -1.7435 -0.4304  0.4104
10259SOL     OW32217   3.636   4.488  11.140  0.4926  0.1147 -0.1388
10259SOL    HW132218   3.651   4.582  11.150  0.8206  0.0115  0.3909
10259SOL    HW232219   3.662   4.451  11.224 -0.8841 -0.3022  0.1417
10260SOL     OW32220   4.508   4.743  11.871  0.3122 -0.0050  0.0434
10260SOL    HW132221   4.583   4.787  11.910 -1.2904  0.5509  2.7141
10260SOL    HW232222   4.449   4.814  11.846  0.5225 -0.4452 -1.8585
10261SOL     OW32223   4.025   4.792   9.817  0.2237 -0.1616  0.2389
10261SOL    HW132224   4.038   4.722   9.752  0.4824  0.5318 -0.4798
10261SOL    HW232225   3.996   4.867   9.765  1.8199  0.8399  0.7159
10262SOL     OW32226   3.053   4.435  12.119 -0.1895 -0.5902 -0.1783
10262SOL    HW132227   3.048   4.413  12.027  3.7893  0.0733 -0.7492
10262SOL    HW232228   3.012   4.362  12.164 -1.9706 -1.0631 -2.3890
10263SOL     OW32229   2.362   4.937  11.821  0.1797  0.5185 -0.4479
10263SOL    HW132230   2.395   4.897  11.740 -0.4224  0.0603 -0.4738
10263SOL    HW232231   2.268   4.917  11.821  0.3023 -0.1893  0.7512
10264SOL     OW32232   4.256   3.629  12.353 -1.1347  0.2176 -0.1666
10264SOL    HW132233   4.205   3.710  12.365  0.3969  1.9190 -3.7017
10264SOL    HW232234   4.191   3.564  12.326 -2.1144  0.8826  0.5330
10265SOL     OW32235   1.706   5.168  12.468 -0.6478 -0.0679  0.1820
10265SOL    HW132236   1.688   5.208  12.553 -0.9950 -1.1485  0.6405
10265SOL    HW232237   1.620   5.140  12.437 -0.2771 -1.7230  0.5503
10266SOL     OW32238   3.992   4.412   0.761  0.4985  0.3754  0.1345
10266SOL    HW132239   4.020   4.325   0.735 -1.5081 -0.4043  0.3598
10266SOL    HW232240   4.028   4.423   0.850  1.1150 -0.0358 -0.0591
10267SOL     OW32241   4.341   4.879  11.462  0.4107 -0.4125  0.3662
10267SOL    HW132242   4.362   4.788  11.440 -2.2159 -0.6627 -1.6222
10267SOL    HW232243   4.291   4.872  11.543 -0.3535 -0.8683 -0.1224
10268SOL     OW32244   3.321   3.643   1.043  0.2910 -0.6239 -0.8509
10268SOL    HW132245   3.257   3.577   1.017  0.0618 -0.5138 -0.5743
10268SOL    HW232246   3.294   3.722   0.997 -0.1685 -0.4055 -0.2210
10269SOL     OW32247   4.746   2.694  10.488  0.4705  0.6306 -0.3257
10269SOL    HW132248   4.839   2.714  10.487  0.3763  1.0889 -0.3130
10269SOL    HW232249   4.704   2.772  10.451  0.2806 -0.6909 -3.1389
10270SOL     OW32250   2.892   6.779   8.973  0.7950 -0.3355  0.1199
10270SOL    HW132251   2.845   6.716   9.028  1.4242 -0.7742  0.1615
10270SOL    HW232252   2.983   6.774   9.002  1.2978 -1.1475 -1.4674
10271SOL     OW32253   5.034   4.511   1.243 -0.1328 -0.9750  0.0507
10271SOL    HW132254   5.091   4.467   1.305  1.4211  0.4138 -0.3026
10271SOL    HW232255   4.985   4.574   1.296  0.8423 -0.1268 -0.0151
10272SOL     OW32256   4.594   3.387  11.506 -0.0909 -0.3836 -0.4212
10272SOL    HW132257   4.513   3.426  11.472 -0.0621  0.8797  0.8324
10272SOL    HW232258   4.638   3.351  11.429 -0.9520  0.6018 -1.4168
10273SOL     OW32259   4.436   2.356  11.792  0.0340 -0.2015 -0.3180
10273SOL    HW132260   4.374   2.318  11.855 -1.4434 -1.3172 -2.3054
10273SOL    HW232261   4.398   2.441  11.769  1.2561  0.7938  1.1978
10274SOL     OW32262   2.044   7.180  10.899 -0.0546 -0.5827 -0.4360
10274SOL    HW132263   2.084   7.103  10.859 -0.9051 -0.5104 -1.4797
10274SOL    HW232264   2.065   7.173  10.992  1.3514 -1.1495 -0.7764
10275SOL     OW32265   2.942   7.251  10.848  0.3217  0.6778 -0.1770
10275SOL    HW132266   2.893   7.322  10.807  0.1433 -0.6485 -2.4370
10275SOL    HW232267   2.882   7.213  10.911 -1.1146 -0.0384 -1.9106
10276SOL     OW32268   2.369   6.094  10.836  0.3199 -0.2441 -0.3137
10276SOL    HW132269   2.413   6.010  10.848  0.6444 -0.0297  0.0185
10276SOL    HW232270   2.432   6.147  10.787  0.1791 -0.1390 -0.3825
10277SOL     OW32271   2.142   3.871  11.622  0.1420  0.2030 -0.0151
10277SOL    HW132272   2.147   3.947  11.680 -0.2129 -0.2114  0.5693
10277SOL    HW232273   2.186   3.899  11.542  0.6194  0.7901  0.4430
10278SOL     OW32274   2.740   4.775   2.183  0.2014 -0.2835  0.1513
10278SOL    HW132275   2.714   4.866   2.171  0.9982  0.0639  1.0042
10278SOL    HW232276   2.690   4.746   2.259  1.8310  0.2314  1.4762
10279SOL     OW32277   4.708   7.691   1.149 -0.5703 -0.6300 -0.6269
10279SOL    HW132278   4.689   7.600   1.173 -0.9482 -0.9555 -2.0555
10279SOL    HW232279   4.637   7.715   1.089  0.1373  0.2348 -1.1498
10280SOL     OW32280   3.296   5.690   0.548  0.0188  0.2860  0.1257
10280SOL    HW132281   3.364   5.632   0.514 -0.5058  0.4553 -1.2726
10280SOL    HW232282   3.343   5.750   0.606  0.8817 -0.2965  0.0473
10281SOL     OW32283   1.180   5.777  12.288 -0.0534 -0.2830 -0.0349
10281SOL    HW132284   1.221   5.702  12.331 -0.5001 -1.6983 -1.9263
10281SOL    HW232285   1.160   5.746  12.199 -1.7021  1.5740 -0.3964
10282SOL     OW32286   3.340   4.705  10.560  0.3051 -0.2315 -0.0891
10282SOL    HW132287   3.249   4.688  10.586  0.4089 -1.0695 -0.2647
10282SOL    HW232288   3.333   4.730  10.467  0.4222 -2.1345 -0.6439
10283SOL     OW32289   1.603   5.423   1.137  0.1249 -0.1857  0.6307
10283SOL    HW132290   1.570   5.507   1.106 -0.8838 -0.2370  1.5267
10283SOL    HW232291   1.612   5.370   1.058  1.1361  0.8670  0.0040
10284SOL     OW32292   3.822   4.259   2.263  0.2068  0.3288 -0.4113
10284SOL    HW132293   3.749   4.253   2.201 -0.6510 -0.3967  0.6075
10284SOL    HW232294   3.829   4.352   2.285  1.9104  0.9405 -3.1170
10285SOL     OW32295   1.372   6.010   0.378  1.1830  0.4630  0.5913
10285SOL    HW132296   1.417   5.985   0.459  1.3249 -0.2120  0.3098
10285SOL    HW232297   1.281   6.023   0.404  1.3925  1.1411  1.0265
10286SOL     OW32298   3.653   6.314   1.500  0.0021 -0.6960 -0.0178
10286SOL    HW132299   3.700   6.382   1.452 -0.4886 -1.3349 -1.4430
10286SOL    HW232300   3.563   6.347   1.507  0.2534 -0.2247  1.2413
10287SOL     OW32301   2.270   5.432   0.448 -0.2716  0.5475  0.2672
10287SOL    HW132302   2.328   5.508   0.455  0.9484 -0.4028  0.7677
10287SOL    HW232303   2.249   5.410   0.539 -0.6063  0.2681  0.1213
10288SOL     OW32304   3.709   7.797   2.095 -0.4899 -0.1233  0.2287
10288SOL    HW132305   3.769   7.758   2.160  1.0414  1.1353 -0.3694
10288SOL    HW232306   3.735   7.757   2.012 -0.6794  0.2267 -0.0001
10289SOL     OW32307   1.952   6.225   1.634 -0.0419 -0.7745 -0.5899
10289SOL    HW132308   1.873   6.170   1.631  0.5979 -1.7156 -0.6549
10289SOL    HW232309   2.007   6.183   1.701  0.2698  0.0681 -0.3042
10290SOL     OW32310   3.388   5.047  11.483 -0.4551 -0.5281 -0.1264
10290SOL    HW132311   3.363   4.969  11.434 -0.4616 -0.7310  0.1981
10290SOL    HW232312   3.370   5.025  11.575 -2.4366  0.6058 -0.2042
10291SOL     OW32313   1.292   7.065   0.311  0.4895 -0.2904  0.3826
10291SOL    HW132314   1.374   7.104   0.342  0.1299  0.3036  0.6229
10291SOL    HW232315   1.256   7.131   0.252  0.7064 -1.0127 -0.5901
10292SOL     OW32316   2.940   7.103   0.261 -0.0867  0.4474  0.0066
10292SOL    HW132317   2.980   7.129   0.178  2.0688 -0.3440  0.7203
10292SOL    HW232318   3.000   7.138   0.328 -0.3243 -1.1891  1.1375
10293SOL     OW32319   2.082   7.337   1.667  0.3228 -0.1562 -0.1368
10293SOL    HW132320   2.017   7.272   1.693 -2.4199  1.7782 -1.6515
10293SOL    HW232321   2.093   7.393   1.743  0.2658 -0.5118  0.1363
10294SOL     OW32322   4.568   7.500   2.999  0.4945 -0.2814  0.1761
10294SOL    HW132323   4.520   7.540   3.071 -0.6246  0.5613 -1.0064
10294SOL    HW232324   4.511   7.430   2.967  1.3908 -1.2841  0.6664
10295SOL     OW32325   3.637   1.834   1.504 -0.0245  0.0438  0.2299
10295SOL    HW132326   3.660   1.787   1.424  1.6431 -0.0603  0.7263
10295SOL    HW232327   3.572   1.777   1.547  1.6732 -1.6833  0.6381
10296SOL     OW32328   2.079   6.090  11.735  0.2849  0.4238 -0.0548
10296SOL    HW132329   2.001   6.038  11.756  1.0296 -0.6666  0.1018
10296SOL    HW232330   2.054   6.141  11.659 -0.3021 -0.5967 -0.5679
10297SOL     OW32331   4.057   4.896   2.626  0.0356  0.6374 -0.5236
10297SOL    HW132332   3.982   4.920   2.680 -1.5698 -1.0112 -1.9091
10297SOL    HW232333   4.119   4.857   2.688 -2.8047 -3.6271  0.0507
10298SOL     OW32334   3.149   4.489   0.234 -0.0519 -0.6742  0.2270
10298SOL    HW132335   3.243   4.484   0.214  0.5817  0.1154  2.6269
10298SOL    HW232336   3.128   4.582   0.223 -0.9106 -1.0350 -1.5141
10299SOL     OW32337   4.340   7.657  11.731  0.0369 -0.0916 -0.1964
10299SOL    HW132338   4.251   7.663  11.697 -1.4343 -1.3963  3.0884
10299SOL    HW232339   4.351   7.736  11.784 -0.1617 -1.1101  1.4258
10300SOL     OW32340   2.116   6.634  12.262  0.4247  0.5459 -0.2165
10300SOL    HW132341   2.062   6.570  12.308  0.0627  0.6583 -0.4849
10300SOL    HW232342   2.094   6.623  12.170 -2.7867  3.7850 -0.0903
10301SOL     OW32343   3.961   7.571   1.218  0.5940  0.1076 -0.0045
10301SOL    HW132344   3.979   7.500   1.157  0.9028  1.2585 -1.2993
10301SOL    HW232345   4.047   7.604   1.243  0.4620 -0.1524  0.8322
10302SOL     OW32346   4.050   6.573  11.660 -0.4580  0.0825  0.0448
10302SOL    HW132347   4.142   6.566  11.686  0.0011  0.7427 -1.2957
10302SOL    HW232348   4.040   6.506  11.592 -0.8039  0.3974 -0.2149
10303SOL     OW32349   2.195   6.723   1.436  0.2620  0.3431  0.2186
10303SOL    HW132350   2.156   6.649   1.390 -0.5377  0.3843  0.8095
10303SOL    HW232351   2.244   6.770   1.368  2.9029 -2.0443  0.2674
10304SOL     OW32352   1.933   7.506  11.617 -0.4722  0.1076  0.0004
10304SOL    HW132353   1.879   7.585  11.612 -0.6938 -0.0512 -0.1704
10304SOL    HW232354   1.916   7.470  11.704  1.0398  1.2330  0.8017
10305SOL     OW32355   4.036   5.428   1.159  0.5137  0.3550 -0.6076
10305SOL    HW132356   3.962   5.487   1.139  0.6179  0.8387  0.3933
10305SOL    HW232357   4.048   5.377   1.079 -1.4315 -0.3009 -0.5342
10306SOL     OW32358   2.698   2.295  11.494  0.3320  0.3337 -1.0653
10306SOL    HW132359   2.644   2.374  11.495  0.5345  0.4765 -0.2610
10306SOL    HW232360   2.709   2.273  11.587  1.9159  0.4934 -1.1846
10307SOL     OW32361   0.101   5.965  11.420  0.5430  0.3553  0.1251
10307SOL    HW132362   0.079   5.873  11.438  0.6712  0.2294 -0.3538
10307SOL    HW232363   0.048   6.014  11.483  1.9229 -0.1160  1.7521
10308SOL     OW32364   3.384   6.061  11.442  0.2316 -0.4471  0.1289
10308SOL    HW132365   3.401   6.084  11.350  0.4444  0.9508  0.4916
10308SOL    HW232366   3.307   6.004  11.438  1.4039 -2.0372 -1.0610
10309SOL     OW32367   4.924   5.062   2.123 -0.7246  0.5702 -0.3185
10309SOL    HW132368   4.948   4.996   2.058  1.5726  3.0692 -2.2197
10309SOL    HW232369   4.992   5.054   2.190 -0.8009  0.6185 -0.2365
10310SOL     OW32370   7.427   6.131   1.411 -0.0725  0.0079 -0.1035
10310SOL    HW132371   7.361   6.197   1.434  0.3203  0.4660 -0.2843
10310SOL    HW232372   7.460   6.158   1.325  0.4495 -0.1414  0.0455
10311SOL     OW32373   2.997   6.607   0.890 -0.1233 -0.3820 -0.5703
10311SOL    HW132374   3.012   6.560   0.972 -3.6811 -2.0408 -0.6569
10311SOL    HW232375   3.063   6.573   0.829 -0.0599 -2.2955  0.5047
10312SOL     OW32376   3.099   6.819   0.233  0.4745 -1.2465 -0.1815
10312SOL    HW132377   3.097   6.834   0.327  1.8488 -0.8826 -0.1952
10312SOL    HW232378   3.010   6.840   0.204  1.0723  2.9741  0.4152
10313SOL     OW32379   1.534   6.485  11.106  0.2016 -0.1746 -0.2890
10313SOL    HW132380   1.626   6.460  11.111 -0.0665 -1.2329 -0.4219
10313SOL    HW232381   1.523   6.515  11.015 -0.1377 -2.4551 -1.0665
10314SOL     OW32382   3.320   5.413   0.274 -0.3101 -0.1659 -0.1058
10314SOL    HW132383   3.245   5.444   0.223 -0.5110 -0.3236  0.0918
10314SOL    HW232384   3.340   5.327   0.238  0.5292  0.3700 -0.9514
10315SOL     OW32385   3.162   7.634   1.084  0.0656 -0.5773  0.1958
10315SOL    HW132386   3.079   7.600   1.117  0.3496  0.4124  2.0441
10315SOL    HW232387   3.138   7.712   1.034 -0.1451 -0.4770  0.4525
10316SOL     OW32388   2.796   7.052  11.397  0.0768  0.0991  0.5533
10316SOL    HW132389   2.878   7.081  11.437 -0.4959  0.4833  1.4778
10316SOL    HW232390   2.739   7.032  11.471 -0.7952  0.1959 -0.0757
10317SOL     OW32391   5.700   5.905   2.936  0.6278 -0.2416 -0.0691
10317SOL    HW132392   5.778   5.856   2.912  0.9307 -0.5782  1.4925
10317SOL    HW232393   5.627   5.846   2.918  0.8087 -0.3293 -0.5172
10318SOL     OW32394   2.629   5.719   1.910 -0.2433 -0.2379 -0.0059
10318SOL    HW132395   2.708   5.705   1.858  0.2042 -1.0243  0.8396
10318SOL    HW232396   2.646   5.671   1.991 -0.5566  1.6131  1.2243
10319SOL     OW32397   1.546   6.339  11.684  0.3321  0.2605  0.0586
10319SOL    HW132398   1.627   6.385  11.660 -0.4198  0.8652 -1.4660
10319SOL    HW232399   1.576   6.263  11.735  2.0094 -0.3405 -1.6942
10320SOL     OW32400   2.441   6.960   1.037 -0.9556 -0.5813  0.7105
10320SOL    HW132401   2.462   6.918   0.954  0.0761  0.5130  0.3862
10320SOL    HW232402   2.408   6.890   1.092 -0.4720 -1.5633 -0.2141
10321SOL     OW32403   2.946   4.256   0.164 -0.0298  0.1256  0.4078
10321SOL    HW132404   3.020   4.316   0.156 -0.3470  0.4068 -0.5775
10321SOL    HW232405   2.898   4.287   0.241 -0.9160  1.9975 -0.8073
10322SOL     OW32406   2.392   6.542   0.206 -0.2177 -0.1000  0.5291
10322SOL    HW132407   2.399   6.593   0.287  0.6252 -0.4299  0.6781
10322SOL    HW232408   2.480   6.507   0.193 -0.9227 -2.0274  0.7561
10323SOL     OW32409   3.587   4.399   0.848  0.1549 -0.1467  0.2020
10323SOL    HW132410   3.492   4.401   0.842  0.1417  0.3094  0.4818
10323SOL    HW232411   3.614   4.329   0.789 -0.2959  0.3855 -0.6556
10324SOL     OW32412   2.652   7.359   0.417 -0.2368  0.0472  0.5298
10324SOL    HW132413   2.595   7.425   0.455  0.5514 -0.2839  2.4375
10324SOL    HW232414   2.736   7.403   0.407 -0.1556 -0.1817  0.2026
10325SOL     OW32415   3.929   6.948   0.740  0.0524 -0.3061 -0.2788
10325SOL    HW132416   3.923   6.892   0.817  0.4205 -0.2998 -0.2413
10325SOL    HW232417   3.839   6.969   0.717 -0.0487 -0.0805  0.3220
10326SOL     OW32418   2.646   3.998   1.681 -0.0945 -0.0475  0.1084
10326SOL    HW132419   2.642   4.072   1.620 -0.4896  0.9124  1.2711
10326SOL    HW232420   2.563   3.953   1.669  0.6515 -1.0892 -1.5172
10327SOL     OW32421   2.877   6.235  10.801  0.4608 -0.0117 -0.1057
10327SOL    HW132422   2.893   6.282  10.719 -0.3038 -0.3184 -0.4457
10327SOL    HW232423   2.964   6.224  10.840  0.6503  1.7809  0.0551
10328SOL     OW32424   2.996   7.691  12.308 -0.0873  0.4646 -0.2444
10328SOL    HW132425   2.942   7.768  12.287 -0.7657  0.5268  1.5062
10328SOL    HW232426   3.035   7.712  12.393 -1.1143 -1.5003  0.7951
10329SOL     OW32427   2.467   5.124  11.153  0.0458  0.3240  0.8570
10329SOL    HW132428   2.406   5.057  11.124  1.3709 -0.8475  0.6571
10329SOL    HW232429   2.447   5.137  11.246 -0.6386  0.1148  0.7391
10330SOL     OW32430   3.169   6.743   1.792 -0.1290 -0.1157  0.4210
10330SOL    HW132431   3.163   6.787   1.707  0.1909  2.1516  1.4768
10330SOL    HW232432   3.195   6.653   1.771  1.7520  0.8336 -1.8071
10331SOL     OW32433   0.934   5.868   0.425 -0.0927  0.3577  0.2307
10331SOL    HW132434   0.912   5.818   0.504 -0.6090 -0.5766 -0.4888
10331SOL    HW232435   0.850   5.903   0.395 -0.0840 -0.2785 -0.5559
10332SOL     OW32436   3.602   5.795   0.260  0.4122 -0.2019  0.2884
10332SOL    HW132437   3.692   5.829   0.251  0.6200 -1.0497 -1.1975
10332SOL    HW232438   3.606   5.736   0.335  1.0308  0.0088  0.4281
10333SOL     OW32439   2.106   5.974   2.137  0.1717 -0.1124  0.2516
10333SOL    HW132440   2.169   5.910   2.171 -1.0328 -1.2548  0.3880
10333SOL    HW232441   2.078   5.937   2.053  0.1279  0.6970 -0.0986
10334SOL     OW32442   2.889   6.017  11.862 -0.1564 -0.5756  0.3269
10334SOL    HW132443   2.975   6.027  11.820 -0.8824 -0.4404 -1.1974
10334SOL    HW232444   2.904   6.041  11.953  0.6676  3.2454 -0.6332
10335SOL     OW32445   2.215   5.784   1.384 -0.2801 -0.3403 -0.1202
10335SOL    HW132446   2.124   5.810   1.400  0.8267  3.0517  1.4386
10335SOL    HW232447   2.255   5.784   1.470  0.6730 -4.9684 -0.2659
10336SOL     OW32448   4.335   5.757   0.413 -0.0079 -0.1554  0.7691
10336SOL    HW132449   4.271   5.782   0.347  0.1697 -1.2237  0.1762
10336SOL    HW232450   4.357   5.839   0.457 -1.4519  0.2955  0.7062
10337SOL     OW32451   3.718   6.508  11.718  0.1999 -0.5235 -0.3268
10337SOL    HW132452   3.641   6.535  11.767  0.1331 -0.8891 -0.2224
10337SOL    HW232453   3.785   6.573  11.738  0.2479 -0.7978  0.4410
10338SOL     OW32454   2.069   6.540  11.552 -0.3320  0.1013 -0.2491
10338SOL    HW132455   2.089   6.474  11.619 -0.5938  0.3060  0.0342
10338SOL    HW232456   2.021   6.491  11.484  0.0863 -0.1417 -0.3712
10339SOL     OW32457   3.006   7.606   2.535 -0.2865  0.0800  0.3065
10339SOL    HW132458   3.051   7.532   2.495 -0.4254  0.6112 -0.8468
10339SOL    HW232459   2.920   7.571   2.560  0.3148 -0.6282  1.4826
10340SOL     OW32460   3.600   5.306  11.687  0.7810  0.2109  0.2973
10340SOL    HW132461   3.521   5.342  11.727 -0.4854  0.4084 -2.1675
10340SOL    HW232462   3.668   5.371  11.704 -0.1878  1.2114  0.4523
10341SOL     OW32463   1.377   7.867   1.177 -0.1394  0.0869 -0.4833
10341SOL    HW132464   1.355   7.960   1.175  0.7032  0.4005  1.8848
10341SOL    HW232465   1.409   7.852   1.266  0.2582 -2.3609 -0.9784
10342SOL     OW32466   3.389   5.045   0.640 -0.5072 -0.0785  0.1906
10342SOL    HW132467   3.347   4.986   0.703 -1.1288  0.6319  0.4625
10342SOL    HW232468   3.316   5.079   0.587 -0.1225  0.2190 -0.1511
10343SOL     OW32469   3.930   3.892   0.216 -0.0514  0.0024 -0.1151
10343SOL    HW132470   3.995   3.823   0.230  1.4155  1.3962  0.2487
10343SOL    HW232471   3.979   3.964   0.178 -1.5483  0.8517 -0.5213
10344SOL     OW32472   1.501   4.534   1.022  0.4853  0.0986  0.2723
10344SOL    HW132473   1.484   4.492   1.107  0.4127 -0.1691  0.1251
10344SOL    HW232474   1.419   4.526   0.974  0.9079 -0.8877 -0.3094
10345SOL     OW32475   3.211   7.071   2.327  0.0475 -0.1729 -0.1205
10345SOL    HW132476   3.254   7.078   2.242  0.4041 -0.6040  0.0182
10345SOL    HW232477   3.124   7.109   2.313  0.7185  1.3795 -0.2058
10346SOL     OW32478   3.566   6.149   0.482 -0.3548  0.2971 -0.6709
10346SOL    HW132479   3.487   6.113   0.524  0.7274 -0.3434  0.8933
10346SOL    HW232480   3.637   6.095   0.516  0.7164  0.4754 -2.5279
10347SOL     OW32481   1.166   6.814   0.578  0.3012 -0.1288 -0.3487
10347SOL    HW132482   1.102   6.885   0.587 -1.8193 -1.8840 -0.5788
10347SOL    HW232483   1.183   6.809   0.484  2.4061  1.5864 -0.1411
10348SOL     OW32484   1.554   4.513  11.983  0.1666  0.0931  0.0603
10348SOL    HW132485   1.629   4.554  12.028  0.2821  1.7350 -1.5132
10348SOL    HW232486   1.589   4.489  11.897 -0.9006  0.1089 -0.3835
10349SOL     OW32487   2.170   5.340  12.479  0.1493 -0.6205 -0.3995
10349SOL    HW132488   2.079   5.317  12.495 -0.1006  0.8894  0.5514
10349SOL    HW232489   2.169   5.435  12.465  1.5927 -0.5494 -0.1868
10350SOL     OW32490   3.227   5.208  10.116  0.3357 -0.5345 -0.3033
10350SOL    HW132491   3.200   5.299  10.130  1.4402 -0.3360  0.6424
10350SOL    HW232492   3.263   5.208  10.027  0.0493 -0.1257 -0.4267
10351SOL     OW32493   1.413   6.209   1.003 -0.5998 -0.2292  0.4965
10351SOL    HW132494   1.459   6.133   1.038 -0.2995  0.1438  0.9104
10351SOL    HW232495   1.330   6.173   0.971  0.3526 -1.0742 -1.1642
10352SOL     OW32496   1.069   5.066  12.121 -0.0854 -0.1595  0.1601
10352SOL    HW132497   1.091   5.149  12.164  2.1363 -0.9254  0.6549
10352SOL    HW232498   1.026   5.015  12.189 -1.6265  0.6158 -0.1969
10353SOL     OW32499   3.212   6.893   1.512 -0.6211  0.6790 -0.2995
10353SOL    HW132500   3.278   6.884   1.442 -1.1156  0.1009 -0.6963
10353SOL    HW232501   3.146   6.827   1.492 -0.0518 -0.5401  1.5473
10354SOL     OW32502   2.665   5.281   1.542  0.0549  0.3246 -0.1962
10354SOL    HW132503   2.608   5.204   1.534 -0.3846  0.7098 -0.8929
10354SOL    HW232504   2.714   5.266   1.623  0.4555 -0.9963 -0.6510
10355SOL     OW32505   4.788   6.695   0.500 -0.1651  0.3713  0.0913
10355SOL    HW132506   4.845   6.664   0.571 -0.8743  0.9481  0.9192
10355SOL    HW232507   4.740   6.617   0.472  0.9823 -0.1193 -0.5981
10356SOL     OW32508   4.096   6.645   2.445  0.1127  0.0098 -0.3775
10356SOL    HW132509   4.012   6.647   2.492 -0.4486 -0.4824 -1.3389
10356SOL    HW232510   4.132   6.733   2.456 -0.9613  0.5014 -0.7181
10357SOL     OW32511   3.195   6.320  12.061  0.1655 -0.0374  0.0643
10357SOL    HW132512   3.130   6.319  12.130 -0.2921  1.1788 -0.3245
10357SOL    HW232513   3.213   6.413  12.046  0.2225 -0.2691 -1.4615
10358SOL     OW32514   1.036   4.191   2.622 -0.1727  0.2806  0.8244
10358SOL    HW132515   1.116   4.211   2.574 -0.4251 -0.8564 -0.0944
10358SOL    HW232516   1.065   4.174   2.712  0.3102  2.3101  1.1017
10359SOL     OW32517   2.609   5.270  12.427 -0.0041 -0.2753 -0.4082
10359SOL    HW132518   2.661   5.349  12.409  0.9765 -0.4517  1.4343
10359SOL    HW232519   2.524   5.303  12.457  0.4678  0.1082  0.5387
10360SOL     OW32520   2.602   5.014   0.848 -0.1047 -0.4780 -0.0698
10360SOL    HW132521   2.552   5.090   0.818 -2.2006 -1.1702  1.3870
10360SOL    HW232522   2.675   5.008   0.787  1.3051  3.8009  0.8057
10361SOL     OW32523   1.557   5.127   0.710 -0.4218 -0.3582  0.0400
10361SOL    HW132524   1.523   5.083   0.788  0.1741 -0.0340  0.4956
10361SOL    HW232525   1.488   5.190   0.687  0.5476  1.6006  2.0479
10362SOL     OW32526   3.167   6.967  12.461 -0.1425  0.0525  0.1583
10362SOL    HW132527   3.262   6.974  12.453  0.1346 -2.2017  0.8960
10362SOL    HW232528   3.153   6.889  12.514 -2.4350 -0.9404 -1.7292
10363SOL     OW32529   2.724   5.901  12.298  0.0681 -0.1991 -0.6840
10363SOL    HW132530   2.630   5.893  12.311 -0.2100 -1.0811 -2.8156
10363SOL    HW232531   2.759   5.814  12.317  0.4085  0.0301 -0.2436
10364SOL     OW32532   1.378   7.213  10.572  0.9010  0.1232  0.1169
10364SOL    HW132533   1.424   7.230  10.490  0.9225  0.9677  0.2912
10364SOL    HW232534   1.360   7.300  10.608  2.1825 -0.2356  1.7358
10365SOL     OW32535   1.410   6.743   1.659 -0.2005 -0.3515 -0.4119
10365SOL    HW132536   1.429   6.800   1.584 -0.4886 -0.0420 -0.2483
10365SOL    HW232537   1.482   6.758   1.720  0.1766 -0.8027 -0.7401
10366SOL     OW32538   3.621   3.860  11.000  0.3141 -0.3897  0.1649
10366SOL    HW132539   3.609   3.887  10.909 -0.3913  1.3600  0.7352
10366SOL    HW232540   3.711   3.882  11.021  0.1946  0.1229  0.1589
10367SOL     OW32541   2.868   6.304  12.214  0.1302  0.2074  1.0525
10367SOL    HW132542   2.880   6.341  12.301  1.3181 -1.4269  1.6422
10367SOL    HW232543   2.781   6.264  12.217  0.5010 -0.5751  1.7972
10368SOL     OW32544   1.950   6.531  10.632 -0.6448  0.4113 -0.0953
10368SOL    HW132545   1.941   6.541  10.537  0.8854 -1.8992 -0.5592
10368SOL    HW232546   1.933   6.438  10.648 -1.5880  0.8869  2.0329
10369SOL     OW32547   4.313   6.621   2.875 -0.3400 -0.1841  0.0207
10369SOL    HW132548   4.277   6.570   2.803 -0.7534  1.4858 -1.0171
10369SOL    HW232549   4.358   6.557   2.930 -0.0831 -1.5294 -1.6734
10370SOL     OW32550   2.785   7.144   1.702  0.1113  0.5240 -0.4405
10370SOL    HW132551   2.821   7.065   1.741  0.9798  1.0588 -0.1475
10370SOL    HW232552   2.721   7.111   1.638  1.2742 -0.4561 -1.1494
10371SOL     OW32553   2.991   5.063   0.251 -0.5773  0.2025  0.5608
10371SOL    HW132554   3.026   4.974   0.253  0.1908  0.4615 -0.3040
10371SOL    HW232555   2.900   5.054   0.279 -0.4684 -0.8305  0.6226
10372SOL     OW32556   3.067   6.569   0.098  0.3959 -0.6321 -0.3569
10372SOL    HW132557   3.082   6.639   0.161 -0.9018 -0.4978 -0.1663
10372SOL    HW232558   3.109   6.599   0.018  1.6920 -0.6087  0.3121
10373SOL     OW32559   2.715   6.456   1.036  0.4868  0.0153 -0.6514
10373SOL    HW132560   2.695   6.369   1.002 -0.2929  0.2721 -0.8835
10373SOL    HW232561   2.789   6.487   0.984 -0.2099  0.1012 -1.6277
10374SOL     OW32562   2.722   3.299  12.495 -0.5927 -0.2199  0.1155
10374SOL    HW132563   2.803   3.322  12.450 -0.6343 -0.0948  0.1059
10374SOL    HW232564   2.662   3.273  12.425 -0.0773 -1.8048  0.2251
10375SOL     OW32565   3.324   7.500   1.641  0.4216 -0.0855 -0.3222
10375SOL    HW132566   3.303   7.453   1.722 -1.5519 -0.5366 -1.0340
10375SOL    HW232567   3.354   7.433   1.581 -1.2141 -0.2977 -0.9483
10376SOL     OW32568   1.423   4.796   0.530 -0.3186 -0.3249  0.1132
10376SOL    HW132569   1.383   4.747   0.459  0.2663 -0.0534 -0.4129
10376SOL    HW232570   1.516   4.797   0.509 -0.2237  0.3339  0.5315
10377SOL     OW32571   1.611   5.683  12.323  0.2952 -0.0174  0.0821
10377SOL    HW132572   1.604   5.745  12.396 -0.5795  1.2170 -1.0080
10377SOL    HW232573   1.611   5.597  12.365 -1.2721  0.6199  1.5128
10378SOL     OW32574   1.474   4.950   0.177  0.0024  0.5021  0.2553
10378SOL    HW132575   1.390   4.983   0.145  0.2854 -0.0556 -1.1593
10378SOL    HW232576   1.477   4.859   0.148  1.4383  0.7470 -0.4817
10379SOL     OW32577   1.570   7.641   2.172  0.0121 -0.4058 -0.3349
10379SOL    HW132578   1.638   7.643   2.240 -0.9549 -1.2116  0.6937
10379SOL    HW232579   1.495   7.685   2.211 -0.0824  0.4640 -1.4583
10380SOL     OW32580   1.993   6.774   0.219  0.3354  0.3224 -0.2514
10380SOL    HW132581   2.030   6.707   0.276 -2.3799 -0.2960  0.9689
10380SOL    HW232582   2.034   6.759   0.134  2.2680 -0.6810  0.7903
10381SOL     OW32583   2.400   4.840   0.911 -0.3421 -0.0894 -0.3119
10381SOL    HW132584   2.484   4.885   0.920  0.0766 -0.8136 -0.4625
10381SOL    HW232585   2.408   4.763   0.967 -1.6488  0.8257  1.1999
10382SOL     OW32586   3.988   6.420   0.644 -0.4287 -0.1088  1.2997
10382SOL    HW132587   4.050   6.422   0.570 -2.0730 -1.2947 -0.1916
10382SOL    HW232588   4.020   6.349   0.700 -0.9323 -1.4174  0.0073
10383SOL     OW32589   3.786   7.364   1.926 -0.2510 -0.3605 -0.2644
10383SOL    HW132590   3.724   7.353   1.999 -0.8864  1.4366 -0.4735
10383SOL    HW232591   3.859   7.306   1.947 -1.2782 -1.3208  0.8169
10384SOL     OW32592   3.758   5.236  11.214 -0.7602  0.6045  0.0606
10384SOL    HW132593   3.688   5.234  11.279 -0.2745 -0.6493  0.5766
10384SOL    HW232594   3.778   5.144  11.198  0.7585  0.9452 -0.0904
10385SOL     OW32595   3.053   6.503   1.172  0.3757  0.2385 -0.0475
10385SOL    HW132596   3.102   6.431   1.211 -1.5287  0.1334  2.3663
10385SOL    HW232597   3.085   6.581   1.218 -0.0548  0.4681 -0.1314
10386SOL     OW32598   1.633   6.506   1.191  0.2447  0.1892  0.3726
10386SOL    HW132599   1.580   6.550   1.125  0.8012 -1.0563 -0.9635
10386SOL    HW232600   1.578   6.434   1.221  0.6351 -0.2595  0.0172
10387SOL     OW32601   3.829   5.864   0.141 -0.2728  0.2283  0.6449
10387SOL    HW132602   3.911   5.913   0.151  1.7952 -3.2944  2.9280
10387SOL    HW232603   3.847   5.804   0.068 -1.6596  0.7483 -0.1603
10388SOL     OW32604   2.943   4.782   1.608  0.1898 -0.0621 -0.5989
10388SOL    HW132605   3.013   4.793   1.672 -3.4675 -1.4479  4.2950
10388SOL    HW232606   2.911   4.693   1.623 -1.8863  0.0913 -3.3840
10389SOL     OW32607   1.047   6.629   2.283  0.6648 -0.2680 -0.2242
10389SOL    HW132608   0.984   6.567   2.245  0.4336  0.1961 -0.6122
10389SOL    HW232609   1.112   6.642   2.214  2.8272 -2.9215  1.1140
10390SOL     OW32610   1.886   5.637   1.925  0.3907 -0.1091  0.3216
10390SOL    HW132611   1.815   5.696   1.952 -1.5393 -1.5011 -1.3727
10390SOL    HW232612   1.869   5.556   1.974  0.0595 -0.8443 -0.9743
10391SOL     OW32613   3.654   6.949   1.026  0.2064  0.0904  0.3774
10391SOL    HW132614   3.686   6.918   1.110  1.1628  1.3116  0.4916
10391SOL    HW232615   3.636   7.042   1.040  0.7318  0.3944 -0.8510
10392SOL     OW32616   2.514   6.310  10.386 -0.2851 -0.1289 -0.0459
10392SOL    HW132617   2.497   6.398  10.420 -0.6666 -0.0677 -0.3872
10392SOL    HW232618   2.606   6.295  10.404 -0.2426  0.3029  0.1110
10393SOL     OW32619   0.194   4.957   1.868  0.1549  1.2938  0.0485
10393SOL    HW132620   0.128   4.960   1.938 -0.0605 -1.6105  0.1041
10393SOL    HW232621   0.143   4.950   1.787  0.3568  0.0288  0.0138
10394SOL     OW32622   1.697   6.273   1.857  0.0642 -0.1741 -0.0344
10394SOL    HW132623   1.662   6.240   1.775  0.3120  1.6693 -0.9377
10394SOL    HW232624   1.638   6.344   1.881 -0.4636 -1.1700  1.8412
10395SOL     OW32625   1.673   5.672   1.340 -0.0289  0.3781  0.1976
10395SOL    HW132626   1.648   5.671   1.247  1.3852  1.4611 -0.2256
10395SOL    HW232627   1.732   5.597   1.349 -0.9598 -0.3441  0.4899
10396SOL     OW32628   4.492   5.643   1.343  0.1941  0.5602 -0.1803
10396SOL    HW132629   4.584   5.656   1.322  0.7394  0.1018  1.6944
10396SOL    HW232630   4.485   5.670   1.435 -1.4508  0.1627 -0.1633
10397SOL     OW32631   1.351   3.954   2.675  0.3395 -0.1588  0.5377
10397SOL    HW132632   1.308   3.972   2.758  2.6423 -1.8085  2.2434
10397SOL    HW232633   1.415   4.025   2.665 -0.3998  0.4209 -0.2331
10398SOL     OW32634   2.823   5.975   0.381  0.2978 -0.8406  0.2721
10398SOL    HW132635   2.769   6.048   0.353  0.7659  0.5421  2.6827
10398SOL    HW232636   2.769   5.898   0.367 -2.0062  0.3979  1.7390
10399SOL     OW32637   1.093   5.390   0.143 -0.3310 -0.3216 -0.1957
10399SOL    HW132638   1.066   5.443   0.217 -0.6351  0.2744 -0.7226
10399SOL    HW232639   1.031   5.317   0.141 -2.2449  1.2223 -1.6171
10400SOL     OW32640   2.351   5.557  12.242 -0.3784 -0.0402 -0.2617
10400SOL    HW132641   2.285   5.492  12.219 -0.5555  0.3116 -0.7490
10400SOL    HW232642   2.425   5.539  12.184  1.4931 -2.7703  2.6240
10401SOL     OW32643   4.584   6.403   1.288 -0.1113 -0.1963  0.2395
10401SOL    HW132644   4.511   6.404   1.226  1.9161 -1.2800 -2.3923
10401SOL    HW232645   4.554   6.348   1.360 -2.9975  2.0482  0.9451
10402SOL     OW32646   7.778   5.480   1.272  0.5256 -0.6359 -0.8986
10402SOL    HW132647   7.861   5.526   1.288 -0.0286  0.1847 -0.2768
10402SOL    HW232648   7.790   5.394   1.312  1.3632 -0.8269 -1.5405
10403SOL     OW32649   3.572   5.095  12.340  0.1981 -0.1465 -0.2373
10403SOL    HW132650   3.592   5.104  12.247  4.1717  1.1650  0.5549
10403SOL    HW232651   3.538   5.180  12.366  0.9932  0.1584 -0.1580
10404SOL     OW32652   4.510   4.428  10.980  0.1144 -0.1890  0.6983
10404SOL    HW132653   4.445   4.460  11.043  1.4267 -0.9256  2.5174
10404SOL    HW232654   4.484   4.338  10.962  0.1169 -0.1914  0.7064
10405SOL     OW32655   2.737   4.184   0.679 -0.4249  0.1651  0.4822
10405SOL    HW132656   2.707   4.155   0.766 -0.3193  1.8228  1.1125
10405SOL    HW232657   2.659   4.179   0.624 -1.0196  1.0689  1.2151
10406SOL     OW32658   0.558   6.240  11.698  0.2674 -0.8561  0.2750
10406SOL    HW132659   0.574   6.182  11.624 -0.5150 -1.0067  0.2194
10406SOL    HW232660   0.504   6.189  11.758  0.0242 -0.3736  0.4764
10407SOL     OW32661   1.331   7.309  12.125 -0.0755  0.4260  0.4655
10407SOL    HW132662   1.262   7.323  12.190  0.3706  0.3240  0.9640
10407SOL    HW232663   1.296   7.242  12.067  0.6392 -1.6304  2.2800
10408SOL     OW32664   2.914   5.548   1.011  0.1462 -0.2966 -0.2653
10408SOL    HW132665   2.819   5.544   1.018  0.0367 -2.3678 -1.9595
10408SOL    HW232666   2.930   5.591   0.927  0.7963  1.4966  0.7174
10409SOL     OW32667   2.517   5.157   1.154 -0.5547  0.5176  0.6020
10409SOL    HW132668   2.473   5.084   1.111  0.1376  0.2321  0.3611
10409SOL    HW232669   2.581   5.116   1.212 -0.1165  0.9271  0.4228
10410SOL     OW32670   3.008   7.523   1.839  0.7899 -0.0990  0.4850
10410SOL    HW132671   2.971   7.456   1.781 -0.4708 -0.2786  1.4662
10410SOL    HW232672   3.090   7.484   1.870 -0.1214 -1.4115  1.3695
10411SOL     OW32673   3.651   0.091   1.074 -0.2618  0.7387  0.3843
10411SOL    HW132674   3.705   0.140   1.012  0.3549  1.1110  1.2029
10411SOL    HW232675   3.706   0.080   1.152 -0.8236 -0.2052  0.6706
10412SOL     OW32676   3.243   5.720  11.758 -0.8464  0.3074 -0.1126
10412SOL    HW132677   3.330   5.754  11.737 -1.1855  0.5983 -1.0811
10412SOL    HW232678   3.223   5.757  11.844 -0.3711  0.9333 -0.2632
10413SOL     OW32679   1.388   6.490   0.403  0.6266  1.2323 -0.3781
10413SOL    HW132680   1.386   6.508   0.309 -1.0396 -0.8132 -0.8130
10413SOL    HW232681   1.467   6.437   0.415  0.6149  1.1281 -0.7285
10414SOL     OW32682   2.755   5.486  12.274 -0.1469 -0.6920 -1.0509
10414SOL    HW132683   2.808   5.458  12.200  1.1757  0.2366 -0.5003
10414SOL    HW232684   2.818   5.520  12.337 -1.3193 -0.6206  0.1236
10415SOL     OW32685   2.494   6.178  12.478  0.7412  0.1329  0.3975
10415SOL    HW132686   2.538   6.204  12.397  2.0097 -0.8336  0.7375
10415SOL    HW232687   2.562   6.184  12.545 -0.4685  1.6268  1.5598
10416SOL     OW32688   0.919   5.047   2.335  0.1439 -0.6205  0.7846
10416SOL    HW132689   0.851   5.083   2.392  0.5999  2.7436 -0.5617
10416SOL    HW232690   0.878   5.043   2.249  0.9694 -0.7486  0.3906
10417SOL     OW32691   2.556   6.214   1.953 -0.0311 -0.1437 -0.2696
10417SOL    HW132692   2.530   6.175   2.037  1.3565  0.3899  0.4501
10417SOL    HW232693   2.615   6.150   1.914  1.9231  0.9330  0.7245
10418SOL     OW32694   1.261   7.060   0.887 -0.3756 -0.1279 -0.3821
10418SOL    HW132695   1.294   7.110   0.962 -0.7040  0.5252 -0.6599
10418SOL    HW232696   1.273   7.120   0.812 -0.9335 -0.4017 -0.6951
10419SOL     OW32697   2.432   6.197   1.147  0.3619  0.3484 -0.1225
10419SOL    HW132698   2.450   6.223   1.237 -1.8121 -1.4678  0.9441
10419SOL    HW232699   2.388   6.112   1.154 -1.3705  0.8791 -2.7646
10420SOL     OW32700   2.510   0.917   1.564  0.9921  0.0532 -0.0775
10420SOL    HW132701   2.500   0.869   1.483  0.5760  0.5006 -0.2971
10420SOL    HW232702   2.489   0.854   1.633 -2.9491  0.7280 -0.4631
10421SOL     OW32703   1.356   6.148  12.434 -0.3838 -0.2323 -0.3079
10421SOL    HW132704   1.263   6.131  12.444 -0.4753  0.8486  1.2226
10421SOL    HW232705   1.383   6.098  12.357 -2.2203 -0.5368 -0.7865
10422SOL     OW32706   3.377   6.528   0.275  0.6272 -0.3354 -0.3468
10422SOL    HW132707   3.454   6.475   0.254  2.3394  1.9135 -0.1629
10422SOL    HW232708   3.413   6.610   0.311 -1.9128  0.2072  1.2226
10423SOL     OW32709   3.633   7.514   0.331  0.3530  0.1453 -0.0966
10423SOL    HW132710   3.660   7.486   0.418  3.0206  0.1935 -0.8452
10423SOL    HW232711   3.539   7.533   0.340  0.3213 -0.8873  2.4616
10424SOL     OW32712   3.644   7.186   0.552 -0.1213  0.6627 -0.4476
10424SOL    HW132713   3.728   7.230   0.566 -0.4872  0.9452  1.0973
10424SOL    HW232714   3.631   7.134   0.632 -1.1799  0.2357 -0.8804
10425SOL     OW32715   4.834   4.295   1.066 -0.4162  0.4418 -0.1640
10425SOL    HW132716   4.807   4.341   1.145 -1.3426  0.8888 -0.7213
10425SOL    HW232717   4.849   4.363   1.001 -0.8557  0.0310 -0.7180
10426SOL     OW32718   3.653   5.886   1.458  0.0954 -0.0766  0.5450
10426SOL    HW132719   3.577   5.830   1.471  1.3280 -1.6671  1.2389
10426SOL    HW232720   3.728   5.827   1.462  1.3589  1.2872 -0.9963
10427SOL     OW32721   0.706   0.461   0.839 -0.2970  0.6652 -0.1572
10427SOL    HW132722   0.756   0.537   0.869 -1.5105  2.2687 -1.9788
10427SOL    HW232723   0.750   0.433   0.759  0.9611 -1.5011  1.1934
10428SOL     OW32724   3.293   7.327   2.662 -0.1141 -0.1347  0.0342
10428SOL    HW132725   3.321   7.248   2.709 -0.9262 -0.6017 -0.2489
10428SOL    HW232726   3.374   7.377   2.650  0.1384 -0.0100  1.8922
10429SOL     OW32727   3.279   4.946  11.715  0.0060 -0.0380 -0.1787
10429SOL    HW132728   3.223   5.008  11.762  0.8316  0.0537  0.7210
10429SOL    HW232729   3.359   4.943  11.767  0.4032 -1.0191 -0.8302
10430SOL     OW32730   5.835   0.223   0.416 -0.3794  0.0478  1.0335
10430SOL    HW132731   5.858   0.160   0.485  0.8077 -0.0932  0.5487
10430SOL    HW232732   5.800   0.169   0.345  0.2549 -0.0454  0.7778
10431SOL     OW32733   2.620   6.506  12.394  0.2145 -0.1457  0.2338
10431SOL    HW132734   2.610   6.441  12.325  1.5936  0.3486 -0.4722
10431SOL    HW232735   2.572   6.582  12.364  1.1279  0.2022 -0.3908
10432SOL     OW32736   1.958   6.687   0.947  0.3892  0.2969 -0.2896
10432SOL    HW132737   1.922   6.734   0.872 -0.0755  0.7532  0.2141
10432SOL    HW232738   1.927   6.598   0.936  1.0332  0.1532 -1.0941
10433SOL     OW32739   2.013   4.661   2.005 -0.0483 -0.1149  0.9230
10433SOL    HW132740   1.952   4.613   2.061 -0.0151 -0.0507  1.0138
10433SOL    HW232741   1.977   4.651   1.917 -0.2550  0.0212  0.9910
10434SOL     OW32742   3.445   5.667   1.430 -0.5169 -0.4229 -0.1452
10434SOL    HW132743   3.385   5.742   1.434  2.9343  2.9454 -3.2033
10434SOL    HW232744   3.394   5.597   1.390 -2.9224  1.5699 -0.8097
10435SOL     OW32745   3.168   7.455  12.238 -0.2496  0.2493 -0.4011
10435SOL    HW132746   3.096   7.506  12.275 -0.3172  0.0291 -0.2247
10435SOL    HW232747   3.244   7.476  12.292 -0.6198 -1.0046  0.6470
10436SOL     OW32748   5.335   5.892   1.956 -0.8513  0.4744 -0.0672
10436SOL    HW132749   5.371   5.811   1.992  1.1693  2.0457  1.7141
10436SOL    HW232750   5.354   5.886   1.862 -1.4434 -1.4140 -0.1068
10437SOL     OW32751   2.740   4.355   0.935  0.2221  0.0271 -0.0724
10437SOL    HW132752   2.819   4.368   0.987 -0.4358  3.1272  0.2870
10437SOL    HW232753   2.771   4.353   0.844  0.8394 -0.5018  0.1378
10438SOL     OW32754   1.390   3.919   1.045 -0.5449 -0.5869  0.2948
10438SOL    HW132755   1.477   3.878   1.048  0.5355  1.4407 -1.1392
10438SOL    HW232756   1.333   3.858   1.092  1.2895 -2.8582 -0.2503
10439SOL     OW32757   2.661   5.821   1.526  0.2335 -0.3468 -0.4009
10439SOL    HW132758   2.595   5.833   1.594  0.9181  0.8531  0.0802
10439SOL    HW232759   2.712   5.902   1.527  3.0732 -1.9939  0.7349
10440SOL     OW32760   2.356   4.840   1.302 -0.1076 -0.4341  0.2114
10440SOL    HW132761   2.446   4.860   1.277 -0.1405 -0.4044  0.1155
10440SOL    HW232762   2.311   4.925   1.300 -0.2174 -0.4971 -0.0703
10441SOL     OW32763   2.904   6.539  12.104  0.3310  0.5465 -0.1288
10441SOL    HW132764   2.896   6.462  12.159  1.8759  1.8988  2.1812
10441SOL    HW232765   2.919   6.505  12.016  2.2170 -1.8420  1.0044
10442SOL     OW32766   4.087   6.417  10.960 -0.7082 -0.2433 -0.8864
10442SOL    HW132767   4.157   6.414  11.025 -3.0093 -1.8568  1.7552
10442SOL    HW232768   4.132   6.412  10.875  2.3836  0.6114  0.5797
10443SOL     OW32769   2.403   5.362   0.099 -0.0845 -0.3950  0.0162
10443SOL    HW132770   2.321   5.362   0.050 -0.5074  1.8835  0.5986
10443SOL    HW232771   2.376   5.370   0.191  0.7702  0.1763  0.2324
10444SOL     OW32772   4.343   6.924   1.495 -0.1821 -0.5747  0.2377
10444SOL    HW132773   4.312   7.014   1.504 -0.1136 -0.6043  0.7661
10444SOL    HW232774   4.272   6.879   1.449  0.2632  0.0112 -1.0731
10445SOL     OW32775   3.284   6.995   0.369  0.0983 -0.1084  0.2097
10445SOL    HW132776   3.249   6.934   0.304  0.0316  0.4900 -0.3320
10445SOL    HW232777   3.376   6.970   0.377 -0.1802 -0.9827  0.8230
10446SOL     OW32778   3.106   4.761   0.170  0.2854  0.0668 -0.5405
10446SOL    HW132779   3.013   4.782   0.161  0.6001  2.1112  0.3389
10446SOL    HW232780   3.129   4.717   0.088 -1.3855 -0.2859 -0.8590
10447SOL     OW32781   1.059   7.534   1.130  0.1990  0.2640  0.5991
10447SOL    HW132782   1.020   7.512   1.045 -0.2527  0.7850  0.6692
10447SOL    HW232783   1.104   7.617   1.115 -1.1571  1.1446  1.2285
10448SOL     OW32784   2.229   5.291  12.194  0.3363 -0.2213 -0.2711
10448SOL    HW132785   2.174   5.226  12.151 -1.2616  0.8957 -0.0108
10448SOL    HW232786   2.225   5.268  12.287 -0.3727  0.3053 -0.1574
10449SOL     OW32787   2.874   7.532   1.471 -0.4771  0.2957 -0.7518
10449SOL    HW132788   2.899   7.459   1.528  0.1085  1.5437  0.6867
10449SOL    HW232789   2.956   7.580   1.456 -1.1556  1.8467  0.1577
10450SOL     OW32790   7.517   0.075   0.936 -0.2176  0.3499  0.1064
10450SOL    HW132791   7.501   0.079   1.030 -1.6050 -0.3790 -0.0716
10450SOL    HW232792   7.544  -0.016   0.921  0.0015  0.4652 -0.1978
10451SOL     OW32793   2.556   4.900   0.277 -0.5842 -0.2643 -0.0178
10451SOL    HW132794   2.464   4.893   0.301 -0.0691  0.3267  2.3229
10451SOL    HW232795   2.592   4.964   0.338  0.9207  1.2866 -2.3316
10452SOL     OW32796   4.148   4.872   0.834 -0.3664  0.0007 -0.4551
10452SOL    HW132797   4.145   4.792   0.887 -1.2272 -0.2517 -0.8557
10452SOL    HW232798   4.096   4.935   0.884  1.0187  0.6065  0.2861
10453SOL     OW32799   1.426   5.255   2.316  0.5627  0.0382  0.3041
10453SOL    HW132800   1.505   5.224   2.361  1.3109  2.1499  0.5637
10453SOL    HW232801   1.454   5.335   2.272 -0.8043 -0.5786 -1.8557
10454SOL     OW32802   3.339   4.166  11.316 -0.4447  0.0266  0.3369
10454SOL    HW132803   3.376   4.078  11.318 -1.4173 -0.3971  0.4562
10454SOL    HW232804   3.372   4.204  11.235 -0.0531 -0.4603  0.2611
10455SOL     OW32805   2.713   6.046   2.315  0.0565 -0.3940 -0.5865
10455SOL    HW132806   2.623   6.037   2.285  0.1701  0.2507 -1.1580
10455SOL    HW232807   2.707   6.090   2.399 -0.1072  1.0475 -1.3128
10456SOL     OW32808   2.374   6.739   1.214  0.7593 -0.0555 -0.2738
10456SOL    HW132809   2.464   6.712   1.232  1.5045  1.2764 -1.7407
10456SOL    HW232810   2.345   6.680   1.144 -1.3221 -3.7072  3.3127
10457SOL     OW32811   2.691   6.977  12.454 -0.4175 -0.6344 -0.0233
10457SOL    HW132812   2.639   6.959  12.376 -0.0131 -0.4704 -0.3354
10457SOL    HW232813   2.707   7.072  12.451 -0.4379 -0.6193  0.2821
10458SOL     OW32814   2.287   5.403   3.926  0.3623  0.0661 -0.1775
10458SOL    HW132815   2.370   5.359   3.948  0.5515  0.2742 -0.4720
10458SOL    HW232816   2.305   5.449   3.844 -0.3892 -0.8472 -0.8721
10459SOL     OW32817   3.061   7.051   2.767 -0.4489 -0.5798  0.5280
10459SOL    HW132818   3.146   7.096   2.773 -0.3517 -0.8289  1.0551
10459SOL    HW232819   2.998   7.114   2.801 -0.8752  0.6065 -2.1696
10460SOL     OW32820   3.671   7.241   1.430 -0.5510  0.1501 -0.4681
10460SOL    HW132821   3.640   7.154   1.454 -0.3055  0.1093 -0.2830
10460SOL    HW232822   3.658   7.294   1.509 -0.8729  0.3292 -0.6402
10461SOL     OW32823   2.965   4.834  11.263 -0.8514  0.0093  0.6227
10461SOL    HW132824   2.890   4.878  11.223 -0.5016 -1.0165 -1.3069
10461SOL    HW232825   2.969   4.869  11.352 -2.4806  1.4638  0.1850
10462SOL     OW32826   2.153   5.295  11.847  0.1863  0.0378  0.5806
10462SOL    HW132827   2.160   5.276  11.753  0.6728  0.6543  0.4898
10462SOL    HW232828   2.241   5.321  11.873 -0.4512  2.2884  0.6779
10463SOL     OW32829   5.340   4.885   1.396  0.0279 -0.0537  0.8612
10463SOL    HW132830   5.368   4.799   1.426 -2.3983 -1.2326 -0.0107
10463SOL    HW232831   5.253   4.897   1.434 -1.1912  0.3853 -1.8392
10464SOL     OW32832   3.049   5.627   1.239 -0.5002 -0.0603  0.0756
10464SOL    HW132833   2.983   5.667   1.296 -0.2938  0.9132 -0.3495
10464SOL    HW232834   2.999   5.576   1.176 -0.7036 -2.9056  2.2828
10465SOL     OW32835   1.988   6.610   0.587  0.4109 -0.7297  0.0586
10465SOL    HW132836   1.929   6.605   0.512  0.4942  0.5310 -0.1057
10465SOL    HW232837   1.934   6.646   0.657  0.0560 -2.8014  0.9318
10466SOL     OW32838   3.019   7.416   0.854  0.5524 -0.1383  0.3507
10466SOL    HW132839   2.994   7.462   0.934  0.8429  0.0807  0.3133
10466SOL    HW232840   3.044   7.328   0.884  0.2098 -0.2061  0.4449
10467SOL     OW32841   3.382   7.625   0.366  0.2770 -0.7979 -0.2515
10467SOL    HW132842   3.306   7.672   0.401 -0.0000 -1.0654 -0.4897
10467SOL    HW232843   3.344   7.559   0.309  0.7241 -0.4312 -0.9783
10468SOL     OW32844   3.088   7.163   0.938  0.0118 -0.1409  0.0109
10468SOL    HW132845   3.152   7.102   0.903 -1.0160 -0.4079 -1.5135
10468SOL    HW232846   3.099   7.157   1.033  1.0619 -1.4448 -0.1581
10469SOL     OW32847   4.140   6.591   0.156 -0.0353  0.1223 -0.2352
10469SOL    HW132848   4.160   6.652   0.227 -1.3580  1.4557 -0.9616
10469SOL    HW232849   4.082   6.526   0.197  1.8785 -1.0805  0.7001
10470SOL     OW32850   2.823   6.840   0.636 -0.1519  0.4911  0.7517
10470SOL    HW132851   2.907   6.829   0.592  0.2249  1.0386  1.3116
10470SOL    HW232852   2.845   6.886   0.717 -0.5487 -2.0123  2.4115
10471SOL     OW32853   1.368   7.443   0.000  0.0064  0.2381  0.4625
10471SOL    HW132854   1.436   7.375  -0.007 -0.0227  0.2596 -0.0581
10471SOL    HW232855   1.365   7.482  -0.087 -1.5500 -0.5905  0.1131
10472SOL     OW32856   3.493   6.169   3.359  0.2658  0.3369 -0.2973
10472SOL    HW132857   3.588   6.154   3.359  0.0273 -1.8942 -2.1944
10472SOL    HW232858   3.459   6.106   3.422 -0.0846 -0.4894 -1.2880
10473SOL     OW32859   3.672   5.456   0.177  0.2747  0.0668  0.3691
10473SOL    HW132860   3.689   5.523   0.111  3.0706 -1.8322 -1.0236
10473SOL    HW232861   3.741   5.470   0.243 -1.3728  0.7817  2.0224
10474SOL     OW32862   1.172   5.730   1.252 -0.1896  0.6222 -0.1923
10474SOL    HW132863   1.198   5.810   1.298 -0.1639  0.6801 -0.3071
10474SOL    HW232864   1.157   5.667   1.321  0.2236  0.5992 -0.1187
10475SOL     OW32865   2.809   4.781   0.441 -0.1292  0.0932 -0.2852
10475SOL    HW132866   2.879   4.779   0.507 -1.0737  5.1669  1.3074
10475SOL    HW232867   2.843   4.838   0.373 -1.4544 -0.1998 -1.2245
10476SOL     OW32868   3.250   6.273   2.689 -0.3338 -0.5688 -0.2892
10476SOL    HW132869   3.261   6.205   2.622 -1.1972  0.2914 -1.3585
10476SOL    HW232870   3.172   6.321   2.661  0.8323  1.5099 -0.1475
10477SOL     OW32871   4.100   7.511   0.265 -0.2077 -0.5420 -0.6806
10477SOL    HW132872   4.063   7.457   0.195 -0.6853  0.3589 -1.1358
10477SOL    HW232873   4.031   7.573   0.287  0.1006 -0.5245  0.2884
10478SOL     OW32874   5.114   4.876   0.891  0.0294  0.4856  0.0122
10478SOL    HW132875   5.137   4.934   0.963 -1.8431  0.5441  0.6224
10478SOL    HW232876   5.196   4.834   0.866  1.2658  2.7360  0.1184
10479SOL     OW32877   5.518   4.007   2.265  0.2744  0.1995 -0.3864
10479SOL    HW132878   5.593   4.008   2.324 -0.1734  0.8114  0.1897
10479SOL    HW232879   5.551   3.966   2.185  1.9134  2.4902 -1.0047
10480SOL     OW32880   3.387   7.122   1.174  0.0215  0.1502  0.0790
10480SOL    HW132881   3.302   7.096   1.208  0.5294 -0.0871  1.2342
10480SOL    HW232882   3.375   7.213   1.146 -0.2016  0.7084  1.8515
10481SOL     OW32883   3.144   7.170   1.938 -0.1598 -0.3786  0.7490
10481SOL    HW132884   3.131   7.083   1.977 -0.2480 -0.9769 -0.5623
10481SOL    HW232885   3.196   7.153   1.859  0.1927  0.8197  0.7065
10482SOL     OW32886   4.615   4.973  10.969 -0.1487  0.4339 -0.0107
10482SOL    HW132887   4.575   5.041  11.023  0.3013  0.7207 -0.0337
10482SOL    HW232888   4.688   5.017  10.924  0.6138 -0.2320  0.5421
10483SOL     OW32889   1.004   5.900   1.634 -0.2980  0.6095  0.5759
10483SOL    HW132890   1.006   5.819   1.685  0.1690  0.6558  0.6272
10483SOL    HW232891   1.038   5.967   1.693  0.8408  0.5507  0.0065
10484SOL     OW32892   2.725   4.059   1.379  0.3659 -0.4563  0.5501
10484SOL    HW132893   2.677   4.110   1.313  0.0070 -1.7694 -0.2423
10484SOL    HW232894   2.724   4.114   1.457 -1.5795 -0.0053  0.2664
10485SOL     OW32895   2.013   4.657   1.243 -0.2497  0.3578  0.0295
10485SOL    HW132896   1.948   4.595   1.211  0.7482 -0.2037 -0.9622
10485SOL    HW232897   2.047   4.616   1.323 -0.5336  0.2619  0.1030
10486SOL     OW32898   3.929   5.695   2.496 -0.0656 -0.5614  0.0598
10486SOL    HW132899   3.885   5.732   2.419  1.5444  0.8872 -0.2300
10486SOL    HW232900   3.873   5.623   2.523 -1.0684 -0.6372 -2.0179
10487SOL     OW32901   1.005   5.043   3.189 -0.1498 -0.0258 -0.6296
10487SOL    HW132902   0.948   4.966   3.189 -1.2628  0.7604 -1.1845
10487SOL    HW232903   1.003   5.075   3.279 -0.5522 -0.0425 -0.6312
10488SOL     OW32904   6.610   6.756   1.521  0.1133 -0.4782  0.3066
10488SOL    HW132905   6.660   6.674   1.522  0.5718 -0.1994  0.6601
10488SOL    HW232906   6.529   6.735   1.568 -0.1390 -0.9477 -0.3132
10489SOL     OW32907   1.959   5.502   2.927 -0.3995  0.1017  0.5490
10489SOL    HW132908   1.950   5.407   2.942  1.6643 -0.4203 -1.0705
10489SOL    HW232909   1.882   5.525   2.875 -0.5415 -0.8713  0.3067
10490SOL     OW32910   2.546   6.960   2.492 -0.3609 -0.5982  0.8515
10490SOL    HW132911   2.599   6.881   2.492  0.2708 -0.2148 -0.7344
10490SOL    HW232912   2.479   6.945   2.426  0.1599  0.4093  0.0623
10491SOL     OW32913   2.065   0.251   3.423 -0.2177  0.5940  0.4073
10491SOL    HW132914   2.022   0.330   3.389 -0.8036  0.0128 -0.2377
10491SOL    HW232915   2.007   0.179   3.397  0.1903 -0.0297  1.1849
10492SOL     OW32916   2.021   5.259   1.802  0.0221  0.2265  0.2258
10492SOL    HW132917   2.110   5.288   1.821 -0.1522  2.6149 -2.0167
10492SOL    HW232918   2.030   5.195   1.732 -0.0212  1.7994 -1.2941
10493SOL     OW32919   3.483   6.344   0.791 -0.0432 -0.0235 -0.0487
10493SOL    HW132920   3.457   6.252   0.784 -1.5180  0.4580 -1.4884
10493SOL    HW232921   3.404   6.389   0.819  0.5648  0.8618  0.2705
10494SOL     OW32922   1.192   5.481   1.843  0.0849 -0.2320  0.7437
10494SOL    HW132923   1.267   5.504   1.898  1.3763 -2.2578 -0.0808
10494SOL    HW232924   1.218   5.400   1.799 -2.0588 -0.2457 -0.6312
10495SOL     OW32925   2.237   5.699   4.344  0.0412  0.7241 -0.3039
10495SOL    HW132926   2.162   5.738   4.390 -1.3794 -1.1975 -0.8585
10495SOL    HW232927   2.308   5.700   4.408 -1.6034 -0.9952  1.6677
10496SOL     OW32928   0.498   4.993   3.017 -0.0759 -0.6221  1.0135
10496SOL    HW132929   0.572   5.050   2.995 -1.0157  0.0425 -0.6290
10496SOL    HW232930   0.475   5.017   3.106  0.9192  0.0453  1.1081
10497SOL     OW32931   4.819   6.877   3.330 -0.1114 -0.0134 -0.3290
10497SOL    HW132932   4.756   6.847   3.264 -2.0080  2.6601  0.0763
10497SOL    HW232933   4.784   6.845   3.413 -0.2796  0.4354 -0.2226
10498SOL     OW32934   1.117   7.223   0.534  0.0462  0.5018  0.0416
10498SOL    HW132935   1.169   7.190   0.461  1.2138  1.1273  0.5737
10498SOL    HW232936   1.179   7.232   0.606 -0.5461  2.3566  0.3634
10499SOL     OW32937   2.608   5.942   2.634 -0.4973 -0.7334  0.0085
10499SOL    HW132938   2.590   6.023   2.682  1.5872 -0.6442  0.7684
10499SOL    HW232939   2.703   5.943   2.623 -0.4346 -3.0652  0.0058
10500SOL     OW32940   2.200   6.067   0.891  0.3024 -0.4458  0.0079
10500SOL    HW132941   2.282   6.033   0.926 -0.2329 -0.6901  1.0632
10500SOL    HW232942   2.194   6.155   0.927  0.6504  0.0054 -1.0042
10501SOL     OW32943   1.575   5.840   0.040 -0.2062  0.3419 -0.1128
10501SOL    HW132944   1.524   5.919   0.057  1.4233  1.8084 -1.6973
10501SOL    HW232945   1.597   5.807   0.128 -1.6752  1.0928  0.5778
10502SOL     OW32946   2.257   7.195   1.068  0.5540  0.1336  0.5653
10502SOL    HW132947   2.289   7.244   1.144  0.2025 -0.3738  1.0482
10502SOL    HW232948   2.267   7.103   1.094 -0.8373 -0.0413  0.5348
10503SOL     OW32949   3.323   6.892   4.196  0.0853 -0.0333 -0.5403
10503SOL    HW132950   3.276   6.965   4.157 -1.6143 -0.4725  0.5840
10503SOL    HW232951   3.263   6.817   4.190  0.5375 -0.5736  1.0678
10504SOL     OW32952   1.041   5.099   2.872 -0.5490 -0.1813 -0.6917
10504SOL    HW132953   1.124   5.093   2.825  0.1609  1.0410  0.3529
10504SOL    HW232954   1.061   5.064   2.959 -1.3589 -0.6779 -0.6979
10505SOL     OW32955   1.368   6.908   3.929  0.0557  0.3533 -0.2278
10505SOL    HW132956   1.337   6.947   4.010 -0.9493  0.3244 -0.5800
10505SOL    HW232957   1.388   6.982   3.872 -0.8373  0.3757 -0.5260
10506SOL     OW32958   1.890   0.471   3.335  0.1323  0.4925  0.1559
10506SOL    HW132959   1.811   0.504   3.293 -0.3970 -0.7528  0.1367
10506SOL    HW232960   1.914   0.538   3.398 -0.9054  0.9135  0.1203
10507SOL     OW32961   2.867   4.610   0.729 -0.2474  0.1445  0.1987
10507SOL    HW132962   2.778   4.616   0.696  0.1348  1.8576 -0.6485
10507SOL    HW232963   2.869   4.669   0.805 -0.5251 -2.0341  1.9981
10508SOL     OW32964   3.116   5.122   2.709 -0.0824  0.0943  0.4681
10508SOL    HW132965   3.086   5.106   2.798  0.7986 -1.3466  0.5378
10508SOL    HW232966   3.144   5.213   2.708  0.4276 -0.0345  1.8121
10509SOL     OW32967   2.414   5.425   1.555  0.3411  0.3109 -0.2896
10509SOL    HW132968   2.499   5.380   1.559 -1.0851 -2.5434  0.6060
10509SOL    HW232969   2.391   5.442   1.646 -0.4383  0.2645 -0.4719
10510SOL     OW32970   2.536   7.273   1.401  0.5581  0.0204  0.2740
10510SOL    HW132971   2.456   7.291   1.451  1.0479 -0.6762  1.3448
10510SOL    HW232972   2.571   7.359   1.379  0.0283  0.3356  0.6475
10511SOL     OW32973   1.746   5.302   2.715  0.2287  0.3763 -0.3850
10511SOL    HW132974   1.717   5.393   2.707 -1.1900 -0.0367 -0.2610
10511SOL    HW232975   1.827   5.306   2.766  0.0297  1.5400 -0.1415
10512SOL     OW32976   2.828   6.292   3.803  0.1901  0.3389 -0.0972
10512SOL    HW132977   2.771   6.217   3.785  0.9097 -0.8179  2.0414
10512SOL    HW232978   2.769   6.359   3.838 -0.3301  0.4737 -1.1884
10513SOL     OW32979   4.543   6.005   1.862 -0.6555  0.2203 -0.0566
10513SOL    HW132980   4.486   5.971   1.793 -0.8082 -0.7490  0.5277
10513SOL    HW232981   4.552   5.933   1.923  0.8684  0.4954  0.0840
10514SOL     OW32982   2.592   6.538   2.839  0.4786  0.0751  1.1930
10514SOL    HW132983   2.674   6.579   2.811 -0.3612  0.5645 -0.7722
10514SOL    HW232984   2.532   6.612   2.852  0.2849 -0.2848  2.4573
10515SOL     OW32985   3.743   5.004   3.473 -0.0365  0.3815 -0.5572
10515SOL    HW132986   3.788   5.046   3.547 -1.2241 -0.5977  0.7731
10515SOL    HW232987   3.730   4.914   3.502 -0.8603  0.0808 -1.8304
10516SOL     OW32988   2.504   3.848   3.965  0.5418 -0.6770 -0.3536
10516SOL    HW132989   2.533   3.776   3.909 -0.2875 -1.7671  0.5738
10516SOL    HW232990   2.561   3.843   4.042 -0.0366 -0.8666  0.0716
10517SOL     OW32991   0.906   5.598   3.087  0.4148 -0.4140 -0.0781
10517SOL    HW132992   0.989   5.558   3.063 -0.1598 -0.7825 -1.5415
10517SOL    HW232993   0.839   5.538   3.054 -0.4646 -0.4378  1.6094
10518SOL     OW32994   2.894   6.592   3.335  0.2337  0.3970  0.1039
10518SOL    HW132995   2.846   6.510   3.343  2.2092 -0.6999  1.8848
10518SOL    HW232996   2.879   6.636   3.419  2.5970 -0.2078  0.9179
10519SOL     OW32997   0.808   5.034   2.095 -0.4388 -0.0739  0.4282
10519SOL    HW132998   0.801   4.939   2.100 -0.9273 -0.0507  0.2982
10519SOL    HW232999   0.847   5.051   2.010  2.4796 -0.2598  1.6324
10520SOL     OW33000   1.508   4.146   2.401 -0.0171  0.0408 -0.0278
10520SOL    HW133001   1.593   4.190   2.406 -0.6605  1.6952 -2.2620
10520SOL    HW233002   1.524   4.067   2.350  0.0231  0.9610 -1.5066
10521SOL     OW33003   3.148   5.027   4.646  0.4709  0.0570 -0.4892
10521SOL    HW133004   3.206   4.950   4.641  1.5715  0.9435 -2.5959
10521SOL    HW233005   3.073   5.004   4.591 -0.3942 -0.3821  0.8057
10522SOL     OW33006   3.380   7.711   1.320 -0.2660 -0.8167 -0.5658
10522SOL    HW133007   3.449   7.646   1.334  1.6245  1.0881 -0.4598
10522SOL    HW233008   3.369   7.754   1.405 -1.5375 -1.0092 -0.6108
10523SOL     OW33009   4.050   5.808   2.704  0.5310 -0.0693  0.8642
10523SOL    HW133010   4.018   5.746   2.639 -0.7893  1.1452  0.2859
10523SOL    HW233011   4.126   5.766   2.743  1.5454 -0.7576 -1.6596
10524SOL     OW33012   1.764   3.839   3.175 -0.3853  0.2432 -0.9075
10524SOL    HW133013   1.681   3.828   3.129 -1.3741 -0.2243  0.8919
10524SOL    HW233014   1.760   3.927   3.211 -0.0567  0.2549 -0.8976
10525SOL     OW33015   2.913   5.849   2.889  0.2645  0.0541 -0.2400
10525SOL    HW133016   2.989   5.887   2.933 -0.0685  3.6497 -2.3921
10525SOL    HW233017   2.841   5.860   2.951  0.8982 -0.5785  0.6293
10526SOL     OW33018   3.072   0.859   1.210  0.1735  0.3434  0.0737
10526SOL    HW133019   3.077   0.921   1.283  2.2841 -1.2920  1.4450
10526SOL    HW233020   3.012   0.791   1.240  2.1295 -1.0731  1.0140
10527SOL     OW33021   1.129   5.455   2.991  0.0502  0.0986 -0.4172
10527SOL    HW133022   1.155   5.365   2.973  1.4937  0.7084 -1.5790
10527SOL    HW233023   1.177   5.479   3.071 -1.7447 -0.7007  0.9631
10528SOL     OW33024   2.011   5.436   3.694 -0.0959  0.1318  0.0061
10528SOL    HW133025   2.020   5.351   3.738 -0.9115 -1.0061 -1.9094
10528SOL    HW233026   2.100   5.471   3.691  0.4255 -1.1487 -0.0763
10529SOL     OW33027   2.913   6.950   3.079  0.0116  0.0375  0.5975
10529SOL    HW133028   2.917   6.926   3.172  1.7633  0.0711  0.5658
10529SOL    HW233029   2.986   7.010   3.066  0.0947 -0.3381 -0.9102
10530SOL     OW33030   2.353   5.808   3.792  0.5641 -0.3046 -0.0698
10530SOL    HW133031   2.428   5.811   3.852  0.5449 -0.0234 -0.0587
10530SOL    HW233032   2.348   5.897   3.755  0.2754 -0.3391 -0.1176
10531SOL     OW33033   2.942   4.836   3.259 -0.6237  0.4804 -0.1387
10531SOL    HW133034   2.952   4.850   3.353 -0.6034  0.2354 -0.1038
10531SOL    HW233035   2.854   4.802   3.248 -0.6680  0.6178 -0.2227
10532SOL     OW33036   2.406   6.805   2.680 -0.2729 -0.0040  0.2168
10532SOL    HW133037   2.455   6.876   2.638  0.5010 -1.0734 -0.7790
10532SOL    HW233038   2.319   6.841   2.696  0.7027  1.8770  1.7634
10533SOL     OW33039   0.219   1.132   3.307 -0.7118  0.3934 -0.4478
10533SOL    HW133040   0.126   1.109   3.304 -1.0287  1.3756  0.8474
10533SOL    HW233041   0.249   1.101   3.392  0.5187 -1.1201 -1.3756
10534SOL     OW33042   2.556   4.363   0.466  0.6250  0.6409 -0.5705
10534SOL    HW133043   2.545   4.401   0.553  0.3682  0.0440 -0.3355
10534SOL    HW233044   2.635   4.403   0.431  1.1170  0.3756  0.2146
10535SOL     OW33045   3.528   5.760   3.714 -0.0533 -0.2447  0.3781
10535SOL    HW133046   3.524   5.670   3.746 -1.1235 -0.4745 -0.3203
10535SOL    HW233047   3.613   5.766   3.671 -0.0189 -0.9705  0.3172
10536SOL     OW33048   4.569   5.446   0.609 -0.1061  0.5016  0.6870
10536SOL    HW133049   4.538   5.515   0.668  1.0183  1.4737  0.1757
10536SOL    HW233050   4.578   5.369   0.665  0.9188  1.3950  1.8113
10537SOL     OW33051   2.424   4.947   3.092 -0.1939  0.1093 -0.0384
10537SOL    HW133052   2.410   4.930   3.185  0.2153  1.2478  0.2444
10537SOL    HW233053   2.473   4.871   3.061 -1.5954 -0.9843  0.3227
10538SOL     OW33054   3.973   7.200   1.526  0.0072 -0.1415 -0.2376
10538SOL    HW133055   3.882   7.226   1.514 -0.5060 -2.5058 -2.4370
10538SOL    HW233056   4.021   7.248   1.458 -0.1262 -1.0503 -0.9993
10539SOL     OW33057   2.736   5.658   2.400 -0.7197  0.1095 -0.0234
10539SOL    HW133058   2.751   5.637   2.493  0.9241  1.3724  0.0598
10539SOL    HW233059   2.641   5.657   2.390 -0.8990 -0.9156  1.4619
10540SOL     OW33060   3.350   7.086   2.780 -0.0532 -0.6146  0.0640
10540SOL    HW133061   3.382   7.029   2.850 -1.0648 -1.0172  0.2126
10540SOL    HW233062   3.347   7.030   2.703 -3.6082 -1.6129  0.7738
10541SOL     OW33063   3.002   6.352   3.594 -0.0484  0.3423 -0.3819
10541SOL    HW133064   2.954   6.317   3.669 -0.8108 -0.8061 -1.3774
10541SOL    HW233065   2.934   6.375   3.530  0.6006  1.0581 -0.8398
10542SOL     OW33066   2.615   5.899   1.243  0.4357 -0.1915  0.1555
10542SOL    HW133067   2.705   5.912   1.212  0.8672 -1.3757  0.8596
10542SOL    HW233068   2.622   5.830   1.308 -1.0178 -0.3757  0.1383
10543SOL     OW33069   3.004   5.314   2.887  0.2309  0.3088  0.4463
10543SOL    HW133070   3.065   5.299   2.960  0.2771  0.1505  0.3760
10543SOL    HW233071   3.005   5.409   2.875 -0.9360  0.5058  1.6443
10544SOL     OW33072   2.480   6.992   3.820  0.4841 -0.4776  0.0788
10544SOL    HW133073   2.527   6.943   3.888  1.7622  0.2108 -0.2773
10544SOL    HW233074   2.388   6.977   3.840  0.8338 -0.8839  1.5356
10545SOL     OW33075   4.107   6.754   0.381  0.5749 -0.3525 -0.2070
10545SOL    HW133076   4.017   6.785   0.392  0.8512  0.4704 -0.1787
10545SOL    HW233077   4.161   6.829   0.405  1.2764 -0.8968 -0.0548
10546SOL     OW33078   1.194   5.886   2.596  0.1817  0.6145 -0.2382
10546SOL    HW133079   1.213   5.917   2.685 -0.4620  1.2487 -0.3085
10546SOL    HW233080   1.184   5.792   2.605 -1.7391  0.8631  0.7243
10547SOL     OW33081   3.320   7.217   3.191 -0.3753  0.1090  0.7420
10547SOL    HW133082   3.376   7.178   3.258 -0.6459 -2.1765 -0.2775
10547SOL    HW233083   3.379   7.269   3.137  0.0172  1.0855  2.0381
10548SOL     OW33084   2.348   5.414   1.830  0.2223  0.1043 -0.1038
10548SOL    HW133085   2.334   5.322   1.855 -3.2726  0.7364  0.8699
10548SOL    HW233086   2.397   5.451   1.903 -0.8067 -0.4030  0.8813
10549SOL     OW33087   3.102   4.477   2.384  0.9390 -0.2751  0.3524
10549SOL    HW133088   3.154   4.443   2.458  0.7953  2.0826  1.6258
10549SOL    HW233089   3.021   4.509   2.424  0.2174 -0.2332 -1.0671
10550SOL     OW33090   0.752   7.210   2.357  0.6591  0.0557  0.0100
10550SOL    HW133091   0.846   7.196   2.351  0.4248 -1.1206 -1.6488
10550SOL    HW233092   0.733   7.212   2.451  2.7875  3.9934  0.5827
10551SOL     OW33093   3.660   5.881   4.069 -0.4164  0.1502  0.8750
10551SOL    HW133094   3.704   5.799   4.088 -1.2367  0.2502  3.5331
10551SOL    HW233095   3.582   5.856   4.020 -0.0106 -0.5070  0.5530
10552SOL     OW33096   1.835   6.180   2.060 -0.0323 -0.2943  0.4437
10552SOL    HW133097   1.896   6.254   2.053  0.5119 -0.8328 -0.7057
10552SOL    HW233098   1.774   6.193   1.987 -0.0175 -0.9196  0.3229
10553SOL     OW33099   2.653   5.604   3.289 -0.1108 -0.0688  0.5308
10553SOL    HW133100   2.641   5.556   3.207 -0.9704  0.8382  0.1079
10553SOL    HW233101   2.659   5.535   3.356  2.3529 -0.9253 -0.4340
10554SOL     OW33102   1.938   5.236   2.895 -0.2045 -0.7022 -0.3569
10554SOL    HW133103   2.027   5.207   2.913  0.1061  0.9488  1.1387
10554SOL    HW233104   1.882   5.168   2.933  0.4802 -0.0133  2.0798
10555SOL     OW33105   2.974   5.531   3.133 -0.1922  0.0339 -0.1127
10555SOL    HW133106   2.938   5.464   3.192 -0.7031  0.1064 -0.3325
10555SOL    HW233107   3.019   5.593   3.190  1.6874 -1.3250 -0.0226
10556SOL     OW33108   1.193   7.412   1.359 -0.3022 -0.1622  0.0983
10556SOL    HW133109   1.112   7.393   1.406 -0.7355  0.5184 -0.3628
10556SOL    HW233110   1.166   7.467   1.285  0.4996 -0.3976 -0.3835
10557SOL     OW33111   3.438   6.268   3.079 -0.1168 -1.0597 -0.1097
10557SOL    HW133112   3.476   6.354   3.060 -0.0663 -1.6682 -3.4636
10557SOL    HW233113   3.414   6.272   3.171  1.1585  2.0297  0.2164
10558SOL     OW33114   1.963   5.904   3.207 -0.5803 -0.1243 -0.0721
10558SOL    HW133115   2.058   5.905   3.213 -0.3609 -2.1823 -1.7900
10558SOL    HW233116   1.935   5.849   3.280 -0.4755  0.5802  0.5046
10559SOL     OW33117   3.246   6.676   2.679 -0.4206  0.1422 -0.0392
10559SOL    HW133118   3.318   6.696   2.739 -0.0028 -1.6715  0.1346
10559SOL    HW233119   3.171   6.659   2.737 -0.5065  0.2151 -0.1291
10560SOL     OW33120   2.316   4.678   1.797  0.0006  0.2414  0.1239
10560SOL    HW133121   2.342   4.612   1.733 -1.5301 -1.2084  0.8954
10560SOL    HW233122   2.392   4.687   1.855  0.3981 -0.5238 -0.2603
10561SOL     OW33123   4.981   5.334   0.906 -0.1234 -0.2384 -0.7549
10561SOL    HW133124   4.914   5.265   0.907 -0.4324  0.0609 -0.2464
10561SOL    HW233125   4.940   5.406   0.857 -0.9418  0.6669  1.1385
10562SOL     OW33126   1.227   4.393   4.271 -0.6578  0.3653 -0.1751
10562SOL    HW133127   1.286   4.360   4.339  0.5194 -0.5096 -1.5546
10562SOL    HW233128   1.144   4.348   4.286  0.0251 -0.9280 -0.1760
10563SOL     OW33129   1.266   3.606   2.230 -0.1595 -0.1208 -0.0168
10563SOL    HW133130   1.302   3.543   2.293  0.3477 -0.4650 -0.6414
10563SOL    HW233131   1.239   3.680   2.284 -0.6186 -0.8005  0.7136
10564SOL     OW33132   2.521   5.378   4.416 -0.4053  0.0494 -0.5126
10564SOL    HW133133   2.613   5.363   4.440 -1.0691 -0.1810  2.2067
10564SOL    HW233134   2.474   5.304   4.454 -1.7756  0.3083 -1.6301
10565SOL     OW33135   2.772   6.065   1.582  0.1592 -0.0711 -0.0227
10565SOL    HW133136   2.741   6.056   1.672  0.1804  0.0787 -0.0008
10565SOL    HW233137   2.706   6.119   1.539 -0.1380 -0.6065 -0.2413
10566SOL     OW33138   2.277   6.553   1.032 -0.4105  0.3399  0.3636
10566SOL    HW133139   2.194   6.549   0.985 -1.2278  2.7747  1.4619
10566SOL    HW233140   2.328   6.480   0.996 -2.4560 -0.3479 -1.3650
10567SOL     OW33141   3.845   5.663   4.096  0.0199  0.4781 -0.0212
10567SOL    HW133142   3.840   5.581   4.145 -3.9486  0.1866 -0.5337
10567SOL    HW233143   3.871   5.637   4.008 -2.2415 -0.5100 -0.4671
10568SOL     OW33144   2.622   3.822   1.461  0.0358 -0.1665 -0.4021
10568SOL    HW133145   2.618   3.773   1.378 -2.5609  0.6458 -0.8632
10568SOL    HW233146   2.660   3.906   1.438  0.0239 -0.2197 -0.6202
10569SOL     OW33147   1.671   5.519   2.566  0.0309  0.0963  0.3862
10569SOL    HW133148   1.620   5.600   2.569 -0.5477 -0.2923  1.2640
10569SOL    HW233149   1.757   5.546   2.532 -0.7486  0.7578 -1.1732
10570SOL     OW33150   2.571   5.201   1.929 -0.1550 -0.2066 -0.0647
10570SOL    HW133151   2.538   5.291   1.936  1.1001  0.2722  0.1000
10570SOL    HW233152   2.497   5.150   1.898 -0.9874  0.8314  0.1639
10571SOL     OW33153   1.709   6.187   3.371 -1.2189  0.2777  0.1120
10571SOL    HW133154   1.760   6.164   3.293  0.5843 -0.0417  1.3156
10571SOL    HW233155   1.733   6.277   3.390 -1.2758  0.2030  0.5580
10572SOL     OW33156   3.398   5.920   3.867 -0.1937  0.3053 -0.4693
10572SOL    HW133157   3.462   5.991   3.870  0.4006 -0.2477  0.2536
10572SOL    HW233158   3.432   5.860   3.800 -0.4523  0.4819 -0.7562
10573SOL     OW33159   1.973   7.579   3.250 -0.7338 -0.7026  0.0144
10573SOL    HW133160   1.907   7.512   3.271  0.1436 -1.3830  0.6489
10573SOL    HW233161   1.921   7.655   3.223 -1.7985 -1.0829  0.8996
10574SOL     OW33162   2.717   5.089   4.560  0.3845  0.2696  0.5924
10574SOL    HW133163   2.752   5.177   4.548 -1.6533  0.9934 -0.5179
10574SOL    HW233164   2.785   5.032   4.523  1.0242  1.4817 -0.1857
10575SOL     OW33165   4.410   7.179   0.920 -0.2015 -0.3048 -0.6744
10575SOL    HW133166   4.466   7.250   0.951 -0.7991  0.2606 -0.8911
10575SOL    HW233167   4.324   7.218   0.908 -0.2241 -0.7135 -2.1435
10576SOL     OW33168   2.433   6.361   3.001 -0.0857 -0.5258 -0.0283
10576SOL    HW133169   2.483   6.374   3.082 -2.6883  1.9771  1.3595
10576SOL    HW233170   2.481   6.409   2.934  0.1518  0.6408  0.9424
10577SOL     OW33171   3.128   5.807   0.872  0.4421 -0.0723 -0.1893
10577SOL    HW133172   3.188   5.751   0.921 -0.5130 -0.5642  0.4490
10577SOL    HW233173   3.058   5.748   0.843 -0.7102  0.8101  0.6975
10578SOL     OW33174   3.737   5.004   1.084  0.3533  0.2845  0.7922
10578SOL    HW133175   3.706   5.090   1.055 -3.0146 -0.8911  0.3775
10578SOL    HW233176   3.674   4.977   1.150 -0.2907 -2.8631 -0.8974
10579SOL     OW33177   2.117   4.846   2.905 -0.4244  0.2744 -0.3067
10579SOL    HW133178   2.209   4.844   2.932 -0.7629  0.8436  0.9859
10579SOL    HW233179   2.069   4.861   2.987 -1.4419  3.3751 -1.3645
10580SOL     OW33180   1.474   3.894   3.294 -0.2151  0.5899  0.1619
10580SOL    HW133181   1.415   3.966   3.272 -0.1716  0.7539  0.5567
10580SOL    HW233182   1.511   3.919   3.379 -1.2159 -0.5297  0.9651
10581SOL     OW33183   2.654   7.307   2.779  0.2443  0.6354  0.1357
10581SOL    HW133184   2.741   7.280   2.810  0.6568  1.3102 -0.4068
10581SOL    HW233185   2.622   7.366   2.847 -0.0558 -0.0861  0.6324
10582SOL     OW33186   1.424   5.436   3.573 -0.1166  0.0782 -0.2161
10582SOL    HW133187   1.403   5.396   3.657  0.7499  0.6506  0.2892
10582SOL    HW233188   1.520   5.444   3.573 -0.1470  0.5901 -1.0184
10583SOL     OW33189   1.602   5.936   3.364 -0.7375 -0.5077  0.1585
10583SOL    HW133190   1.649   6.018   3.352  0.2156 -1.3160 -2.6577
10583SOL    HW233191   1.510   5.960   3.359 -0.5303  0.5479  1.0078
10584SOL     OW33192   1.780   6.601   3.103  0.7888 -0.4705 -0.3577
10584SOL    HW133193   1.826   6.530   3.059  1.5040 -1.2266  1.5527
10584SOL    HW233194   1.697   6.609   3.054  0.8860 -2.3037 -0.8840
10585SOL     OW33195   2.462   5.930   0.888  0.3427 -0.2841 -0.1505
10585SOL    HW133196   2.528   5.943   0.820  0.5364  1.5218  0.3196
10585SOL    HW233197   2.497   5.975   0.965 -1.5184  0.9750  0.0422
10586SOL     OW33198   2.205   6.173   4.336 -0.5986  0.4684  0.2691
10586SOL    HW133199   2.262   6.145   4.407  0.1996  2.1755  0.3519
10586SOL    HW233200   2.255   6.154   4.256 -1.4009 -1.2382  0.1255
10587SOL     OW33201   2.469   6.591   0.505  0.3250 -0.6490 -0.7573
10587SOL    HW133202   2.534   6.660   0.520  0.7428 -0.8665 -1.5206
10587SOL    HW233203   2.386   6.631   0.529  0.8176 -0.6697  1.1707
10588SOL     OW33204   0.198   4.180   2.632  0.2043 -0.3993 -0.4046
10588SOL    HW133205   0.116   4.161   2.678 -0.2591  1.2194 -0.4971
10588SOL    HW233206   0.257   4.212   2.701 -0.0952  0.8594 -0.7032
10589SOL     OW33207   3.219   5.555   3.731  0.1101 -0.0080 -0.3727
10589SOL    HW133208   3.149   5.492   3.751 -0.6424  0.1451 -2.2814
10589SOL    HW233209   3.231   5.605   3.812 -0.2063 -1.6973  0.7762
10590SOL     OW33210   0.448   6.473   3.302 -0.3334 -0.3005 -0.2562
10590SOL    HW133211   0.428   6.566   3.312  0.3685 -0.2500  0.6722
10590SOL    HW233212   0.510   6.470   3.229  0.3652  0.0613  0.3078
10591SOL     OW33213   2.857   6.624   2.817  0.2848  0.9028  0.6894
10591SOL    HW133214   2.938   6.670   2.837 -1.8125  3.1457  6.1613
10591SOL    HW233215   2.864   6.541   2.864 -0.0236  0.3429 -0.2219
10592SOL     OW33216   1.608   4.566   2.345  0.2405 -0.2787  0.6093
10592SOL    HW133217   1.662   4.602   2.415  0.1320 -1.2332  1.2059
10592SOL    HW233218   1.518   4.580   2.375  0.1961 -0.9334  0.8078
10593SOL     OW33219   1.431   7.121   2.819 -0.4171  0.6198 -0.2736
10593SOL    HW133220   1.461   7.032   2.801  0.1694  0.5267  1.0391
10593SOL    HW233221   1.339   7.110   2.846 -0.2114  0.3399  0.3415
10594SOL     OW33222   1.587   7.281   0.578 -0.0462 -0.0004 -0.4516
10594SOL    HW133223   1.667   7.234   0.558 -0.4741 -0.1399 -1.9491
10594SOL    HW233224   1.547   7.298   0.493 -2.3252 -1.1724  0.2946
10595SOL     OW33225   1.791   4.534   2.146 -0.0983  0.7373 -0.0782
10595SOL    HW133226   1.726   4.538   2.075 -0.7864  0.1206  0.5034
10595SOL    HW233227   1.742   4.559   2.224 -0.3967 -2.3521  0.8575
10596SOL     OW33228   1.523   7.367   2.861  0.0858  0.2794 -0.6154
10596SOL    HW133229   1.524   7.359   2.956 -1.1896  0.7959 -0.5418
10596SOL    HW233230   1.484   7.285   2.830 -1.8145  1.1120 -0.5312
10597SOL     OW33231   1.449   5.743   2.933  0.4980  0.1289 -0.1696
10597SOL    HW133232   1.434   5.722   3.025  0.9491 -0.3718 -0.2013
10597SOL    HW233233   1.403   5.674   2.886 -2.7378  2.2765 -0.4421
10598SOL     OW33234   3.371   6.776   2.205  0.1865 -0.0074 -0.2282
10598SOL    HW133235   3.287   6.800   2.245  0.6488 -1.7348  1.9295
10598SOL    HW233236   3.405   6.706   2.260  1.5199 -1.6649 -2.9549
10599SOL     OW33237   3.301   4.598   3.274  0.4290  0.0970 -0.3435
10599SOL    HW133238   3.232   4.536   3.297 -0.3436  1.6990  1.9908
10599SOL    HW233239   3.382   4.554   3.302  0.2447 -1.0954 -1.5773
10600SOL     OW33240   2.944   3.261   3.648  0.0268  0.0044  0.7134
10600SOL    HW133241   2.989   3.339   3.681 -0.7691  0.4838  0.7023
10600SOL    HW233242   3.012   3.211   3.603  0.3053  1.3411 -0.4199
10601SOL     OW33243   0.942   6.093   2.785 -0.0454  0.2002  0.1019
10601SOL    HW133244   0.858   6.057   2.758  0.6936 -0.6263 -1.2588
10601SOL    HW233245   0.980   6.026   2.841  0.2105  0.0228 -0.2780
10602SOL     OW33246   1.067   6.186   3.809  0.3558 -0.1720 -0.0836
10602SOL    HW133247   1.028   6.162   3.893  1.0312  0.4386  0.4188
10602SOL    HW233248   1.066   6.282   3.808 -0.7309 -0.1712 -1.3008
10603SOL     OW33249   2.223   5.334   2.367 -0.2868  0.4098  0.0482
10603SOL    HW133250   2.306   5.366   2.403 -0.3017 -0.0446  0.5113
10603SOL    HW233251   2.174   5.304   2.443 -1.1240  1.2083 -0.1668
10604SOL     OW33252   1.360   4.393   3.848 -0.0729 -0.0875  0.4943
10604SOL    HW133253   1.275   4.387   3.891 -0.7038 -0.4495 -0.7615
10604SOL    HW233254   1.387   4.484   3.861 -0.7614  0.0881  0.7103
10605SOL     OW33255   0.261   6.852   2.698  0.2539  0.8602  1.2377
10605SOL    HW133256   0.255   6.787   2.628  1.9620  0.7647  1.1336
10605SOL    HW233257   0.171   6.864   2.728 -0.1520 -1.3291  1.0622
10606SOL     OW33258   2.987   4.666   2.576  0.6216 -0.7249 -0.1810
10606SOL    HW133259   3.025   4.630   2.656 -0.3863 -3.4007 -0.8093
10606SOL    HW233260   2.895   4.639   2.579  0.1969  0.4659 -1.5345
10607SOL     OW33261   2.699   6.481   3.983  0.0098  0.2416  0.3934
10607SOL    HW133262   2.611   6.506   3.952  1.0441  0.1707 -2.9807
10607SOL    HW233263   2.712   6.535   4.061 -3.0089  0.2438  1.0228
10608SOL     OW33264   4.034   5.651   0.452 -0.9173  0.5805  0.3291
10608SOL    HW133265   3.985   5.685   0.527  0.4250 -0.6808  1.8751
10608SOL    HW233266   4.124   5.682   0.465 -0.9276  1.5950 -1.6216
10609SOL     OW33267   3.548   6.366   2.368  0.7299  0.1609  0.1473
10609SOL    HW133268   3.532   6.396   2.458  0.7126  0.5928  0.0040
10609SOL    HW233269   3.631   6.407   2.344  0.7739 -0.0180 -0.0062
10610SOL     OW33270   2.155   7.392   1.951  0.0732 -0.7328  0.9573
10610SOL    HW133271   2.078   7.346   1.983 -0.7658 -0.1918 -0.1822
10610SOL    HW233272   2.174   7.456   2.018  0.0731 -1.4597  1.6620
10611SOL     OW33273   3.522   7.249   3.380 -0.6065  0.2650 -0.0969
10611SOL    HW133274   3.524   7.189   3.454  1.9650  0.0750 -0.2263
10611SOL    HW233275   3.551   7.196   3.305 -1.0314  0.9911 -0.7984
10612SOL     OW33276   0.913   6.554   2.624  0.1500 -0.4961 -0.2663
10612SOL    HW133277   0.993   6.599   2.652 -0.2157 -1.0651  1.8977
10612SOL    HW233278   0.935   6.461   2.626 -0.1331 -0.5992 -1.2326
10613SOL     OW33279   3.220   5.192   3.923 -0.1042 -0.0847  0.3900
10613SOL    HW133280   3.216   5.097   3.932  2.2227 -0.1854  0.9003
10613SOL    HW233281   3.304   5.217   3.962 -0.7327  2.2068  0.4167
10614SOL     OW33282   2.195   4.210   2.445 -0.1280  0.2196 -0.2147
10614SOL    HW133283   2.198   4.193   2.539  0.6758 -0.7578 -0.4062
10614SOL    HW233284   2.151   4.295   2.438  1.1155  1.0252  1.1327
10615SOL     OW33285   3.624   4.916   0.598 -0.0479  0.0248 -0.0420
10615SOL    HW133286   3.539   4.960   0.601 -0.5751 -0.7826 -1.7099
10615SOL    HW233287   3.603   4.823   0.608  0.4157 -0.3462 -2.0221
10616SOL     OW33288   3.146   6.553   3.178  0.1749  0.8834  0.0698
10616SOL    HW133289   3.137   6.460   3.157 -1.3679  1.2127 -0.8413
10616SOL    HW233290   3.089   6.566   3.254  0.8424  0.9940  0.5672
10617SOL     OW33291   2.182   4.916   1.802  0.1986  0.1143  0.4336
10617SOL    HW133292   2.104   4.878   1.842  0.6691 -1.2941  0.0487
10617SOL    HW233293   2.241   4.843   1.790  1.0075  0.9186 -0.6491
10618SOL     OW33294   1.246   4.742   3.047  0.1468 -0.3026 -0.1647
10618SOL    HW133295   1.250   4.793   3.128  1.6701 -0.2829 -0.2378
10618SOL    HW233296   1.303   4.789   2.987 -0.9095 -0.3585 -1.2515
10619SOL     OW33297   2.324   5.915   2.775  0.3212 -0.3217 -0.2314
10619SOL    HW133298   2.395   5.935   2.836  1.2519 -1.5713 -0.8550
10619SOL    HW233299   2.362   5.852   2.714 -1.1922 -0.6487 -0.8800
10620SOL     OW33300   1.690   3.370   2.614 -0.3263  0.3504  0.1061
10620SOL    HW133301   1.622   3.302   2.614  0.1907 -0.1918  0.9820
10620SOL    HW233302   1.696   3.398   2.523 -1.5659  0.2520 -0.0201
10621SOL     OW33303   1.276   6.412   1.387  0.4311  0.1292  0.0902
10621SOL    HW133304   1.327   6.417   1.306  0.6470 -1.1396  0.1208
10621SOL    HW233305   1.237   6.499   1.396  1.3427  0.6552 -0.7512
10622SOL     OW33306   2.808   0.922   2.463  0.2066 -0.1004 -0.8554
10622SOL    HW133307   2.869   0.850   2.479  0.9518  0.7453  0.2411
10622SOL    HW233308   2.749   0.922   2.538  0.2339  0.4524 -0.8283
10623SOL     OW33309   2.356   7.045   2.987 -0.0061  0.2264 -0.0106
10623SOL    HW133310   2.355   7.041   2.891  0.5014  0.6403 -0.0351
10623SOL    HW233311   2.390   7.132   3.007 -1.1494  0.5632  0.5433
10624SOL     OW33312   2.549   6.880   1.766  0.7616 -0.1904 -0.2897
10624SOL    HW133313   2.502   6.809   1.722 -0.1079  0.7278 -0.8909
10624SOL    HW233314   2.633   6.842   1.790  0.5009 -1.2805 -1.0256
10625SOL     OW33315   1.487   5.403   4.376 -0.1259  0.1065  0.4592
10625SOL    HW133316   1.405   5.420   4.330 -0.2205 -1.6148 -0.0609
10625SOL    HW233317   1.521   5.323   4.336  1.5156  0.4610  1.0718
10626SOL     OW33318   0.755   5.193   3.972  0.0452 -0.4687 -0.1819
10626SOL    HW133319   0.804   5.230   3.899  1.1200 -1.1026  0.1962
10626SOL    HW233320   0.787   5.103   3.980 -1.7212 -1.1595 -0.3815
10627SOL     OW33321   0.124   5.253   2.383  0.0903 -0.0315 -0.1855
10627SOL    HW133322   0.051   5.212   2.428  0.6854 -0.9034 -0.0019
10627SOL    HW233323   0.189   5.269   2.451 -0.3492  1.7724 -0.1396
10628SOL     OW33324   4.153   6.843   1.315  0.0328 -0.0928  0.1301
10628SOL    HW133325   4.154   6.912   1.248 -0.3218  0.0205  0.2397
10628SOL    HW233326   4.066   6.848   1.353  0.3896  0.1733  0.9498
10629SOL     OW33327   3.179   5.394   4.294  0.0096 -0.0580 -0.3431
10629SOL    HW133328   3.142   5.310   4.266  0.0034  0.1481 -0.9718
10629SOL    HW233329   3.274   5.382   4.289  0.0087  0.0609 -0.7321
10630SOL     OW33330   1.366   6.789   4.623 -1.3956 -0.1359 -0.0264
10630SOL    HW133331   1.431   6.774   4.553 -0.5084 -0.1742  0.7883
10630SOL    HW233332   1.408   6.852   4.681 -1.4666 -1.2721  1.3148
10631SOL     OW33333   3.626   5.136   1.631  0.1073  0.1104  0.1493
10631SOL    HW133334   3.649   5.050   1.596  0.4238 -0.2880  1.2865
10631SOL    HW233335   3.657   5.134   1.721 -0.4556  1.1913  0.3844
10632SOL     OW33336   2.326   5.633   2.702  0.0648  0.0471 -0.5039
10632SOL    HW133337   2.352   5.543   2.722 -0.1624  0.2038  0.5367
10632SOL    HW233338   2.282   5.664   2.781 -0.7241  0.7501 -1.1931
10633SOL     OW33339   2.874   5.913   1.136  0.1786  0.1630 -0.2977
10633SOL    HW133340   2.935   5.960   1.079  0.6683 -0.5171 -0.3510
10633SOL    HW233341   2.898   5.821   1.127  0.3096  0.0358  1.0324
10634SOL     OW33342   1.257   6.718   2.951 -0.4040 -0.3540  0.0782
10634SOL    HW133343   1.192   6.662   2.993  0.1081 -0.4252  0.7987
10634SOL    HW233344   1.341   6.688   2.985  0.1345 -1.0318 -1.7251
10635SOL     OW33345   2.040   4.277   3.980 -0.0226 -0.0971 -0.1853
10635SOL    HW133346   2.073   4.344   4.040  0.2269 -0.1337 -0.2795
10635SOL    HW233347   2.062   4.194   4.022 -2.0210 -0.1418  0.8612
10636SOL     OW33348   3.075   7.174   3.766 -0.3075  0.0603 -0.1777
10636SOL    HW133349   3.031   7.103   3.813  0.7168 -0.6721 -0.2885
10636SOL    HW233350   3.012   7.246   3.767 -2.2952 -1.5431 -2.0201
10637SOL     OW33351   2.128   6.841   2.734  0.5522  0.3363  0.0840
10637SOL    HW133352   2.125   6.907   2.804  0.7764 -1.1531  1.5616
10637SOL    HW233353   2.038   6.807   2.730 -0.0968  2.0976 -2.1134
10638SOL     OW33354   3.024   1.468   2.644  0.6434 -0.2456 -0.0351
10638SOL    HW133355   3.021   1.372   2.635  1.1542 -0.2048 -0.6676
10638SOL    HW233356   3.074   1.483   2.724 -0.2068 -0.5181  0.5689
10639SOL     OW33357   1.868   0.217   2.997  0.4700 -0.1402 -0.2054
10639SOL    HW133358   1.861   0.261   2.912  0.2679  0.4658  0.1158
10639SOL    HW233359   1.782   0.228   3.037  0.3383 -1.0590 -0.2168
10640SOL     OW33360   1.207   5.390   3.417 -0.3486  0.2362  0.2638
10640SOL    HW133361   1.285   5.383   3.473  0.2684 -1.2459 -0.7182
10640SOL    HW233362   1.238   5.431   3.337 -0.6339 -0.1122 -0.0277
10641SOL     OW33363   3.502   6.197   1.109  0.3317  0.4604 -0.0150
10641SOL    HW133364   3.556   6.170   1.183  0.6391  1.0984  0.0056
10641SOL    HW233365   3.431   6.133   1.106  0.9003 -0.1961  0.1718
10642SOL     OW33366   2.158   0.880   2.268  0.1230 -0.2067 -0.0248
10642SOL    HW133367   2.198   0.967   2.275 -1.4670  0.4361  1.8522
10642SOL    HW233368   2.109   0.883   2.186 -1.1842  1.2632  0.7745
10643SOL     OW33369   1.697   6.471   4.847  0.1541 -0.0603 -0.2554
10643SOL    HW133370   1.737   6.427   4.772 -0.4277 -0.4982 -0.3151
10643SOL    HW233371   1.696   6.563   4.823 -1.8880 -0.3958 -1.7017
10644SOL     OW33372   3.283   5.515   2.432 -0.2555 -0.3975  0.1916
10644SOL    HW133373   3.354   5.529   2.369 -0.2816  0.2936  0.3079
10644SOL    HW233374   3.235   5.439   2.398  0.1888 -0.5014 -0.2042
10645SOL     OW33375   0.219   6.600   3.635 -0.2105  0.4108 -0.3139
10645SOL    HW133376   0.199   6.590   3.542  0.7359 -0.6837 -0.4203
10645SOL    HW233377   0.311   6.575   3.642 -0.7190 -1.2086  1.1730
10646SOL     OW33378   3.006   5.864   1.860 -0.1517 -0.0030  0.0263
10646SOL    HW133379   3.064   5.809   1.808  0.4231  0.5715  0.0376
10646SOL    HW233380   3.044   5.862   1.948 -0.0208  0.5393 -0.0135
10647SOL     OW33381   3.806   5.362   4.165  0.4720  0.3617  0.0044
10647SOL    HW133382   3.849   5.313   4.236 -2.3985  0.1725  1.7515
10647SOL    HW233383   3.751   5.297   4.121  0.0133  1.0903 -0.5101
10648SOL     OW33384   2.689   5.792   4.095  0.3098  0.3920  0.1099
10648SOL    HW133385   2.645   5.716   4.133  2.4052  0.5210  3.1909
10648SOL    HW233386   2.764   5.756   4.048 -0.0434  0.4383 -0.4905
10649SOL     OW33387   2.097   4.011   4.196 -0.1664  0.0372 -0.6465
10649SOL    HW133388   2.157   4.035   4.267 -1.5869 -0.8337  0.9108
10649SOL    HW233389   2.155   3.994   4.121  1.3932  0.8601  0.3040
10650SOL     OW33390   3.364   6.022   0.645  0.1643  0.0119 -0.0856
10650SOL    HW133391   3.323   5.983   0.568 -3.4474 -0.9086  2.0433
10650SOL    HW233392   3.405   5.948   0.690 -0.7881 -0.1310  0.5737
10651SOL     OW33393   2.235   4.984   3.573  0.4760  0.1405 -0.9352
10651SOL    HW133394   2.211   4.980   3.666  0.7332 -0.4545 -0.8930
10651SOL    HW233395   2.157   5.021   3.530  0.7513  1.4575 -0.3452
10652SOL     OW33396   3.121   5.656   1.715 -0.3018  0.1466 -0.1561
10652SOL    HW133397   3.161   5.690   1.635  0.6120 -0.4809  0.0137
10652SOL    HW233398   3.063   5.586   1.685 -1.3457  1.0871 -0.4066
10653SOL     OW33399   2.138   0.699   3.199  0.4658  0.6539 -0.1718
10653SOL    HW133400   2.189   0.718   3.278 -1.5807  0.1777  1.3352
10653SOL    HW233401   2.097   0.615   3.217 -0.8018  0.9899 -1.3536
10654SOL     OW33402   1.792   0.585   3.617  0.5304 -0.4396 -0.4676
10654SOL    HW133403   1.786   0.675   3.585 -2.2696  0.1399  1.2539
10654SOL    HW233404   1.792   0.594   3.712  0.7948 -2.2468 -0.2695
10655SOL     OW33405   2.765   6.687   3.559 -0.0493  0.7138  0.1236
10655SOL    HW133406   2.747   6.700   3.652 -0.4233 -2.3887  0.5823
10655SOL    HW233407   2.679   6.685   3.518  0.0615  0.9198 -0.1237
10656SOL     OW33408   2.679   7.082   2.977  0.1027  0.2835 -0.6364
10656SOL    HW133409   2.744   7.035   3.030 -0.1215  0.6060 -0.0616
10656SOL    HW233410   2.619   7.120   3.042 -1.9951 -1.8787 -1.1626
10657SOL     OW33411   2.864   5.646   1.439 -0.6865 -0.1269  0.1941
10657SOL    HW133412   2.791   5.708   1.432 -0.4109  0.0514 -1.6157
10657SOL    HW233413   2.897   5.658   1.528 -0.5404  2.4863 -0.1302
10658SOL     OW33414   2.808   6.805   1.266  0.4096 -0.1001  0.1500
10658SOL    HW133415   2.721   6.770   1.247 -0.2411  1.4068  0.1894
10658SOL    HW233416   2.847   6.822   1.180 -0.2861  1.3875  0.0886
10659SOL     OW33417   2.871   5.997   3.999 -0.3876 -0.0874 -0.4988
10659SOL    HW133418   2.827   5.927   4.047 -2.1297  0.9771 -0.4274
10659SOL    HW233419   2.894   5.958   3.915 -1.3057 -0.7734 -0.4524
10660SOL     OW33420   1.468   7.031   1.547  0.4393 -0.6876  0.0015
10660SOL    HW133421   1.528   6.977   1.496  0.7245  0.1207 -0.5469
10660SOL    HW233422   1.427   7.089   1.483  1.0252  0.5515  0.7124
10661SOL     OW33423   0.922   0.165   3.079  0.2330 -0.6841 -0.0281
10661SOL    HW133424   0.907   0.078   3.042 -0.5815 -0.5828  0.0455
10661SOL    HW233425   0.842   0.184   3.127  0.5658 -0.0545  0.2840
10662SOL     OW33426   1.780   5.577   3.138  0.2817 -0.0179  0.2913
10662SOL    HW133427   1.767   5.567   3.044  0.8420 -0.5317  0.2588
10662SOL    HW233428   1.855   5.636   3.146 -0.4647  0.9290  0.4373
10663SOL     OW33429   2.595   6.391   1.385 -0.4768  0.2321  0.0092
10663SOL    HW133430   2.581   6.298   1.401  1.5823 -0.0240  0.6567
10663SOL    HW233431   2.690   6.401   1.386 -0.6606  2.3777  0.1210
10664SOL     OW33432   4.145   5.761   1.810  0.3299  0.4077 -0.0561
10664SOL    HW133433   4.152   5.772   1.905 -0.9433 -0.8701  0.2329
10664SOL    HW233434   4.054   5.784   1.790  0.5657  0.5901 -0.9466
10665SOL     OW33435   0.773   5.814   3.222  0.5977  0.3500  0.1759
10665SOL    HW133436   0.831   5.742   3.195 -0.5222 -0.5661  0.1183
10665SOL    HW233437   0.772   5.810   3.317  2.3423  1.8004  0.3154
10666SOL     OW33438   1.471   6.259   2.456 -0.4970  0.1492  0.1041
10666SOL    HW133439   1.418   6.270   2.535  0.2967  1.5016  0.4759
10666SOL    HW233440   1.432   6.320   2.393 -0.1155  0.2976  0.0064
10667SOL     OW33441   0.643   4.932   1.559 -0.2734 -0.0781 -0.2638
10667SOL    HW133442   0.570   4.878   1.527 -0.7029  0.1737  0.2796
10667SOL    HW233443   0.711   4.922   1.492 -1.6381  1.5058 -2.0041
10668SOL     OW33444   3.525   5.500   1.753  0.1071  0.2090 -0.3930
10668SOL    HW133445   3.469   5.575   1.735  0.9417  1.3532  1.5285
10668SOL    HW233446   3.519   5.486   1.847  1.4155 -0.9675 -0.4360
10669SOL     OW33447   2.410   5.074   2.576  0.1039 -0.2950  0.5848
10669SOL    HW133448   2.334   5.090   2.632 -1.3223 -0.1615 -1.3122
10669SOL    HW233449   2.409   5.146   2.513 -1.1388 -2.8312 -2.5254
10670SOL     OW33450   3.522   7.167   3.927 -0.2607  0.0178  0.4789
10670SOL    HW133451   3.514   7.092   3.869  0.1112  0.8708 -0.7088
10670SOL    HW233452   3.546   7.129   4.012  3.3921 -1.0718 -0.8439
10671SOL     OW33453   1.894   6.399   2.943  0.1642  0.2760  0.2270
10671SOL    HW133454   1.988   6.403   2.960  0.6515  1.3859 -2.2214
10671SOL    HW233455   1.879   6.309   2.915  0.1916 -0.2994  1.9886
10672SOL     OW33456   5.291   5.472   2.711 -0.1148  0.2315 -0.1457
10672SOL    HW133457   5.260   5.383   2.694  0.7959  0.0869 -1.1308
10672SOL    HW233458   5.252   5.495   2.795 -1.6184 -0.5099 -0.6082
10673SOL     OW33459   2.571   3.741   2.593 -0.5476  0.2959  0.0482
10673SOL    HW133460   2.630   3.699   2.656  1.9420  1.2878 -1.4742
10673SOL    HW233461   2.541   3.820   2.638  0.6512  0.6367  0.2904
10674SOL     OW33462   3.003   4.889   2.205 -0.7846  0.2260 -0.1418
10674SOL    HW133463   3.082   4.851   2.167 -1.1739 -0.2763 -0.4698
10674SOL    HW233464   2.945   4.814   2.219 -1.5337  0.6794 -0.7050
10675SOL     OW33465   4.138   5.367   4.281 -0.2454  0.2874 -0.2822
10675SOL    HW133466   4.120   5.317   4.361 -1.2382  0.9398 -0.0786
10675SOL    HW233467   4.148   5.457   4.311 -0.8558  0.5719 -0.9058
10676SOL     OW33468   2.510   6.424   3.262  0.2496 -0.1746 -0.4761
10676SOL    HW133469   2.538   6.500   3.212 -0.7019  1.5043  1.4154
10676SOL    HW233470   2.584   6.406   3.321 -0.5738  1.0853  1.0031
10677SOL     OW33471   3.468   6.626   2.866  0.4761 -0.0765  0.1634
10677SOL    HW133472   3.501   6.577   2.942 -1.8229 -1.8214  0.1474
10677SOL    HW233473   3.492   6.572   2.790  1.4803  0.9317 -0.2727
10678SOL     OW33474   0.344   6.305   2.842 -0.0283  0.3342 -0.0584
10678SOL    HW133475   0.272   6.296   2.903 -0.7308  2.1938 -0.5438
10678SOL    HW233476   0.420   6.268   2.889 -0.9017  0.0585  1.1888
10679SOL     OW33477   1.659   5.122   3.982 -0.0326 -0.0770  0.3740
10679SOL    HW133478   1.653   5.069   4.061  1.7417  1.1784  1.4192
10679SOL    HW233479   1.738   5.175   3.995  0.6941 -0.2740 -2.4931
10680SOL     OW33480   3.467   4.508   2.852  0.4181 -0.3035  0.3193
10680SOL    HW133481   3.539   4.529   2.912 -0.7359 -2.8772  2.8570
10680SOL    HW233482   3.393   4.558   2.886  0.5589  1.1907 -1.3977
10681SOL     OW33483   3.747   7.493   5.817  0.2964 -0.0080  0.5028
10681SOL    HW133484   3.693   7.431   5.866 -0.1519  1.6905  2.2820
10681SOL    HW233485   3.825   7.505   5.871  0.3355  1.0201  0.2403
10682SOL     OW33486   1.095   5.614   2.595 -0.9321 -0.1100  0.1412
10682SOL    HW133487   1.083   5.527   2.557 -0.6385  0.0648 -0.3646
10682SOL    HW233488   1.025   5.667   2.556 -0.5968  0.0840 -0.2057
10683SOL     OW33489   3.010   5.431   1.638 -0.1103 -0.1943  0.3819
10683SOL    HW133490   3.030   5.390   1.553 -1.0470 -2.0635  1.0119
10683SOL    HW233491   3.005   5.358   1.699  0.2566  1.0936  2.0209
10684SOL     OW33492   2.552   5.746   2.920 -0.3339  0.7232 -0.3473
10684SOL    HW133493   2.574   5.828   2.876 -0.6876  1.7229  1.2456
10684SOL    HW233494   2.456   5.746   2.924 -0.3050  0.6757  0.4370
10685SOL     OW33495   4.523   6.787   4.123 -0.1069  0.3837 -0.3558
10685SOL    HW133496   4.495   6.698   4.101 -0.0269  0.2611  0.0294
10685SOL    HW233497   4.496   6.839   4.048  0.9034 -0.1571 -1.1146
10686SOL     OW33498   0.794   5.211   2.532 -0.5101  0.1732  0.3344
10686SOL    HW133499   0.786   5.253   2.618 -0.9396  1.5593 -0.3582
10686SOL    HW233500   0.706   5.178   2.513 -0.3807 -0.2673  0.4783
10687SOL     OW33501   3.899   5.048   3.697  0.6809 -0.0308 -0.0295
10687SOL    HW133502   3.994   5.053   3.706  0.7315  1.7067 -1.1681
10687SOL    HW233503   3.876   4.961   3.730  2.6751 -0.5591  0.0520
10688SOL     OW33504   1.305   5.592   2.171 -0.1502  0.1062  0.0655
10688SOL    HW133505   1.326   5.596   2.264 -1.5151 -0.0089  0.3988
10688SOL    HW233506   1.388   5.567   2.129  0.3542 -0.3597  1.2838
10689SOL     OW33507   1.078   6.125   2.415  0.0257 -0.1254  0.0105
10689SOL    HW133508   1.135   6.162   2.348  0.8973 -0.7327  0.3957
10689SOL    HW233509   1.111   6.036   2.429  0.3746  0.2209  1.7615
10690SOL     OW33510   3.959   5.147   2.053 -0.0736 -0.7513 -0.4155
10690SOL    HW133511   3.909   5.163   2.133  0.2046  0.4989 -0.4672
10690SOL    HW233512   3.994   5.059   2.063 -2.3782 -1.7299 -0.4469
10691SOL     OW33513   2.024   5.484   3.410 -0.3611  0.5243  0.0449
10691SOL    HW133514   1.968   5.424   3.459 -0.4870  0.3299 -0.3377
10691SOL    HW233515   1.990   5.571   3.432  0.7500  0.5750  1.7826
10692SOL     OW33516   1.747   3.754   4.451 -0.9367  0.9111 -0.0984
10692SOL    HW133517   1.769   3.664   4.425  2.7567  1.2896  1.0460
10692SOL    HW233518   1.749   3.753   4.546 -0.4677  2.2557 -0.0647
10693SOL     OW33519   1.560   7.510   2.518  0.4100 -0.3806 -0.1596
10693SOL    HW133520   1.521   7.504   2.605 -0.0560  0.0436 -0.3305
10693SOL    HW233521   1.627   7.441   2.516  0.3709 -0.4434  0.5017
10694SOL     OW33522   3.119   4.350   2.661 -0.0584 -0.1356  0.1980
10694SOL    HW133523   3.031   4.321   2.639  0.8972 -2.3505 -1.0157
10694SOL    HW233524   3.107   4.407   2.737 -2.3863 -1.5642  0.9971
10695SOL     OW33525   2.113   4.067   0.993 -0.1141  0.5616  0.4079
10695SOL    HW133526   2.035   4.013   0.985 -1.1272  1.8125  1.4064
10695SOL    HW233527   2.086   4.154   0.964  2.2277  0.1170 -4.1187
10696SOL     OW33528   3.155   4.881   2.529  0.1633 -0.2956 -0.7215
10696SOL    HW133529   3.123   4.791   2.526  1.6879 -0.8648 -0.3184
10696SOL    HW233530   3.080   4.931   2.563 -0.3995 -1.5387 -0.0481
10697SOL     OW33531   2.262   7.853   2.454  0.2998  0.1713 -0.2672
10697SOL    HW133532   2.332   7.918   2.461  0.5810 -0.2202  0.7619
10697SOL    HW233533   2.238   7.833   2.545 -0.6353 -0.2561 -0.5881
10698SOL     OW33534   2.600   7.283   2.176  0.2334  0.4194 -0.5852
10698SOL    HW133535   2.584   7.302   2.083 -0.2320 -1.5898 -0.9546
10698SOL    HW233536   2.676   7.225   2.176 -1.2505 -1.6510  0.0243
10699SOL     OW33537   1.073   6.305   2.945 -0.6735 -0.0029 -0.3254
10699SOL    HW133538   1.047   6.250   2.871 -0.0895  1.1649 -1.4316
10699SOL    HW233539   0.993   6.315   2.996 -1.1670 -0.5787 -0.9556
10700SOL     OW33540   1.185   6.177   2.166  0.1213 -0.2807  0.4718
10700SOL    HW133541   1.141   6.192   2.082  0.3037 -0.3217  0.3693
10700SOL    HW233542   1.237   6.098   2.152  0.7746  0.1655  0.3755
10701SOL     OW33543   3.402   5.772   3.423 -0.0744  0.0432 -0.8737
10701SOL    HW133544   3.351   5.741   3.498 -2.3739 -0.4192 -2.5410
10701SOL    HW233545   3.482   5.721   3.426 -0.4429 -0.4977  0.8375
10702SOL     OW33546   3.127   6.666   5.272 -0.2808 -0.4776 -0.4942
10702SOL    HW133547   3.043   6.664   5.226 -0.2847 -0.5292 -0.4850
10702SOL    HW233548   3.186   6.614   5.217 -0.6660 -1.8069  0.3005
10703SOL     OW33549   3.983   5.472   3.900 -0.0848 -0.4163  0.2600
10703SOL    HW133550   3.934   5.404   3.855 -0.6345  0.3357 -0.2977
10703SOL    HW233551   4.060   5.427   3.936 -1.8381 -1.9496  2.3987
10704SOL     OW33552   2.748   6.082   3.386  0.0162  0.2658  0.3635
10704SOL    HW133553   2.682   6.014   3.396 -0.4734 -0.1971 -4.2743
10704SOL    HW233554   2.826   6.036   3.355 -0.0073  1.5660 -1.8499
10705SOL     OW33555   4.657   5.759   3.319  0.4027 -0.2599 -0.4201
10705SOL    HW133556   4.598   5.804   3.259  1.0232  0.7296 -0.3110
10705SOL    HW233557   4.637   5.666   3.308 -0.8613  0.0345 -0.7001
10706SOL     OW33558   1.823   0.357   2.749  0.5440 -0.0590  0.4385
10706SOL    HW133559   1.847   0.297   2.678  1.2323  0.9657 -0.2180
10706SOL    HW233560   1.875   0.436   2.732 -1.0403  1.0794  0.7519
10707SOL     OW33561   3.136   6.629   4.299  0.3458 -0.1027 -0.6960
10707SOL    HW133562   3.122   6.567   4.370 -0.5694  1.2556  0.3710
10707SOL    HW233563   3.076   6.601   4.230 -0.8828  0.2078  0.2104
10708SOL     OW33564   5.882   5.801   2.607  0.6882 -0.1000  0.3047
10708SOL    HW133565   5.913   5.752   2.683  1.5347 -0.7305 -0.4411
10708SOL    HW233566   5.959   5.849   2.576  0.4173 -0.0584 -0.3181
10709SOL     OW33567   2.359   6.343   4.849  0.3798  0.4699  0.4789
10709SOL    HW133568   2.408   6.361   4.769  1.2748 -0.6494  0.7476
10709SOL    HW233569   2.384   6.411   4.910  0.7918  0.5085  0.2670
10710SOL     OW33570   1.940   7.992   4.986 -0.3952 -0.1807  0.1306
10710SOL    HW133571   1.971   8.082   4.999  1.9744 -1.0171  0.7440
10710SOL    HW233572   1.951   7.977   4.892 -2.8322  0.7908 -0.3935
10711SOL     OW33573   3.110   6.954   5.387 -0.2664 -0.2060  0.2864
10711SOL    HW133574   3.171   6.957   5.461  0.0394  0.0310  0.0272
10711SOL    HW233575   3.164   6.927   5.313 -0.3416  0.6035 -0.0767
10712SOL     OW33576   2.379   6.800   5.139 -0.2228 -0.6859  0.1154
10712SOL    HW133577   2.343   6.888   5.125  1.7461  0.0347 -0.6818
10712SOL    HW233578   2.421   6.805   5.224 -0.1787 -0.8789  0.1038
10713SOL     OW33579   3.869   6.301   4.579 -0.0373  0.2509  0.1437
10713SOL    HW133580   3.878   6.345   4.663  0.2980  1.0802 -0.3107
10713SOL    HW233581   3.921   6.354   4.519  0.1505 -0.6200 -0.4807
10714SOL     OW33582   1.635   7.594   3.820  0.0853  0.0267 -0.1314
10714SOL    HW133583   1.712   7.540   3.807 -0.5397 -0.7785 -0.6314
10714SOL    HW233584   1.593   7.597   3.733  0.0859  1.2987 -0.1169
10715SOL     OW33585   3.494   7.486   5.707  0.4741  0.3382  0.0486
10715SOL    HW133586   3.474   7.482   5.613 -0.4158  1.3589  0.1806
10715SOL    HW233587   3.589   7.495   5.711  0.4473  1.0741 -0.7787
10716SOL     OW33588   2.422   6.016   3.054  0.1001 -0.0902 -0.1160
10716SOL    HW133589   2.408   6.109   3.074 -0.9888 -0.5456  1.4181
10716SOL    HW233590   2.357   5.970   3.107  0.6440 -1.7436 -0.8239
10717SOL     OW33591   2.174   0.954   4.611 -0.1058  0.7050  0.6520
10717SOL    HW133592   2.222   0.885   4.657 -1.0766 -1.9786 -2.0973
10717SOL    HW233593   2.082   0.931   4.621 -0.3829  0.6416 -1.6404
10718SOL     OW33594   1.466   0.265   5.275 -0.2058 -0.1537  0.3715
10718SOL    HW133595   1.533   0.216   5.322 -0.3118  0.2790  0.9827
10718SOL    HW233596   1.390   0.265   5.334 -1.3838 -2.1404 -0.9985
10719SOL     OW33597   2.226   6.122   3.863  0.7344  0.3266  0.1812
10719SOL    HW133598   2.296   6.177   3.899 -0.1228  0.7732  1.2318
10719SOL    HW233599   2.200   6.066   3.937 -2.3309  2.4975  0.9211
10720SOL     OW33600   4.734   6.020   4.876  0.4636 -0.0908 -0.7528
10720SOL    HW133601   4.740   5.925   4.869  0.8217 -0.1486  0.1201
10720SOL    HW233602   4.772   6.039   4.962 -1.5205  0.6481  0.0083
10721SOL     OW33603   2.250   5.480   6.285 -0.3129  0.3079  0.1004
10721SOL    HW133604   2.275   5.485   6.377  1.4404  2.1880 -0.4261
10721SOL    HW233605   2.332   5.486   6.237 -1.2066 -0.4294 -1.6252
10722SOL     OW33606   3.007   6.864   4.145  0.7341 -0.1321 -0.0078
10722SOL    HW133607   3.030   6.772   4.132 -1.1551 -0.7726  0.8093
10722SOL    HW233608   3.006   6.901   4.057  4.4518 -0.0565 -0.1366
10723SOL     OW33609   0.438   6.751   3.030  0.3541 -0.0279 -0.0063
10723SOL    HW133610   0.531   6.762   3.013 -0.0932  3.1638 -1.0956
10723SOL    HW233611   0.427   6.773   3.122  0.7085 -0.6544  0.1841
10724SOL     OW33612   5.714   7.291   3.016 -0.2674  0.2862  0.3545
10724SOL    HW133613   5.699   7.343   3.095 -0.3805 -0.2095  0.6586
10724SOL    HW233614   5.806   7.264   3.021  0.4463  2.2172 -0.8598
10725SOL     OW33615   2.664   7.219   3.707  0.7272  0.5336  0.0874
10725SOL    HW133616   2.592   7.276   3.679  0.7676  1.6136  2.0373
10725SOL    HW233617   2.622   7.153   3.762  1.1140  0.6184  0.4840
10726SOL     OW33618   1.854   5.644   4.460  0.5470 -0.0453  0.6107
10726SOL    HW133619   1.774   5.615   4.505  1.3056  0.4462  2.3491
10726SOL    HW233620   1.925   5.603   4.509  1.3990 -1.4284 -1.5990
10727SOL     OW33621   1.630   5.765   3.809 -0.5675 -0.4998 -0.4446
10727SOL    HW133622   1.603   5.734   3.895 -0.4289  0.0393 -0.2031
10727SOL    HW233623   1.672   5.849   3.826 -0.0792 -0.6272 -0.9820
10728SOL     OW33624   4.380   5.531   4.561  0.4092 -0.0144  0.3153
10728SOL    HW133625   4.325   5.524   4.639  0.4521 -0.0881  0.3392
10728SOL    HW233626   4.465   5.559   4.594  0.6205 -0.7047  0.3723
10729SOL     OW33627   3.484   6.685   4.653  0.2382  0.4920  0.0151
10729SOL    HW133628   3.452   6.602   4.689 -0.5807  0.3150 -1.0865
10729SOL    HW233629   3.456   6.684   4.561  1.8913  1.1183 -0.5362
10730SOL     OW33630   2.296   6.541   6.333 -0.2316 -0.1611 -0.3768
10730SOL    HW133631   2.325   6.476   6.268  1.7857  0.2481  0.0448
10730SOL    HW233632   2.242   6.602   6.283  0.8527 -0.1445 -1.5853
10731SOL     OW33633   1.610   7.073   3.049  0.1798  0.3983  0.3095
10731SOL    HW133634   1.549   7.047   3.118  0.2856  0.8601  0.5809
10731SOL    HW233635   1.554   7.101   2.977  0.0673 -0.1786  0.1637
10732SOL     OW33636   2.277   7.754   6.181  0.4401  0.5417 -0.1257
10732SOL    HW133637   2.285   7.681   6.119 -1.2100  0.0623  0.1867
10732SOL    HW233638   2.356   7.807   6.166  0.2208  0.3168 -2.4829
10733SOL     OW33639   0.587   5.101   5.477 -0.2835 -0.1010 -0.3357
10733SOL    HW133640   0.509   5.120   5.529 -0.2336 -0.7580 -0.0203
10733SOL    HW233641   0.589   5.006   5.470  1.1759 -0.1758  0.7157
10734SOL     OW33642   5.687   6.680   4.419 -0.1722 -0.6853 -0.1863
10734SOL    HW133643   5.651   6.734   4.489  0.7284  0.6201 -0.6914
10734SOL    HW233644   5.633   6.700   4.343  0.5969  0.0883 -0.5517
10735SOL     OW33645   4.173   0.045   4.928 -0.3308 -0.4133  0.1239
10735SOL    HW133646   4.107   0.115   4.932 -0.7088 -0.7949  0.7160
10735SOL    HW233647   4.249   0.082   4.972  0.0589  0.2298 -1.0347
10736SOL     OW33648   0.259   6.429   1.737 -0.0403  0.4270  0.5595
10736SOL    HW133649   0.302   6.434   1.651 -0.6383  0.6849  0.2734
10736SOL    HW233650   0.242   6.335   1.749 -0.5383  0.4571  0.1052
10737SOL     OW33651   2.988   4.809   4.052 -0.0395  0.4876 -0.2096
10737SOL    HW133652   3.054   4.807   3.982  0.8840  0.7510  0.6232
10737SOL    HW233653   3.036   4.839   4.129 -0.6386 -1.3363  0.9486
10738SOL     OW33654   4.678   7.618   4.501 -0.5819 -0.0913  0.2399
10738SOL    HW133655   4.717   7.545   4.549  2.5946  0.9567 -0.5277
10738SOL    HW233656   4.698   7.600   4.409 -0.5475  1.2727 -0.0463
10739SOL     OW33657   4.033   5.121   4.746 -0.2438  0.7155  0.2086
10739SOL    HW133658   3.938   5.112   4.759 -0.2207  0.3947  0.1718
10739SOL    HW233659   4.068   5.133   4.834 -0.3183  0.8192  0.2239
10740SOL     OW33660   5.123   5.500   4.045 -0.0415 -0.1786  0.2673
10740SOL    HW133661   5.159   5.449   4.117  1.7149 -1.3159 -1.3456
10740SOL    HW233662   5.071   5.437   3.995 -1.1350  0.5745  0.4083
10741SOL     OW33663   1.791   6.788   4.813  0.3246  0.2835  0.2280
10741SOL    HW133664   1.790   6.853   4.742  0.3209  0.2953  0.2387
10741SOL    HW233665   1.756   6.836   4.888  0.1450  0.2134  0.1882
10742SOL     OW33666   1.733   6.688   6.451 -0.0271  0.1563 -0.0704
10742SOL    HW133667   1.764   6.778   6.459 -1.4353  0.5767  0.9077
10742SOL    HW233668   1.802   6.643   6.402  0.7665  1.7205 -0.4292
10743SOL     OW33669   2.389   6.433   1.583  0.1799 -0.5471 -0.3913
10743SOL    HW133670   2.308   6.395   1.549  0.5490 -2.1687  0.4315
10743SOL    HW233671   2.457   6.407   1.520 -0.0148  1.6115 -1.5970
10744SOL     OW33672   1.202   5.933   3.576  0.0742  0.4915 -0.0965
10744SOL    HW133673   1.224   5.845   3.545 -0.4272  0.2571  0.2016
10744SOL    HW233674   1.134   5.963   3.515  2.8039  2.1880 -2.5494
10745SOL     OW33675   2.282   7.364   7.674  0.9021  0.2004  0.3074
10745SOL    HW133676   2.280   7.403   7.761  2.7819 -1.1156  0.9928
10745SOL    HW233677   2.198   7.318   7.667  0.4854  0.7867  1.1631
10746SOL     OW33678   3.878   5.056   2.761  0.3724  0.3132 -0.8242
10746SOL    HW133679   3.851   4.994   2.829  0.9145  1.4673  0.4957
10746SOL    HW233680   3.797   5.103   2.738  0.1254 -0.2946 -1.2229
10747SOL     OW33681   3.962   0.008   6.428  0.0500  0.1773  0.0824
10747SOL    HW133682   3.885  -0.037   6.392 -2.0015  1.9167  1.9913
10747SOL    HW233683   3.995  -0.052   6.494 -0.0638 -0.3252 -0.3116
10748SOL     OW33684   3.357   5.090   2.586 -0.9629  0.4830  0.2625
10748SOL    HW133685   3.290   5.029   2.554 -2.2345  1.1930  1.4164
10748SOL    HW233686   3.310   5.144   2.650  0.4753  1.7325  0.3099
10749SOL     OW33687   1.224   4.684   4.209 -0.0048 -0.0423  0.5355
10749SOL    HW133688   1.269   4.716   4.287 -0.5563  1.6635  0.2103
10749SOL    HW233689   1.231   4.589   4.214  1.6098  0.0983  1.6655
10750SOL     OW33690   1.733   7.089   4.049  0.5576  0.0329 -0.0492
10750SOL    HW133691   1.697   7.167   4.091  1.0714  0.2173  0.0612
10750SOL    HW233692   1.826   7.091   4.072  1.0344  0.5797 -1.8338
10751SOL     OW33693   2.120   7.551   3.815  0.5810 -0.2938 -0.3984
10751SOL    HW133694   2.153   7.572   3.727 -0.7987  0.5814 -0.7458
10751SOL    HW233695   2.030   7.522   3.800  0.1994  0.2439  0.7587
10752SOL     OW33696   4.926   7.582   5.652 -0.3283 -0.5576 -0.6478
10752SOL    HW133697   4.836   7.602   5.679  0.1141  0.9995 -0.1871
10752SOL    HW233698   4.951   7.657   5.596  1.2408 -0.0700  0.6323
10753SOL     OW33699   2.792   6.725   4.651 -0.6689  0.6428  0.1545
10753SOL    HW133700   2.806   6.819   4.650 -1.7626  0.8420  1.1574
10753SOL    HW233701   2.786   6.700   4.559  2.4644  1.0451 -0.2615
10754SOL     OW33702   0.937   6.155   1.261 -0.0281 -0.3960 -0.1376
10754SOL    HW133703   0.999   6.193   1.323 -0.4762 -0.1470  0.1629
10754SOL    HW233704   0.979   6.073   1.233  0.5966 -0.0542 -0.2186
10755SOL     OW33705   3.360   5.999   5.547  0.0542 -0.3061 -0.0074
10755SOL    HW133706   3.356   5.979   5.640 -1.8439  0.2976  0.0928
10755SOL    HW233707   3.344   6.093   5.542  1.0286 -0.1687 -0.9074
10756SOL     OW33708   2.687   6.374   5.593  0.5858  0.1241  0.3146
10756SOL    HW133709   2.762   6.364   5.534  1.5741 -1.2442  1.7148
10756SOL    HW233710   2.709   6.452   5.645  0.5434  0.3275  0.0273
10757SOL     OW33711   3.275   6.340   5.290 -0.1591 -0.0599  0.1682
10757SOL    HW133712   3.317   6.401   5.229 -0.1399  0.1361  0.3755
10757SOL    HW233713   3.247   6.395   5.362 -0.6411 -0.2130  0.1003
10758SOL     OW33714   2.578   4.077   4.245  0.2590  0.3773  0.1337
10758SOL    HW133715   2.574   4.003   4.185  1.9534  1.2227 -1.0938
10758SOL    HW233716   2.661   4.066   4.291  0.7325  1.7221 -0.3664
10759SOL     OW33717   3.649   6.974   4.446 -0.2725  0.4093  0.2690
10759SOL    HW133718   3.686   6.895   4.407  0.5050  1.5298 -1.3609
10759SOL    HW233719   3.675   6.970   4.538 -0.1522 -1.1562  0.1861
10760SOL     OW33720   3.616   6.271   5.496  0.0951 -0.3139  0.4467
10760SOL    HW133721   3.530   6.282   5.536  0.2373  1.3642  0.3605
10760SOL    HW233722   3.614   6.182   5.460 -1.5478 -0.3559  0.5404
10761SOL     OW33723   3.485   5.517   4.535 -0.1450  0.0876 -0.0787
10761SOL    HW133724   3.519   5.577   4.469 -0.7916  1.0949  0.4624
10761SOL    HW233725   3.560   5.466   4.563  0.0866 -0.5704 -1.7867
10762SOL     OW33726   3.497   6.868   4.841 -0.2177  0.0413  0.0066
10762SOL    HW133727   3.490   6.808   4.766 -1.0646  0.0834  0.0363
10762SOL    HW233728   3.506   6.955   4.801  1.1830 -0.0987 -0.0372
10763SOL     OW33729   2.938   5.363   3.353  0.5860  0.2573  0.0774
10763SOL    HW133730   3.025   5.334   3.378  0.6442  0.2237 -0.1628
10763SOL    HW233731   2.882   5.338   3.427  0.7984  0.3812  0.2790
10764SOL     OW33732   2.813   5.811   4.943  0.5058 -0.2763  0.3401
10764SOL    HW133733   2.872   5.745   4.907  0.7624  0.9520 -1.6018
10764SOL    HW233734   2.727   5.789   4.906  0.9135  1.4533 -1.7943
10765SOL     OW33735   3.958   5.720   5.637  0.1447 -0.2071 -0.8599
10765SOL    HW133736   3.969   5.770   5.718  0.9985 -1.1404 -0.3803
10765SOL    HW233737   3.892   5.654   5.657  1.2077 -1.1960 -0.5390
10766SOL     OW33738   1.507   2.698   2.374  0.2650 -0.1389 -0.1901
10766SOL    HW133739   1.535   2.706   2.283 -0.2913 -1.6872 -0.5275
10766SOL    HW233740   1.489   2.787   2.402  1.4885  0.4676 -1.2542
10767SOL     OW33741   1.940   5.407   4.795  0.0841 -0.0678 -0.3391
10767SOL    HW133742   2.000   5.474   4.762 -0.9065  0.5840 -0.8871
10767SOL    HW233743   1.977   5.381   4.880  1.6596 -0.4067 -1.0848
10768SOL     OW33744   1.335   5.827   5.146  0.4516 -0.4703 -0.2635
10768SOL    HW133745   1.351   5.915   5.111 -1.0464  0.1425  0.5008
10768SOL    HW233746   1.361   5.768   5.076 -1.5616  0.6876 -2.0915
10769SOL     OW33747   1.842   6.956   6.333  0.5817 -0.2883  0.0650
10769SOL    HW133748   1.910   7.017   6.307  1.3395 -1.0580  0.1943
10769SOL    HW233749   1.841   6.960   6.428  0.8465 -0.6896  0.0883
10770SOL     OW33750   2.534   6.168   4.203  0.4919 -0.2468 -0.7639
10770SOL    HW133751   2.534   6.093   4.262 -1.8080  0.2547 -0.0342
10770SOL    HW233752   2.626   6.179   4.178  1.2334 -1.7284  1.0917
10771SOL     OW33753   3.597   5.504   3.798 -0.4029 -0.0161 -0.1019
10771SOL    HW133754   3.681   5.460   3.809  0.3394  0.5467 -2.7293
10771SOL    HW233755   3.539   5.438   3.762 -0.3983  0.1763 -0.4672
10772SOL     OW33756   2.518   4.893   4.305 -0.1058  0.3059 -0.5340
10772SOL    HW133757   2.534   4.799   4.318 -0.6509  0.2796 -0.0126
10772SOL    HW233758   2.576   4.917   4.233  1.1641 -0.1012  0.3168
10773SOL     OW33759   2.535   6.127   2.803  0.5228  0.0464  0.0007
10773SOL    HW133760   2.578   6.168   2.878  0.2674  0.6529 -0.1818
10773SOL    HW233761   2.454   6.177   2.792  0.1099 -0.6265 -0.1070
10774SOL     OW33762   1.673   4.105   1.603 -0.1461  0.3517 -0.1442
10774SOL    HW133763   1.624   4.052   1.665 -0.2554  0.4804 -0.1212
10774SOL    HW233764   1.673   4.193   1.640  0.9823  0.1484  0.3710
10775SOL     OW33765   2.091   5.646   4.632  0.0860 -0.0527 -0.1415
10775SOL    HW133766   2.138   5.728   4.643 -0.3009  0.3699 -1.4865
10775SOL    HW233767   2.155   5.578   4.653  0.7155  0.5601 -0.0616
10776SOL     OW33768   0.788   7.347   3.095 -0.1268 -0.0680  0.0955
10776SOL    HW133769   0.745   7.430   3.077  1.3334  0.8507  0.6357
10776SOL    HW233770   0.733   7.281   3.053 -1.2445  1.1789 -0.4553
10777SOL     OW33771   3.425   6.448   4.774  0.2783 -0.3429 -0.0826
10777SOL    HW133772   3.496   6.391   4.804  0.3688 -0.8145 -1.1569
10777SOL    HW233773   3.349   6.391   4.766  0.1130 -0.1077 -0.2128
10778SOL     OW33774   1.642   6.562   3.597 -0.1550  0.0124  0.1459
10778SOL    HW133775   1.678   6.517   3.520  0.9348 -0.0360  0.6775
10778SOL    HW233776   1.718   6.583   3.651 -0.5843  2.6194 -0.1142
10779SOL     OW33777   3.732   7.117   5.841 -0.1258 -0.9360 -0.0786
10779SOL    HW133778   3.728   7.034   5.890  0.9900 -0.7150  0.4196
10779SOL    HW233779   3.699   7.182   5.903  1.1934 -0.6711  0.3723
10780SOL     OW33780   2.954   6.397   4.303 -0.3090 -0.0190  0.1270
10780SOL    HW133781   3.026   6.377   4.363 -1.8785  0.2982  2.2472
10780SOL    HW233782   2.876   6.363   4.348 -1.9020  2.6071 -0.4302
10781SOL     OW33783   2.725   4.345   5.815 -0.0559  0.0891 -0.0543
10781SOL    HW133784   2.779   4.409   5.768  0.7497  0.7218  1.6571
10781SOL    HW233785   2.786   4.276   5.839 -0.5472 -0.4242 -0.2639
10782SOL     OW33786   3.731   5.621   5.387 -0.0759  0.3068  0.1594
10782SOL    HW133787   3.695   5.534   5.406 -1.0994  0.0301 -2.6216
10782SOL    HW233788   3.814   5.623   5.434 -0.4582 -1.8143  1.0545
10783SOL     OW33789   2.013   6.038   3.483 -0.8397 -0.4095 -0.1486
10783SOL    HW133790   1.991   5.946   3.500  0.8723 -0.7241  0.5476
10783SOL    HW233791   1.954   6.088   3.541 -0.9978 -1.1143  0.3073
10784SOL     OW33792   2.431   6.552   3.917  0.0616  0.0828 -0.4137
10784SOL    HW133793   2.379   6.624   3.954  0.1678 -0.4967  0.9087
10784SOL    HW233794   2.401   6.545   3.826 -1.0752  0.7569 -0.1096
10785SOL     OW33795   3.797   6.410   5.393 -0.3436 -0.0108 -0.4375
10785SOL    HW133796   3.720   6.357   5.412  0.4157 -1.5180 -1.3850
10785SOL    HW233797   3.783   6.440   5.303  0.4588 -0.8324 -0.8441
10786SOL     OW33798   4.208   6.553   3.203  0.6872 -0.5911  0.0398
10786SOL    HW133799   4.161   6.554   3.286  0.3298 -1.5611 -0.1324
10786SOL    HW233800   4.143   6.524   3.138  0.4485  1.8869 -0.9407
10787SOL     OW33801   4.980   6.791   6.110  0.3166 -0.3866 -0.2297
10787SOL    HW133802   4.997   6.784   6.204 -1.4463 -0.7243  0.1085
10787SOL    HW233803   5.054   6.840   6.076  1.2941 -0.7792  1.2367
10788SOL     OW33804   0.176   0.263   3.517 -0.4517  0.0249  0.2776
10788SOL    HW133805   0.172   0.351   3.480 -0.1382 -0.0410  0.0789
10788SOL    HW233806   0.124   0.210   3.457  0.4664 -0.1761 -0.3558
10789SOL     OW33807   4.159   6.209   4.026 -0.2467 -0.2467 -0.1795
10789SOL    HW133808   4.083   6.232   4.080 -1.4766 -2.1231 -0.9978
10789SOL    HW233809   4.177   6.118   4.048  2.5002  0.4538  0.7562
10790SOL     OW33810   1.125   6.240   4.254 -0.3862 -0.3715 -0.2469
10790SOL    HW133811   1.135   6.328   4.216 -0.0996  0.3691  1.4475
10790SOL    HW233812   1.211   6.218   4.288 -0.9050 -0.3892  1.1635
10791SOL     OW33813   0.367   5.580   2.968 -0.1944 -0.2120  0.4223
10791SOL    HW133814   0.286   5.594   3.018 -1.8386 -4.2384 -0.6404
10791SOL    HW233815   0.416   5.516   3.020  2.2942  1.9526  0.8966
10792SOL     OW33816   3.526   6.850   5.908  0.1337  0.1946 -0.0756
10792SOL    HW133817   3.561   6.761   5.912 -0.2207  0.0634  0.2060
10792SOL    HW233818   3.590   6.903   5.955  1.4966  0.4860 -2.1785
10793SOL     OW33819   2.763   6.728   3.833 -0.2722  0.0551 -0.4972
10793SOL    HW133820   2.784   6.644   3.872  0.8009 -0.8056 -2.7774
10793SOL    HW233821   2.685   6.758   3.881  0.3756 -1.3388  1.5500
10794SOL     OW33822   2.416   7.570   6.870 -0.6855  0.5580 -0.1722
10794SOL    HW133823   2.376   7.631   6.933 -0.1729 -0.1734  0.8862
10794SOL    HW233824   2.479   7.520   6.922 -1.8023 -1.5964 -0.7655
10795SOL     OW33825   3.810   6.361   3.422 -0.2180  0.3431 -0.2998
10795SOL    HW133826   3.805   6.270   3.451  1.4323  0.0744 -0.7759
10795SOL    HW233827   3.804   6.412   3.502  1.8821 -0.3021  0.3199
10796SOL     OW33828   4.412   7.121   4.316  0.1696  0.5998  0.5485
10796SOL    HW133829   4.405   7.100   4.223  0.3941  1.3429  0.3539
10796SOL    HW233830   4.329   7.092   4.353  0.4285 -0.5166  0.2874
10797SOL     OW33831   3.300   5.800   6.276  0.8550 -0.5039  0.0549
10797SOL    HW133832   3.289   5.782   6.370  1.4573  1.3262  0.5260
10797SOL    HW233833   3.336   5.719   6.240  0.8153 -1.1681  1.4495
10798SOL     OW33834   2.656   5.595   3.662  0.5437  0.3359  0.5906
10798SOL    HW133835   2.715   5.520   3.655 -0.9882 -0.8735 -0.1906
10798SOL    HW233836   2.570   5.559   3.640 -0.3111  2.2468  0.6248
10799SOL     OW33837   2.309   4.979   5.693 -0.5315 -0.1426 -0.5615
10799SOL    HW133838   2.405   4.978   5.687 -0.4694 -1.2633  0.2968
10799SOL    HW233839   2.284   4.887   5.689 -1.5507  0.1106 -0.2900
10800SOL     OW33840   2.781   5.879   5.332  0.2821 -0.2054 -0.3411
10800SOL    HW133841   2.768   5.945   5.400  0.6714 -2.7485  2.3939
10800SOL    HW233842   2.693   5.852   5.308  0.1290 -1.1429  1.1676
10801SOL     OW33843   3.383   6.146   6.918  0.3978  0.0839  0.0300
10801SOL    HW133844   3.412   6.226   6.964  1.0220 -0.1641  0.0732
10801SOL    HW233845   3.450   6.131   6.851 -0.6477  0.5962 -1.1658
10802SOL     OW33846   2.594   5.825   6.145 -0.1880 -0.2106 -0.1708
10802SOL    HW133847   2.543   5.893   6.102 -0.1652 -0.4060 -0.5087
10802SOL    HW233848   2.633   5.775   6.073  0.3598 -0.1519  0.0823
10803SOL     OW33849   1.455   7.317   3.113 -0.0517  1.0734 -0.2060
10803SOL    HW133850   1.503   7.278   3.186 -0.1370  1.2645 -0.0468
10803SOL    HW233851   1.409   7.392   3.152 -2.1740 -0.3229  0.1265
10804SOL     OW33852   2.786   5.152   5.103  0.2558  0.1191  0.0430
10804SOL    HW133853   2.862   5.094   5.115  0.0695 -0.2722 -0.5794
10804SOL    HW233854   2.784   5.207   5.181 -0.6850 -1.9892  1.6028
10805SOL     OW33855   2.367   5.218   4.881  0.0033  0.2780 -0.1133
10805SOL    HW133856   2.367   5.196   4.974  0.5402  0.6594 -0.0157
10805SOL    HW233857   2.359   5.134   4.836 -0.8962  0.1408  0.2790
10806SOL     OW33858   2.859   0.350   5.638  0.9707  0.4955  0.0420
10806SOL    HW133859   2.804   0.351   5.560  0.7114  1.7287  0.2259
10806SOL    HW233860   2.946   0.325   5.607  0.6128 -0.1407 -0.4586
10807SOL     OW33861   3.712   5.533   2.557 -0.6579 -0.0079 -0.5099
10807SOL    HW133862   3.645   5.485   2.607  0.1747 -0.7840 -0.1203
10807SOL    HW233863   3.688   5.625   2.569 -1.5580 -0.2669 -0.2302
10808SOL     OW33864   1.466   6.123   4.654  0.3529 -0.1927 -0.8643
10808SOL    HW133865   1.541   6.181   4.638  1.0571 -0.3961  1.3021
10808SOL    HW233866   1.493   6.038   4.618  0.2830  0.2429 -1.9615
10809SOL     OW33867   2.027   6.722   4.688 -0.1590  0.3019  0.5234
10809SOL    HW133868   1.953   6.722   4.750  0.1204  0.0993  0.8614
10809SOL    HW233869   2.099   6.761   4.737  0.0821  0.0844  0.3437
10810SOL     OW33870   1.943   7.496   5.711 -0.1536 -0.0312 -0.1216
10810SOL    HW133871   1.945   7.481   5.805  0.3126  0.4115 -0.0551
10810SOL    HW233872   1.910   7.414   5.674 -0.7885 -0.0473  0.4555
10811SOL     OW33873   2.072   4.774   5.457  0.4419  0.3324 -0.3879
10811SOL    HW133874   1.980   4.748   5.451  0.5085 -0.5204  1.4862
10811SOL    HW233875   2.116   4.725   5.388  0.2177 -3.2490  1.7315
10812SOL     OW33876   2.280   6.512   5.144 -0.2254  0.2206  0.4383
10812SOL    HW133877   2.346   6.443   5.138 -0.8145 -0.4295  1.2403
10812SOL    HW233878   2.329   6.593   5.137  0.7434 -0.2393  1.5775
10813SOL     OW33879   3.313   6.186   5.886 -0.0497 -0.2283 -0.2862
10813SOL    HW133880   3.365   6.258   5.921 -0.4676 -0.1678  0.2248
10813SOL    HW233881   3.226   6.197   5.926 -0.1318 -0.9848 -0.2315
10814SOL     OW33882   2.778   5.351   4.474  0.0553  0.6482  0.3311
10814SOL    HW133883   2.852   5.349   4.534 -0.4608 -0.2608  0.9779
10814SOL    HW233884   2.811   5.310   4.394  0.7254  1.7988 -0.0057
10815SOL     OW33885   1.835   4.847   3.835 -0.2460 -0.0716 -0.2274
10815SOL    HW133886   1.763   4.787   3.857  0.1308 -0.2338  0.6056
10815SOL    HW233887   1.867   4.879   3.920 -0.0744  0.8836 -0.6361
10816SOL     OW33888   2.253   5.285   3.001 -0.8518  0.5110 -0.1343
10816SOL    HW133889   2.346   5.276   3.023 -0.9764  0.2405  0.2927
10816SOL    HW233890   2.238   5.379   2.997 -0.8267  0.5740  0.9580
10817SOL     OW33891   2.407   6.446   4.347 -0.2574  0.3305  0.1280
10817SOL    HW133892   2.335   6.503   4.322 -0.1795  1.0664  1.5342
10817SOL    HW233893   2.388   6.363   4.302 -1.6993  0.6656  0.0741
10818SOL     OW33894   1.084   5.621   4.059  0.2545  0.3953  0.0528
10818SOL    HW133895   1.121   5.695   4.011  1.6158 -1.0932 -1.3076
10818SOL    HW233896   0.990   5.626   4.042  0.5071  0.9350 -1.3307
10819SOL     OW33897   4.305   6.304   6.285  0.2179  0.2554 -0.2193
10819SOL    HW133898   4.299   6.304   6.189  0.4525 -1.3468 -0.2607
10819SOL    HW233899   4.335   6.216   6.307 -0.0835  0.5179  1.3530
10820SOL     OW33900   0.789   5.938   4.166  0.1146  0.0039 -0.2454
10820SOL    HW133901   0.715   5.892   4.127  0.5486 -0.3052 -0.7183
10820SOL    HW233902   0.804   5.893   4.248 -0.0455 -0.1111 -0.2771
10821SOL     OW33903   3.878   5.192   5.287  0.1529 -0.3095 -0.1975
10821SOL    HW133904   3.798   5.143   5.305  0.8893 -1.2974  0.4989
10821SOL    HW233905   3.904   5.226   5.373 -0.4622  1.5224 -0.6990
10822SOL     OW33906   3.021   6.575   4.035  0.3062 -0.5275 -0.4451
10822SOL    HW133907   3.018   6.481   4.018  1.5942 -0.6558 -0.0335
10822SOL    HW233908   3.029   6.614   3.948  1.8983 -0.9205 -0.4970
10823SOL     OW33909   3.495   7.431   5.424  0.4200 -0.0363 -0.2752
10823SOL    HW133910   3.427   7.365   5.408 -0.6521  0.8313  0.5438
10823SOL    HW233911   3.574   7.380   5.443 -0.7111 -1.1608  1.7981
10824SOL     OW33912   4.071   7.572   5.076 -0.3693 -0.5734 -0.5270
10824SOL    HW133913   4.101   7.573   4.985  0.3439 -0.6395 -0.2997
10824SOL    HW233914   4.047   7.663   5.095 -1.0788 -0.6660 -0.9553
10825SOL     OW33915   2.044   6.543   6.860 -0.0273 -0.0369  0.1430
10825SOL    HW133916   2.058   6.487   6.937  2.3802  0.5876  0.2362
10825SOL    HW233917   1.990   6.491   6.802 -0.1115 -1.3793  1.3724
10826SOL     OW33918   1.744   5.448   3.546 -0.5470  0.0141 -0.1470
10826SOL    HW133919   1.737   5.543   3.540 -1.0919 -0.0684 -1.0758
10826SOL    HW233920   1.787   5.431   3.630 -0.4191  1.0768  0.0050
10827SOL     OW33921   3.354   6.092   4.691 -0.1388 -0.6347 -0.9394
10827SOL    HW133922   3.261   6.077   4.709 -0.4508 -1.0290 -2.6181
10827SOL    HW233923   3.355   6.162   4.625  0.7258 -0.8779 -1.2042
10828SOL     OW33924   4.645   6.461   4.075  0.4952 -0.2742 -0.6297
10828SOL    HW133925   4.581   6.531   4.093  1.7252  0.6803  0.2112
10828SOL    HW233926   4.635   6.401   4.149 -0.2566 -0.7955 -1.1308
10829SOL     OW33927   3.350   6.785   3.558  0.1716 -0.3010 -0.0737
10829SOL    HW133928   3.301   6.709   3.529  2.5084 -1.6882 -0.7061
10829SOL    HW233929   3.392   6.757   3.639  1.7673 -0.0623 -0.7716
10830SOL     OW33930   1.115   5.810   4.496  0.1624 -0.1456  0.8073
10830SOL    HW133931   1.077   5.898   4.496  1.7157  0.5514  0.4469
10830SOL    HW233932   1.066   5.763   4.428  1.3333  1.3859 -1.1905
10831SOL     OW33933   3.412   5.302   5.708  0.4706 -0.2562  0.2682
10831SOL    HW133934   3.338   5.244   5.689  0.9405 -0.7446 -0.0760
10831SOL    HW233935   3.391   5.340   5.794  0.0307 -0.7177  0.3711
10832SOL     OW33936   2.211   6.727   5.957 -0.4473 -0.6193  0.0808
10832SOL    HW133937   2.301   6.721   5.991 -0.4456  1.7125  0.6397
10832SOL    HW233938   2.156   6.713   6.034 -0.5970 -1.8215 -0.2220
10833SOL     OW33939   2.210   7.999   3.377 -0.2396 -0.0069 -0.1013
10833SOL    HW133940   2.134   8.044   3.415  0.8273 -0.1130  2.3565
10833SOL    HW233941   2.246   7.949   3.450  1.4020 -1.0448 -1.5673
10834SOL     OW33942   2.565   7.853   5.506 -0.5060 -0.2021 -0.0932
10834SOL    HW133943   2.637   7.802   5.471  0.1111  0.0582  0.7803
10834SOL    HW233944   2.518   7.794   5.565 -0.6633 -0.1996 -0.2146
10835SOL     OW33945   2.755   6.797   5.087  0.5078 -0.2323  0.1828
10835SOL    HW133946   2.803   6.842   5.157  0.4066 -1.4174  1.0413
10835SOL    HW233947   2.697   6.736   5.133 -0.0031 -0.6076 -0.9217
10836SOL     OW33948   3.003   5.746   5.280 -0.3751 -0.2154  0.1972
10836SOL    HW133949   2.979   5.672   5.336  0.4814  0.0079  0.8721
10836SOL    HW233950   2.923   5.798   5.274 -0.5264 -0.3179  1.1054
10837SOL     OW33951   1.394   4.646   3.897  0.2906  0.0471 -0.1089
10837SOL    HW133952   1.397   4.735   3.862  0.5504  0.3024  0.5548
10837SOL    HW233953   1.405   4.656   3.991 -1.6470 -0.5337  0.2221
10838SOL     OW33954   1.418   6.026   4.932  0.4020  0.0734  0.6509
10838SOL    HW133955   1.416   6.120   4.953  2.9392  0.3931 -0.1792
10838SOL    HW233956   1.430   6.023   4.837 -1.5534 -1.1930  0.3737
10839SOL     OW33957   2.484   7.322   5.770 -0.1939 -0.2928 -0.2977
10839SOL    HW133958   2.395   7.287   5.779 -0.1836 -0.0504  0.8612
10839SOL    HW233959   2.530   7.258   5.716 -1.3473  0.0960 -1.8100
10840SOL     OW33960   3.980   5.548   2.886 -0.4081 -0.0546  0.0013
10840SOL    HW133961   3.888   5.525   2.871 -0.3122 -0.2406 -0.3008
10840SOL    HW233962   4.021   5.545   2.799 -0.1060 -0.0184  0.1395
10841SOL     OW33963   4.357   5.121   2.959 -0.1892 -0.2942  0.5804
10841SOL    HW133964   4.304   5.056   3.006 -0.9322  0.6380  1.0641
10841SOL    HW233965   4.319   5.205   2.984  1.6541  0.4340  1.1040
10842SOL     OW33966   1.508   7.518   3.512  0.5868  0.5959 -0.3450
10842SOL    HW133967   1.462   7.580   3.569  1.9750  1.4036 -0.0672
10842SOL    HW233968   1.467   7.528   3.427 -1.0689 -0.1361  0.3251
10843SOL     OW33969   2.099   6.000   4.086 -0.1971  0.2281 -0.1580
10843SOL    HW133970   2.134   5.975   4.172 -1.0755 -0.7533 -0.0722
10843SOL    HW233971   2.027   5.940   4.071 -2.4227  2.6712  0.0459
10844SOL     OW33972   1.581   5.847   4.511 -0.2085 -0.7427  0.1081
10844SOL    HW133973   1.647   5.880   4.450  0.1312 -0.0774  0.8207
10844SOL    HW233974   1.612   5.759   4.535  1.2245  0.0901  1.5312
10845SOL     OW33975   0.024   6.245   3.334 -0.6968 -0.0318 -0.1473
10845SOL    HW133976   0.098   6.282   3.381 -1.7984  0.0891  1.5964
10845SOL    HW233977   0.009   6.160   3.376  0.6530 -1.7619 -2.8798
10846SOL     OW33978   0.936   1.585   5.467  0.1289 -0.2388 -0.1214
10846SOL    HW133979   0.943   1.676   5.438  1.7269 -0.3251 -0.0666
10846SOL    HW233980   1.004   1.575   5.533 -0.7098 -1.2090  0.6278
10847SOL     OW33981   1.338   5.493   3.197 -0.0733 -0.4380 -0.5924
10847SOL    HW133982   1.384   5.409   3.192  0.2535 -0.4401  1.4644
10847SOL    HW233983   1.408   5.559   3.199 -0.2606 -0.2462 -0.3134
10848SOL     OW33984   2.696   5.526   2.908 -0.3254  0.1991 -0.0614
10848SOL    HW133985   2.653   5.611   2.921  0.3763  0.3599  1.4298
10848SOL    HW233986   2.770   5.528   2.968 -0.5531 -1.6539  0.3296
10849SOL     OW33987   5.146   7.339   7.140  0.6295 -0.2500  0.5557
10849SOL    HW133988   5.107   7.329   7.053  1.0398  1.1638  0.1906
10849SOL    HW233989   5.240   7.347   7.123  0.6093  1.1885  1.0229
10850SOL     OW33990   3.295   6.554   5.627  0.0911  0.0027 -0.2879
10850SOL    HW133991   3.357   6.626   5.640  0.2964 -0.3160  0.6198
10850SOL    HW233992   3.240   6.556   5.705  1.5231 -2.1781  0.8742
10851SOL     OW33993   1.767   5.469   3.875 -0.1986 -0.6713 -0.4150
10851SOL    HW133994   1.862   5.477   3.876 -0.2478  0.1029  0.6769
10851SOL    HW233995   1.737   5.537   3.936 -1.5451  0.3037 -2.0572
10852SOL     OW33996   1.942   6.372   4.226  0.3404  0.1072 -0.4036
10852SOL    HW133997   2.015   6.433   4.223  0.4591 -0.0591 -1.2185
10852SOL    HW233998   1.927   6.356   4.319 -0.7926  2.6480 -0.0665
10853SOL     OW33999   2.440   5.515   4.884 -0.5191 -0.5577 -0.0507
10853SOL    HW134000   2.409   5.426   4.867  0.4929 -0.9522  0.1161
10853SOL    HW234001   2.530   5.516   4.850 -0.4320  0.3230  0.1872
10854SOL     OW34002   2.944   5.587   4.621 -0.1662  0.3746  0.2785
10854SOL    HW134003   2.893   5.600   4.541 -1.1717 -0.4655  0.7646
10854SOL    HW234004   3.025   5.546   4.592 -0.7171 -0.3423 -0.2612
10855SOL     OW34005   1.657   0.745   5.850 -0.2289 -0.1285 -0.7577
10855SOL    HW134006   1.719   0.700   5.909 -1.8966  0.9366  2.0318
10855SOL    HW234007   1.687   0.835   5.849 -1.4544  0.3272  0.3591
10856SOL     OW34008   3.303   5.615   3.079  0.2736 -0.2234  0.0931
10856SOL    HW134009   3.270   5.699   3.110 -1.9636 -0.5976 -1.0399
10856SOL    HW234010   3.258   5.550   3.133  0.7823 -0.7234 -0.0790
10857SOL     OW34011   0.943   5.736   5.091  0.1187 -0.0515  0.0003
10857SOL    HW134012   0.919   5.802   5.026 -0.8429 -0.5570 -0.1721
10857SOL    HW234013   0.872   5.738   5.155  0.6027 -0.2036  0.5547
10858SOL     OW34014   0.663   6.878   2.398 -0.0203  0.1227 -0.2131
10858SOL    HW134015   0.751   6.855   2.367  0.6417 -0.7479  2.1096
10858SOL    HW234016   0.677   6.949   2.460 -0.7465 -0.9461  1.2295
10859SOL     OW34017   3.010   7.701   5.965 -0.3975  0.0269 -0.0875
10859SOL    HW134018   2.962   7.784   5.965  0.4688  0.5464  0.6885
10859SOL    HW234019   3.082   7.715   6.026 -0.1535 -1.2575 -0.0553
10860SOL     OW34020   2.012   5.143   3.466 -0.1590  0.6042 -0.5060
10860SOL    HW134021   1.948   5.096   3.519 -0.5673  1.0005 -0.6494
10860SOL    HW234022   1.966   5.163   3.384 -0.0771  1.5036 -0.3380
10861SOL     OW34023   0.182   4.569   3.734 -0.3227  0.4980 -0.4249
10861SOL    HW134024   0.239   4.645   3.749  1.2707 -0.9296  1.4003
10861SOL    HW234025   0.143   4.585   3.648  1.2948  2.5311 -0.8798
10862SOL     OW34026   1.707   6.981   3.464 -0.5712  0.1651 -0.6358
10862SOL    HW134027   1.636   6.918   3.477 -0.6107 -0.1079 -2.0401
10862SOL    HW234028   1.787   6.929   3.465 -0.4954  0.2832 -0.4332
10863SOL     OW34029   3.284   5.063   3.654  0.3429 -0.0261  0.4859
10863SOL    HW134030   3.369   5.081   3.694  1.0973  0.1405 -1.1142
10863SOL    HW234031   3.303   5.003   3.581 -0.6795  1.1619 -0.8277
10864SOL     OW34032   3.421   4.877   3.506 -0.7523  0.3194 -0.0221
10864SOL    HW134033   3.506   4.838   3.527 -0.5733  1.0163  0.5693
10864SOL    HW234034   3.381   4.814   3.445  0.0362 -0.1830 -0.0438
10865SOL     OW34035   4.643   7.663   4.962 -0.1099  0.6347  0.2818
10865SOL    HW134036   4.631   7.583   4.910  1.9500  1.2067 -1.2047
10865SOL    HW234037   4.558   7.706   4.960 -1.4396 -1.7411  1.6065
10866SOL     OW34038   1.711   7.558   6.016 -0.0148  0.6301 -0.2574
10866SOL    HW134039   1.795   7.514   6.012  0.0547  0.7915 -0.5998
10866SOL    HW234040   1.679   7.542   6.105  1.3468  2.3839  0.5870
10867SOL     OW34041   2.666   5.622   5.991 -0.2259  0.3397  0.2530
10867SOL    HW134042   2.761   5.623   5.984 -0.2948  1.7537 -0.8185
10867SOL    HW234043   2.636   5.578   5.911 -0.5033  1.0082 -0.0146
10868SOL     OW34044   2.597   5.853   3.395  0.1358 -0.0848  0.5079
10868SOL    HW134045   2.617   5.769   3.353 -0.2737 -0.1432  0.4269
10868SOL    HW234046   2.502   5.861   3.389 -0.0946 -0.7552  2.7058
10869SOL     OW34047   1.916   5.726   3.423 -0.1588 -0.4309  0.2328
10869SOL    HW134048   1.821   5.726   3.438 -0.3726 -3.0632 -0.6320
10869SOL    HW234049   1.953   5.719   3.511 -0.8757 -1.6886  0.4608
10870SOL     OW34050   2.526   5.537   5.766  0.0954 -0.5724  0.4041
10870SOL    HW134051   2.513   5.442   5.762 -0.4007 -0.4656 -1.5001
10870SOL    HW234052   2.448   5.570   5.811 -0.3089 -0.9757  0.0058
10871SOL     OW34053   3.800   5.476   7.108 -0.0123 -0.0950  0.4670
10871SOL    HW134054   3.729   5.424   7.144 -1.4084  1.2055 -0.3028
10871SOL    HW234055   3.831   5.425   7.033 -0.8526 -0.1956  0.1779
10872SOL     OW34056   0.833   5.608   4.053 -0.4136 -0.5282  0.3528
10872SOL    HW134057   0.756   5.663   4.048 -0.0652  0.0233  0.9591
10872SOL    HW234058   0.806   5.532   4.105 -1.1123 -1.3340 -1.1070
10873SOL     OW34059   0.513   5.047   4.283  0.1021 -0.4527 -0.3050
10873SOL    HW134060   0.606   5.064   4.266 -0.1085  0.2504 -0.8058
10873SOL    HW234061   0.510   5.020   4.375  0.6793  0.5957  0.0458
10874SOL     OW34062   1.049   4.445   2.895  0.1013  0.0395 -0.6923
10874SOL    HW134063   1.141   4.446   2.871  0.1724 -0.8867 -0.4932
10874SOL    HW234064   1.018   4.359   2.867 -0.4869  0.0081  0.0279
10875SOL     OW34065   0.076   5.442   1.932  0.2046  0.6858 -0.2455
10875SOL    HW134066  -0.007   5.485   1.953 -0.6504 -0.5622 -1.0021
10875SOL    HW234067   0.053   5.372   1.871  1.4052 -1.4235  1.5697
10876SOL     OW34068   3.066   5.748   4.817  0.1046 -0.2497 -0.4773
10876SOL    HW134069   3.056   5.686   4.744  0.5456 -0.5939 -0.2532
10876SOL    HW234070   3.086   5.693   4.892 -0.9530  0.0588  0.0397
10877SOL     OW34071   0.466   5.796   5.260  0.3723  0.1409  0.9201
10877SOL    HW134072   0.436   5.706   5.272  0.2459  0.1726  0.8519
10877SOL    HW234073   0.561   5.791   5.266  0.6698 -0.5772 -2.5252
10878SOL     OW34074   5.753   6.300   4.375  0.1292 -0.0841  0.1961
10878SOL    HW134075   5.720   6.382   4.338  0.8408  0.6987  1.2367
10878SOL    HW234076   5.686   6.273   4.438 -0.2102 -0.4385 -0.3057
10879SOL     OW34077   0.734   5.523   5.095 -0.5613  0.6379 -0.4574
10879SOL    HW134078   0.675   5.471   5.040  0.0703 -1.8410  1.0357
10879SOL    HW234079   0.819   5.515   5.052 -0.0220 -1.4843  0.8643
10880SOL     OW34080   4.167   0.191   5.346  0.3018 -0.1151  0.0783
10880SOL    HW134081   4.075   0.189   5.317  0.8428  1.1678 -1.9147
10880SOL    HW234082   4.162   0.172   5.439 -1.7944 -2.2169 -0.3359
10881SOL     OW34083   1.789   5.656   5.073  0.1792 -0.3745 -0.1138
10881SOL    HW134084   1.877   5.691   5.062 -0.4268  0.8986 -1.2771
10881SOL    HW234085   1.731   5.728   5.046 -1.1602 -1.8333 -1.2937
10882SOL     OW34086   3.258   6.726   6.745 -0.8926  0.1461 -0.5863
10882SOL    HW134087   3.305   6.643   6.754  0.9982  1.3326  1.3819
10882SOL    HW234088   3.270   6.751   6.654  2.7779  0.5711 -0.1170
10883SOL     OW34089   0.348   6.203   4.632 -0.0828  0.8739 -0.3788
10883SOL    HW134090   0.284   6.271   4.655 -1.4667 -0.2956 -0.6423
10883SOL    HW234091   0.392   6.183   4.715  0.9396  2.6301 -0.4429
10884SOL     OW34092   0.958   5.594   4.353 -0.1505  0.1579  0.0221
10884SOL    HW134093   0.884   5.652   4.373  0.1891  0.7920 -0.4939
10884SOL    HW234094   0.956   5.585   4.258  0.7398  0.6044 -0.0492
10885SOL     OW34095   3.782   6.180   5.071 -0.2022 -0.3926 -0.3664
10885SOL    HW134096   3.773   6.090   5.105  0.9632 -0.2963  0.2528
10885SOL    HW234097   3.877   6.192   5.061 -0.2122  1.3278  1.1664
10886SOL     OW34098   2.998   5.930   5.565  0.3696 -0.2551 -0.2547
10886SOL    HW134099   2.939   5.855   5.573  0.9490 -0.7668 -0.6558
10886SOL    HW234100   2.992   5.975   5.649  0.3614 -1.0095  0.1533
10887SOL     OW34101   4.471   6.811   6.110  0.0423 -1.1400 -0.3528
10887SOL    HW134102   4.527   6.874   6.064  1.0244 -1.8754 -0.1942
10887SOL    HW234103   4.419   6.770   6.041 -1.3432  0.5295 -0.3549
10888SOL     OW34104   3.962   7.449   6.411  0.3865  0.7439  0.2438
10888SOL    HW134105   4.028   7.411   6.468  0.0674  1.3400  1.0329
10888SOL    HW234106   3.879   7.409   6.438  0.2458  0.9453  0.1216
10889SOL     OW34107   3.610   6.264   4.483 -0.1220  0.0049 -0.3430
10889SOL    HW134108   3.697   6.285   4.518 -1.4507  0.0178  3.3874
10889SOL    HW234109   3.588   6.181   4.524 -2.7530  1.1492  0.7735
10890SOL     OW34110   3.807   5.390   5.110  0.2603  0.2523  0.0727
10890SOL    HW134111   3.841   5.337   5.182  0.0217  0.4016  0.2980
10890SOL    HW234112   3.885   5.419   5.062  0.3963 -0.2588 -0.0250
10891SOL     OW34113   2.238   5.845   3.194 -0.1987 -0.4786  0.8561
10891SOL    HW134114   2.253   5.864   3.287 -0.8463 -0.5046  0.9730
10891SOL    HW234115   2.245   5.750   3.188 -1.8816 -0.6569  1.2244
10892SOL     OW34116   2.900   7.235   5.138  0.4354  0.1797 -0.4437
10892SOL    HW134117   2.988   7.196   5.141  0.4163  0.1480 -0.2519
10892SOL    HW234118   2.877   7.248   5.230  0.5647  0.9134 -0.5100
10893SOL     OW34119   4.270   5.615   3.747 -0.2542  0.3659  0.4314
10893SOL    HW134120   4.185   5.654   3.765 -0.9660 -1.7070  1.9516
10893SOL    HW234121   4.253   5.521   3.743  1.7411  0.0066 -0.7144
10894SOL     OW34122   0.593   5.503   2.434 -1.2263 -0.7551  0.6579
10894SOL    HW134123   0.601   5.597   2.417  0.0988 -0.6131  1.7547
10894SOL    HW234124   0.509   5.478   2.397 -0.7652  0.4575 -1.3718
10895SOL     OW34125   0.568   7.002   5.464  0.6199 -0.1882  0.1629
10895SOL    HW134126   0.581   7.095   5.479 -0.9365 -0.1862  1.8882
10895SOL    HW234127   0.614   6.984   5.382  0.1769  2.2747 -0.7159
10896SOL     OW34128   2.098   4.665   3.266 -0.0282  0.1832 -0.4296
10896SOL    HW134129   2.076   4.754   3.237  0.3370  0.1846 -0.7214
10896SOL    HW234130   2.149   4.678   3.346  2.7205  0.4318 -2.0987
10897SOL     OW34131   4.033   6.144   5.087  0.1791  0.0941  0.1437
10897SOL    HW134132   4.083   6.063   5.091 -0.8244 -0.5074  2.5952
10897SOL    HW234133   4.086   6.208   5.134  0.5007  0.6134 -0.8959
10898SOL     OW34134   0.418   6.673   2.478 -0.1931 -0.2220 -0.2827
10898SOL    HW134135   0.514   6.678   2.476 -0.1886  0.1589  0.5983
10898SOL    HW234136   0.400   6.592   2.524 -0.2765  0.4616  0.9444
10899SOL     OW34137   2.030   5.701   6.673 -0.0418 -0.0870  0.2031
10899SOL    HW134138   2.029   5.641   6.598  0.4314 -1.1246  1.0013
10899SOL    HW234139   1.951   5.754   6.663  0.1172 -0.0771 -1.1280
10900SOL     OW34140   2.647   4.789   5.523  0.1749  0.2751 -0.1223
10900SOL    HW134141   2.713   4.725   5.550 -0.6267 -1.1330 -1.3615
10900SOL    HW234142   2.695   4.872   5.515  1.2976 -0.2170  1.1993
10901SOL     OW34143   3.553   5.305   5.003  0.2156 -0.0215 -0.0832
10901SOL    HW134144   3.641   5.315   5.041 -0.3102  0.5860  1.0182
10901SOL    HW234145   3.518   5.228   5.048  0.2693 -0.4127 -0.7054
10902SOL     OW34146   2.678   5.622   5.551  0.5626 -0.2032  0.4234
10902SOL    HW134147   2.617   5.679   5.504  0.3385  1.2049  2.3057
10902SOL    HW234148   2.626   5.585   5.623  1.4063 -0.6421  0.8283
10903SOL     OW34149   3.575   5.931   4.442  0.4030 -0.4059 -0.1642
10903SOL    HW134150   3.529   5.927   4.358  1.0379 -5.6800 -0.5743
10903SOL    HW234151   3.515   5.890   4.504  1.1911  0.6266  1.3427
10904SOL     OW34152   3.394   7.010   4.429  0.2369 -0.0450  0.1724
10904SOL    HW134153   3.485   6.981   4.426  0.1608 -0.2317 -0.7369
10904SOL    HW234154   3.354   6.972   4.350 -0.6126  0.0725  0.5349
10905SOL     OW34155   1.850   5.479   5.782  0.1999  0.3862 -0.1774
10905SOL    HW134156   1.859   5.397   5.829 -2.7460  0.3962  0.6058
10905SOL    HW234157   1.844   5.546   5.851  0.7438  1.0385 -0.7443
10906SOL     OW34158   2.845   6.608   5.665 -0.0152 -0.6538 -0.4716
10906SOL    HW134159   2.895   6.563   5.733 -0.3505  0.1377  0.3173
10906SOL    HW234160   2.905   6.674   5.631 -0.5874  0.5029  0.6899
10907SOL     OW34161   2.423   6.276   3.964  0.0524  0.2163  0.2613
10907SOL    HW134162   2.485   6.237   4.025  0.0230  0.2713  0.3272
10907SOL    HW234163   2.443   6.370   3.966  1.4630  0.0003 -1.4094
10908SOL     OW34164   3.723   5.865   3.530 -0.9153  0.3194 -0.0119
10908SOL    HW134165   3.818   5.858   3.544 -0.7730  0.5941 -0.8181
10908SOL    HW234166   3.703   5.795   3.468 -1.3697 -0.1907  0.6838
10909SOL     OW34167   0.793   0.120   3.683  0.1802  0.1494 -0.8429
10909SOL    HW134168   0.810   0.044   3.739  0.0028  0.9242  0.2715
10909SOL    HW234169   0.756   0.082   3.603 -2.4217 -0.8134  0.6958
10910SOL     OW34170   2.530   5.200   3.037 -0.3605 -0.2438  0.1152
10910SOL    HW134171   2.624   5.210   3.049 -0.5160  0.0930  1.1446
10910SOL    HW234172   2.515   5.105   3.036  0.1101 -0.3243 -1.2022
10911SOL     OW34173   7.875   6.712   3.990  0.6035  0.0324  0.1478
10911SOL    HW134174   7.927   6.646   3.945  0.4754  0.3025 -0.4095
10911SOL    HW234175   7.927   6.737   4.066  1.5568  0.7035 -0.7066
10912SOL     OW34176   0.579   7.046   5.079  0.0424  0.1189  0.0327
10912SOL    HW134177   0.564   6.985   5.007 -0.2764  0.4064 -0.1422
10912SOL    HW234178   0.617   6.992   5.148 -0.2056 -0.2708 -0.1338
10913SOL     OW34179   1.202   5.434   5.983 -0.0977 -0.1886 -0.3234
10913SOL    HW134180   1.216   5.519   5.941  1.8347 -0.2843  0.0261
10913SOL    HW234181   1.204   5.371   5.911  2.1700 -0.2505 -0.2789
10914SOL     OW34182   2.948   6.718   7.829  0.5016 -0.0591  0.1288
10914SOL    HW134183   3.031   6.699   7.784  0.2147 -0.8466 -0.0878
10914SOL    HW234184   2.949   6.813   7.842  1.4190 -0.0505  0.0940
10915SOL     OW34185   5.911   6.644   7.558 -0.0359 -0.0010  0.1863
10915SOL    HW134186   5.894   6.698   7.480  0.1749 -0.5669 -0.2627
10915SOL    HW234187   6.001   6.613   7.546 -0.0189 -0.1274  0.6373
10916SOL     OW34188   4.632   7.811   7.105 -0.4123  0.8206  0.1009
10916SOL    HW134189   4.607   7.734   7.156 -2.0967 -1.2220 -3.3997
10916SOL    HW234190   4.549   7.842   7.068  0.8433  0.3580 -3.5358
10917SOL     OW34191   3.153   4.940   5.557 -0.4184  0.3958 -0.1462
10917SOL    HW134192   3.154   4.982   5.643 -1.3283  2.4998 -1.0774
10917SOL    HW234193   3.211   4.864   5.566  0.9743  1.6027  1.7790
10918SOL     OW34194   2.497   5.963   5.664  0.5458 -0.5367 -0.0487
10918SOL    HW134195   2.455   5.917   5.737 -0.2442  1.2651  0.6997
10918SOL    HW234196   2.427   6.016   5.626  1.7637  1.3973  0.2741
10919SOL     OW34197   4.390   7.045   7.947  0.2891 -0.2898  0.6118
10919SOL    HW134198   4.428   7.056   7.859 -0.4969  1.1434  0.4159
10919SOL    HW234199   4.315   7.105   7.948 -0.1335 -0.8100  2.0303
10920SOL     OW34200   3.625   6.912   7.144 -0.3468 -0.1417  0.4505
10920SOL    HW134201   3.574   6.898   7.064  0.0389  0.8421  0.0022
10920SOL    HW234202   3.561   6.931   7.212 -0.6659 -0.7295  0.3159
10921SOL     OW34203   1.938   5.765   8.015  0.8291  0.4358 -1.0352
10921SOL    HW134204   2.007   5.789   8.076 -1.1759  0.7211  1.2614
10921SOL    HW234205   1.971   5.687   7.970  2.0463 -0.3614  1.1111
10922SOL     OW34206   2.589   6.257   6.024 -0.4018  0.6130 -0.3380
10922SOL    HW134207   2.571   6.170   6.059  1.2955  0.5522  0.5217
10922SOL    HW234208   2.613   6.242   5.932 -1.3139  0.3382 -0.5381
10923SOL     OW34209   5.298   0.433   6.104  0.1461 -0.2383 -0.0428
10923SOL    HW134210   5.324   0.406   6.192 -1.0247  0.9781  0.7247
10923SOL    HW234211   5.286   0.350   6.056  1.3774 -0.8959  0.7460
10924SOL     OW34212   2.417   7.046   7.871  0.3949 -0.1101 -0.0303
10924SOL    HW134213   2.412   7.073   7.963  0.9510 -0.2697  0.0502
10924SOL    HW234214   2.475   6.970   7.872  2.2314  1.2143 -0.7758
10925SOL     OW34215   2.880   4.553   5.709  0.3366 -0.5784 -0.0270
10925SOL    HW134216   2.961   4.525   5.667 -0.1027  0.4904 -1.6864
10925SOL    HW234217   2.883   4.648   5.706 -0.2066 -0.4925  1.4657
10926SOL     OW34218   1.422   0.837   5.970  0.0937 -0.5055 -0.2613
10926SOL    HW134219   1.398   0.880   5.889  0.2784 -2.7551 -1.5761
10926SOL    HW234220   1.509   0.801   5.953 -0.1258 -1.5461  0.7127
10927SOL     OW34221   1.943   7.411   5.989  0.4746 -0.1537  0.6734
10927SOL    HW134222   1.939   7.318   5.964 -0.2529 -0.1889  0.8867
10927SOL    HW234223   2.025   7.419   6.038  2.2493  0.0349 -2.1146
10928SOL     OW34224   1.981   6.567   5.342 -0.0144 -0.6510 -0.3216
10928SOL    HW134225   1.976   6.609   5.428  0.0987 -1.8087  0.2651
10928SOL    HW234226   1.943   6.631   5.282  0.8355  0.5928  0.4276
10929SOL     OW34227   2.714   4.053   6.487 -0.1916  0.2578 -0.2016
10929SOL    HW134228   2.728   4.137   6.532  0.8245 -0.3239  0.6227
10929SOL    HW234229   2.793   4.003   6.507 -1.5286 -1.5499  0.7917
10930SOL     OW34230   2.664   6.651   7.732  0.4989  0.0721  0.5411
10930SOL    HW134231   2.755   6.680   7.722  0.3371  1.2531  1.9588
10930SOL    HW234232   2.650   6.588   7.662  1.7051  1.5945 -1.1587
10931SOL     OW34233   1.357   4.957   4.848  0.2901  0.2061  0.3394
10931SOL    HW134234   1.293   4.986   4.913  0.2810 -0.7972  0.7940
10931SOL    HW234235   1.343   5.015   4.773  0.0562  1.1479  1.0942
10932SOL     OW34236   4.393   5.797   5.867  0.2224 -0.2838  0.0660
10932SOL    HW134237   4.356   5.871   5.819 -0.4829 -0.0721  0.9072
10932SOL    HW234238   4.319   5.738   5.881  0.5490 -0.6326  0.3322
10933SOL     OW34239   1.850   7.850   7.121 -0.2076  0.5953  0.0084
10933SOL    HW134240   1.767   7.816   7.156  0.0509  1.7310  1.9037
10933SOL    HW234241   1.837   7.853   7.027 -1.0644 -2.4102 -0.0463
10934SOL     OW34242   1.782   5.609   6.015 -0.4190  0.6400 -0.2445
10934SOL    HW134243   1.847   5.554   6.060 -0.8182  1.9262  2.0829
10934SOL    HW234244   1.788   5.694   6.059 -2.0694  1.4900 -1.5473
10935SOL     OW34245   1.540   6.125   4.088 -0.6206  0.2930 -0.3766
10935SOL    HW134246   1.534   6.032   4.111  1.9036  0.4064  1.1030
10935SOL    HW234247   1.480   6.135   4.015 -2.0644 -2.1800  0.3408
10936SOL     OW34248   3.382   5.783   5.303 -0.0882  0.2706  0.1370
10936SOL    HW134249   3.448   5.852   5.292  0.0219 -0.0286 -1.4224
10936SOL    HW234250   3.432   5.702   5.302 -0.2035  0.1273  2.1359
10937SOL     OW34251   3.364   0.451   6.508 -0.5872 -0.4090 -0.5501
10937SOL    HW134252   3.303   0.525   6.503 -0.8878 -0.7018 -1.3616
10937SOL    HW234253   3.308   0.375   6.525 -0.2564 -0.4267  0.4900
10938SOL     OW34254   3.599   5.278   7.183 -0.1309 -0.0706 -0.0940
10938SOL    HW134255   3.681   5.231   7.172 -0.3657 -0.4113 -0.3780
10938SOL    HW234256   3.539   5.239   7.120 -0.3583  0.5372 -0.2651
10939SOL     OW34257   1.594   1.483   6.334  0.1585  1.2060  0.4715
10939SOL    HW134258   1.654   1.528   6.394 -1.2336  1.3790  1.8021
10939SOL    HW234259   1.510   1.525   6.350 -0.8007 -0.5830  0.3587
10940SOL     OW34260   3.582   5.430   6.026  0.1358  0.6840  0.2896
10940SOL    HW134261   3.656   5.382   5.991  0.4160  0.6162  0.9595
10940SOL    HW234262   3.601   5.439   6.120 -0.6537  0.7425  0.4529
10941SOL     OW34263   1.682   6.934   3.825  0.4167 -0.6175  0.5542
10941SOL    HW134264   1.626   6.868   3.865 -1.1789  0.6594  0.5176
10941SOL    HW234265   1.695   6.999   3.894  1.1302 -0.4561  0.2797
10942SOL     OW34266   2.298   5.539   8.480  0.0435 -0.4223  0.4001
10942SOL    HW134267   2.373   5.539   8.420 -0.9779 -1.0649 -0.9385
10942SOL    HW234268   2.238   5.604   8.444 -0.6583 -0.9294  0.6215
10943SOL     OW34269   4.545   0.986   6.338 -0.0009  0.0155 -0.3650
10943SOL    HW134270   4.602   0.990   6.261 -0.8665 -0.0549 -1.0317
10943SOL    HW234271   4.603   1.000   6.412  0.6238  1.6081 -1.1195
10944SOL     OW34272   5.699   0.644   7.983  0.2741 -0.1196 -0.6888
10944SOL    HW134273   5.661   0.583   8.046  3.5545 -1.1670  0.4830
10944SOL    HW234274   5.672   0.610   7.898 -2.1206 -0.1807  0.0321
10945SOL     OW34275   2.918   6.564   6.767 -0.4159  0.4267 -0.4876
10945SOL    HW134276   2.979   6.505   6.723 -0.7881 -0.8219  0.6144
10945SOL    HW234277   2.832   6.535   6.738 -0.5681  1.2470 -0.8992
10946SOL     OW34278   3.810   6.101   8.318  0.8753 -0.0352 -0.0796
10946SOL    HW134279   3.902   6.086   8.337  0.5708 -0.0047  1.6013
10946SOL    HW234280   3.764   6.027   8.358  0.1506  0.0716 -0.6838
10947SOL     OW34281   4.854   7.164   7.192  0.0489  0.3195  0.5429
10947SOL    HW134282   4.945   7.135   7.191  0.5134  1.6946  0.6856
10947SOL    HW234283   4.804   7.086   7.168  1.2138 -0.6098  1.0059
10948SOL     OW34284   1.492   6.313   4.992 -0.0824 -0.1586  0.1304
10948SOL    HW134285   1.566   6.291   5.048  0.5424  1.3177 -0.0512
10948SOL    HW234286   1.525   6.385   4.937 -1.4884  0.1604 -0.3272
10949SOL     OW34287   4.620   6.192   5.718  0.6604  0.0140  0.3639
10949SOL    HW134288   4.560   6.158   5.652  2.6340 -1.5799 -0.6933
10949SOL    HW234289   4.686   6.124   5.729  1.5355  1.1042  2.5147
10950SOL     OW34290   3.362   7.148   7.287 -0.3733 -0.5151  0.2142
10950SOL    HW134291   3.379   7.206   7.361 -1.7257 -1.2424  1.1407
10950SOL    HW234292   3.384   7.061   7.320  2.3971 -0.5559 -1.4001
10951SOL     OW34293   2.541   0.217   6.947  0.7063  0.7383 -0.4002
10951SOL    HW134294   2.471   0.267   6.905  0.6736  3.4736  2.5824
10951SOL    HW234295   2.622   0.257   6.915  1.0057 -1.2346 -2.4177
10952SOL     OW34296   3.620   7.306   6.299  0.0426 -0.0413  0.1748
10952SOL    HW134297   3.661   7.349   6.374 -1.6113 -2.4979  2.6611
10952SOL    HW234298   3.528   7.329   6.305  0.0227  0.5930 -1.8282
10953SOL     OW34299   2.986   7.589   7.312  0.1934 -1.0839 -0.4121
10953SOL    HW134300   2.938   7.578   7.231  0.1845  0.4651 -0.6477
10953SOL    HW234301   3.064   7.534   7.302  1.4750  0.9660 -2.5444
10954SOL     OW34302   3.197   6.802   6.459 -0.5413 -0.0945 -0.4317
10954SOL    HW134303   3.149   6.777   6.380  1.2994  0.2421 -1.7155
10954SOL    HW234304   3.273   6.850   6.427 -0.2389  0.8902  1.6112
10955SOL     OW34305   4.023   7.074   6.771 -0.0576 -0.1214  0.8257
10955SOL    HW134306   4.064   7.077   6.858  0.3867  0.9818  0.5944
10955SOL    HW234307   3.975   6.991   6.770 -0.6439  0.1523  2.3888
10956SOL     OW34308   1.845   5.644   8.348 -0.5431  0.3620  0.9052
10956SOL    HW134309   1.935   5.672   8.337 -0.3796 -0.4916 -0.1378
10956SOL    HW234310   1.848   5.549   8.339 -1.3474  0.1714  2.3469
10957SOL     OW34311   7.339   5.037   5.795  0.3559  0.2769  0.3035
10957SOL    HW134312   7.327   5.022   5.889 -0.0051  0.2570  0.2547
10957SOL    HW234313   7.345   5.132   5.786  0.9580  0.2569  0.4107
10958SOL     OW34314   4.435   5.590   5.544 -0.4240  0.1347 -0.1310
10958SOL    HW134315   4.458   5.500   5.521  1.5799  0.4249  0.5065
10958SOL    HW234316   4.386   5.623   5.469 -0.7361 -1.3240 -0.5961
10959SOL     OW34317   4.528   6.126   6.648  0.3602 -0.2113 -0.4323
10959SOL    HW134318   4.519   6.196   6.583  2.4366 -0.8594 -1.4921
10959SOL    HW234319   4.480   6.052   6.610  0.5776 -0.2344 -0.6592
10960SOL     OW34320   2.592   5.004   5.746 -0.0080  0.0131  0.3823
10960SOL    HW134321   2.672   5.007   5.693  0.0458  1.2397  0.5188
10960SOL    HW234322   2.600   4.922   5.795 -0.1629 -1.2834 -1.6230
10961SOL     OW34323   1.684   5.689   5.616 -0.6052  0.7659 -0.0204
10961SOL    HW134324   1.760   5.631   5.622  0.0096  1.0142 -3.3761
10961SOL    HW234325   1.719   5.770   5.580 -2.2218  1.5005 -0.0243
10962SOL     OW34326   2.288   7.636   5.400  0.2597 -0.2873 -0.5558
10962SOL    HW134327   2.209   7.674   5.439  0.9921  1.9501 -1.0689
10962SOL    HW234328   2.353   7.639   5.470 -0.0287 -2.0213 -0.1696
10963SOL     OW34329   4.347   6.573   7.613 -0.1633  0.3199  0.4343
10963SOL    HW134330   4.305   6.654   7.584  0.9515  1.5841  2.1620
10963SOL    HW234331   4.276   6.508   7.613 -1.5405  1.7518  0.8318
10964SOL     OW34332   4.359   5.521   7.357  0.4346  0.2009 -0.2753
10964SOL    HW134333   4.379   5.429   7.340  0.4787  0.1749 -0.0755
10964SOL    HW234334   4.273   5.520   7.398 -0.4869  0.3720 -2.0688
10965SOL     OW34335   3.283   6.955   7.683 -0.2863  0.0212  0.1862
10965SOL    HW134336   3.314   6.927   7.770 -0.6505  0.2626  0.3970
10965SOL    HW234337   3.197   6.915   7.675  0.9181 -2.5705 -1.3454
10966SOL     OW34338   2.526   6.429   5.059 -0.1715  0.0706 -0.0730
10966SOL    HW134339   2.575   6.443   4.979  0.0709 -3.2347 -0.6232
10966SOL    HW234340   2.579   6.471   5.127  0.0307  2.2092 -1.4439
10967SOL     OW34341   3.068   5.035   7.798  0.0726  0.5565 -0.1696
10967SOL    HW134342   3.063   5.131   7.806  0.0061  0.4417  1.6732
10967SOL    HW234343   2.993   5.012   7.743 -0.0974  1.5371 -0.3758
10968SOL     OW34344   2.613   6.512   8.687 -0.3469 -0.3717  0.5444
10968SOL    HW134345   2.638   6.600   8.716 -0.9645  0.1463 -0.4459
10968SOL    HW234346   2.692   6.477   8.647 -0.4108  0.1929 -0.0995
10969SOL     OW34347   2.410   7.208   6.527 -0.7692  0.1694 -0.3310
10969SOL    HW134348   2.469   7.175   6.459 -1.1131 -1.3492  0.0687
10969SOL    HW234349   2.365   7.282   6.486  0.6585  0.7141 -0.9776
10970SOL     OW34350   0.708   6.357   7.009 -0.6413 -0.2944  0.7213
10970SOL    HW134351   0.676   6.368   6.920 -0.2712  0.1410  0.6330
10970SOL    HW234352   0.706   6.263   7.025  1.3446 -0.6060 -0.5347
10971SOL     OW34353   3.232   7.190   5.885 -0.0904 -0.0533  0.0619
10971SOL    HW134354   3.241   7.284   5.894  0.1643 -0.0219 -0.4734
10971SOL    HW234355   3.143   7.171   5.916 -0.1213  0.3509  0.2247
10972SOL     OW34356   2.311   6.599   3.685  0.2826  0.3610 -0.5782
10972SOL    HW134357   2.351   6.681   3.655 -1.1926  0.3379 -2.8507
10972SOL    HW234358   2.217   6.615   3.680 -0.0787 -1.7611 -2.2381
10973SOL     OW34359   3.663   6.438   5.133 -0.4470  0.0321 -0.7125
10973SOL    HW134360   3.695   6.351   5.111 -0.0618 -0.3975  1.3763
10973SOL    HW234361   3.712   6.497   5.074 -0.2888 -1.0900 -1.7349
10974SOL     OW34362   0.827   1.315   6.416 -0.3744 -0.0186  0.0908
10974SOL    HW134363   0.907   1.368   6.413  0.5226 -1.2881  0.7812
10974SOL    HW234364   0.858   1.225   6.416 -1.8488 -0.5493 -0.3149
10975SOL     OW34365   2.773   7.742   5.349  0.3472  0.1362 -0.2777
10975SOL    HW134366   2.723   7.699   5.279 -0.3455  1.1522 -0.4342
10975SOL    HW234367   2.818   7.671   5.394  0.4637 -0.5801 -1.4910
10976SOL     OW34368   2.089   5.989   5.613 -0.5607  0.1207  0.0006
10976SOL    HW134369   2.014   5.999   5.554 -1.8148 -0.0924  1.4949
10976SOL    HW234370   2.148   6.060   5.588 -1.3990  0.4923 -1.0135
10977SOL     OW34371   3.479   7.361   7.453 -0.6622 -0.1268  0.0823
10977SOL    HW134372   3.563   7.399   7.429 -0.2145 -0.8972  0.3791
10977SOL    HW234373   3.480   7.358   7.549 -0.6523 -0.9451  0.0638
10978SOL     OW34374   0.044   4.215   5.510 -0.9116  0.1283 -0.1696
10978SOL    HW134375   0.094   4.139   5.539 -1.2831 -0.7907 -1.7874
10978SOL    HW234376   0.080   4.237   5.425 -2.2380  0.3816 -0.6985
10979SOL     OW34377   3.281   4.589   8.550 -0.4817 -0.5466 -0.5147
10979SOL    HW134378   3.320   4.556   8.631 -1.2458  0.0939  0.1390
10979SOL    HW234379   3.294   4.519   8.486  0.7379 -0.7904 -0.0308
10980SOL     OW34380   3.648   7.111   7.738  0.2447 -0.6151  0.4744
10980SOL    HW134381   3.641   7.082   7.829  1.2583  2.1759  1.5325
10980SOL    HW234382   3.572   7.167   7.724 -0.5785 -1.9928 -0.8537
10981SOL     OW34383   4.148   7.490   7.106 -0.5755 -0.0857  0.2299
10981SOL    HW134384   4.116   7.506   7.017  0.8809  0.9061 -0.1528
10981SOL    HW234385   4.224   7.547   7.115 -0.7446 -0.0871  2.1699
10982SOL     OW34386   2.925   5.545   5.445 -0.1824  0.6558 -0.1672
10982SOL    HW134387   2.838   5.568   5.478 -1.1403 -0.9979 -1.4062
10982SOL    HW234388   2.977   5.526   5.523 -0.9257  1.6267  0.5857
10983SOL     OW34389   2.622   7.062   7.112  0.1121  0.2166  0.0331
10983SOL    HW134390   2.600   7.078   7.204  0.3960  4.4900 -0.4647
10983SOL    HW234391   2.540   7.075   7.065  0.6518  1.6794 -0.5611
10984SOL     OW34392   2.340   5.753   4.758  0.0950  0.3432  0.1223
10984SOL    HW134393   2.368   5.831   4.805 -0.0118 -0.3387  1.3552
10984SOL    HW234394   2.370   5.680   4.812  2.2476 -0.5742 -2.1039
10985SOL     OW34395   2.930   6.168   5.724  0.0298 -0.2151 -0.3143
10985SOL    HW134396   2.976   6.179   5.808  0.7823 -0.5556 -0.6752
10985SOL    HW234397   2.840   6.195   5.743  0.1322 -0.5190  0.6631
10986SOL     OW34398   2.655   5.994   6.883  0.3231 -0.0867  0.2547
10986SOL    HW134399   2.705   6.076   6.884 -0.2124  0.2434  0.5506
10986SOL    HW234400   2.714   5.930   6.923  1.3203 -0.2025 -1.3158
10987SOL     OW34401   1.680   6.774   7.078 -0.3948 -0.2413  0.3463
10987SOL    HW134402   1.764   6.752   7.118 -0.0042  1.0478  0.2535
10987SOL    HW234403   1.692   6.862   7.042 -1.7834 -0.0390  0.3295
10988SOL     OW34404   4.095   6.550   6.910 -0.0142 -0.4696  0.5569
10988SOL    HW134405   4.119   6.458   6.909 -1.2320 -0.8019 -1.0768
10988SOL    HW234406   4.029   6.559   6.842 -0.1888  1.5489  0.9253
10989SOL     OW34407   2.599   7.987   6.355 -0.5338 -0.4768  0.3125
10989SOL    HW134408   2.578   7.939   6.435 -2.0810  0.1239  0.2983
10989SOL    HW234409   2.625   8.074   6.385 -2.5872  0.2398  0.1338
10990SOL     OW34410   3.400   6.980   6.384  0.1192 -0.1791  0.8787
10990SOL    HW134411   3.483   6.934   6.398  0.2976  0.1109  0.7962
10990SOL    HW234412   3.395   6.992   6.289  0.1006  0.0165  0.9031
10991SOL     OW34413   3.477   1.839   5.489  0.0859 -0.1953  0.4745
10991SOL    HW134414   3.457   1.808   5.401  2.1863  0.0240 -0.1457
10991SOL    HW234415   3.467   1.762   5.545  0.6361 -0.8324 -0.2864
10992SOL     OW34416   4.460   7.396   4.344  0.6184 -0.1795  0.0779
10992SOL    HW134417   4.550   7.419   4.320  0.3459  2.3439  1.1490
10992SOL    HW234418   4.462   7.301   4.355  2.7843 -0.3648 -1.2957
10993SOL     OW34419   2.299   6.361   7.872  0.1579  0.0337 -0.1572
10993SOL    HW134420   2.242   6.307   7.817  0.3089  0.5791 -0.8592
10993SOL    HW234421   2.374   6.305   7.892 -0.6665 -0.7368  0.8807
10994SOL     OW34422   3.620   5.686   7.709  0.3113 -0.0463 -0.6358
10994SOL    HW134423   3.685   5.619   7.728 -0.2000 -1.0934 -2.3714
10994SOL    HW234424   3.551   5.671   7.774  0.5016 -0.7522 -0.5915
10995SOL     OW34425   2.562   5.256   6.009 -0.2541  0.1173 -0.0514
10995SOL    HW134426   2.556   5.162   6.027 -0.1249  0.4440  1.9390
10995SOL    HW234427   2.655   5.272   5.996 -0.1849  0.0888  0.3984
10996SOL     OW34428   3.102   5.232   5.204  0.4979  0.2268  0.0715
10996SOL    HW134429   3.117   5.254   5.296 -0.1716 -0.6310  0.4037
10996SOL    HW234430   3.054   5.307   5.169  0.7154  0.5379  0.4349
10997SOL     OW34431   5.008   7.645   5.364 -0.0344 -0.1567  0.1656
10997SOL    HW134432   4.941   7.694   5.316 -1.6588 -0.6880  1.7876
10997SOL    HW234433   5.070   7.712   5.393 -0.9507  0.6321  0.3453
10998SOL     OW34434   3.329   6.266   5.616 -0.0573  0.0718 -0.1786
10998SOL    HW134435   3.329   6.235   5.706 -0.2735 -0.1879 -0.2664
10998SOL    HW234436   3.315   6.361   5.624  0.2021  0.0928  0.0699
10999SOL     OW34437   3.311   6.062   6.242  0.8706 -0.3360  0.2610
10999SOL    HW134438   3.290   5.977   6.280  2.1819 -0.2601  1.2518
10999SOL    HW234439   3.226   6.105   6.232  0.2532 -1.4619  0.4685
11000SOL     OW34440   2.436   0.279   5.715 -0.1692 -0.3129  0.6191
11000SOL    HW134441   2.501   0.211   5.695 -0.8170 -0.5344 -0.9154
11000SOL    HW234442   2.450   0.345   5.647 -1.8498 -0.5981 -0.0495
11001SOL     OW34443   4.144   6.600   4.724 -0.0942 -0.3643 -0.1370
11001SOL    HW134444   4.073   6.543   4.754 -0.3700 -0.6017 -1.2233
11001SOL    HW234445   4.211   6.591   4.792 -0.1507 -1.9581 -0.2513
11002SOL     OW34446   2.084   6.301   5.326 -0.1355 -0.2221 -0.4020
11002SOL    HW134447   2.142   6.312   5.251  1.8461  2.2019  1.3104
11002SOL    HW234448   2.048   6.389   5.341 -1.7176 -0.9960  0.5855
11003SOL     OW34449   2.395   5.792   7.256 -0.3822  0.3608 -1.0440
11003SOL    HW134450   2.363   5.737   7.184  0.0451 -0.6667 -0.4615
11003SOL    HW234451   2.358   5.879   7.238 -1.0840 -0.1156 -1.9665
11004SOL     OW34452   4.907   7.518   7.196  0.0868  0.0544  0.6652
11004SOL    HW134453   4.966   7.587   7.168 -0.0720 -0.1294 -0.1512
11004SOL    HW234454   4.964   7.441   7.207  0.0727  0.0044  0.3767
11005SOL     OW34455   3.197   4.747   6.841  0.4053 -0.0499  0.4816
11005SOL    HW134456   3.262   4.707   6.900  1.4967 -0.4295 -0.9320
11005SOL    HW234457   3.195   4.689   6.765 -1.5461  0.0209  0.4285
11006SOL     OW34458   2.422   7.891   7.279  0.1359  0.3980 -0.2234
11006SOL    HW134459   2.373   7.949   7.337 -1.3483 -0.5365 -0.4958
11006SOL    HW234460   2.464   7.828   7.338 -1.2269 -0.4442 -0.1229
11007SOL     OW34461   4.012   6.314   6.546  0.2569  0.1573  0.7562
11007SOL    HW134462   4.017   6.340   6.638  2.3118 -1.5508  1.1972
11007SOL    HW234463   4.063   6.380   6.499  0.3303  0.2835  1.0151
11008SOL     OW34464   3.929   5.683   7.437 -0.0341  0.6198  0.2776
11008SOL    HW134465   3.835   5.674   7.455  0.4946 -1.5020  2.6611
11008SOL    HW234466   3.940   5.648   7.349 -1.3482 -0.4679  0.5028
11009SOL     OW34467   2.811   5.112   6.072  0.0383 -0.5173  0.4417
11009SOL    HW134468   2.873   5.113   6.145  0.2794  0.8415  0.2372
11009SOL    HW234469   2.753   5.039   6.091 -1.2193  1.0543  3.1222
11010SOL     OW34470   4.199   6.057   7.998 -0.0960 -0.6642 -0.6786
11010SOL    HW134471   4.238   6.143   7.987 -0.4551 -0.1063  1.8090
11010SOL    HW234472   4.163   6.036   7.912 -0.3175  1.8326 -1.2827
11011SOL     OW34473   2.867   7.559   5.734  0.2106 -0.0725 -0.2962
11011SOL    HW134474   2.899   7.614   5.805  0.4177  0.5609 -0.8665
11011SOL    HW234475   2.773   7.576   5.730  0.2799  0.2661 -0.4931
11012SOL     OW34476   2.585   6.594   6.468 -0.0761 -0.3311 -0.4099
11012SOL    HW134477   2.512   6.595   6.529  0.2181 -0.6370 -0.0484
11012SOL    HW234478   2.617   6.504   6.470  1.7644  0.2970  1.2005
11013SOL     OW34479   3.407   6.820   6.984 -0.1397  0.1409  0.2977
11013SOL    HW134480   3.469   6.755   6.949  0.2781  0.8575 -0.3090
11013SOL    HW234481   3.330   6.768   7.008  0.9494 -0.8865  1.7643
11014SOL     OW34482   0.436   4.823   6.656  0.2547  0.3605  0.9046
11014SOL    HW134483   0.471   4.875   6.727 -1.8528 -0.4017  2.6032
11014SOL    HW234484   0.470   4.735   6.671 -0.1351  0.2131  0.9402
11015SOL     OW34485   2.462   5.734   4.510 -0.5121  0.4411 -0.1455
11015SOL    HW134486   2.421   5.748   4.595 -0.1246 -0.2594  0.1625
11015SOL    HW234487   2.528   5.667   4.525 -0.8761 -0.1733 -1.1226
11016SOL     OW34488   4.457   7.586   6.934 -0.0044 -0.0368 -0.0546
11016SOL    HW134489   4.551   7.578   6.948  0.1856  1.0027 -0.5882
11016SOL    HW234490   4.427   7.641   7.006 -0.0374  0.3883 -0.3865
11017SOL     OW34491   3.947   7.392   7.363  0.3643  0.4443  0.3118
11017SOL    HW134492   3.869   7.338   7.367  0.3834  0.3187 -0.6361
11017SOL    HW234493   4.018   7.331   7.342  0.4838  0.7365 -0.1731
11018SOL     OW34494   3.346   7.072   6.777 -0.5973 -0.3920  0.2285
11018SOL    HW134495   3.344   6.982   6.807  1.4786 -0.3815  0.5302
11018SOL    HW234496   3.439   7.096   6.778 -1.0458  1.5678 -0.3688
11019SOL     OW34497   4.101   6.169   7.209  0.1709  0.1946 -0.0957
11019SOL    HW134498   4.042   6.096   7.230 -0.5154  0.7712  0.0187
11019SOL    HW234499   4.181   6.127   7.178 -0.9440 -0.6074 -2.0257
11020SOL     OW34500   1.564   5.348   4.884  0.5942  0.0871  0.4233
11020SOL    HW134501   1.565   5.264   4.838  0.4764  0.4550 -0.2797
11020SOL    HW234502   1.644   5.392   4.854  1.1824 -0.1757  1.5713
11021SOL     OW34503   1.496   5.701   7.259  0.1830  0.2787 -0.9887
11021SOL    HW134504   1.403   5.716   7.275  0.4329  1.2783 -0.4303
11021SOL    HW234505   1.498   5.651   7.178 -0.8465  0.1458 -0.9475
11022SOL     OW34506   4.817   6.716   6.961 -0.3021 -0.2609  0.2481
11022SOL    HW134507   4.755   6.670   6.903  0.4881 -0.9592 -0.0703
11022SOL    HW234508   4.859   6.646   7.011  0.1744  0.2094  0.5144
11023SOL     OW34509   3.961   7.178   6.201 -0.5771  0.0611  0.3329
11023SOL    HW134510   3.995   7.172   6.290 -1.2524  0.6679  0.6496
11023SOL    HW234511   3.869   7.152   6.209 -0.4020 -0.8064 -0.3610
11024SOL     OW34512   2.062   6.800   7.535  0.5548  0.0524 -0.3435
11024SOL    HW134513   2.090   6.892   7.529  1.1804 -0.0331  0.9596
11024SOL    HW234514   2.144   6.750   7.527  0.4440 -0.3132  0.6636
11025SOL     OW34515   3.051   6.383   6.619  0.3189  0.6585  0.4323
11025SOL    HW134516   3.007   6.339   6.546 -0.8319  0.4892  1.2117
11025SOL    HW234517   3.141   6.396   6.588  1.1796 -3.4945  0.6450
11026SOL     OW34518   3.855   7.322   7.065  0.3596 -0.2462  0.2570
11026SOL    HW134519   3.816   7.286   7.144 -0.7689  0.2903 -0.0463
11026SOL    HW234520   3.866   7.415   7.083  1.4256 -0.3601  0.2958
11027SOL     OW34521   4.224   7.778   5.506 -0.3425  0.1461  0.5961
11027SOL    HW134522   4.216   7.857   5.559  0.6022 -0.8645  2.3311
11027SOL    HW234523   4.318   7.762   5.500 -0.3889  0.3618 -1.6697
11028SOL     OW34524   2.852   6.406   6.060  0.4788  0.1443 -0.9032
11028SOL    HW134525   2.927   6.348   6.071  0.0741 -0.1881  0.1707
11028SOL    HW234526   2.776   6.352   6.083 -0.0218  0.7033 -1.2199
11029SOL     OW34527   2.266   0.286   6.575 -0.1040  0.1652 -0.2568
11029SOL    HW134528   2.293   0.253   6.490 -1.2362 -0.9433 -0.2181
11029SOL    HW234529   2.175   0.257   6.584 -1.7498  4.4055 -0.8001
11030SOL     OW34530   3.230   5.459   5.870 -0.0304  0.9732  0.0503
11030SOL    HW134531   3.209   5.402   5.944 -1.8721  0.1770 -1.0246
11030SOL    HW234532   3.221   5.548   5.905  2.7665  0.7168  1.7139
11031SOL     OW34533   4.668   5.527   7.330  0.0606  0.3149 -0.0292
11031SOL    HW134534   4.712   5.613   7.325 -0.6211  0.6537 -0.2195
11031SOL    HW234535   4.578   5.544   7.303 -1.0726  0.2654  3.2203
11032SOL     OW34536   2.228   5.225   5.611 -0.5395  0.2883  0.3780
11032SOL    HW134537   2.228   5.147   5.667  0.0074  0.5555  0.7603
11032SOL    HW234538   2.178   5.199   5.533  0.5077 -0.7882  0.0356
11033SOL     OW34539   3.809   6.365   6.251  0.4057 -0.6983 -0.2725
11033SOL    HW134540   3.881   6.308   6.278 -1.0505 -1.9268  1.2470
11033SOL    HW234541   3.733   6.306   6.244 -0.4557  0.5323 -1.8736
11034SOL     OW34542   3.839   7.232   7.957  0.1082 -0.1520 -0.2871
11034SOL    HW134543   3.745   7.231   7.975  0.0570 -0.6817 -0.5643
11034SOL    HW234544   3.845   7.251   7.863  0.3179  0.8484 -0.0900
11035SOL     OW34545   3.335   6.297   7.192 -0.2390  0.5357  0.3853
11035SOL    HW134546   3.245   6.312   7.161  0.0604 -0.0216 -0.8309
11035SOL    HW234547   3.327   6.226   7.255 -0.5221 -0.4782 -0.7382
11036SOL     OW34548   4.757   6.014   6.461 -0.1544 -0.4695  0.1205
11036SOL    HW134549   4.766   6.108   6.448  1.5299 -0.7363 -1.1677
11036SOL    HW234550   4.803   5.996   6.543  1.6653 -0.4161 -0.8384
11037SOL     OW34551   2.859   5.843   6.978 -0.2874 -0.4798  0.2843
11037SOL    HW134552   2.952   5.842   6.959  0.4047 -0.4965  3.2419
11037SOL    HW234553   2.842   5.760   7.022 -1.5908 -0.2132  0.3417
11038SOL     OW34554   3.231   6.418   6.245 -0.0189 -0.2704  0.1852
11038SOL    HW134555   3.269   6.358   6.181 -0.1235 -0.9296  0.7295
11038SOL    HW234556   3.286   6.496   6.241  0.1726 -0.4333 -0.4631
11039SOL     OW34557   2.309   5.646   5.076 -0.4556 -0.3006 -0.4583
11039SOL    HW134558   2.268   5.575   5.125 -2.3752 -0.3175 -1.9966
11039SOL    HW234559   2.361   5.602   5.008 -0.3815 -0.2390 -0.4428
11040SOL     OW34560   4.030   6.079   6.651  0.2586  0.6794  0.0779
11040SOL    HW134561   4.029   6.155   6.593 -0.1139  0.4483 -0.2309
11040SOL    HW234562   4.056   6.113   6.736  0.9591  1.0002 -0.2625
11041SOL     OW34563   3.107   5.795   7.213  0.0165  0.4053  0.3627
11041SOL    HW134564   3.110   5.703   7.185  0.0755  0.3507  0.5499
11041SOL    HW234565   3.184   5.835   7.173  0.1968  0.2864  0.5900
11042SOL     OW34566   2.418   6.098   6.637  0.3833 -0.0051 -0.4181
11042SOL    HW134567   2.387   6.059   6.718  1.0210  0.2756 -0.0284
11042SOL    HW234568   2.405   6.030   6.571  1.3527 -0.8403  0.2180
11043SOL     OW34569   3.486   5.954   7.579 -0.1667 -0.5957 -0.3456
11043SOL    HW134570   3.478   6.029   7.638  1.2687 -0.9787  0.3732
11043SOL    HW234571   3.513   5.882   7.636  1.3709 -0.9412 -1.4476
11044SOL     OW34572   2.509   5.504   6.154  0.2267 -0.0534  0.0806
11044SOL    HW134573   2.592   5.546   6.133  0.1636  0.1617  0.2642
11044SOL    HW234574   2.519   5.414   6.121  0.9177 -0.3455  1.0318
11045SOL     OW34575   3.198   6.739   4.685 -0.5884 -0.1189 -0.0817
11045SOL    HW134576   3.289   6.767   4.673  0.0800 -2.4771 -0.9379
11045SOL    HW234577   3.154   6.818   4.717  1.7570  1.0719  0.5057
11046SOL     OW34578   0.242   0.250   5.689  0.1028  0.1677  0.4440
11046SOL    HW134579   0.287   0.314   5.744  2.6194  0.9886 -2.3152
11046SOL    HW234580   0.289   0.168   5.704  0.4350  0.2657 -0.0416
11047SOL     OW34581   0.645   7.965   7.109  0.8648  0.7979  0.2799
11047SOL    HW134582   0.699   8.041   7.133  0.0327  1.9964 -1.3806
11047SOL    HW234583   0.654   7.959   7.014  1.2123 -1.4765  0.4103
11048SOL     OW34584   4.003   5.679   7.153  0.0151  0.3079  0.4988
11048SOL    HW134585   3.976   5.769   7.135 -0.0150  0.5280  1.5941
11048SOL    HW234586   3.936   5.625   7.111 -0.0342  0.7936 -0.0519
11049SOL     OW34587   3.207   5.191   4.883 -0.5436  0.0867  0.3421
11049SOL    HW134588   3.191   5.153   4.969 -1.2238  0.2197  0.2810
11049SOL    HW234589   3.195   5.117   4.822  0.4234 -0.1219  0.3903
11050SOL     OW34590   0.514   5.169   6.625 -0.1843 -0.3186  0.1911
11050SOL    HW134591   0.468   5.110   6.685 -0.7227  0.9796  1.1223
11050SOL    HW234592   0.601   5.132   6.616 -0.7766 -1.7094  0.0669
11051SOL     OW34593   2.046   5.497   6.086  0.1702  0.0967 -0.0737
11051SOL    HW134594   2.070   5.589   6.070 -0.8275  0.5013  0.6599
11051SOL    HW234595   2.098   5.472   6.162 -0.0063  0.2433  0.0957
11052SOL     OW34596   1.156   5.351   4.385  0.1360 -0.0592 -0.9395
11052SOL    HW134597   1.098   5.424   4.403 -0.9867 -1.0255 -0.5034
11052SOL    HW234598   1.163   5.349   4.289 -0.6827 -0.0224 -1.0057
11053SOL     OW34599   3.372   6.134   6.506 -0.3660 -0.1236  0.1313
11053SOL    HW134600   3.443   6.079   6.539  0.8420  0.1454 -1.8287
11053SOL    HW234601   3.375   6.121   6.411 -2.6735  0.2538 -0.0351
11054SOL     OW34602   3.916   0.634   8.146  0.2882  0.6124  1.1618
11054SOL    HW134603   3.975   0.605   8.216  3.3046 -0.9336 -1.7286
11054SOL    HW234604   3.839   0.577   8.154  1.7200 -1.3442  1.7021
11055SOL     OW34605   1.816   4.809   8.692  0.0149  0.1497  0.0804
11055SOL    HW134606   1.822   4.865   8.615 -0.0448 -1.7620 -1.3966
11055SOL    HW234607   1.903   4.770   8.700 -0.4109 -0.8633 -0.0218
11056SOL     OW34608   4.061   7.088   7.039 -0.0673 -0.1247 -0.1303
11056SOL    HW134609   3.976   7.120   7.071 -0.2806 -0.7944 -0.0275
11056SOL    HW234610   4.058   6.994   7.053  1.3619  0.0217  1.3985
11057SOL     OW34611   1.626   4.928   4.179 -0.3331 -0.9804 -0.7337
11057SOL    HW134612   1.532   4.910   4.184 -0.4311 -0.1976  1.3647
11057SOL    HW234613   1.646   4.974   4.261  1.9773 -1.5614 -0.9009
11058SOL     OW34614   1.908   6.197   6.349 -0.3569 -0.1387  0.0150
11058SOL    HW134615   1.985   6.141   6.364 -1.1322 -0.9213  1.3098
11058SOL    HW234616   1.858   6.190   6.430 -1.3119  1.1454 -0.4356
11059SOL     OW34617   2.861   7.003   7.012  0.3701  0.1079  0.0273
11059SOL    HW134618   2.868   6.913   7.044 -0.8949 -0.0785 -0.1626
11059SOL    HW234619   2.782   7.037   7.055  0.6912  1.0472 -0.1070
11060SOL     OW34620   4.911   7.630   6.293 -0.3274 -0.0014 -0.0033
11060SOL    HW134621   4.817   7.615   6.277 -0.4968 -1.5001  1.9586
11060SOL    HW234622   4.913   7.678   6.376  0.6619 -0.4090  0.2163
11061SOL     OW34623   4.504   0.190   7.988 -0.0368  0.6215  0.4071
11061SOL    HW134624   4.587   0.238   7.978  0.2676  0.1933  0.8414
11061SOL    HW234625   4.477   0.208   8.078  0.3070 -0.3594  0.7255
11062SOL     OW34626   5.006   6.182   6.219 -0.0711  0.2156 -0.0212
11062SOL    HW134627   5.064   6.135   6.279 -0.2478  0.3822  0.2821
11062SOL    HW234628   4.966   6.250   6.273  1.1465  1.5692 -0.7307
11063SOL     OW34629   3.305   5.927   7.097  0.1155  0.3340 -0.1021
11063SOL    HW134630   3.368   5.956   7.163 -0.7571  0.9078  0.5105
11063SOL    HW234631   3.321   5.983   7.021 -1.9019  2.9950  1.2420
11064SOL     OW34632   2.629   5.238   6.356 -0.3375 -0.1347  0.2009
11064SOL    HW134633   2.651   5.289   6.278 -0.5254  0.3791  0.4863
11064SOL    HW234634   2.680   5.157   6.346 -1.3996 -0.6841 -1.1418
11065SOL     OW34635   1.612   4.628   5.442 -0.2493 -0.2621 -0.3476
11065SOL    HW134636   1.706   4.621   5.430 -0.1522  0.3730 -0.0122
11065SOL    HW234637   1.597   4.607   5.534 -0.0203  2.8787  0.5097
11066SOL     OW34638   2.416   5.664   6.789 -0.2744 -0.5595 -0.1007
11066SOL    HW134639   2.427   5.738   6.849 -1.5155  0.7679 -1.4212
11066SOL    HW234640   2.505   5.632   6.775  1.1233  3.6843 -3.0225
11067SOL     OW34641   3.078   0.379   9.187  0.0233  0.3025  0.7562
11067SOL    HW134642   3.055   0.439   9.116  1.1059  0.5440  0.5910
11067SOL    HW234643   3.114   0.302   9.144  0.1801  0.2216  1.0243
11068SOL     OW34644   2.487   5.280   5.710 -0.1653  0.1278  0.1378
11068SOL    HW134645   2.398   5.256   5.684  0.6758 -0.2113 -2.7717
11068SOL    HW234646   2.526   5.197   5.740 -0.6211  0.1766  0.9099
11069SOL     OW34647   3.628   6.882   6.793  0.3668 -0.6147  0.0818
11069SOL    HW134648   3.650   6.974   6.805  1.6321 -0.7839 -0.7990
11069SOL    HW234649   3.534   6.877   6.811 -0.2603  1.2943 -2.1712
11070SOL     OW34650   2.310   5.416   5.289 -0.1218  0.4167  0.2261
11070SOL    HW134651   2.338   5.380   5.204  2.3901 -0.0119  1.1466
11070SOL    HW234652   2.215   5.423   5.281  0.0646  1.1019 -2.8783
11071SOL     OW34653   4.701   0.690   6.753  0.1692 -0.3509 -0.1978
11071SOL    HW134654   4.636   0.761   6.748  0.4258 -0.1780 -1.3911
11071SOL    HW234655   4.697   0.660   6.844 -1.5563 -0.3087 -0.2267
11072SOL     OW34656   3.780   6.649   4.642 -0.2384 -0.6321  0.2906
11072SOL    HW134657   3.691   6.659   4.675  0.1160 -0.3233  1.1694
11072SOL    HW234658   3.777   6.687   4.554 -0.2090  2.5595  1.5145
11073SOL     OW34659   2.560   5.454   7.511 -0.0035 -0.4237  0.3604
11073SOL    HW134660   2.555   5.537   7.464 -1.4134 -0.7815 -0.1639
11073SOL    HW234661   2.575   5.389   7.442 -1.3623 -0.8723  0.4631
11074SOL     OW34662   1.374   5.817   6.026  0.0206 -0.2047  0.6725
11074SOL    HW134663   1.433   5.766   6.082 -0.1839 -0.8287  0.3243
11074SOL    HW234664   1.381   5.907   6.060 -3.1636 -1.0734  4.4371
11075SOL     OW34665   6.276   6.419   5.674  0.3878 -0.1514 -0.1792
11075SOL    HW134666   6.276   6.401   5.580 -3.3382  2.1035 -0.8118
11075SOL    HW234667   6.188   6.395   5.704  0.3166  2.2988  1.9749
11076SOL     OW34668   3.990   6.111   5.967  0.1625 -0.2906  0.1481
11076SOL    HW134669   4.005   6.129   6.060 -0.0660  0.9634 -0.0324
11076SOL    HW234670   4.074   6.128   5.926 -0.2265  1.2013 -0.1178
11077SOL     OW34671   2.697   7.254   5.429  0.3084 -0.1687  0.0184
11077SOL    HW134672   2.754   7.244   5.506 -2.5334  1.5007  2.5484
11077SOL    HW234673   2.618   7.204   5.451 -0.1135 -0.7160 -2.4546
11078SOL     OW34674   2.511   4.389   6.161 -0.2871  0.0887 -0.0506
11078SOL    HW134675   2.571   4.400   6.235  0.5015  0.4080 -0.7283
11078SOL    HW234676   2.511   4.296   6.143 -0.7803 -0.0449  0.5862
11079SOL     OW34677   3.402   6.530   6.828  0.0304  0.6895  0.4844
11079SOL    HW134678   3.477   6.498   6.880  1.2095  0.8894 -1.0309
11079SOL    HW234679   3.440   6.551   6.743 -1.7147  1.1515 -0.2019
11080SOL     OW34680   3.738   7.857   6.371  0.0938  0.1478 -0.1330
11080SOL    HW134681   3.699   7.944   6.356 -1.4382 -0.7564 -1.8521
11080SOL    HW234682   3.703   7.803   6.300  2.4243 -1.4632 -0.1641
11081SOL     OW34683   3.212   5.451   4.563 -0.2183  0.5439 -0.2304
11081SOL    HW134684   3.194   5.441   4.469 -2.2883 -2.4366  0.3137
11081SOL    HW234685   3.306   5.436   4.572 -0.0741  0.3779 -1.7916
11082SOL     OW34686   1.782   4.921   5.819  0.4089 -0.0697 -0.4300
11082SOL    HW134687   1.738   4.920   5.734  1.5929  0.0859 -1.0574
11082SOL    HW234688   1.797   5.014   5.837 -1.9971  0.1004  1.1259
11083SOL     OW34689   4.258   5.182   7.807 -0.4488  0.6261 -0.2434
11083SOL    HW134690   4.342   5.177   7.853 -0.8403 -0.6049  0.3855
11083SOL    HW234691   4.222   5.094   7.814 -1.8545  1.1637 -0.4089
11084SOL     OW34692   1.172   5.041   5.094  0.6718 -0.5445 -0.0072
11084SOL    HW134693   1.126   5.118   5.127  0.9253  0.1343 -1.1995
11084SOL    HW234694   1.238   5.022   5.161  2.0368  1.5844 -0.6638
11085SOL     OW34695   1.511   5.436   5.448 -0.2758 -0.2037 -0.4215
11085SOL    HW134696   1.535   5.347   5.472 -0.7598 -0.3257 -0.3772
11085SOL    HW234697   1.559   5.453   5.367 -1.5730 -1.1615 -1.4202
11086SOL     OW34698   2.657   5.908   7.908  0.2428 -0.1624 -0.3537
11086SOL    HW134699   2.641   5.936   7.818 -0.7593 -0.2181 -0.2065
11086SOL    HW234700   2.616   5.822   7.915 -2.3657  1.0715  0.9412
11087SOL     OW34701   2.656   6.384   4.672 -0.3914 -0.1705  0.0289
11087SOL    HW134702   2.699   6.407   4.754  2.1122  0.0347 -1.2681
11087SOL    HW234703   2.655   6.288   4.672  0.7670 -0.1981 -0.2264
11088SOL     OW34704   4.263   5.764   7.191  0.6346 -0.5549  0.0292
11088SOL    HW134705   4.178   5.725   7.172 -0.0111  0.7839  0.0891
11088SOL    HW234706   4.318   5.690   7.216 -0.2280 -1.5636 -0.9694
11089SOL     OW34707   1.789   6.621   5.688  0.7222  0.0979  0.1819
11089SOL    HW134708   1.838   6.546   5.722 -0.6957 -0.6288  0.7197
11089SOL    HW234709   1.699   6.605   5.716  0.3597  1.9462  0.1676
11090SOL     OW34710   2.743   7.583   6.267  0.0206 -0.7910  0.1427
11090SOL    HW134711   2.653   7.603   6.242 -0.5887 -0.5023  2.3909
11090SOL    HW234712   2.786   7.669   6.272 -0.0336 -0.7940  0.6723
11091SOL     OW34713   3.922   7.163   5.271 -0.0882 -0.1795 -0.2303
11091SOL    HW134714   3.923   7.094   5.205  1.7771  0.9384 -1.4423
11091SOL    HW234715   3.993   7.221   5.247  0.3423  0.5758  2.4964
11092SOL     OW34716   3.914   6.825   6.724  0.4891 -0.2535  0.8293
11092SOL    HW134717   3.934   6.732   6.720 -0.2198 -0.3566 -1.5345
11092SOL    HW234718   3.831   6.830   6.772  0.6116 -0.8158  1.1027
11093SOL     OW34719   2.527   5.824   5.248 -0.3564  0.3301 -0.0455
11093SOL    HW134720   2.488   5.911   5.242 -0.6592  0.1465 -0.8746
11093SOL    HW234721   2.465   5.767   5.203  0.6676 -0.0315 -1.0562
11094SOL     OW34722   3.880   6.562   6.704  0.1128  0.8113 -0.4199
11094SOL    HW134723   3.859   6.493   6.767  2.9194 -0.0922 -0.3410
11094SOL    HW234724   3.837   6.535   6.623  1.5910 -1.3934 -0.5456
11095SOL     OW34725   3.832   7.938   7.309  0.2493  0.1803  0.3868
11095SOL    HW134726   3.770   7.996   7.265  0.0051  0.3697  0.9728
11095SOL    HW234727   3.777   7.879   7.361  0.4515 -1.0820 -0.7855
11096SOL     OW34728   3.870   1.276   6.930  0.1602 -0.0273 -0.5498
11096SOL    HW134729   3.933   1.204   6.929 -0.5694 -0.6775 -2.1188
11096SOL    HW234730   3.881   1.319   6.845  1.2380  2.3356  0.6869
11097SOL     OW34731   2.928   5.253   5.758  0.2819 -0.1563  0.0459
11097SOL    HW134732   2.854   5.308   5.729 -0.3064  0.0728  1.8153
11097SOL    HW234733   3.003   5.285   5.708 -0.1862  1.8605  0.5167
11098SOL     OW34734   3.703   5.100   6.241  0.3649  0.6218  0.3453
11098SOL    HW134735   3.646   5.036   6.198  1.0813  0.6561 -0.7039
11098SOL    HW234736   3.769   5.047   6.286  1.0698  0.5871 -0.6787
11099SOL     OW34737   6.139   6.825   7.664  0.4706  0.2628 -0.2794
11099SOL    HW134738   6.153   6.736   7.631  0.8759  0.3311 -0.2973
11099SOL    HW234739   6.086   6.814   7.743 -0.5696  0.0994 -0.9744
11100SOL     OW34740   4.837   5.856   8.423 -0.4551 -0.1822 -0.6012
11100SOL    HW134741   4.896   5.886   8.353  0.7228 -0.0579  0.3977
11100SOL    HW234742   4.773   5.801   8.379  1.3408 -1.6304 -1.5868
11101SOL     OW34743   3.201   6.394   4.468 -0.1432  0.2786 -0.1311
11101SOL    HW134744   3.181   6.447   4.545 -3.3078 -0.6626 -0.1240
11101SOL    HW234745   3.280   6.346   4.490  0.2150  1.6316  1.6587
11102SOL     OW34746   1.423   7.006   5.020  0.3599 -0.4256 -0.0087
11102SOL    HW134747   1.341   6.958   5.021 -0.3335  0.7240 -0.2468
11102SOL    HW234748   1.404   7.088   5.066  1.4864 -0.3176  0.2963
11103SOL     OW34749   1.904   5.723   7.399 -0.6193  0.3856 -0.4078
11103SOL    HW134750   1.826   5.757   7.355 -0.2375  0.9284 -0.6826
11103SOL    HW234751   1.872   5.652   7.454 -1.1039 -0.4060 -1.6646
11104SOL     OW34752   1.038   7.973   5.794  0.5150  0.2843  0.6714
11104SOL    HW134753   0.981   8.019   5.733  0.3664  1.0553  1.3776
11104SOL    HW234754   1.126   7.981   5.757  0.4036  0.6161  0.4870
11105SOL     OW34755   4.033   0.893   7.213 -0.5877 -0.2737 -0.3232
11105SOL    HW134756   3.954   0.945   7.231 -1.3059 -1.8825  1.5047
11105SOL    HW234757   4.011   0.804   7.241  1.4939 -1.0281 -0.8579
11106SOL     OW34758   3.614   0.368   7.358  0.0783  0.3643  0.1688
11106SOL    HW134759   3.592   0.302   7.292  0.9005 -0.2746  0.4992
11106SOL    HW234760   3.597   0.452   7.316 -0.8331 -0.0542 -0.3234
11107SOL     OW34761   0.617   7.450   4.059  0.1614  0.5647 -0.2183
11107SOL    HW134762   0.568   7.369   4.069  0.6032  0.4209  0.7966
11107SOL    HW234763   0.686   7.429   3.996  0.7747 -0.0877  0.6514
11108SOL     OW34764   2.966   5.588   6.658  0.0500 -0.4207  0.1551
11108SOL    HW134765   2.991   5.643   6.733  0.1556 -0.5801  0.2369
11108SOL    HW234766   3.015   5.507   6.671  0.6225 -0.1774 -0.4693
11109SOL     OW34767   6.227   7.002   8.304 -0.2123 -0.6451 -0.5036
11109SOL    HW134768   6.160   6.946   8.267  0.8897 -1.5596 -1.1822
11109SOL    HW234769   6.204   7.091   8.276 -0.1229 -1.1643 -2.3045
11110SOL     OW34770   1.068   4.683   5.674 -0.2768 -0.0358  0.2347
11110SOL    HW134771   1.004   4.722   5.734 -1.1908  1.1052 -1.4117
11110SOL    HW234772   1.016   4.658   5.597  0.7659 -2.0048  0.1033
11111SOL     OW34773   4.797   7.645   8.774 -0.7361 -0.3323  0.2682
11111SOL    HW134774   4.872   7.700   8.796  2.1697 -3.5703 -0.6995
11111SOL    HW234775   4.768   7.677   8.688  1.6011 -0.8734 -0.7948
11112SOL     OW34776   1.609   7.931   8.556  0.0677  0.4646 -0.3219
11112SOL    HW134777   1.678   7.929   8.490  1.4100  1.4366  0.9720
11112SOL    HW234778   1.540   7.985   8.518  0.2735 -0.0119 -1.3960
11113SOL     OW34779   2.052   6.492   4.959 -0.2256 -0.1538  0.0830
11113SOL    HW134780   2.133   6.496   5.010 -1.6959 -2.9461  2.9528
11113SOL    HW234781   2.016   6.581   4.962  1.1751  0.3997  1.4279
11114SOL     OW34782   1.454   5.475   6.837  0.6757  0.2323  0.0184
11114SOL    HW134783   1.416   5.400   6.884  0.7514  0.3631  0.2877
11114SOL    HW234784   1.452   5.449   6.745 -2.2839  1.1506 -0.2862
11115SOL     OW34785   2.630   5.665   7.356  1.2437  0.0818  0.4764
11115SOL    HW134786   2.685   5.623   7.289  0.3794  1.6970 -1.3393
11115SOL    HW234787   2.578   5.729   7.308 -0.6014  0.2095  2.4862
11116SOL     OW34788   0.997   6.127   3.304  0.1039 -0.1810 -0.3483
11116SOL    HW134789   0.914   6.150   3.263 -0.2290 -0.4065  0.1813
11116SOL    HW234790   0.976   6.119   3.397  0.5087 -1.2265 -0.3354
11117SOL     OW34791   1.687   1.913   5.388 -0.0384 -0.8879 -0.0421
11117SOL    HW134792   1.751   1.921   5.459 -0.3106 -0.0638  0.1183
11117SOL    HW234793   1.628   1.987   5.401  1.3388  0.7977 -2.6038
11118SOL     OW34794   4.398   6.028   6.924 -0.4519 -0.5108  0.7177
11118SOL    HW134795   4.421   6.024   6.831 -2.9507 -0.1298  0.0091
11118SOL    HW234796   4.410   6.121   6.947 -3.8705  0.3859 -0.4983
11119SOL     OW34797   4.222   5.957   5.755  0.5561 -0.2226  0.3453
11119SOL    HW134798   4.202   6.050   5.757 -0.5609 -0.4609  0.9240
11119SOL    HW234799   4.146   5.915   5.795  0.8584 -1.4204 -0.2943
11120SOL     OW34800   2.482   6.039   7.722 -0.9165  0.4196  0.5593
11120SOL    HW134801   2.413   6.071   7.779 -0.4077 -0.0087  1.4343
11120SOL    HW234802   2.451   5.954   7.692 -0.2155 -0.3683  2.0004
11121SOL     OW34803   0.076   7.788   4.627  0.2647  0.4359 -0.3353
11121SOL    HW134804   0.017   7.717   4.602 -0.3113  0.5432  0.6754
11121SOL    HW234805   0.102   7.828   4.544 -2.4488  1.5006 -0.7665
11122SOL     OW34806   2.282   0.213   5.255 -0.0494  0.1196 -0.0521
11122SOL    HW134807   2.259   0.256   5.337  1.8260  2.9146 -0.8171
11122SOL    HW234808   2.323   0.131   5.281 -0.9729  0.1744  1.6972
11123SOL     OW34809   1.482   6.724   8.020  0.1737 -0.0105 -0.0794
11123SOL    HW134810   1.522   6.640   8.040  0.8192  0.6611  1.6717
11123SOL    HW234811   1.388   6.706   8.012  0.3071 -0.8730  0.3244
11124SOL     OW34812   0.986   6.847  10.252  0.4489 -0.3082  0.3260
11124SOL    HW134813   1.050   6.804  10.195 -0.0661  0.2278 -0.7037
11124SOL    HW234814   1.033   6.866  10.332  0.7711 -2.4912  0.6949
11125SOL     OW34815   1.722   6.469   6.647 -0.3723  0.4684  0.5522
11125SOL    HW134816   1.626   6.467   6.637 -0.1575 -1.3699 -2.3940
11125SOL    HW234817   1.750   6.544   6.595 -0.1122 -0.4292 -0.6431
11126SOL     OW34818   3.004   0.654   7.641 -0.2100  0.4089 -0.4318
11126SOL    HW134819   2.937   0.601   7.598  0.2244 -1.0263  0.5828
11126SOL    HW234820   3.080   0.595   7.648  0.4764  1.3516  0.2224
11127SOL     OW34821   3.248   5.468   7.231 -0.3373 -0.1167 -0.0916
11127SOL    HW134822   3.226   5.401   7.166 -0.7529  0.1723 -0.2588
11127SOL    HW234823   3.271   5.419   7.309  0.6446 -0.4851 -0.5968
11128SOL     OW34824   2.786   5.048   7.298 -0.4514 -0.7062  0.5908
11128SOL    HW134825   2.855   5.004   7.347 -0.3111  0.6718  1.6720
11128SOL    HW234826   2.831   5.086   7.222 -0.1074 -0.2118  1.0420
11129SOL     OW34827   3.502   0.277   7.110 -0.0726 -0.0216 -0.2247
11129SOL    HW134828   3.561   0.347   7.082  0.3299 -0.0736  0.4578
11129SOL    HW234829   3.448   0.258   7.033 -0.5864  1.4393 -0.2579
11130SOL     OW34830   3.544   6.493   8.080  0.1429  0.8141  0.5727
11130SOL    HW134831   3.577   6.413   8.121 -0.9198 -0.1013 -0.2904
11130SOL    HW234832   3.566   6.563   8.142  1.8432 -0.0128  0.9553
11131SOL     OW34833   3.967   5.505   8.843 -0.3052  0.2831 -0.0710
11131SOL    HW134834   3.940   5.465   8.926 -0.8195  1.1817  0.2190
11131SOL    HW234835   3.920   5.589   8.841  0.2583  0.5936 -0.9372
11132SOL     OW34836   3.300   6.638   7.305  0.3298  0.4294  0.3554
11132SOL    HW134837   3.281   6.599   7.220  1.4047 -0.3699  0.4651
11132SOL    HW234838   3.281   6.569   7.368 -1.6858  1.3975  0.9194
11133SOL     OW34839   1.651   6.561  10.078  0.1396  0.0184  0.4976
11133SOL    HW134840   1.564   6.543  10.113  0.7725 -0.8717  1.6581
11133SOL    HW234841   1.693   6.475  10.072  0.0273  0.0711 -2.6399
11134SOL     OW34842   3.447   6.136   8.126 -0.1360  0.1332  0.1364
11134SOL    HW134843   3.524   6.188   8.104 -1.6497  1.2427 -3.1890
11134SOL    HW234844   3.456   6.056   8.075 -1.1349  0.2457 -0.2348
11135SOL     OW34845   4.039   5.502   9.455 -0.2381  0.0258  0.1822
11135SOL    HW134846   3.981   5.445   9.405 -1.9048  0.9533  0.9754
11135SOL    HW234847   4.069   5.568   9.392 -2.1283  1.0432  0.2981
11136SOL     OW34848   3.269   5.521   8.418  0.2643  0.1540  0.1131
11136SOL    HW134849   3.234   5.469   8.346 -1.7599  2.4226 -0.6800
11136SOL    HW234850   3.360   5.539   8.393 -0.2434  0.4408 -1.6474
11137SOL     OW34851   4.043   6.507   8.081 -0.2084 -0.0815 -0.1419
11137SOL    HW134852   3.984   6.570   8.040 -0.0323  0.2693  0.1400
11137SOL    HW234853   4.118   6.559   8.109  0.8022 -0.7090 -1.5732
11138SOL     OW34854   1.264   1.218   7.335 -0.6235  0.1905 -0.2665
11138SOL    HW134855   1.358   1.238   7.343 -0.5768 -0.4938  1.1748
11138SOL    HW234856   1.262   1.128   7.302 -0.7195 -0.5245  1.5849
11139SOL     OW34857   3.825   7.393   8.539  0.3917  0.3146 -0.2235
11139SOL    HW134858   3.826   7.432   8.452 -2.1510 -1.8260 -1.3304
11139SOL    HW234859   3.869   7.457   8.595  0.4218  2.5984 -2.7157
11140SOL     OW34860   3.601   6.893   8.073  0.1212 -0.5035 -0.5265
11140SOL    HW134861   3.537   6.928   8.135  0.7745  1.6700 -0.9791
11140SOL    HW234862   3.670   6.855   8.127  0.4957  1.0130  0.1117
11141SOL     OW34863   2.635   4.761   8.071  0.4807 -0.3365  0.0289
11141SOL    HW134864   2.666   4.835   8.123 -1.0031  0.2375  0.1617
11141SOL    HW234865   2.634   4.795   7.981 -0.8752  0.0738  0.1779
11142SOL     OW34866   2.105   0.637  10.385 -0.1829 -1.1581 -0.1812
11142SOL    HW134867   2.185   0.596  10.419  0.0460 -1.0039 -0.5256
11142SOL    HW234868   2.045   0.637  10.459  0.4931 -0.3570  0.3866
11143SOL     OW34869   3.448   5.094   7.046 -0.1567 -0.0059  0.2803
11143SOL    HW134870   3.426   5.010   7.085 -0.4558 -0.1183 -0.1214
11143SOL    HW234871   3.451   5.077   6.952  0.1920  0.3414  0.2230
11144SOL     OW34872   4.779   5.519  10.412  0.3265  0.1622  0.7247
11144SOL    HW134873   4.743   5.542  10.498  0.0735  0.1832  0.6114
11144SOL    HW234874   4.740   5.434  10.392  1.8804 -0.8097  1.5250
11145SOL     OW34875   1.864   6.311   8.224 -0.3909 -0.0805 -0.1491
11145SOL    HW134876   1.834   6.308   8.134 -0.0827  1.7248 -0.3500
11145SOL    HW234877   1.957   6.289   8.220 -0.2375  0.5792 -0.3704
11146SOL     OW34878   4.787   7.954   8.094 -0.4288 -0.0145 -0.2652
11146SOL    HW134879   4.847   8.010   8.044 -1.4171  2.8521  1.5251
11146SOL    HW234880   4.700   7.976   8.060 -0.8189 -0.7442  0.2392
11147SOL     OW34881   3.899   6.837   7.104  0.7382 -0.5688  1.0599
11147SOL    HW134882   3.897   6.748   7.139  0.0888 -0.1505  2.1505
11147SOL    HW234883   3.810   6.870   7.118  0.8512  0.1035  0.2735
11148SOL     OW34884   4.487   6.444   7.856 -0.1463  0.1689  0.4419
11148SOL    HW134885   4.393   6.439   7.874 -0.2526  0.5287  0.0069
11148SOL    HW234886   4.498   6.395   7.774  0.1477 -0.4205  0.8225
11149SOL     OW34887   3.605   6.102   7.261 -0.3076  0.1781  0.1616
11149SOL    HW134888   3.510   6.097   7.274 -0.3548 -0.2068 -0.2751
11149SOL    HW234889   3.635   6.012   7.274 -0.0936  0.1752 -0.3247
11150SOL     OW34890   1.648   6.515   8.121 -0.1733  0.1384  0.1281
11150SOL    HW134891   1.735   6.542   8.149 -0.0700 -1.5275  1.5248
11150SOL    HW234892   1.658   6.495   8.028  0.1040  3.1204 -0.5971
11151SOL     OW34893   3.765   7.193   7.356  0.0536 -0.1527  0.0484
11151SOL    HW134894   3.822   7.118   7.371  1.2041  0.7693  0.4578
11151SOL    HW234895   3.679   7.165   7.386  0.7749 -0.8052  1.5910
11152SOL     OW34896   5.723   6.942   7.598  0.0420 -0.0340  0.3834
11152SOL    HW134897   5.647   6.922   7.543 -0.0314  3.5353 -1.0545
11152SOL    HW234898   5.795   6.955   7.536  0.4675  2.0818  1.2590
11153SOL     OW34899   3.259   5.732   5.953  0.2731 -0.1451  0.2851
11153SOL    HW134900   3.272   5.802   5.889  0.9524  0.3980  1.0036
11153SOL    HW234901   3.325   5.747   6.020  0.0687 -1.1533  0.7411
11154SOL     OW34902   3.086   7.137   8.084 -0.1746 -0.2155  0.4510
11154SOL    HW134903   3.015   7.176   8.033  0.0176 -0.0167  0.3336
11154SOL    HW234904   3.164   7.185   8.057  0.1931 -1.1464 -0.2200
11155SOL     OW34905   3.338   0.667   7.929 -0.1622  0.2564  0.5543
11155SOL    HW134906   3.407   0.732   7.911 -0.7160  0.9065  0.7568
11155SOL    HW234907   3.268   0.717   7.970 -0.6222 -0.4684  0.6675
11156SOL     OW34908   3.646   6.408   9.142  0.1630 -0.3287  0.4598
11156SOL    HW134909   3.597   6.411   9.224 -4.9270  0.1249 -2.1874
11156SOL    HW234910   3.664   6.499   9.120  1.3983 -0.4417  0.9148
11157SOL     OW34911   3.826   7.225   8.237 -0.6633  0.3664  0.1681
11157SOL    HW134912   3.786   7.306   8.268  0.6328  0.2454  2.3493
11157SOL    HW234913   3.831   7.236   8.142  0.8775  3.5345  0.5011
11158SOL     OW34914   3.822   6.375   6.896  0.0229  0.0381 -0.2919
11158SOL    HW134915   3.733   6.351   6.920  0.2703 -1.0298 -0.3947
11158SOL    HW234916   3.878   6.318   6.948  0.6494  0.5792 -0.3524
11159SOL     OW34917   5.784   7.664   8.524  0.4213  0.1548 -0.0684
11159SOL    HW134918   5.814   7.675   8.434  0.8875  1.0160  0.1767
11159SOL    HW234919   5.863   7.669   8.577  0.1055  0.1011  0.4175
11160SOL     OW34920   1.029   4.391   6.251  0.7605 -0.4838  0.0188
11160SOL    HW134921   1.119   4.425   6.246 -0.0086  2.3873  2.4477
11160SOL    HW234922   0.986   4.425   6.173  1.4992 -1.0275 -0.6463
11161SOL     OW34923   2.676   5.001   8.179  0.3464  0.0015 -0.0939
11161SOL    HW134924   2.617   5.046   8.239 -0.5995 -1.7112  0.3266
11161SOL    HW234925   2.659   5.043   8.094 -0.9444  0.0555  0.1639
11162SOL     OW34926   4.430   6.187   8.459 -0.8393  0.0306 -0.4951
11162SOL    HW134927   4.427   6.114   8.397  0.3184  0.9653 -1.6896
11162SOL    HW234928   4.523   6.202   8.475 -1.0953  0.4641  0.7108
11163SOL     OW34929   3.256   0.000   7.588 -0.2570  0.6988  0.4733
11163SOL    HW134930   3.220  -0.067   7.530  0.6446  0.8590 -0.2908
11163SOL    HW234931   3.315   0.050   7.533 -0.8197  2.0602  1.0606
11164SOL     OW34932   5.212   5.817  10.536  0.5500  0.4675  0.2700
11164SOL    HW134933   5.210   5.767  10.617  1.6475  0.5291  0.3550
11164SOL    HW234934   5.232   5.753  10.468 -0.0403  0.4708  0.0830
11165SOL     OW34935   4.113   6.875   8.121  0.5528  0.1910 -0.1008
11165SOL    HW134936   4.075   6.855   8.036  0.4132  2.1085 -0.5273
11165SOL    HW234937   4.183   6.810   8.131 -0.3497 -0.9715 -1.0051
11166SOL     OW34938   4.270   6.853   9.231 -0.0061  0.3788 -0.6577
11166SOL    HW134939   4.186   6.844   9.276 -0.9612  0.2870 -2.3768
11166SOL    HW234940   4.335   6.847   9.301 -1.4185  0.5197  0.7282
11167SOL     OW34941   4.837   5.412   6.560  0.3165 -0.5383 -0.0092
11167SOL    HW134942   4.789   5.329   6.561 -0.0137 -0.3551 -0.5797
11167SOL    HW234943   4.770   5.479   6.544  0.7420 -0.2661 -0.6634
11168SOL     OW34944   3.181   0.291   9.662  0.1450 -0.3515  0.7379
11168SOL    HW134945   3.204   0.379   9.690 -1.1841  0.3592 -0.2733
11168SOL    HW234946   3.131   0.304   9.581  0.5683 -2.0821  0.1469
11169SOL     OW34947   3.485   6.021  10.374  0.0102  0.0773 -0.2569
11169SOL    HW134948   3.495   5.953  10.307  1.1433  0.7746 -0.8337
11169SOL    HW234949   3.425   5.983  10.438  2.8820 -2.7509  1.0344
11170SOL     OW34950   3.461   5.458   6.947 -0.2104 -0.3036 -0.0977
11170SOL    HW134951   3.497   5.386   6.896 -0.9435 -0.5782 -0.2522
11170SOL    HW234952   3.465   5.428   7.038  1.4079  0.3238  0.0605
11171SOL     OW34953   2.430   6.077   8.640  0.0175 -0.2584  0.3469
11171SOL    HW134954   2.458   6.005   8.583 -0.3799 -1.1818  1.2901
11171SOL    HW234955   2.344   6.103   8.606  0.4817  0.2835 -0.4461
11172SOL     OW34956   2.902   6.475   7.955  0.1955 -0.5249 -0.1210
11172SOL    HW134957   2.988   6.433   7.945  0.5091 -0.1978  1.0702
11172SOL    HW234958   2.919   6.568   7.941  0.0588 -0.4523  0.1796
11173SOL     OW34959   4.674   5.677   8.281  0.1684 -0.0179  0.1354
11173SOL    HW134960   4.707   5.699   8.194 -0.9808  2.4391  0.2363
11173SOL    HW234961   4.586   5.644   8.265  0.1082  0.0546  0.3138
11174SOL     OW34962   5.555   6.992   8.171 -0.6597  0.2572  0.1336
11174SOL    HW134963   5.621   6.969   8.236  0.8482  0.8230 -1.1325
11174SOL    HW234964   5.494   6.918   8.171  1.5978 -1.7306 -0.6923
11175SOL     OW34965   3.068   6.794   7.312  0.2798 -0.1920 -0.0585
11175SOL    HW134966   3.090   6.858   7.244 -0.7030 -2.2320 -2.4319
11175SOL    HW234967   3.141   6.733   7.312  0.2890 -0.1919  0.7915
11176SOL     OW34968   4.106   5.876   7.479  0.0868  0.2411 -0.1145
11176SOL    HW134969   4.033   5.814   7.471  0.6719 -0.6849  1.2688
11176SOL    HW234970   4.183   5.821   7.493  0.8044  1.2588  0.0775
11177SOL     OW34971   3.347   7.673  10.076 -0.1275 -0.2891  0.1566
11177SOL    HW134972   3.352   7.619   9.998  2.2697  0.3706 -0.2497
11177SOL    HW234973   3.376   7.760  10.048 -0.6548  0.3509  1.4781
11178SOL     OW34974   0.509   3.418   5.908  0.1966 -0.4643  0.1614
11178SOL    HW134975   0.467   3.501   5.883 -1.2047 -1.1925 -0.0227
11178SOL    HW234976   0.523   3.372   5.826 -0.5826 -1.0984  0.3653
11179SOL     OW34977   2.504   5.585   7.797 -0.2236  0.8624  0.1506
11179SOL    HW134978   2.496   5.494   7.769 -0.5429  0.6335  0.9405
11179SOL    HW234979   2.597   5.606   7.786  0.5521 -0.5857  2.8888
11180SOL     OW34980   3.088   7.542  10.077  0.1649 -0.6147 -0.3774
11180SOL    HW134981   3.173   7.578  10.105  0.0743  0.0542 -0.9285
11180SOL    HW234982   3.093   7.450  10.100  0.7926 -0.4549  0.1921
11181SOL     OW34983   3.455   5.931   9.002  0.3261  0.5943 -0.0216
11181SOL    HW134984   3.487   5.866   8.940 -1.0965 -0.1201 -0.0428
11181SOL    HW234985   3.500   6.012   8.978  1.4070 -0.1612 -0.5952
11182SOL     OW34986   4.965   6.163  10.548  0.3527  0.1223  0.0590
11182SOL    HW134987   4.877   6.199  10.540  0.0994 -0.2169  1.1137
11182SOL    HW234988   4.953   6.069  10.536  0.2781 -0.1391  1.9033
11183SOL     OW34989   4.518   6.502   9.188 -0.0505 -0.1886  0.2292
11183SOL    HW134990   4.445   6.541   9.141 -0.3858 -1.0363  0.0373
11183SOL    HW234991   4.568   6.577   9.221  0.2714  0.4298 -1.5692
11184SOL     OW34992   3.917   0.304   7.407 -0.4018  0.7185 -0.0348
11184SOL    HW134993   3.833   0.326   7.365 -0.1532  0.2472 -0.8065
11184SOL    HW234994   3.979   0.367   7.370 -0.0214 -0.1920 -0.9985
11185SOL     OW34995   3.702   4.912   8.134 -0.3300  0.5258  0.2897
11185SOL    HW134996   3.722   4.957   8.052 -0.3681  0.2759  0.1413
11185SOL    HW234997   3.770   4.845   8.141 -0.3077  0.5686  0.4796
11186SOL     OW34998   2.694   7.354   8.746 -0.3476 -0.7188  0.6978
11186SOL    HW134999   2.718   7.265   8.719  0.4916  0.0280 -1.1222
11186SOL    HW235000   2.777   7.397   8.765 -0.7026 -0.1134  0.8986
11187SOL     OW35001   2.929   0.887   8.335  0.1555  0.0110  0.9871
11187SOL    HW135002   3.012   0.935   8.343 -0.0092  0.1554  1.9844
11187SOL    HW235003   2.914   0.852   8.422 -0.4160 -0.7291  0.5977
11188SOL     OW35004   5.704   0.701   9.051  0.2707  0.4920 -0.1847
11188SOL    HW135005   5.752   0.668   8.975 -0.7364  2.0322 -1.5488
11188SOL    HW235006   5.723   0.638   9.120 -0.0036 -1.8554 -2.1160
11189SOL     OW35007   4.978   5.963   9.440  0.4555 -0.0963  0.4075
11189SOL    HW135008   4.938   5.946   9.355 -0.1148  0.7457  0.4970
11189SOL    HW235009   5.071   5.975   9.420  0.1987  0.9754 -0.2316
11190SOL     OW35010   4.321   6.364   6.876  0.3976  0.1403  0.0816
11190SOL    HW135011   4.363   6.393   6.795 -0.3667 -1.2736 -0.8507
11190SOL    HW235012   4.388   6.378   6.944  1.2242  0.8665 -0.8588
11191SOL     OW35013   4.060   7.247   8.377  0.1000 -0.0810 -0.1018
11191SOL    HW135014   4.127   7.182   8.355  1.4006  0.9779  0.5478
11191SOL    HW235015   3.984   7.221   8.326  1.7013 -0.0353 -2.7198
11192SOL     OW35016   4.814   6.604   8.605  0.6814  0.2464 -0.0290
11192SOL    HW135017   4.883   6.580   8.543  0.0399 -0.4278 -0.4849
11192SOL    HW235018   4.765   6.524   8.621 -0.6840  0.9304 -0.5642
11193SOL     OW35019   4.923   6.965   8.699 -0.3965 -0.2443 -0.1329
11193SOL    HW135020   4.875   6.994   8.622  0.5704 -0.8123 -0.9655
11193SOL    HW235021   5.014   6.988   8.681  0.2204 -2.5772 -0.2472
11194SOL     OW35022   2.207   7.969   8.579  0.6583  0.1581 -0.2882
11194SOL    HW135023   2.237   8.033   8.513  0.5209  0.0330 -0.4735
11194SOL    HW235024   2.134   7.924   8.536 -0.2205  0.9022  0.3983
11195SOL     OW35025   6.246   6.145   7.198  0.3010  0.0880  0.2366
11195SOL    HW135026   6.262   6.089   7.122 -1.5523 -0.3067  0.1014
11195SOL    HW235027   6.325   6.199   7.204  1.3090 -1.1986 -0.7818
11196SOL     OW35028   2.431   6.290   7.481  0.1019  0.0410  0.2321
11196SOL    HW135029   2.366   6.221   7.491 -0.6696  0.8075  0.6516
11196SOL    HW235030   2.509   6.245   7.449 -0.4880 -0.9662  0.1637
11197SOL     OW35031   4.026   6.683   8.450  0.1124  0.0520 -0.1153
11197SOL    HW135032   3.967   6.709   8.380  2.2488 -0.4627 -2.2237
11197SOL    HW235033   4.009   6.589   8.462  0.4654 -0.0881 -0.6932
11198SOL     OW35034   3.444   6.425   8.943  0.1493 -0.0416  0.4256
11198SOL    HW135035   3.458   6.341   8.986  0.6622 -0.8451 -1.2604
11198SOL    HW235036   3.351   6.426   8.921  0.4734 -0.9599 -1.0992
11199SOL     OW35037   3.481   6.415   8.616 -0.0394  0.1135 -0.0155
11199SOL    HW135038   3.386   6.426   8.623 -0.1285 -0.6891  0.1584
11199SOL    HW235039   3.495   6.377   8.529  0.0350 -0.5426  0.2706
11200SOL     OW35040   4.047   5.854   6.855  0.3876 -0.4169 -0.4153
11200SOL    HW135041   4.054   5.933   6.801  0.3302 -0.2469 -0.1778
11200SOL    HW235042   4.048   5.887   6.945 -2.2177 -0.4281 -0.3006
11201SOL     OW35043   1.523   5.473   6.006  0.9363 -0.1762 -0.0207
11201SOL    HW135044   1.490   5.457   5.917 -0.3250  0.7107  0.2718
11201SOL    HW235045   1.603   5.524   5.993  1.2447 -0.8016 -0.6665
11202SOL     OW35046   4.474   7.219   7.106 -0.1915 -0.0837  0.6407
11202SOL    HW135047   4.478   7.254   7.194  1.1844  1.1877  0.1144
11202SOL    HW235048   4.564   7.221   7.075 -0.3696 -2.2287 -0.1641
11203SOL     OW35049   4.673   6.817  10.160 -0.2180 -0.0684 -0.2900
11203SOL    HW135050   4.614   6.759  10.209  1.5600 -0.7676  1.1367
11203SOL    HW235051   4.710   6.761  10.091  0.8941 -0.4803  0.5975
11204SOL     OW35052   5.496   6.718   6.363 -0.7191 -0.2601  0.3875
11204SOL    HW135053   5.424   6.661   6.388 -1.0128 -0.2933 -0.4896
11204SOL    HW235054   5.454   6.797   6.328 -0.3226  0.7184  1.9842
11205SOL     OW35055   1.127   7.250   9.060  0.2491  0.4167  0.2643
11205SOL    HW135056   1.092   7.292   9.139 -0.4851  0.7451 -0.2178
11205SOL    HW235057   1.072   7.284   8.989  1.2379  0.5398 -0.4588
11206SOL     OW35058   4.848   4.998  10.554 -0.3717  0.1604 -0.6454
11206SOL    HW135059   4.910   5.051  10.505 -0.4625  0.6125 -0.2754
11206SOL    HW235060   4.764   5.011  10.509 -0.0501 -1.1671 -1.7006
11207SOL     OW35061   3.898   5.949   6.456  0.2349 -0.1789 -0.4688
11207SOL    HW135062   3.953   5.983   6.527  0.7083  0.1639 -0.9899
11207SOL    HW235063   3.949   5.877   6.420  1.1310  1.1583 -2.0110
11208SOL     OW35064   4.242   7.045   8.284  0.4331  0.3080  0.5173
11208SOL    HW135065   4.323   6.995   8.275  0.5214  0.7359 -1.9010
11208SOL    HW235066   4.188   7.017   8.210 -0.5816  1.8641  0.6164
11209SOL     OW35067   2.936   7.577   8.063 -0.3246  0.1706 -0.0010
11209SOL    HW135068   2.956   7.670   8.050 -0.1423  0.0372 -0.7193
11209SOL    HW235069   3.015   7.541   8.103 -0.9995  0.6469  1.8842
11210SOL     OW35070   2.622   5.407   8.060  0.2547  0.2907 -0.1708
11210SOL    HW135071   2.657   5.389   7.973  1.2900 -0.7099  0.4248
11210SOL    HW235072   2.530   5.427   8.045  0.6132  1.0199 -1.5765
11211SOL     OW35073   4.202   5.597   5.937  0.1157 -0.1905  0.1500
11211SOL    HW135074   4.287   5.565   5.967  0.7329 -0.2501 -1.5777
11211SOL    HW235075   4.166   5.526   5.884 -0.7669  0.0607  0.3843
11212SOL     OW35076   4.532   7.806   8.292 -0.2560  0.2718  0.1108
11212SOL    HW135077   4.478   7.794   8.214 -1.6495 -0.1801  1.1036
11212SOL    HW235078   4.526   7.900   8.311  0.2039  0.4076 -0.3885
11213SOL     OW35079   4.781   0.534   8.297  0.2032 -0.0014  0.1965
11213SOL    HW135080   4.821   0.485   8.226  1.8305 -0.0281  1.0817
11213SOL    HW235081   4.833   0.615   8.303 -1.0070  0.8030  0.2310
11214SOL     OW35082   4.574   6.164   7.715 -0.2196 -0.0159 -0.6520
11214SOL    HW135083   4.615   6.125   7.637  0.1856 -2.0173  0.5153
11214SOL    HW235084   4.648   6.193   7.768 -0.4767  0.5029 -0.5696
11215SOL     OW35085   2.252   5.548   5.516 -0.0592 -0.5665 -1.0221
11215SOL    HW135086   2.285   5.513   5.433  2.1669 -0.3041 -0.3109
11215SOL    HW235087   2.283   5.485   5.582  1.4410  1.1102 -0.0397
11216SOL     OW35088   3.198   6.227   9.392 -0.2122  0.4021 -0.2038
11216SOL    HW135089   3.236   6.163   9.452  0.1281 -0.8595 -1.6854
11216SOL    HW235090   3.238   6.207   9.307 -2.2184  0.7185 -1.2958
11217SOL     OW35091   2.920   6.528   7.149 -0.5573 -0.9893 -0.1129
11217SOL    HW135092   2.936   6.567   7.234 -1.2286 -0.8405 -0.0531
11217SOL    HW235093   2.941   6.597   7.086  2.6187 -1.8879 -0.2493
11218SOL     OW35094   4.437   7.514   8.370 -0.3565 -0.4503 -0.2755
11218SOL    HW135095   4.514   7.482   8.323  0.8202  0.6123  0.8309
11218SOL    HW235096   4.448   7.480   8.459 -0.7961  0.2718  0.0654
11219SOL     OW35097   5.500   7.900   8.077  0.2110  0.1165  0.1751
11219SOL    HW135098   5.582   7.939   8.045 -0.3359  1.5743  0.4468
11219SOL    HW235099   5.502   7.914   8.171 -0.4374  0.3825  0.1603
11220SOL     OW35100   3.873   6.165   7.897 -0.0777  0.4407 -0.6575
11220SOL    HW135101   3.947   6.197   7.947 -1.1882 -2.9725  3.7708
11220SOL    HW235102   3.909   6.095   7.842  0.2008 -0.4645  0.6528
11221SOL     OW35103   3.134   6.770   9.165  0.2393  0.0698  0.1614
11221SOL    HW135104   3.129   6.694   9.223 -0.4006  0.5600  0.7828
11221SOL    HW235105   3.223   6.802   9.175  0.5046 -0.5764 -0.0854
11222SOL     OW35106   3.265   7.639   9.775 -0.1001  0.0615  0.4193
11222SOL    HW135107   3.262   7.544   9.787 -0.4442 -0.0780 -0.7311
11222SOL    HW235108   3.189   7.672   9.824 -0.2901 -0.2995  0.3676
11223SOL     OW35109   5.483   7.419   6.571  0.3789  0.0065  0.2616
11223SOL    HW135110   5.510   7.331   6.545  2.8689  0.9225 -0.6348
11223SOL    HW235111   5.419   7.445   6.504 -1.3740 -1.5218  1.2659
11224SOL     OW35112   3.108   7.452   8.289  0.2198  0.2586  0.1013
11224SOL    HW135113   3.034   7.488   8.338 -0.0379 -2.0236  1.5498
11224SOL    HW235114   3.134   7.374   8.339  0.7033 -1.5881 -2.7828
11225SOL     OW35115   3.833   6.574   8.713 -0.1750 -0.0342  0.3038
11225SOL    HW135116   3.877   6.529   8.642 -2.8776 -2.1146 -0.2371
11225SOL    HW235117   3.883   6.654   8.726  1.2265 -0.2200 -2.9947
11226SOL     OW35118   1.777   6.874   8.907 -1.0726  0.4013  0.1744
11226SOL    HW135119   1.701   6.929   8.924 -0.7861  0.4195  1.4354
11226SOL    HW235120   1.759   6.834   8.822 -1.9632  1.2817 -0.0654
11227SOL     OW35121   1.713   5.837   8.173  0.3155 -0.4986 -0.3188
11227SOL    HW135122   1.791   5.781   8.166  0.0150 -0.7026 -3.5100
11227SOL    HW235123   1.648   5.782   8.216  1.1618 -1.2732  0.0084
11228SOL     OW35124   3.541   6.021   7.836  0.3366 -0.5035  0.2608
11228SOL    HW135125   3.630   6.003   7.805  0.6901  0.6751  0.5163
11228SOL    HW235126   3.543   6.114   7.860 -0.6241 -0.7561  1.4253
11229SOL     OW35127   4.412   7.247   7.402  0.0224  0.6950  0.1807
11229SOL    HW135128   4.400   7.212   7.490  0.1236 -4.3896 -1.5111
11229SOL    HW235129   4.504   7.230   7.382 -0.0763  1.5192 -1.0724
11230SOL     OW35130   3.942   6.992   9.024  0.0542  0.9073  0.4294
11230SOL    HW135131   4.029   6.959   9.004  0.1182  1.9301 -1.1935
11230SOL    HW235132   3.951   7.088   9.018 -0.9033  1.0808  1.4840
11231SOL     OW35133   2.423   6.653   6.940  0.3586  0.0930 -0.2777
11231SOL    HW135134   2.330   6.631   6.926  0.8788 -1.6387 -1.2687
11231SOL    HW235135   2.427   6.748   6.928 -1.2520  0.1761 -0.3918
11232SOL     OW35136   1.850   7.522   9.445 -0.7555 -0.2464  0.4952
11232SOL    HW135137   1.873   7.496   9.356  2.6380  0.6443  0.9517
11232SOL    HW235138   1.776   7.581   9.434 -0.9111 -0.7445 -1.6511
11233SOL     OW35139   2.186   7.783   8.990 -0.2827 -0.3495 -0.4743
11233SOL    HW135140   2.251   7.829   9.042  0.2036 -1.3534 -0.1575
11233SOL    HW235141   2.153   7.848   8.928  2.4977 -0.2842 -2.0296
11234SOL     OW35142   2.756   0.607   9.878 -0.3963  0.1583  0.0701
11234SOL    HW135143   2.724   0.673   9.816  0.3552 -0.8282 -1.4446
11234SOL    HW235144   2.778   0.532   9.823 -2.1508 -1.7742  1.8037
11235SOL     OW35145   1.183   5.240  10.705  0.0088  0.5155 -0.7985
11235SOL    HW135146   1.229   5.276  10.780  0.4519 -0.9588 -0.3324
11235SOL    HW235147   1.197   5.304  10.635 -0.3276  1.8483  0.3259
11236SOL     OW35148   2.569   6.940   9.982  0.8239  0.1292  0.1877
11236SOL    HW135149   2.505   6.920   9.914  1.5100  0.1560 -0.4768
11236SOL    HW235150   2.652   6.951   9.935  1.3490 -0.0442  1.0468
11237SOL     OW35151   3.085   7.083   8.826  0.3400 -0.1030  0.4601
11237SOL    HW135152   3.103   6.989   8.814 -0.0434 -0.1374  0.1604
11237SOL    HW235153   3.172   7.123   8.831  0.5323 -0.6202  1.7761
11238SOL     OW35154   5.375   6.123   6.206 -0.5545 -0.0931 -0.2512
11238SOL    HW135155   5.443   6.056   6.207 -0.6532 -0.1995  1.1046
11238SOL    HW235156   5.324   6.107   6.286 -1.3142  0.8417 -0.5287
11239SOL     OW35157   2.845   5.207   8.642 -0.6345 -0.2235  0.3764
11239SOL    HW135158   2.926   5.243   8.679  0.3198 -1.8791  0.0466
11239SOL    HW235159   2.873   5.125   8.601 -2.1686  0.1023 -1.4417
11240SOL     OW35160   3.155   5.626   8.846 -0.2127  0.1427  0.0903
11240SOL    HW135161   3.208   5.572   8.787  1.5234  0.4491  1.3127
11240SOL    HW235162   3.166   5.715   8.813 -0.6627  0.1174 -0.1423
11241SOL     OW35163   2.168   7.279  11.313  0.1526  0.3968 -0.2603
11241SOL    HW135164   2.140   7.227  11.238  1.1179 -1.5815  0.6792
11241SOL    HW235165   2.253   7.315  11.287  0.9957 -1.1728  0.2416
11242SOL     OW35166   4.470   6.243   5.172  0.5917  0.2320  0.0149
11242SOL    HW135167   4.511   6.193   5.101 -0.8567 -0.4811 -0.3610
11242SOL    HW235168   4.539   6.252   5.238  1.6369 -0.0529 -1.0139
11243SOL     OW35169   5.189   5.102  11.811  0.1405 -0.3291  0.4174
11243SOL    HW135170   5.124   5.035  11.831 -0.3679 -0.3419 -1.1828
11243SOL    HW235171   5.273   5.058  11.823 -0.1760 -1.6573 -1.7003
11244SOL     OW35172   1.875   6.634   9.658 -0.5134  0.0665  0.4498
11244SOL    HW135173   1.818   6.691   9.710 -0.8913  0.3545 -0.2759
11244SOL    HW235174   1.836   6.633   9.571  0.7122  0.4493 -0.1191
11245SOL     OW35175   4.374   6.258   7.358  0.2950  0.4431 -0.5226
11245SOL    HW135176   4.311   6.187   7.367  2.7356 -1.6147  2.0447
11245SOL    HW235177   4.423   6.238   7.278  0.1985 -0.1366 -0.4373
11246SOL     OW35178   3.541   4.806   7.048  0.2367  0.5273  0.2743
11246SOL    HW135179   3.548   4.804   7.144 -0.9000  2.5469  0.4586
11246SOL    HW235180   3.614   4.861   7.020  0.3111  0.2939  0.0050
11247SOL     OW35181   3.117   7.030  10.880 -0.4610 -0.8635  0.4300
11247SOL    HW135182   3.111   6.966  10.809  3.9984 -0.0785 -0.9605
11247SOL    HW235183   3.061   7.102  10.853  1.2838 -0.4856 -2.5806
11248SOL     OW35184   6.038   7.867   9.894 -0.5578 -0.2435 -0.3581
11248SOL    HW135185   5.970   7.872   9.961  0.5740  2.0954  0.7442
11248SOL    HW235186   5.996   7.901   9.815 -0.9715  0.1559  0.0294
11249SOL     OW35187   4.944   6.378   8.741 -0.0530  0.3385 -0.1041
11249SOL    HW135188   4.853   6.388   8.768  0.3884  0.0914  1.6634
11249SOL    HW235189   4.981   6.466   8.751  0.3927  0.0233  1.3803
11250SOL     OW35190   1.392   3.872   7.273  0.2828  0.1309  0.0539
11250SOL    HW135191   1.421   3.786   7.303 -1.0297 -1.1060 -1.9813
11250SOL    HW235192   1.471   3.912   7.236  0.9945  0.0119  1.3856
11251SOL     OW35193   1.063   7.037   8.048 -0.0306 -0.0905  0.0983
11251SOL    HW135194   1.030   6.986   7.974 -1.7846  0.8074  0.2130
11251SOL    HW235195   1.107   6.972   8.103 -2.0653 -1.5024  0.1735
11252SOL     OW35196   4.373   6.119   9.893 -0.2147 -0.2627  0.3110
11252SOL    HW135197   4.442   6.062   9.859 -0.8848 -0.9344  0.0386
11252SOL    HW235198   4.350   6.176   9.820 -1.6152 -1.6685 -0.4139
11253SOL     OW35199   2.047   6.843   8.974 -0.4739  0.1849 -0.6125
11253SOL    HW135200   1.955   6.840   8.950 -0.2034 -0.7314 -1.5559
11253SOL    HW235201   2.092   6.789   8.909  0.7979  1.0083 -0.4618
11254SOL     OW35202   1.245   7.992   9.085  0.2653  0.1774 -0.0103
11254SOL    HW135203   1.303   8.048   9.137 -0.6050  0.4673  0.6723
11254SOL    HW235204   1.175   8.051   9.056 -0.6149 -0.5207  0.6323
11255SOL     OW35205   2.344   6.946   8.158 -0.4369  0.6095  0.0645
11255SOL    HW135206   2.372   6.855   8.159  1.7667  1.1983 -0.9091
11255SOL    HW235207   2.255   6.945   8.193 -0.7325 -1.9834 -0.6040
11256SOL     OW35208   2.936   7.738  10.177 -0.2870 -0.1909 -0.3213
11256SOL    HW135209   3.004   7.681  10.141 -0.4056 -0.2028 -0.5335
11256SOL    HW235210   2.854   7.700  10.146 -0.3795 -0.0538 -0.2488
11257SOL     OW35211   4.218   6.350   7.932 -0.0551  0.2412 -0.0459
11257SOL    HW135212   4.180   6.347   7.844 -0.9627  2.6944  0.1947
11257SOL    HW235213   4.147   6.381   7.988  0.2460 -2.0898  1.7707
11258SOL     OW35214   1.752   7.217   8.779 -0.7818 -0.0533  0.1445
11258SOL    HW135215   1.689   7.275   8.823 -0.6891  0.1788 -0.0270
11258SOL    HW235216   1.823   7.207   8.843 -0.7777  0.0579  0.1579
11259SOL     OW35217   3.478   0.460   9.124  0.2498  0.0784 -0.3194
11259SOL    HW135218   3.429   0.479   9.044  2.3895  0.4832 -1.6074
11259SOL    HW235219   3.561   0.506   9.113  0.8724 -0.3915  1.8667
11260SOL     OW35220   3.004   6.706   9.792  0.5720  0.1620  0.4252
11260SOL    HW135221   3.013   6.617   9.756 -0.9011  0.6729 -1.3825
11260SOL    HW235222   2.966   6.693   9.878  1.5606 -1.0028  0.7245
11261SOL     OW35223   4.909   7.978   8.969  0.4323  0.0823 -1.0031
11261SOL    HW135224   4.917   8.033   9.047 -0.0726  0.4906 -1.2364
11261SOL    HW235225   4.839   7.916   8.991  0.8860 -0.3689 -0.8034
11262SOL     OW35226   2.605   6.579  10.831  0.2600  0.2656 -0.0567
11262SOL    HW135227   2.657   6.644  10.783 -0.7473 -1.1560 -3.3826
11262SOL    HW235228   2.544   6.630  10.883  1.5793  1.9457 -0.0606
11263SOL     OW35229   4.438   5.628   9.607 -0.2440  0.2506  0.2022
11263SOL    HW135230   4.375   5.558   9.591 -0.8201  0.6037  0.8943
11263SOL    HW235231   4.515   5.603   9.555 -0.9941 -0.1044 -0.7659
11264SOL     OW35232   3.178   6.084   6.707 -0.5782 -0.1200 -0.6008
11264SOL    HW135233   3.212   6.137   6.779  0.6444 -0.0605 -1.1899
11264SOL    HW235234   3.245   6.090   6.639 -1.4727 -0.5849 -1.5554
11265SOL     OW35235   4.425   5.142  10.716 -0.1913  0.3737  0.2298
11265SOL    HW135236   4.491   5.107  10.657 -1.1864  1.3616 -1.5675
11265SOL    HW235237   4.342   5.126  10.670 -1.0220  0.9510  1.4941
11266SOL     OW35238   2.686   7.269   9.499 -0.2479 -0.1186  0.7307
11266SOL    HW135239   2.760   7.212   9.478  1.6038  2.5937 -0.6570
11266SOL    HW235240   2.613   7.232   9.450  1.3050 -0.3812 -1.5398
11267SOL     OW35241   2.878   6.802   7.489  0.4794  0.2533  0.0114
11267SOL    HW135242   2.932   6.760   7.556  1.3252  2.6575  0.9797
11267SOL    HW235243   2.936   6.812   7.414  0.3051 -0.2133 -0.1876
11268SOL     OW35244   4.001   6.819   7.877  0.9612 -0.0815  0.6084
11268SOL    HW135245   3.932   6.760   7.907  1.7268 -0.5347  1.5100
11268SOL    HW235246   4.039   6.775   7.802  0.2799  0.1782  0.0940
11269SOL     OW35247   2.559   4.996   6.067  0.0957 -0.2547  0.0029
11269SOL    HW135248   2.590   4.926   6.010 -1.5157 -0.1695 -1.0291
11269SOL    HW235249   2.479   4.962   6.107  0.0917  0.4606  0.6376
11270SOL     OW35250   3.274   7.241  10.072 -0.1068 -0.5624  0.0430
11270SOL    HW135251   3.315   7.156  10.055  1.0464 -0.0726  0.2541
11270SOL    HW235252   3.304   7.264  10.160  1.3940  1.0194 -0.8122
11271SOL     OW35253   4.326   6.787   7.893  0.5418  0.1886  0.5304
11271SOL    HW135254   4.339   6.872   7.935  0.1946  0.4944  0.0318
11271SOL    HW235255   4.391   6.785   7.822 -0.1303  0.4792 -0.1059
11272SOL     OW35256   4.386   7.525   7.420  0.4890 -0.1616 -0.3028
11272SOL    HW135257   4.381   7.433   7.394  2.4776 -0.2910 -0.4122
11272SOL    HW235258   4.347   7.528   7.507 -2.4235 -0.4947 -1.4942
11273SOL     OW35259   5.222   0.257   9.441  0.6290 -0.1408 -0.3072
11273SOL    HW135260   5.296   0.304   9.481 -1.1711  0.5133  2.4848
11273SOL    HW235261   5.178   0.323   9.387  0.0555  0.4994  0.9105
11274SOL     OW35262   5.511   6.257   8.451 -0.2055  0.0742 -0.3549
11274SOL    HW135263   5.553   6.280   8.533  3.8663 -0.1621 -2.1503
11274SOL    HW235264   5.464   6.176   8.470 -0.5606  0.7602  2.0053
11275SOL     OW35265   2.481   7.318   7.963 -0.3398 -0.1369  0.1432
11275SOL    HW135266   2.514   7.248   7.908  0.9136 -0.8978  1.7781
11275SOL    HW235267   2.397   7.343   7.923 -0.6332 -2.2833 -0.7055
11276SOL     OW35268   3.195   7.885  11.558 -0.1175  0.1708  0.3618
11276SOL    HW135269   3.266   7.885  11.623 -0.2979 -0.2918  0.5638
11276SOL    HW235270   3.240   7.878  11.474  0.1422  1.2061  0.3963
11277SOL     OW35271   4.272   6.650   8.137 -0.0372 -0.2304  0.0888
11277SOL    HW135272   4.312   6.652   8.050 -1.3674  0.5986 -0.5314
11277SOL    HW235273   4.341   6.614   8.194  0.3810 -2.1997 -1.5272
11278SOL     OW35274   4.760   7.754   8.503  0.1362 -0.8179 -0.0513
11278SOL    HW135275   4.671   7.755   8.468  0.0174  2.4280  0.0369
11278SOL    HW235276   4.815   7.759   8.425  0.1339 -0.2563 -0.0178
11279SOL     OW35277   4.279   0.766   8.452 -0.1009  0.2665  0.0811
11279SOL    HW135278   4.339   0.812   8.393 -0.5129  0.9142  0.1476
11279SOL    HW235279   4.197   0.815   8.443 -0.6213 -0.6086 -0.0201
11280SOL     OW35280   5.211   7.300   7.422  0.2464 -0.0728  0.2048
11280SOL    HW135281   5.154   7.309   7.346 -0.4602 -2.3212  0.3882
11280SOL    HW235282   5.182   7.369   7.481 -1.7542 -0.5786 -0.0829
11281SOL     OW35283   2.904   7.462   8.485  0.4573  0.5219 -0.0450
11281SOL    HW135284   2.945   7.392   8.536 -4.6740 -1.7984  1.5672
11281SOL    HW235285   2.894   7.534   8.547  2.1968  1.2460 -0.5531
11282SOL     OW35286   4.653   7.461   8.227  0.1004  0.5911  0.1834
11282SOL    HW135287   4.662   7.376   8.186 -0.1809  0.5459  0.2181
11282SOL    HW235288   4.737   7.474   8.273 -0.2564 -0.1526  1.0891
11283SOL     OW35289   4.604   6.374  10.948 -0.3112 -0.2988 -0.0178
11283SOL    HW135290   4.678   6.367  11.009 -0.6648  1.8034  0.7489
11283SOL    HW235291   4.535   6.322  10.988 -0.5166  1.0039  1.4195
11284SOL     OW35292   4.969   6.632  10.560  0.4653 -0.3923 -0.3825
11284SOL    HW135293   5.050   6.681  10.545  0.8705 -1.2368 -1.0592
11284SOL    HW235294   4.931   6.623  10.473 -0.6339  0.4518 -0.0014
11285SOL     OW35295   1.107   6.324   9.139 -1.1370  0.0237  0.3995
11285SOL    HW135296   1.192   6.298   9.174 -1.8080 -0.9267  1.3970
11285SOL    HW235297   1.076   6.392   9.198 -1.8849 -0.9706  1.1981
11286SOL     OW35298   2.919   0.080   8.063  0.2925 -0.4675 -0.1996
11286SOL    HW135299   2.913   0.125   7.978  0.5330  1.9395  0.9715
11286SOL    HW235300   2.891   0.146   8.127  0.6902 -2.0235  1.6658
11287SOL     OW35301   2.818   6.559   9.496  0.2765  0.3842  0.6597
11287SOL    HW135302   2.847   6.482   9.446  0.6361  0.2606  1.0522
11287SOL    HW235303   2.782   6.523   9.577 -0.4840  0.5727  0.4149
11288SOL     OW35304   4.156   6.537   6.430 -0.2836 -0.1734 -0.3414
11288SOL    HW135305   4.205   6.471   6.382 -0.9698 -1.0424  0.1148
11288SOL    HW235306   4.217   6.568   6.497  0.1880 -0.0174 -0.8369
11289SOL     OW35307   3.576   0.043   7.207  0.0395 -0.1283  0.1207
11289SOL    HW135308   3.533   0.121   7.172 -0.4349  0.3031  1.6069
11289SOL    HW235309   3.617   0.002   7.131 -0.3875  1.1325 -0.8154
11290SOL     OW35310   5.679   7.530   7.856  0.4220 -0.0485  0.2224
11290SOL    HW135311   5.646   7.443   7.834 -0.6290  0.6458 -1.0986
11290SOL    HW235312   5.645   7.547   7.944 -0.2595 -0.5486  0.0641
11291SOL     OW35313   3.267   7.895  10.343  0.0518  0.0036  0.0424
11291SOL    HW135314   3.254   7.800  10.350  0.1087  0.0537  0.8667
11291SOL    HW235315   3.216   7.920  10.266  0.5202 -0.7857 -0.5491
11292SOL     OW35316   5.699   0.143   8.917  0.3816  0.0552  0.9550
11292SOL    HW135317   5.643   0.084   8.967 -0.2283  1.1851  1.6459
11292SOL    HW235318   5.788   0.115   8.937  0.1101 -1.8978 -0.3168
11293SOL     OW35319   4.561   6.483   7.430 -0.0714 -0.4984  0.1169
11293SOL    HW135320   4.536   6.413   7.370 -0.4457  0.3588 -0.7507
11293SOL    HW235321   4.494   6.482   7.498 -0.2345 -0.7882 -0.0472
11294SOL     OW35322   3.998   6.849   8.698  0.0214 -0.1179  0.3847
11294SOL    HW135323   4.083   6.863   8.739  0.4056  1.2631 -0.7892
11294SOL    HW235324   4.017   6.803   8.616 -0.1888  1.2704 -0.4782
11295SOL     OW35325   3.609   5.650   7.428 -0.2694  0.3860 -0.3515
11295SOL    HW135326   3.528   5.657   7.378 -1.6246 -4.0291  0.7308
11295SOL    HW235327   3.580   5.643   7.519  1.5645  1.1020  0.3356
11296SOL     OW35328   2.523   5.252   6.612  0.4602  0.5133 -1.0275
11296SOL    HW135329   2.522   5.162   6.645  0.8273  1.1244  0.7553
11296SOL    HW235330   2.558   5.245   6.523  2.9176 -0.8488 -0.0358
11297SOL     OW35331   1.758   7.190   7.647 -0.2179  0.2066 -0.2484
11297SOL    HW135332   1.726   7.177   7.736 -0.5738  0.8562 -0.2823
11297SOL    HW235333   1.847   7.225   7.658  0.2177 -0.8868 -0.1578
11298SOL     OW35334   2.789   7.032  10.236 -0.1965  0.2573  0.2470
11298SOL    HW135335   2.732   7.105  10.259 -2.0408 -0.6152 -1.3001
11298SOL    HW235336   2.814   7.048  10.146 -1.6478 -1.5557 -0.5535
11299SOL     OW35337   1.281   6.557   5.392 -0.4836 -0.0844  0.1494
11299SOL    HW135338   1.332   6.489   5.348  0.7746  1.1511 -0.3759
11299SOL    HW235339   1.307   6.638   5.349 -1.7486  0.7759  0.9350
11300SOL     OW35340   3.361   7.224   8.841  0.3604 -0.2359 -0.0380
11300SOL    HW135341   3.345   7.249   8.932 -0.1265  0.6741 -0.3700
11300SOL    HW235342   3.390   7.305   8.798  1.0901 -0.7663 -0.5820
11301SOL     OW35343   2.237   6.086   7.517  0.1501  0.4869  0.9134
11301SOL    HW135344   2.274   6.001   7.540  1.5090  1.0646  0.9797
11301SOL    HW235345   2.191   6.071   7.435 -2.7106 -1.0772  2.6565
11302SOL     OW35346   5.042   7.504   9.267  0.0208 -0.2602  0.0049
11302SOL    HW135347   4.994   7.430   9.229  0.0335 -1.5041  2.2469
11302SOL    HW235348   4.993   7.526   9.346  0.8822  1.1718  0.1760
11303SOL     OW35349   3.884   4.825   0.023  0.2536  0.2888  0.6393
11303SOL    HW135350   3.968   4.817  -0.023 -0.6046  0.1789 -0.9951
11303SOL    HW235351   3.903   4.882   0.097  1.6442  0.7897 -0.0535
11304SOL     OW35352   5.328   7.699   7.941 -0.2033 -0.0405  0.0172
11304SOL    HW135353   5.366   7.753   8.010 -0.7341  1.1078 -0.5655
11304SOL    HW235354   5.384   7.715   7.864 -0.1784 -0.5731 -0.0832
11305SOL     OW35355   1.633   5.926   8.661  0.0067  0.9792  0.4743
11305SOL    HW135356   1.699   5.979   8.706  1.0049 -0.0521  0.2814
11305SOL    HW235357   1.665   5.836   8.670 -1.2718  0.4762  0.1784
11306SOL     OW35358   3.416   7.509   8.473  0.1307 -0.0159 -0.3538
11306SOL    HW135359   3.412   7.427   8.425 -0.6278 -0.2578  0.1013
11306SOL    HW235360   3.339   7.559   8.443  0.1637  0.2072 -0.0774
11307SOL     OW35361   4.349   7.701   7.175  0.1713  0.1365  0.2168
11307SOL    HW135362   4.291   7.778   7.177  0.6429  0.4924  0.8071
11307SOL    HW235363   4.329   7.655   7.256  0.1278 -0.1895  0.0209
11308SOL     OW35364   3.767   7.996   8.609  0.0082  0.0698  0.2839
11308SOL    HW135365   3.859   8.010   8.586 -0.3704  1.0465 -0.7090
11308SOL    HW235366   3.718   8.036   8.538 -1.1990 -0.3470  0.8547
11309SOL     OW35367   1.854   5.590   6.930 -0.4156 -0.6462  0.1764
11309SOL    HW135368   1.912   5.630   6.995 -1.2046 -0.4053  0.7422
11309SOL    HW235369   1.876   5.635   6.848 -0.7909  0.4598  0.6600
11310SOL     OW35370   4.689   6.296   9.197 -0.1232 -0.0383 -0.5766
11310SOL    HW135371   4.638   6.232   9.246 -0.0644 -2.0518 -2.9155
11310SOL    HW235372   4.632   6.372   9.188 -0.8668 -0.4042  0.8196
11311SOL     OW35373   2.698   6.996   9.737  0.5773  0.0883 -0.0878
11311SOL    HW135374   2.693   6.935   9.663  0.8735  0.6374 -0.5679
11311SOL    HW235375   2.616   7.046   9.732  0.4209 -0.1405  0.1894
11312SOL     OW35376   2.828   6.287   8.183  0.1253  0.1363 -0.0279
11312SOL    HW135377   2.817   6.199   8.145 -2.9251 -0.0276  0.9386
11312SOL    HW235378   2.840   6.344   8.108 -2.7270 -0.5752 -1.1620
11313SOL     OW35379   3.055   7.311   8.662  0.3233 -0.8202  0.0335
11313SOL    HW135380   3.085   7.385   8.715 -2.1725 -0.9470  1.7980
11313SOL    HW235381   3.032   7.243   8.726 -1.5107 -1.5106 -1.2822
11314SOL     OW35382   3.837   6.817   8.230  0.0696 -0.3073  0.3026
11314SOL    HW135383   3.927   6.848   8.219 -0.6437  1.6313 -0.6937
11314SOL    HW235384   3.799   6.878   8.293 -0.5462 -1.1365  0.7448
11315SOL     OW35385   4.410   5.573   8.267 -0.2118 -0.1500  0.4087
11315SOL    HW135386   4.445   5.566   8.178  1.4082 -1.4938  1.1094
11315SOL    HW235387   4.318   5.547   8.258  0.5488 -2.9218 -0.5280
11316SOL     OW35388   4.027   0.374   6.817  0.0737  0.0891  0.2312
11316SOL    HW135389   3.975   0.432   6.760 -1.2542 -0.5915  0.6972
11316SOL    HW235390   4.091   0.334   6.758  0.2670  1.1518 -0.3139
11317SOL     OW35391   4.695   6.304   9.546  0.1173  0.1692 -0.9633
11317SOL    HW135392   4.752   6.377   9.521  1.6194 -1.1264 -1.4991
11317SOL    HW235393   4.749   6.252   9.607 -1.3720  0.1348  0.3854
11318SOL     OW35394   2.630   7.932   9.484  0.1556 -0.2510  0.4488
11318SOL    HW135395   2.562   7.884   9.437  0.7650 -0.7045  0.0162
11318SOL    HW235396   2.711   7.885   9.464  0.6973  0.6873  0.4052
11319SOL     OW35397   2.788   5.417   6.202 -0.3007  0.1775  0.4118
11319SOL    HW135398   2.848   5.456   6.139  1.0526 -1.1140  0.8455
11319SOL    HW235399   2.844   5.378   6.268 -1.6445 -0.4404  1.2324
11320SOL     OW35400   3.040   7.858   8.819 -0.0959  0.4196 -0.4523
11320SOL    HW135401   3.022   7.951   8.804  1.5632  1.2542  1.9855
11320SOL    HW235402   3.134   7.850   8.800 -0.5773 -1.2902 -2.5195
11321SOL     OW35403   4.612   5.632   6.209 -0.3754  0.0727  0.2875
11321SOL    HW135404   4.580   5.544   6.190  0.8006 -0.5553  1.1518
11321SOL    HW235405   4.706   5.622   6.221  0.3989  1.9607 -2.8496
11322SOL     OW35406   1.831   0.126   7.900 -0.2632  0.6175  0.4236
11322SOL    HW135407   1.926   0.139   7.894 -0.2031  0.3720  0.7895
11322SOL    HW235408   1.821   0.042   7.943 -0.6426 -0.6428 -1.9584
11323SOL     OW35409   4.826   5.792   8.705 -0.1228 -0.4683  0.7009
11323SOL    HW135410   4.870   5.708   8.692  0.2415 -0.2893  0.7818
11323SOL    HW235411   4.830   5.835   8.620 -0.3287 -0.5366  0.6541
11324SOL     OW35412   1.496   6.119   8.131  0.2635 -0.2144  0.1139
11324SOL    HW135413   1.560   6.122   8.060 -0.0533 -1.0243 -0.2205
11324SOL    HW235414   1.547   6.094   8.208  0.7808  1.5840  0.4119
11325SOL     OW35415   2.988   6.439   8.350 -0.2483  0.0526 -0.2299
11325SOL    HW135416   2.942   6.409   8.272  1.3819  2.8409 -2.4520
11325SOL    HW235417   3.079   6.414   8.336 -0.1167 -0.6482  1.5344
11326SOL     OW35418   4.752   6.130   9.835 -0.1786  0.6493 -0.0906
11326SOL    HW135419   4.826   6.071   9.819 -0.7225  0.2877 -1.4619
11326SOL    HW235420   4.675   6.079   9.809 -0.8115  1.3954  0.2900
11327SOL     OW35421   0.546   5.816   9.469  0.1699  0.3226  0.2266
11327SOL    HW135422   0.508   5.812   9.381  1.8073  1.4070 -0.5835
11327SOL    HW235423   0.510   5.740   9.515 -1.6466  0.4040 -0.9880
11328SOL     OW35424   3.297   5.120   7.649 -0.1360  0.5433  0.0779
11328SOL    HW135425   3.260   5.107   7.562 -0.3604 -0.0646  0.2587
11328SOL    HW235426   3.247   5.192   7.686  0.0352  0.8784 -0.3375
11329SOL     OW35427   4.564   7.469   8.890 -0.3602  0.0933  0.1160
11329SOL    HW135428   4.641   7.460   8.833  1.0517  1.1704  1.7611
11329SOL    HW235429   4.557   7.384   8.933 -2.6773 -1.4856 -2.9706
11330SOL     OW35430   3.170   5.304   8.280  0.0873 -0.7952  0.4150
11330SOL    HW135431   3.091   5.251   8.283  0.0737 -0.7568  2.4903
11330SOL    HW235432   3.238   5.248   8.317  0.4580  0.0218  1.0035
11331SOL     OW35433   3.580   6.628   7.156 -0.6013  0.3183  0.0187
11331SOL    HW135434   3.653   6.651   7.214 -0.8505  0.4792  0.2754
11331SOL    HW235435   3.502   6.662   7.202 -0.6955  1.5031 -0.9610
11332SOL     OW35436   1.961   5.943   8.288  0.1785 -0.0065 -0.0660
11332SOL    HW135437   1.883   5.921   8.238  0.4734  0.3573 -0.7041
11332SOL    HW235438   1.996   6.021   8.245 -0.6423  1.5508  1.9183
11333SOL     OW35439   2.666   5.519   9.215 -0.8158 -0.0996 -0.1717
11333SOL    HW135440   2.658   5.551   9.305  1.8843 -1.6408  0.7336
11333SOL    HW235441   2.744   5.563   9.181 -0.1365 -1.6730 -0.7295
11334SOL     OW35442   2.373   0.946   7.585  0.1190  0.2524 -0.1501
11334SOL    HW135443   2.374   1.034   7.624  0.1085 -0.3510  1.2711
11334SOL    HW235444   2.447   0.946   7.525  1.1894  0.7071  1.1012
11335SOL     OW35445   0.461   7.234  10.678 -0.4151 -0.4816  0.2401
11335SOL    HW135446   0.449   7.230  10.583  1.6362 -0.5074 -0.0654
11335SOL    HW235447   0.544   7.189  10.694  0.0406  0.8421  1.8797
11336SOL     OW35448   2.291   6.784   9.453  0.9185 -0.0089  0.3762
11336SOL    HW135449   2.297   6.800   9.359 -0.2960  2.0171  0.5808
11336SOL    HW235450   2.283   6.872   9.492  0.3791 -0.8517  2.2850
11337SOL     OW35451   1.480   5.985   9.677 -0.2354 -0.0147 -0.0770
11337SOL    HW135452   1.389   5.970   9.652 -0.5542 -0.4479  1.2705
11337SOL    HW235453   1.502   5.910   9.732  0.5059  0.7795  0.7352
11338SOL     OW35454   2.620   7.661   9.590  0.0179 -0.3010 -0.3273
11338SOL    HW135455   2.650   7.587   9.642  1.6362  2.4427  3.0083
11338SOL    HW235456   2.587   7.724   9.654 -3.3615  1.1100 -3.1374
11339SOL     OW35457   3.715   0.096   9.585  0.5143 -0.0150  0.2065
11339SOL    HW135458   3.761   0.071   9.505 -0.6055 -2.3899  0.2054
11339SOL    HW235459   3.669   0.177   9.563 -0.5582 -1.1291 -1.9279
11340SOL     OW35460   3.564   7.586   9.013 -0.1111  0.3880 -0.0024
11340SOL    HW135461   3.646   7.608   8.969 -0.8272  2.1319 -0.5514
11340SOL    HW235462   3.588   7.580   9.106  0.4430  2.1653  0.0122
11341SOL     OW35463   3.355   6.594   7.884  0.3355 -0.3850 -0.0591
11341SOL    HW135464   3.423   6.536   7.917  0.0525 -0.7720 -0.1490
11341SOL    HW235465   3.376   6.605   7.791  1.5853  1.3343  0.3810
11342SOL     OW35466   2.924   0.327   9.918  0.9400  0.4626 -0.0089
11342SOL    HW135467   2.988   0.398   9.922  1.1056  0.4157 -1.2620
11342SOL    HW235468   2.913   0.311   9.824  0.3887 -0.7018  0.2416
11343SOL     OW35469   3.602   0.797   9.505 -0.0217 -0.2348 -0.2392
11343SOL    HW135470   3.588   0.761   9.418 -1.4052 -0.4085  0.0292
11343SOL    HW235471   3.520   0.842   9.526  0.6161  0.5729  0.6115
11344SOL     OW35472   2.881   7.692   8.677  0.3568 -0.2232 -0.4677
11344SOL    HW135473   2.916   7.624   8.735  1.5154  1.6294  1.1459
11344SOL    HW235474   2.934   7.770   8.696 -2.5725  1.9159 -0.2491
11345SOL     OW35475   1.952   6.525   9.349  0.2086 -0.1381  0.0421
11345SOL    HW135476   2.022   6.527   9.285  0.7284  1.2070  0.6352
11345SOL    HW235477   1.963   6.441   9.394  1.3550 -0.0052  0.0335
11346SOL     OW35478   3.667   7.239  10.495 -0.1637 -0.8214  0.8119
11346SOL    HW135479   3.705   7.165  10.448  0.3723 -1.2678  1.9031
11346SOL    HW235480   3.623   7.199  10.571 -0.4172 -0.0814  1.0581
11347SOL     OW35481   2.791   7.661  11.995  0.0051 -0.4266 -0.5880
11347SOL    HW135482   2.799   7.738  12.052 -0.3338 -0.0550 -1.0340
11347SOL    HW235483   2.715   7.614  12.028 -0.2656 -0.1457 -0.8096
11348SOL     OW35484   3.140   5.987  11.070  0.4029  0.1174  0.0947
11348SOL    HW135485   3.069   6.028  11.118  0.9930  1.9382 -0.4762
11348SOL    HW235486   3.127   6.016  10.979  1.9806  0.7476  0.0286
11349SOL     OW35487   3.555   0.522  10.734 -0.1807  0.2184 -0.0493
11349SOL    HW135488   3.643   0.524  10.697  0.6786  0.5013  1.8923
11349SOL    HW235489   3.561   0.459  10.807 -1.8806 -0.5901 -0.5449
11350SOL     OW35490   2.936   7.537   9.835 -0.3321  0.1706  0.9594
11350SOL    HW135491   3.000   7.541   9.905  1.3330  0.0914 -0.4881
11350SOL    HW235492   2.958   7.610   9.777 -1.1937 -0.1953  0.1359
11351SOL     OW35493   2.766   6.619  10.371 -0.4037 -0.1657 -0.3213
11351SOL    HW135494   2.687   6.610  10.423  0.3624 -0.1974  0.8686
11351SOL    HW235495   2.734   6.643  10.283 -1.7062  0.0853  0.1938
11352SOL     OW35496   1.926   0.029  12.111 -0.3844 -0.3190  0.2826
11352SOL    HW135497   1.893   0.060  12.195 -0.4490 -0.3702  0.2759
11352SOL    HW235498   1.970  -0.054  12.132 -0.4949 -0.3862  0.2485
11353SOL     OW35499   0.676   6.422  10.338 -0.1442  0.2477 -0.7382
11353SOL    HW135500   0.647   6.331  10.330 -0.3713  0.3773 -1.4235
11353SOL    HW235501   0.758   6.426  10.289  0.2523  0.2408 -0.0825
11354SOL     OW35502   1.834   0.478  11.156  0.2919  0.0760  0.3311
11354SOL    HW135503   1.768   0.415  11.185 -1.5834  1.6080 -0.3872
11354SOL    HW235504   1.891   0.489  11.232  0.4694 -2.1347  0.5999
11355SOL     OW35505   3.287   7.950  10.824  0.3193  0.5892 -0.1311
11355SOL    HW135506   3.247   7.957  10.737 -1.8910 -0.5150  0.7202
11355SOL    HW235507   3.315   7.858  10.829 -0.1821  0.4649  0.5412
11356SOL     OW35508   2.055   6.366   9.589  0.3649  0.5158  0.1457
11356SOL    HW135509   2.109   6.431   9.543 -0.4633  1.9739  1.1779
11356SOL    HW235510   2.052   6.397   9.679  1.9859 -2.2987  1.2886
11357SOL     OW35511   3.761   6.959   9.228  0.0076 -0.0278 -0.0916
11357SOL    HW135512   3.816   6.968   9.149 -2.7955 -1.2939 -2.3753
11357SOL    HW235513   3.677   6.928   9.195 -0.7904 -2.4931  3.6320
11358SOL     OW35514   4.123   0.196  10.933  0.1656  0.2517  0.3188
11358SOL    HW135515   4.133   0.121  10.874 -0.4299  0.4430 -0.0316
11358SOL    HW235516   4.194   0.186  10.996 -1.4043 -2.0840  1.8814
11359SOL     OW35517   4.009   7.210   8.663 -0.2986 -0.4150  0.4321
11359SOL    HW135518   3.984   7.238   8.575  2.5013  0.6017 -0.1512
11359SOL    HW235519   4.053   7.126   8.650 -0.3596 -0.5282  0.9444
11360SOL     OW35520   3.646   7.413  10.168 -0.1545  0.2170 -0.9975
11360SOL    HW135521   3.582   7.409  10.239  0.2878  0.2225 -0.5885
11360SOL    HW235522   3.626   7.337  10.114 -0.3537  0.0806 -0.7365
11361SOL     OW35523   3.021   1.007   9.940  0.0615  0.2869  0.1143
11361SOL    HW135524   3.060   0.921   9.923 -0.9338 -0.6574  2.2037
11361SOL    HW235525   3.088   1.054   9.988  0.2140  0.2834 -0.0929
11362SOL     OW35526   1.450   7.059  11.854  0.0560  0.2382 -0.1354
11362SOL    HW135527   1.415   7.142  11.820 -1.1875 -0.2428 -0.0959
11362SOL    HW235528   1.419   6.993  11.792 -0.1925 -0.3591  0.6109
11363SOL     OW35529   3.209   6.711   9.460  0.1633 -0.0802  0.2013
11363SOL    HW135530   3.213   6.711   9.556  2.0780  0.7405  0.1605
11363SOL    HW235531   3.296   6.739   9.432 -0.6698  0.7271 -1.7785
11364SOL     OW35532   1.885   6.212   9.429  0.0342  0.3204  0.3923
11364SOL    HW135533   1.819   6.188   9.495 -0.3616  0.9229  0.2228
11364SOL    HW235534   1.943   6.272   9.475  0.2833  0.0442  0.4448
11365SOL     OW35535   2.782   4.284  10.327 -0.2127  0.0882  0.3422
11365SOL    HW135536   2.698   4.329  10.331 -0.1405  0.4892 -1.5672
11365SOL    HW235537   2.764   4.196  10.360 -0.5541  1.1696  3.2951
11366SOL     OW35538   0.149   6.473  10.466 -0.2754  0.3147 -0.1113
11366SOL    HW135539   0.080   6.539  10.473  0.3539  1.1700 -1.5052
11366SOL    HW235540   0.126   6.423  10.387  0.3352  0.1705 -0.2023
11367SOL     OW35541   3.507   7.294  11.652  0.1297  0.2111 -0.4471
11367SOL    HW135542   3.445   7.344  11.704  1.4523  1.1386  0.2937
11367SOL    HW235543   3.532   7.352  11.580 -2.6384 -1.4978 -3.0143
11368SOL     OW35544   2.204   1.687   9.080  0.1492  0.2972  0.3118
11368SOL    HW135545   2.299   1.699   9.088 -0.0925  1.6916  1.5269
11368SOL    HW235546   2.189   1.680   8.986  1.5619 -1.0857  0.1380
11369SOL     OW35547   2.900   7.074   9.095 -0.0724  0.6231 -0.2447
11369SOL    HW135548   2.910   6.985   9.060  2.1757  0.3797  0.8251
11369SOL    HW235549   2.819   7.106   9.056  0.4889 -0.8688 -2.9258
11370SOL     OW35550   4.596   6.678  11.912  0.2049  0.2305 -0.6833
11370SOL    HW135551   4.595   6.732  11.834  1.4447  0.2660 -0.7041
11370SOL    HW235552   4.571   6.591  11.882 -1.1876  0.6425 -0.7617
11371SOL     OW35553   5.987   7.278   8.285  0.2168  0.0581  0.2592
11371SOL    HW135554   6.008   7.333   8.209  1.2090  1.9272  1.8102
11371SOL    HW235555   6.044   7.310   8.355 -0.4328 -1.8221  1.7405
11372SOL     OW35556   3.992   0.310   9.078  0.2065  0.1349  0.1124
11372SOL    HW135557   4.061   0.349   9.132 -0.1487 -1.2346  1.6490
11372SOL    HW235558   3.910   0.343   9.115 -0.0163  0.1114 -0.3535
11373SOL     OW35559   3.999   5.182   9.548 -0.2398  0.0291 -0.1367
11373SOL    HW135560   4.014   5.088   9.552 -0.5176 -0.0004  0.2129
11373SOL    HW235561   3.921   5.197   9.601  0.7404  0.6690  1.1767
11374SOL     OW35562   6.214   7.274   9.526 -0.2235 -0.1384  0.1823
11374SOL    HW135563   6.121   7.288   9.510 -0.3020 -0.4349  0.3560
11374SOL    HW235564   6.219   7.183   9.555  0.2732 -0.5160 -1.0333
11375SOL     OW35565   1.712   5.520   9.372 -0.1508  0.2384  0.4758
11375SOL    HW135566   1.745   5.470   9.298  1.0152 -0.1544  1.2362
11375SOL    HW235567   1.785   5.575   9.399 -0.7253  0.7538  1.0148
11376SOL     OW35568   2.172   4.680  10.681  0.1457  0.3351 -0.1102
11376SOL    HW135569   2.106   4.654  10.617 -0.5076  0.2686  0.5748
11376SOL    HW235570   2.235   4.732  10.631  0.0187 -0.2946 -0.9368
11377SOL     OW35571   1.511   5.568  10.482 -0.5640  0.4509  0.5120
11377SOL    HW135572   1.590   5.597  10.436 -0.9787  0.8605  0.0531
11377SOL    HW235573   1.475   5.647  10.520 -1.4460  0.4772 -0.3468
11378SOL     OW35574   2.258   6.950  10.829 -0.6214  0.1938 -0.7360
11378SOL    HW135575   2.247   6.858  10.807  2.1489 -0.4044 -0.0076
11378SOL    HW235576   2.291   6.950  10.919 -1.4270  1.9719 -0.3847
11379SOL     OW35577   5.955   7.896   9.648 -0.0576  0.6033 -0.0825
11379SOL    HW135578   5.921   7.812   9.616 -0.1541  0.8791 -0.7329
11379SOL    HW235579   5.886   7.959   9.627 -0.7225  0.5993  1.9320
11380SOL     OW35580   1.975   6.260  10.650  0.3938  0.4568  0.1273
11380SOL    HW135581   1.887   6.230  10.626  0.2571  0.6973  0.3275
11380SOL    HW235582   2.002   6.201  10.720  0.9302 -0.4676 -0.8200
11381SOL     OW35583   0.935   7.469   0.371 -0.2337 -0.4838 -0.1816
11381SOL    HW135584   0.981   7.414   0.434  0.2714  0.4984  0.3330
11381SOL    HW235585   0.843   7.465   0.397  0.1258  0.9517  1.4671
11382SOL     OW35586   4.913   7.430   8.874 -0.0334 -0.6423  0.8242
11382SOL    HW135587   4.871   7.513   8.852  0.6088 -0.4635  0.2359
11382SOL    HW235588   4.997   7.433   8.828 -0.0988 -1.7179  0.6136
11383SOL     OW35589   4.723   7.176  12.050 -0.2446 -0.3252 -0.4436
11383SOL    HW135590   4.749   7.265  12.075  0.5347 -1.2930  2.4938
11383SOL    HW235591   4.642   7.160  12.098 -1.4776 -0.5811 -2.4882
11384SOL     OW35592   3.568   5.231  11.412  0.3203 -0.1371 -0.3627
11384SOL    HW135593   3.502   5.169  11.443  1.0270 -0.5794  0.3023
11384SOL    HW235594   3.579   5.292  11.486  1.7273 -0.9583  0.1422
11385SOL     OW35595   4.868   6.059   0.233  0.0393 -0.0264  0.3339
11385SOL    HW135596   4.949   6.058   0.285  2.1341  0.0891 -2.6891
11385SOL    HW235597   4.857   6.151   0.208 -1.6800  0.1402  1.5112
11386SOL     OW35598   3.165   7.416   9.350 -0.0415 -0.4573  0.0360
11386SOL    HW135599   3.151   7.503   9.312  1.7444 -1.5271 -3.5540
11386SOL    HW235600   3.097   7.362   9.311  0.2277 -1.1089  0.4660
11387SOL     OW35601   3.185   1.441   7.782 -0.0296 -0.3251  0.2799
11387SOL    HW135602   3.212   1.362   7.736  1.5730  0.0450  0.5188
11387SOL    HW235603   3.258   1.461   7.840  0.2519  2.1407 -0.8000
11388SOL     OW35604   3.644   0.376  10.939  0.2706 -0.8943 -0.9292
11388SOL    HW135605   3.726   0.329  10.920  0.7753 -0.1928 -0.5339
11388SOL    HW235606   3.594   0.315  10.993  1.2691 -0.7113  0.2791
11389SOL     OW35607   2.281   7.610  10.330 -0.3290  0.0221  0.3892
11389SOL    HW135608   2.187   7.595  10.330 -0.3105 -0.1761 -0.6178
11389SOL    HW235609   2.319   7.522  10.323  0.0302 -0.1479  3.1196
11390SOL     OW35610   2.886   0.175   9.650  0.0022 -0.0186 -0.1050
11390SOL    HW135611   2.920   0.226   9.577 -0.6051  0.7174  0.1186
11390SOL    HW235612   2.964   0.140   9.693  0.4544  1.0117 -0.0532
11391SOL     OW35613   4.296   6.896  11.442  0.2541 -0.4694 -0.1321
11391SOL    HW135614   4.388   6.872  11.444  0.2320 -0.5775  2.2843
11391SOL    HW235615   4.286   6.961  11.512 -1.1546  1.0360 -1.6150
11392SOL     OW35616   1.535   6.957  10.090  0.7736  0.7027  0.6467
11392SOL    HW135617   1.483   6.956  10.170 -1.8332  2.0509 -0.9262
11392SOL    HW235618   1.494   6.892  10.033  1.0770  1.4882 -0.4979
11393SOL     OW35619   4.138   0.271   8.148 -0.6212 -0.0238  0.2092
11393SOL    HW135620   4.195   0.203   8.183 -0.5408 -0.2929 -0.4191
11393SOL    HW235621   4.194   0.348   8.141 -0.4963 -0.1153  0.1870
11394SOL     OW35622   4.530   5.809  11.028 -0.4369  0.1901 -0.1516
11394SOL    HW135623   4.545   5.817  10.934 -1.7223  0.8299 -0.3356
11394SOL    HW235624   4.531   5.715  11.045 -1.1316  0.0206 -0.9846
11395SOL     OW35625   1.236   7.452   8.657  0.5347 -0.2567  0.1016
11395SOL    HW135626   1.234   7.547   8.661 -0.6607 -0.3015  1.2007
11395SOL    HW235627   1.154   7.428   8.614  1.1580 -0.7843 -0.8386
11396SOL     OW35628   4.288   1.319   9.260  0.2707 -0.7900 -0.3273
11396SOL    HW135629   4.262   1.382   9.327  0.3207 -0.3967 -0.6705
11396SOL    HW235630   4.272   1.233   9.299 -0.0451 -0.5607  0.0479
11397SOL     OW35631   2.707   6.343  10.098 -0.0489  0.0151  0.0788
11397SOL    HW135632   2.698   6.311  10.187 -0.2838  1.9448  0.7839
11397SOL    HW235633   2.672   6.431  10.100 -2.1675 -0.6416 -2.4533
11398SOL     OW35634   2.469   0.672  10.315 -0.3833  0.1237 -0.2516
11398SOL    HW135635   2.413   0.647  10.389 -1.2680  0.8124 -0.6572
11398SOL    HW235636   2.531   0.600  10.306 -0.8532 -0.4069  0.5735
11399SOL     OW35637   1.773   7.312  10.292 -0.0623  0.0389  0.0392
11399SOL    HW135638   1.849   7.282  10.343 -1.3248 -2.1496  0.7883
11399SOL    HW235639   1.733   7.380  10.347 -0.0036 -0.5390  0.8210
11400SOL     OW35640   2.001   7.766   9.441 -0.7349  0.2517  0.0330
11400SOL    HW135641   2.096   7.756   9.449 -0.6540 -0.3074 -1.2702
11400SOL    HW235642   1.967   7.677   9.454 -0.8173 -0.1103 -2.1547
11401SOL     OW35643   2.308   7.668   9.791  0.1087  0.6876  0.0315
11401SOL    HW135644   2.342   7.584   9.822 -2.4176  0.3669  2.3003
11401SOL    HW235645   2.355   7.733   9.843  1.3595  0.6863 -1.0354
11402SOL     OW35646   4.723   5.664  10.670 -0.6243 -0.0554 -0.1429
11402SOL    HW135647   4.679   5.738  10.712 -1.5715 -0.8390  0.2729
11402SOL    HW235648   4.736   5.600  10.740 -2.6507 -1.5812 -1.0476
11403SOL     OW35649   1.225   6.055  11.573  0.1137  0.0161  0.2779
11403SOL    HW135650   1.309   6.013  11.595 -0.0868 -0.3183  0.4077
11403SOL    HW235651   1.207   6.111  11.647  0.1489 -0.0242  0.3172
11404SOL     OW35652   2.427   0.393   0.299  0.3737  0.2009  0.2873
11404SOL    HW135653   2.376   0.377   0.379 -1.1842 -1.0164 -0.9039
11404SOL    HW235654   2.427   0.488   0.290 -0.5845  0.2853  1.0164
11405SOL     OW35655   2.035   6.840   9.608  0.4070  0.2727 -0.6135
11405SOL    HW135656   1.983   6.768   9.646 -0.1389  0.9625 -0.0320
11405SOL    HW235657   2.090   6.797   9.543  0.0137 -0.6669 -0.3504
11406SOL     OW35658   3.170   0.272   8.918  0.4631 -0.0223  0.4393
11406SOL    HW135659   3.233   0.204   8.941  0.3247 -0.1345  0.4904
11406SOL    HW235660   3.096   0.224   8.881  0.3050  0.0869  0.6104
11407SOL     OW35661   2.263   4.580   8.318  0.4289  0.2864 -0.0312
11407SOL    HW135662   2.208   4.658   8.327  0.5907  0.6735 -2.0093
11407SOL    HW235663   2.345   4.604   8.361  0.6119  1.3768 -0.9402
11408SOL     OW35664   2.008   5.779   8.521  0.5903  0.1508 -0.6352
11408SOL    HW135665   2.042   5.724   8.451 -1.2000  0.9963 -2.2731
11408SOL    HW235666   1.983   5.861   8.478 -0.1450  0.8919  1.0758
11409SOL     OW35667   4.719   5.863  11.243  0.3369 -0.2609  0.1877
11409SOL    HW135668   4.788   5.862  11.176 -0.2644 -2.3787 -0.4464
11409SOL    HW235669   4.638   5.879  11.194  0.0028 -0.9156  0.5199
11410SOL     OW35670   4.002   6.006   9.592 -0.0490  0.0669 -0.4014
11410SOL    HW135671   4.042   5.946   9.529  1.0434 -0.8713  1.1149
11410SOL    HW235672   3.942   5.951   9.642 -0.4770  0.6769 -0.2318
11411SOL     OW35673   3.544   5.417   9.308 -0.2981  0.1004 -0.4935
11411SOL    HW135674   3.501   5.503   9.300  0.4533  0.5893  0.5592
11411SOL    HW235675   3.473   5.358   9.336 -0.8703  0.3098 -1.4474
11412SOL     OW35676   2.582   5.580  11.313  0.2935  0.0320  0.2114
11412SOL    HW135677   2.596   5.525  11.235  2.4909  0.2471  0.3837
11412SOL    HW235678   2.563   5.517  11.383 -0.3297 -0.2636 -0.2124
11413SOL     OW35679   2.679   0.428  10.764 -0.1615 -0.1944 -0.3315
11413SOL    HW135680   2.725   0.356  10.807  1.1352  0.3289 -0.7967
11413SOL    HW235681   2.589   0.420  10.794  0.4857 -0.4398  1.7078
11414SOL     OW35682   3.043   6.290  11.673 -0.4962  0.2450 -0.1222
11414SOL    HW135683   3.048   6.345  11.595 -1.1102 -0.1772 -0.4710
11414SOL    HW235684   2.967   6.323  11.721  0.5972  1.2968  0.9355
11415SOL     OW35685   5.073   6.461   9.698 -0.1337 -0.4025  0.1240
11415SOL    HW135686   5.065   6.525   9.769 -0.1818  0.6208 -0.7640
11415SOL    HW235687   5.139   6.399   9.728  1.0157  0.9151  0.4211
11416SOL     OW35688   1.393   7.090   9.258  0.1747 -0.3009  0.5209
11416SOL    HW135689   1.470   7.126   9.214 -0.3349  0.4427  0.2192
11416SOL    HW235690   1.366   7.017   9.203  0.8819 -0.8053  0.8314
11417SOL     OW35691   1.467   5.746  10.159 -0.0362  0.3167 -0.0353
11417SOL    HW135692   1.440   5.820  10.213  2.3962  0.3131  1.3341
11417SOL    HW235693   1.537   5.704  10.209  0.6857 -1.1577 -2.1321
11418SOL     OW35694   3.745   6.462  12.342  0.4189 -0.0384  0.3832
11418SOL    HW135695   3.777   6.373  12.326 -2.2618 -1.1739  0.7909
11418SOL    HW235696   3.653   6.460  12.313  0.6999  3.0965 -1.1516
11419SOL     OW35697   2.748   7.465   8.256 -0.0387 -0.1148 -0.6507
11419SOL    HW135698   2.818   7.496   8.198 -0.5364 -0.0542 -1.2290
11419SOL    HW235699   2.787   7.467   8.344 -0.2171  2.7970 -0.5422
11420SOL     OW35700   3.358   5.190   8.067 -0.4755 -0.0206  0.0821
11420SOL    HW135701   3.369   5.119   8.003 -0.2001 -0.0600  0.1720
11420SOL    HW235702   3.381   5.150   8.151  0.3324  0.3502  0.0432
11421SOL     OW35703   2.141   0.605  10.773 -0.1624  0.1486 -0.0610
11421SOL    HW135704   2.061   0.623  10.822  0.0171 -0.6305  0.5339
11421SOL    HW235705   2.170   0.519  10.804 -1.1563 -1.3923 -3.0250
11422SOL     OW35706   3.819   5.373   9.358 -0.0586  0.0684 -0.1815
11422SOL    HW135707   3.845   5.284   9.337  0.0386 -0.4790  2.0527
11422SOL    HW235708   3.729   5.380   9.326  0.1909 -0.5546 -1.0578
11423SOL     OW35709   3.403   5.887  10.656  0.0305  0.0262 -0.0925
11423SOL    HW135710   3.497   5.886  10.672  0.3926 -1.6492 -1.8936
11423SOL    HW235711   3.376   5.977  10.672  1.4759  0.0484  2.7205
11424SOL     OW35712   1.753   6.170   9.178 -0.3821  0.4049  0.1579
11424SOL    HW135713   1.823   6.199   9.238 -1.4858  1.5795  0.9284
11424SOL    HW235714   1.717   6.251   9.143 -0.8543 -0.2283 -0.8429
11425SOL     OW35715   5.002   0.251  11.150 -0.1334 -0.5984 -0.6097
11425SOL    HW135716   5.063   0.264  11.078  1.1092 -0.0706  0.4891
11425SOL    HW235717   5.004   0.157  11.166  1.5304 -0.4417  0.3209
11426SOL     OW35718   1.798   5.667  10.716 -0.5882 -0.0963  0.0507
11426SOL    HW135719   1.741   5.595  10.690  0.5728 -0.4609 -1.5743
11426SOL    HW235720   1.879   5.625  10.743  0.0007  0.5738 -0.6431
11427SOL     OW35721   3.904   5.881  11.063 -0.0881 -0.0619 -0.1995
11427SOL    HW135722   3.983   5.840  11.028 -0.6752 -0.2348 -1.3593
11427SOL    HW235723   3.849   5.897  10.986 -0.9980  0.4561  0.5412
11428SOL     OW35724   2.232   7.763  10.972 -0.1006  0.3687 -0.6470
11428SOL    HW135725   2.160   7.768  10.910 -0.5189  0.8027 -0.1314
11428SOL    HW235726   2.269   7.851  10.972 -1.9423  1.2377  1.8793
11429SOL     OW35727   4.294   6.413  10.755 -0.2142  0.0998 -0.2982
11429SOL    HW135728   4.282   6.464  10.676 -1.3867  1.1589  0.5329
11429SOL    HW235729   4.230   6.342  10.748 -0.0088 -0.0686 -0.4933
11430SOL     OW35730   3.646   0.181  10.141  0.5526 -0.2363  0.6770
11430SOL    HW135731   3.679   0.175  10.051 -0.5342 -0.4912  0.2868
11430SOL    HW235732   3.675   0.099  10.181 -0.1797 -0.7747  0.1320
11431SOL     OW35733   2.792   5.536  10.331  0.6011  0.1921  0.2072
11431SOL    HW135734   2.709   5.531  10.379 -0.5279  1.5249 -1.4744
11431SOL    HW235735   2.853   5.576  10.393 -0.5362  0.9471  0.8833
11432SOL     OW35736   3.382   7.684  10.799  0.2316 -0.3073  0.0235
11432SOL    HW135737   3.459   7.662  10.851  0.8978 -1.9420 -1.5191
11432SOL    HW235738   3.360   7.602  10.754 -0.8478  0.7734 -1.5307
11433SOL     OW35739   2.207   7.375  10.682  1.0044  0.5581  0.7030
11433SOL    HW135740   2.169   7.367  10.770  0.5318  0.2743  0.4765
11433SOL    HW235741   2.195   7.288  10.643  1.4528  0.6078  0.4552
11434SOL     OW35742   3.486   6.357  11.578  0.7351  0.1753  0.0967
11434SOL    HW135743   3.419   6.345  11.510 -0.7396  0.2000  1.5068
11434SOL    HW235744   3.469   6.287  11.641  0.9715  1.2018  1.3252
11435SOL     OW35745   3.028   7.091  11.536 -0.0349  0.0701 -0.5798
11435SOL    HW135746   3.097   7.147  11.502 -0.5400  0.2056 -1.4133
11435SOL    HW235747   3.068   7.047  11.611  0.7314  0.6611 -0.6258
11436SOL     OW35748   2.640   5.341   9.805 -0.1675 -0.7641  0.0386
11436SOL    HW135749   2.576   5.289   9.755  0.0650 -1.0597  0.0422
11436SOL    HW235750   2.707   5.364   9.741 -1.1853  1.1366 -0.4092
11437SOL     OW35751   2.997   7.116  11.164  0.7875 -0.0422  0.2351
11437SOL    HW135752   2.955   7.093  11.082  1.6633 -0.2795 -0.1542
11437SOL    HW235753   2.928   7.107  11.230 -0.7889  3.0976 -0.8040
11438SOL     OW35754   1.785   7.734  11.620 -0.1848 -0.1298 -0.1891
11438SOL    HW135755   1.697   7.756  11.651  0.2050  1.0611  0.1389
11438SOL    HW235756   1.842   7.800  11.661  0.6478  0.0890 -1.6292
11439SOL     OW35757   1.487   7.740  10.138 -0.2337 -0.3050  0.2019
11439SOL    HW135758   1.550   7.691  10.086 -0.5953  0.7813 -1.3565
11439SOL    HW235759   1.402   7.701  10.116 -0.3646 -0.0194  0.1983
11440SOL     OW35760   1.830   4.048   8.961 -0.3754  0.1838  0.5361
11440SOL    HW135761   1.766   4.043   8.890 -0.0554 -0.4540  0.2712
11440SOL    HW235762   1.833   4.140   8.985 -1.0986  0.2792  0.2858
11441SOL     OW35763   0.568   6.163  10.668 -0.6110 -0.2229  0.2690
11441SOL    HW135764   0.561   6.190  10.759 -1.4188  0.4027  0.0269
11441SOL    HW235765   0.543   6.240  10.618  0.3344 -0.4012 -0.4988
11442SOL     OW35766   4.092   6.343  11.512 -0.2793  0.4549  0.1347
11442SOL    HW135767   4.161   6.369  11.450  0.2552  2.5124  1.4872
11442SOL    HW235768   4.086   6.248  11.502  1.1307  0.4827 -1.6667
11443SOL     OW35769   2.145   5.943  10.240 -0.1999 -0.1534 -0.3745
11443SOL    HW135770   2.205   5.988  10.299 -1.0950 -0.8722  1.1547
11443SOL    HW235771   2.195   5.932  10.159  1.6828 -0.5656  0.7617
11444SOL     OW35772   2.767   5.690  10.125  0.6697  0.2009  0.4357
11444SOL    HW135773   2.792   5.642  10.203  0.1457 -0.0133  0.4770
11444SOL    HW235774   2.800   5.636  10.052  1.6209  0.6635  0.5067
11445SOL     OW35775   1.441   6.679   9.102 -0.0740 -0.3503  0.0976
11445SOL    HW135776   1.383   6.613   9.140 -0.8461 -0.3520 -1.0174
11445SOL    HW235777   1.446   6.656   9.009 -1.0670  1.6141 -0.5072
11446SOL     OW35778   3.489   5.571   9.953 -0.1172  0.4506  0.3499
11446SOL    HW135779   3.497   5.482   9.986 -0.7997  0.0293 -0.5904
11446SOL    HW235780   3.463   5.561   9.862 -3.6406  1.6089  1.0806
11447SOL     OW35781   2.755   5.828  11.544 -0.5642 -0.0268  0.1535
11447SOL    HW135782   2.826   5.767  11.527  0.6916  1.3031  0.3678
11447SOL    HW235783   2.770   5.900  11.483 -1.2423  0.6541  0.7661
11448SOL     OW35784   0.512   5.721  12.111 -0.3560 -0.7937  0.2388
11448SOL    HW135785   0.504   5.678  12.025  0.6299  0.6723 -0.6398
11448SOL    HW235786   0.424   5.720  12.147 -0.7724 -1.5382 -0.7564
11449SOL     OW35787   4.860   7.183   8.507  0.2961  0.1603  0.5847
11449SOL    HW135788   4.929   7.250   8.507  0.4504  0.0410  2.2079
11449SOL    HW235789   4.831   7.179   8.415  2.9877 -0.3699 -0.3261
11450SOL     OW35790   3.884   7.584   9.182 -0.1190  0.0907  0.0857
11450SOL    HW135791   3.851   7.639   9.253  1.0238  0.7356  0.1365
11450SOL    HW235792   3.856   7.630   9.102  1.2910  1.0822  0.1221
11451SOL     OW35793   3.990   6.416   8.558  0.1602  0.0282  0.1413
11451SOL    HW135794   3.935   6.388   8.485 -0.0708  0.3190  0.2022
11451SOL    HW235795   4.052   6.344   8.569  0.0184 -0.1459 -0.1575
11452SOL     OW35796   0.603   5.072   8.301  0.2715 -0.1366  0.2560
11452SOL    HW135797   0.615   4.999   8.241  1.2080 -0.5746  0.9605
11452SOL    HW235798   0.580   5.032   8.384 -0.5446  0.4454  0.3240
11453SOL     OW35799   0.010   0.592  10.624  0.1613  0.5595  0.4773
11453SOL    HW135800  -0.078   0.615  10.595  0.2560 -0.6256 -0.9049
11453SOL    HW235801  -0.003   0.529  10.695 -0.1267  0.0268 -0.0382
11454SOL     OW35802   4.461   7.727   8.931  0.5042 -0.2376  0.3324
11454SOL    HW135803   4.373   7.718   8.968 -0.7486 -1.4972 -2.6757
11454SOL    HW235804   4.476   7.646   8.884  1.8364  1.3140 -2.0929
11455SOL     OW35805   4.000   0.858  11.125  0.0156  0.2162  0.3258
11455SOL    HW135806   3.975   0.890  11.212 -0.8197  0.9476 -0.1690
11455SOL    HW235807   4.025   0.937  11.077 -2.5402  0.2662 -1.0687
11456SOL     OW35808   3.335   6.245  10.278  0.0138  0.2089 -0.3066
11456SOL    HW135809   3.414   6.200  10.307 -0.1324 -0.2770 -0.6611
11456SOL    HW235810   3.352   6.268  10.187 -0.6862 -0.9116 -0.7479
11457SOL     OW35811   4.202   6.216   9.664 -0.2919  0.2597 -0.1211
11457SOL    HW135812   4.156   6.139   9.632 -2.0876  1.4430 -0.5097
11457SOL    HW235813   4.282   6.219   9.611 -0.7469 -0.6823 -0.8967
11458SOL     OW35814   3.133   5.628   9.358  0.0126  0.3662 -0.1924
11458SOL    HW135815   3.102   5.561   9.419  0.2809  0.9444  0.5902
11458SOL    HW235816   3.166   5.698   9.414  0.4084  0.8405 -1.0073
11459SOL     OW35817   3.321   7.098  11.911 -0.1771 -0.4201  0.6816
11459SOL    HW135818   3.409   7.132  11.894  0.3988 -1.5450  1.2525
11459SOL    HW235819   3.296   7.138  11.994  0.4719 -1.2750  1.3183
11460SOL     OW35820   4.726   7.042  11.275  0.8384  0.8504  0.3256
11460SOL    HW135821   4.683   7.042  11.190  0.5515  0.4724  0.4649
11460SOL    HW235822   4.805   6.990  11.263  0.5750  0.4256  0.3927
11461SOL     OW35823   2.424   6.314  11.107  0.5106 -0.8043 -0.2852
11461SOL    HW135824   2.427   6.405  11.138 -0.5817 -0.7133 -0.4257
11461SOL    HW235825   2.456   6.320  11.017 -0.5532 -0.3795 -0.6533
11462SOL     OW35826   2.953   5.950   9.154 -0.1290  0.6777 -0.3934
11462SOL    HW135827   2.878   5.945   9.094  0.1721 -0.8945 -0.6823
11462SOL    HW235828   2.968   6.044   9.165 -2.7539  1.0914  0.4721
11463SOL     OW35829   4.337   7.418  11.834 -1.0025 -0.2969 -0.5554
11463SOL    HW135830   4.390   7.371  11.770 -0.4546 -0.8755  0.3010
11463SOL    HW235831   4.339   7.509  11.805 -1.9279 -0.7480 -2.1454
11464SOL     OW35832   3.677   0.372  10.337  0.1256 -0.1664  0.1111
11464SOL    HW135833   3.688   0.302  10.273 -0.1775 -0.5986  0.5288
11464SOL    HW235834   3.659   0.327  10.420 -0.0265  0.4004  0.3925
11465SOL     OW35835   4.273   0.339   8.825 -0.4405 -0.0193  0.0625
11465SOL    HW135836   4.283   0.350   8.730 -0.0903 -0.5028  0.0391
11465SOL    HW235837   4.204   0.400   8.849  0.5718  1.3012 -0.2548
11466SOL     OW35838   2.090   5.358   9.982 -0.4010  0.0004 -0.0423
11466SOL    HW135839   2.105   5.319  10.068  0.6067  1.2040  0.3640
11466SOL    HW235840   2.176   5.355   9.939 -0.2756  1.7346  0.0225
11467SOL     OW35841   3.162   5.473  11.521 -0.4178 -0.4506 -0.4207
11467SOL    HW135842   3.171   5.393  11.572  1.0094  0.6947  1.2616
11467SOL    HW235843   3.225   5.463  11.449  2.4606  0.4788  1.7538
11468SOL     OW35844   3.843   5.490  10.233 -0.1472 -0.4144  0.5755
11468SOL    HW135845   3.833   5.407  10.280 -0.2299 -0.0653  1.1835
11468SOL    HW235846   3.920   5.476  10.178 -0.8848 -1.3242 -0.2732
11469SOL     OW35847   0.923   0.245  10.637  0.5074 -0.7245  0.2617
11469SOL    HW135848   0.953   0.313  10.577 -1.2215  0.4513  0.6220
11469SOL    HW235849   0.901   0.293  10.717  0.6661 -1.9383  1.0444
11470SOL     OW35850   1.873   0.588   9.481 -0.4099 -0.2215  0.1203
11470SOL    HW135851   1.854   0.576   9.574  0.7472 -1.2164  0.2490
11470SOL    HW235852   1.968   0.598   9.477 -0.2219 -2.0199 -1.1097
11471SOL     OW35853   1.180   7.126   9.426 -0.0919  0.4660  0.1084
11471SOL    HW135854   1.244   7.094   9.363 -0.6971 -1.1460  0.2420
11471SOL    HW235855   1.166   7.052   9.485  0.1406  1.7925  1.8969
11472SOL     OW35856   1.593   7.232  12.102  0.1560  0.6460 -0.1674
11472SOL    HW135857   1.517   7.284  12.127 -0.8229  0.4983 -2.5303
11472SOL    HW235858   1.561   7.176  12.031  1.8480 -1.2926  0.5121
11473SOL     OW35859   1.810   6.983  10.246 -0.2765 -0.1053  0.0838
11473SOL    HW135860   1.895   7.009  10.284 -0.3234  0.3050 -0.0804
11473SOL    HW235861   1.830   6.904  10.195 -0.0964 -0.3131  0.4735
11474SOL     OW35862   2.012   7.522   0.445 -0.0725  0.0093 -0.0244
11474SOL    HW135863   1.994   7.435   0.479 -1.5187  0.1066 -0.4668
11474SOL    HW235864   1.981   7.520   0.354  0.0236  0.9230 -0.0918
11475SOL     OW35865   3.192   1.044  11.931 -0.3469  0.1012  0.2167
11475SOL    HW135866   3.221   0.999  12.011  0.0893  0.0985  0.0576
11475SOL    HW235867   3.147   0.976  11.881 -2.3117  0.5265  1.2953
11476SOL     OW35868   2.858   7.291   9.916  0.1355  0.4426  0.0245
11476SOL    HW135869   2.898   7.373   9.887  0.0909  0.8945  1.2026
11476SOL    HW235870   2.923   7.251   9.974  0.7437 -1.0581 -1.5764
11477SOL     OW35871   2.636   7.763  10.803  0.3029  0.0624  0.2263
11477SOL    HW135872   2.557   7.769  10.749  0.0839  0.0870  0.5481
11477SOL    HW235873   2.663   7.672  10.795  0.4782  0.1507 -0.2159
11478SOL     OW35874   2.691   7.641  10.057 -0.3746  0.5133  0.3072
11478SOL    HW135875   2.698   7.581   9.984 -1.1840 -0.3341  0.9103
11478SOL    HW235876   2.599   7.670  10.057 -0.4445  0.3273  1.1106
11479SOL     OW35877   1.641   6.773   9.579 -0.2041  0.1940  0.0127
11479SOL    HW135878   1.575   6.745   9.642 -0.8071 -1.2311 -1.1832
11479SOL    HW235879   1.599   6.844   9.530 -1.1547 -1.1284 -1.1693
11480SOL     OW35880   2.701   0.652  11.957  0.0741  0.1721 -0.1996
11480SOL    HW135881   2.773   0.657  12.019  0.3467  0.1903 -0.5172
11480SOL    HW235882   2.696   0.559  11.934 -0.1821  0.1267  0.0280
11481SOL     OW35883   5.254   7.148   9.281  0.2721  0.2395  0.2637
11481SOL    HW135884   5.236   7.221   9.222 -0.9960  1.2572  1.8211
11481SOL    HW235885   5.181   7.088   9.267 -0.0023  0.4577  0.7130
11482SOL     OW35886   1.654   7.016  11.438  0.3838  0.3376 -0.3381
11482SOL    HW135887   1.699   7.088  11.484  1.4118 -0.2378 -0.4145
11482SOL    HW235888   1.603   6.972  11.506 -0.8758  1.5746 -0.4271
11483SOL     OW35889   3.010   7.403  11.803 -0.2767 -0.1806 -0.1671
11483SOL    HW135890   3.002   7.479  11.861  1.7333 -0.1162  0.1191
11483SOL    HW235891   3.059   7.436  11.728 -0.4705 -0.9035 -0.6147
11484SOL     OW35892   3.423   7.221   9.123 -0.4401 -0.1876 -0.2644
11484SOL    HW135893   3.479   7.191   9.195 -0.0684  2.2147  0.5625
11484SOL    HW235894   3.337   7.185   9.142  0.0982 -1.2500  0.2500
11485SOL     OW35895   3.916   7.297  11.764 -0.0404 -0.1146 -0.1526
11485SOL    HW135896   3.886   7.318  11.676  1.5361  0.1109 -0.6704
11485SOL    HW235897   3.897   7.204  11.775 -1.7139  0.2057 -0.0871
11486SOL     OW35898   3.266   6.967  11.109 -0.6451  0.2751  0.0320
11486SOL    HW135899   3.262   7.046  11.163 -0.2591 -0.0793  0.5915
11486SOL    HW235900   3.207   6.985  11.036 -0.8546  0.9283  0.3522
11487SOL     OW35901   1.864   5.303  11.995 -0.2565 -0.1048  0.7381
11487SOL    HW135902   1.916   5.231  11.960 -0.9599 -0.6328  0.7549
11487SOL    HW235903   1.926   5.374  12.006  0.0324  0.0555 -1.4750
11488SOL     OW35904   2.158   7.295  12.195  0.8175 -0.1352  0.0142
11488SOL    HW135905   2.136   7.205  12.173  0.6681  0.2487 -1.5655
11488SOL    HW235906   2.254   7.299  12.190  0.7529  0.4331 -3.0302
11489SOL     OW35907   2.470   7.451   9.885 -0.3052  0.2578 -0.5117
11489SOL    HW135908   2.549   7.426   9.837  1.5362  2.0915  1.3666
11489SOL    HW235909   2.491   7.434   9.977 -2.1514  0.7531  0.0586
11490SOL     OW35910   4.190   7.732   9.393 -0.0943 -0.3990  0.6287
11490SOL    HW135911   4.231   7.818   9.391 -0.7978 -0.0095 -2.6943
11490SOL    HW235912   4.262   7.671   9.401  0.6540  0.4464  0.5310
11491SOL     OW35913   3.428   7.251  10.316 -0.1129 -0.0800  0.0263
11491SOL    HW135914   3.386   7.184  10.371 -0.5921 -0.8244 -1.2102
11491SOL    HW235915   3.520   7.248  10.341 -0.0483 -1.5304 -0.3138
11492SOL     OW35916   3.815   6.105  11.182 -0.6209 -0.4001 -0.2433
11492SOL    HW135917   3.839   6.018  11.151  1.1508 -0.3511  0.8507
11492SOL    HW235918   3.841   6.163  11.111  2.6482 -0.3676  0.8023
11493SOL     OW35919   4.191   5.512  11.408 -0.0953 -0.0134 -0.0825
11493SOL    HW135920   4.214   5.604  11.419  0.4802 -0.0825 -0.6457
11493SOL    HW235921   4.111   5.513  11.356  1.7901  0.1233 -3.2033
11494SOL     OW35922   4.779   1.614   8.563 -0.3599 -0.4061  0.4524
11494SOL    HW135923   4.791   1.671   8.487 -0.5889  0.1539  0.8210
11494SOL    HW235924   4.704   1.559   8.541  0.2568 -0.9976 -0.1626
11495SOL     OW35925   4.175   6.971  12.263 -0.4517 -0.3484 -0.2111
11495SOL    HW135926   4.145   6.934  12.180 -0.5385  1.3198 -0.9645
11495SOL    HW235927   4.269   6.955  12.265 -0.3112  0.3376 -1.0406
11496SOL     OW35928   1.196   5.999   9.992 -0.3205 -0.1928  0.0643
11496SOL    HW135929   1.261   5.951  10.044 -1.4419 -0.6666  1.0771
11496SOL    HW235930   1.134   5.933   9.963 -0.6872  0.3347 -0.3779
11497SOL     OW35931   2.665   7.201   9.039  0.3288 -0.0295  0.1272
11497SOL    HW135932   2.642   7.135   8.973 -1.0611 -1.6901  2.1316
11497SOL    HW235933   2.600   7.270   9.027  0.3547 -0.1057 -0.5012
11498SOL     OW35934   3.689   6.357   8.778 -0.3533 -0.4017 -0.0724
11498SOL    HW135935   3.612   6.378   8.725  0.9443  0.4691 -1.7086
11498SOL    HW235936   3.752   6.427   8.759  0.9625 -1.2207  1.0047
11499SOL     OW35937   5.115   6.653   0.539 -0.5742  0.0437 -0.1595
11499SOL    HW135938   5.195   6.607   0.514  0.0343  1.2207 -0.4803
11499SOL    HW235939   5.092   6.704   0.462 -0.9349  0.6633  0.3453
11500SOL     OW35940   3.502   5.573   8.911  0.2284  0.1317  0.6477
11500SOL    HW135941   3.422   5.576   8.964 -0.9201  0.7995 -1.0463
11500SOL    HW235942   3.524   5.480   8.908  0.5515  0.1081  2.5723
11501SOL     OW35943   4.549   6.515   9.746 -0.0984  0.1919  0.0952
11501SOL    HW135944   4.617   6.459   9.784 -0.3669 -0.0960  0.1518
11501SOL    HW235945   4.541   6.483   9.655 -0.8773 -0.4566  0.3785
11502SOL     OW35946   1.628   7.911  10.815  0.9087 -0.6018 -0.0118
11502SOL    HW135947   1.664   7.910  10.904  2.1876  0.5737 -0.4742
11502SOL    HW235948   1.557   7.975  10.819  0.4482 -1.1258  0.3339
11503SOL     OW35949   2.151   1.322  11.379 -0.8417 -0.0088  0.6289
11503SOL    HW135950   2.233   1.354  11.343 -2.1164  3.9963  0.8528
11503SOL    HW235951   2.090   1.323  11.304 -1.4166 -0.0278  1.0911
11504SOL     OW35952   3.346   6.154   9.188 -0.2962 -0.4594 -0.3009
11504SOL    HW135953   3.437   6.138   9.213  0.1746  1.9895 -0.2260
11504SOL    HW235954   3.332   6.098   9.111  1.3451 -0.7092 -0.4514
11505SOL     OW35955   2.983   0.309   9.447  0.2110 -0.0372  0.3708
11505SOL    HW135956   2.891   0.299   9.423  0.4713 -1.8046 -0.0803
11505SOL    HW235957   3.026   0.337   9.366  0.3733 -1.3424 -0.0156
11506SOL     OW35958   3.232   6.519  10.359  0.8536 -0.2082 -0.3729
11506SOL    HW135959   3.212   6.439  10.311 -0.2073 -0.1998  0.0414
11506SOL    HW235960   3.286   6.490  10.433 -0.7542 -0.7926  0.6363
11507SOL     OW35961   3.113   6.818   8.725 -0.2461 -0.3625  0.3292
11507SOL    HW135962   3.205   6.810   8.749 -0.4123  1.5364  1.7550
11507SOL    HW235963   3.112   6.806   8.630  1.9191  2.4625 -0.1715
11508SOL     OW35964   1.344   6.847   9.918 -0.3564 -0.4717 -0.4000
11508SOL    HW135965   1.310   6.779   9.861  0.9312 -0.4156 -1.2732
11508SOL    HW235966   1.398   6.901   9.861 -0.0275  0.3047  0.6264
11509SOL     OW35967   1.453   0.086  11.264  0.5701 -0.3941 -0.0911
11509SOL    HW135968   1.486   0.018  11.323 -1.4239 -0.3100  1.2175
11509SOL    HW235969   1.419   0.038  11.189  0.4178 -0.7613  0.2072
11510SOL     OW35970   1.243   6.009  10.936 -0.2260  0.1409 -0.3284
11510SOL    HW135971   1.194   5.933  10.968 -0.1404 -0.3930 -1.4080
11510SOL    HW235972   1.253   6.066  11.012 -3.6872  0.9336 -0.3040
11511SOL     OW35973   2.647   7.467   9.323 -0.6310  0.0431  0.4463
11511SOL    HW135974   2.663   7.405   9.394 -0.7290 -0.6775 -0.1410
11511SOL    HW235975   2.566   7.510   9.346 -0.0733  0.6490  1.3374
11512SOL     OW35976   4.865   6.567   0.028 -0.4815 -0.3173  0.3206
11512SOL    HW135977   4.804   6.560  -0.045 -0.1161 -0.2843  0.0102
11512SOL    HW235978   4.949   6.589  -0.013 -0.2925 -0.2247  0.7550
11513SOL     OW35979   1.927   7.147   9.000  0.2799  0.0698 -0.8737
11513SOL    HW135980   2.021   7.147   8.980  0.6181 -0.4043  0.6057
11513SOL    HW235981   1.905   7.054   9.009  0.0860  0.2302  0.5367
11514SOL     OW35982   3.152   6.252  10.880  0.4350  0.0808 -0.7018
11514SOL    HW135983   3.222   6.286  10.935 -0.8292  0.6814  0.5836
11514SOL    HW235984   3.126   6.326  10.826 -1.4134  0.8805  1.1635
11515SOL     OW35985   3.541   7.850   9.112  0.2295 -0.2269 -0.1339
11515SOL    HW135986   3.465   7.850   9.169  1.2709  2.1188  1.4237
11515SOL    HW235987   3.506   7.863   9.024 -1.1698  1.2583  0.5979
11516SOL     OW35988   4.861   0.006   9.669  0.5230 -0.1952 -0.3763
11516SOL    HW135989   4.795   0.075   9.667  1.6122  0.9754  1.2586
11516SOL    HW235990   4.875  -0.017   9.577 -1.7995 -0.1921 -0.7948
11517SOL     OW35991   1.605   0.025   0.327  0.4021 -0.7326  0.3548
11517SOL    HW135992   1.559  -0.042   0.276 -1.3577 -1.2086  2.4041
11517SOL    HW235993   1.632   0.090   0.263 -2.0286 -1.0940 -1.1481
11518SOL     OW35994   2.141   7.921  10.064  0.6703 -0.2842 -0.3523
11518SOL    HW135995   2.217   7.931  10.122 -0.7989  0.4484  1.5557
11518SOL    HW235996   2.139   8.003  10.014 -0.6866  1.1818  1.9617
11519SOL     OW35997   2.199   7.486  11.013  0.2736 -0.5440 -0.1335
11519SOL    HW135998   2.117   7.474  10.965 -0.4967 -0.1349  1.0366
11519SOL    HW235999   2.228   7.574  10.989  0.5482 -0.8108 -0.7974
11520SOL     OW36000   2.211   5.729  10.395  0.1560 -0.9438 -0.6531
11520SOL    HW136001   2.177   5.800  10.342  1.0264 -0.4447 -0.5662
11520SOL    HW236002   2.302   5.719  10.366  0.5608 -0.8466  0.5407
11521SOL     OW36003   3.757   6.339  10.705 -0.3048 -0.2415 -0.4168
11521SOL    HW136004   3.719   6.284  10.637  1.0870  0.0872 -1.5210
11521SOL    HW236005   3.789   6.416  10.659 -0.9213  0.8546  0.8912
11522SOL     OW36006   3.632   6.165  10.052 -0.3362  0.2510  0.3635
11522SOL    HW136007   3.655   6.249  10.013 -0.2257 -0.8129 -2.0425
11522SOL    HW236008   3.536   6.162  10.048 -0.2763 -0.5711 -1.6067
11523SOL     OW36009   4.110   6.465  10.300  0.1353 -0.4844 -0.3601
11523SOL    HW136010   4.096   6.372  10.317  0.4371 -0.2055  1.7106
11523SOL    HW236011   4.189   6.487  10.350 -0.0293  0.9262 -0.6783
11524SOL     OW36012   3.245   6.840   9.807  0.0553  0.4573  0.2768
11524SOL    HW136013   3.150   6.830   9.806  0.1870 -1.1984  0.5549
11524SOL    HW236014   3.263   6.907   9.742 -1.3730  1.6291  1.0343
11525SOL     OW36015   4.284   6.773   8.526  0.3964 -0.8290 -0.3728
11525SOL    HW136016   4.203   6.742   8.485 -0.7389 -0.3539  1.3926
11525SOL    HW236017   4.348   6.776   8.455 -1.4867  0.0775 -2.0964
11526SOL     OW36018   3.596   6.512  11.058 -0.0168 -0.3073 -0.7091
11526SOL    HW136019   3.506   6.482  11.073 -0.3319  0.1435 -1.6212
11526SOL    HW236020   3.638   6.505  11.143 -0.9003 -0.5973 -0.2854
11527SOL     OW36021   4.371   6.813  10.317  0.2661  0.2859 -0.0503
11527SOL    HW136022   4.363   6.859  10.234 -0.7707 -1.3370 -0.9148
11527SOL    HW236023   4.294   6.840  10.368 -0.7379 -0.9491 -0.8408
11528SOL     OW36024   4.303   5.761  11.459  0.2440 -0.1191  0.4220
11528SOL    HW136025   4.358   5.823  11.411 -1.8948  1.0422 -0.6720
11528SOL    HW236026   4.282   5.806  11.541  0.3694 -0.2797  0.5431
11529SOL     OW36027   3.515   5.515  11.447  0.0020 -1.0672  0.7445
11529SOL    HW136028   3.490   5.504  11.355 -1.8010 -1.4463  1.2324
11529SOL    HW236029   3.594   5.569  11.444 -1.6015  1.3967 -0.9316
11530SOL     OW36030   3.097   7.000  12.208  0.2384  0.0306  0.0736
11530SOL    HW136031   3.141   6.995  12.293  0.7447  0.2127 -0.1714
11530SOL    HW236032   3.158   7.048  12.153  0.7010 -1.5737 -0.8835
11531SOL     OW36033   1.288   7.561  10.052  0.0722  0.2005 -0.2933
11531SOL    HW136034   1.226   7.492  10.077  0.0528 -0.0564 -1.0227
11531SOL    HW236035   1.307   7.543   9.960  2.4625 -0.6944  0.3177
11532SOL     OW36036   0.829   5.862  11.683  0.1087 -0.5191  0.0662
11532SOL    HW136037   0.767   5.871  11.756  1.0127 -1.5592  1.0074
11532SOL    HW236038   0.861   5.951  11.668 -0.4358 -0.2139  0.6369
11533SOL     OW36039   3.177   5.855  11.520  1.1419 -0.6449 -0.0668
11533SOL    HW136040   3.121   5.786  11.485 -0.1414  0.0439  0.5244
11533SOL    HW236041   3.187   5.834  11.613 -1.2294  1.1119  0.6997
11534SOL     OW36042   0.777   6.848  10.485 -0.2415 -0.0053  0.2197
11534SOL    HW136043   0.743   6.846  10.396 -0.0020 -0.6129  0.1381
11534SOL    HW236044   0.854   6.792  10.483  0.8645  1.4403  0.3726
11535SOL     OW36045   4.655   1.094  10.808  0.0129 -0.4668  0.0584
11535SOL    HW136046   4.657   1.044  10.890  0.7495  0.2601  0.5062
11535SOL    HW236047   4.726   1.057  10.755  0.5109  0.0276  0.3609
11536SOL     OW36048   2.299   7.045   9.532  0.3380  0.0627  0.0412
11536SOL    HW136049   2.314   7.059   9.625  0.1830  1.0778 -0.0803
11536SOL    HW236050   2.362   7.102   9.488 -0.3449  0.4350 -0.4727
11537SOL     OW36051   5.151   6.753   9.069  0.8031  0.3072 -0.3054
11537SOL    HW136052   5.203   6.832   9.054  0.4360  0.5677 -0.2263
11537SOL    HW236053   5.210   6.694   9.116  0.9585  0.6804 -0.0212
11538SOL     OW36054   3.566   0.117  10.827  0.6547  0.4107  0.1247
11538SOL    HW136055   3.476   0.136  10.855  0.6826  0.4748  0.1731
11538SOL    HW236056   3.586   0.032  10.865 -0.1955 -0.7158 -1.7776
11539SOL     OW36057   3.991   6.280   8.855  0.0916  0.3618 -0.3927
11539SOL    HW136058   3.924   6.320   8.800  1.1012  0.1575 -1.8449
11539SOL    HW236059   3.965   6.188   8.861  0.0307  0.3636 -0.6198
11540SOL     OW36060   2.764   6.409   9.785 -0.5121  0.2068  0.3380
11540SOL    HW136061   2.728   6.333   9.831 -1.8922  1.2933  1.1315
11540SOL    HW236062   2.784   6.472   9.854  1.1936  0.3617 -0.2590
11541SOL     OW36063   2.152   0.351  11.665  0.1145 -0.0956 -0.1316
11541SOL    HW136064   2.151   0.339  11.759  1.3289  0.4181 -0.0319
11541SOL    HW236065   2.062   0.334  11.637 -0.3874  0.2956  1.1820
11542SOL     OW36066   3.047   5.517  11.788  0.7903  0.4732 -0.1344
11542SOL    HW136067   3.024   5.591  11.844 -1.2693  0.4830 -0.9013
11542SOL    HW236068   3.101   5.555  11.719  1.2031  0.9259  0.4275
11543SOL     OW36069   3.641   6.642   8.279  0.0964 -0.3763  0.2722
11543SOL    HW136070   3.599   6.700   8.343 -0.3570 -0.8442  0.4035
11543SOL    HW236071   3.717   6.692   8.248 -1.0536  0.8640 -0.6480
11544SOL     OW36072   3.590   4.896   9.994  0.1676 -0.4956  0.1165
11544SOL    HW136073   3.601   4.834   9.923  0.0842 -0.1914 -0.1618
11544SOL    HW236074   3.533   4.850  10.057  1.2183 -1.2310  0.5635
11545SOL     OW36075   3.792   7.746   8.980 -0.2344  0.1455  0.0432
11545SOL    HW136076   3.868   7.804   8.969 -0.9031  0.8983 -0.6954
11545SOL    HW236077   3.717   7.805   8.986 -0.7053 -0.5650  1.5305
11546SOL     OW36078   3.781   6.661   7.949  0.4325 -0.1322  0.5501
11546SOL    HW136079   3.717   6.732   7.959  0.1162  0.2041 -2.7834
11546SOL    HW236080   3.728   6.581   7.952 -0.2061  0.1302 -1.8480
11547SOL     OW36081   2.377   6.967  11.087  0.2022 -0.1421  0.2423
11547SOL    HW136082   2.431   7.042  11.113  0.3947 -0.1109 -0.2260
11547SOL    HW236083   2.388   6.903  11.158  1.6701 -0.5423 -0.2933
11548SOL     OW36084   1.754   5.297  11.523  0.1197 -0.4978 -0.2643
11548SOL    HW136085   1.748   5.304  11.619  0.1725  0.1654 -0.3019
11548SOL    HW236086   1.729   5.384  11.492 -1.3432 -1.1146 -0.9273
11549SOL     OW36087   1.389   6.660   9.689  0.4209  0.0707  0.5824
11549SOL    HW136088   1.318   6.606   9.723 -0.8167  1.1537 -0.1853
11549SOL    HW236089   1.469   6.609   9.705 -0.6476 -1.7355  0.3467
11550SOL     OW36090   3.045   7.209   0.043  0.2222  0.5198 -0.1686
11550SOL    HW136091   3.090   7.294   0.038  0.3806  0.3975 -0.8528
11550SOL    HW236092   3.095   7.152  -0.015 -0.2685  0.1268 -0.2106
11551SOL     OW36093   4.080   6.252  10.700  0.2051 -0.1889  0.0012
11551SOL    HW136094   4.055   6.235  10.609  0.8472  0.1636 -0.2508
11551SOL    HW236095   4.011   6.211  10.752 -1.8051  2.1425 -0.6434
11552SOL     OW36096   3.071   6.684  11.496 -0.1430 -0.3115  0.1444
11552SOL    HW136097   2.980   6.702  11.475 -0.1915  0.6459  1.0909
11552SOL    HW236098   3.078   6.700  11.590  0.7808 -1.3349  0.2823
11553SOL     OW36099   3.181   5.223  11.061 -0.0956  0.2224 -0.2553
11553SOL    HW136100   3.267   5.181  11.053 -0.5552 -1.1573  1.4959
11553SOL    HW236101   3.142   5.214  10.974  0.2074 -2.1959 -0.2128
11554SOL     OW36102   3.838   7.059  12.240  0.2528 -0.2408  0.1560
11554SOL    HW136103   3.840   6.964  12.231  0.3598 -0.1491 -0.9230
11554SOL    HW236104   3.916   7.090  12.195 -0.8725  0.4722 -1.3819
11555SOL     OW36105   2.715   6.409  11.227 -0.0274 -0.0271  0.0389
11555SOL    HW136106   2.690   6.336  11.170  0.2644 -0.1330  0.0409
11555SOL    HW236107   2.805   6.429  11.201 -0.6987  1.5360 -1.2169
11556SOL     OW36108   2.351   5.938   0.561 -0.1685  0.0983  0.3873
11556SOL    HW136109   2.287   5.941   0.490 -0.8444  0.3016  0.9836
11556SOL    HW236110   2.402   6.018   0.552 -0.5919  0.3741  0.4386
11557SOL     OW36111   3.154   3.561  11.916 -0.1600  0.0120  0.2810
11557SOL    HW136112   3.208   3.624  11.964 -1.3755  0.6876  0.8110
11557SOL    HW236113   3.096   3.615  11.863 -0.1025 -0.7034 -0.5348
11558SOL     OW36114   2.805   0.527  10.531  0.1054 -0.2662  0.6498
11558SOL    HW136115   2.800   0.475  10.612 -1.6805 -0.6780  0.3189
11558SOL    HW236116   2.748   0.603  10.548 -0.4075 -0.4324 -0.2555
11559SOL     OW36117   2.931   6.055  12.142  0.4379 -0.1251  0.0558
11559SOL    HW136118   2.859   6.011  12.188  0.9047  0.2321  1.1592
11559SOL    HW236119   2.919   6.148  12.161  0.3114  0.1057 -1.0456
11560SOL     OW36120   3.112   5.214  11.552 -0.2405  0.0833 -0.3434
11560SOL    HW136121   3.026   5.172  11.548  0.2865 -0.9720 -1.0580
11560SOL    HW236122   3.157   5.185  11.473  0.6135  0.9959 -0.2119
11561SOL     OW36123   2.691   5.486  10.851  0.3502  0.4478 -0.0844
11561SOL    HW136124   2.710   5.567  10.805 -2.3433  1.4581  0.3868
11561SOL    HW236125   2.710   5.417  10.787  1.4458  1.4859 -0.9359
11562SOL     OW36126   3.247   4.686  10.302 -0.2949  0.0227 -0.6294
11562SOL    HW136127   3.255   4.753  10.234 -0.4559  0.2650 -0.4075
11562SOL    HW236128   3.153   4.671  10.310 -0.3141  0.4124 -0.0517
11563SOL     OW36129   3.163   7.162   9.180  0.5472 -0.3678  0.0835
11563SOL    HW136130   3.090   7.155   9.118 -1.4645  1.1026  2.1139
11563SOL    HW236131   3.144   7.098   9.248  1.8157 -0.7795  0.0792
11564SOL     OW36132   2.904   7.606   0.115  0.0536  0.8673  0.3268
11564SOL    HW136133   2.962   7.683   0.111  1.3787  0.0461  2.0203
11564SOL    HW236134   2.877   7.603   0.207 -0.2449 -0.4954  0.2047
11565SOL     OW36135   3.464   5.773  11.584 -0.1203  0.0287  0.0289
11565SOL    HW136136   3.438   5.700  11.528  0.0769  0.4849 -0.6690
11565SOL    HW236137   3.450   5.850  11.530 -0.9325  0.5728  0.9737
11566SOL     OW36138   2.416   5.389  11.873 -0.5227 -0.0260 -0.1648
11566SOL    HW136139   2.483   5.421  11.933 -1.8333  0.2088  1.2373
11566SOL    HW236140   2.460   5.322  11.820  0.8338  0.2195  0.6168
11567SOL     OW36141   2.510   5.989   9.895  0.0768 -0.7461 -0.1552
11567SOL    HW136142   2.605   5.985   9.905  0.3190  2.2773 -0.2273
11567SOL    HW236143   2.476   5.989   9.984  0.2922 -0.2002 -0.0668
11568SOL     OW36144   1.865   6.111  12.371  0.2602 -0.6985  0.1467
11568SOL    HW136145   1.950   6.100  12.413  0.4563  0.2603  0.0244
11568SOL    HW236146   1.849   6.028  12.327  2.1219 -0.2170 -1.5760
11569SOL     OW36147   4.231   5.466  11.696 -0.0642  0.2456 -0.4873
11569SOL    HW136148   4.185   5.520  11.632  1.0753  1.4068 -0.3717
11569SOL    HW236149   4.188   5.485  11.779 -1.4333 -1.1324 -0.8352
11570SOL     OW36150   1.182   0.368   0.220  0.6067 -0.2416  0.8394
11570SOL    HW136151   1.166   0.274   0.213  0.0977 -0.0240 -2.4511
11570SOL    HW236152   1.272   0.379   0.189  0.5458  0.3917  0.8701
11571SOL     OW36153   3.727   6.676  12.011 -0.3860  0.0559 -0.2113
11571SOL    HW136154   3.661   6.616  12.045 -0.4028  0.3810  0.3457
11571SOL    HW236155   3.678   6.738  11.958 -0.7387  1.1127  1.2917
11572SOL     OW36156   3.374   6.694  12.262  0.0792  0.4151  0.2826
11572SOL    HW136157   3.428   6.746  12.202 -1.0632  1.3004 -0.0139
11572SOL    HW236158   3.412   6.709  12.348 -0.7280  2.5009  0.3438
11573SOL     OW36159   3.052   5.230   0.044  1.1118  0.7838 -0.3338
11573SOL    HW136160   3.032   5.315   0.084 -0.8593  0.4444 -0.4832
11573SOL    HW236161   3.000   5.168   0.094 -0.3774  0.1634 -2.5125
11574SOL     OW36162   2.594   5.902  10.994  0.3033 -0.4371 -0.1983
11574SOL    HW136163   2.572   5.877  10.904  2.0798  2.3035 -1.5112
11574SOL    HW236164   2.669   5.846  11.016  1.5506  0.6553 -1.4855
11575SOL     OW36165   2.357   6.459  12.186  0.1380  0.4533 -0.5773
11575SOL    HW136166   2.298   6.534  12.196 -0.2909  0.1171 -0.5184
11575SOL    HW236167   2.305   6.384  12.217  0.8944  0.2674  0.2863
11576SOL     OW36168   3.155   0.713  10.511  0.6482 -0.1242  0.5306
11576SOL    HW136169   3.087   0.677  10.455 -0.2386 -0.6599  1.9033
11576SOL    HW236170   3.237   0.700  10.462 -0.1015 -0.4106 -0.6832
11577SOL     OW36171   3.127   6.605  12.339  0.0785 -0.0941  0.0568
11577SOL    HW136172   3.215   6.634  12.315 -0.1494  0.0726 -0.5858
11577SOL    HW236173   3.078   6.607  12.257 -0.4382 -0.5011  0.3554
11578SOL     OW36174   4.251   6.451  11.298 -0.1701 -0.1970  0.3311
11578SOL    HW136175   4.202   6.533  11.304  0.2863  0.2223 -1.2333
11578SOL    HW236176   4.335   6.476  11.262  0.2688 -1.2662  0.5788
11579SOL     OW36177   1.135   6.099  11.949 -0.0403 -0.0932 -0.1021
11579SOL    HW136178   1.136   6.147  11.866 -1.6753  0.0348 -0.0679
11579SOL    HW236179   1.139   6.168  12.016 -0.3193 -0.1088 -0.0679
11580SOL     OW36180   3.147   7.398  11.010 -0.3073  0.2823  0.0004
11580SOL    HW136181   3.119   7.306  11.018  2.2639 -0.6779 -0.7998
11580SOL    HW236182   3.147   7.414  10.916 -0.6025  1.0823  0.1313
11581SOL     OW36183   0.707   5.038  10.034 -0.0104 -0.0738  0.0176
11581SOL    HW136184   0.660   4.984   9.971  0.3242 -0.7104  0.3097
11581SOL    HW236185   0.709   4.986  10.114  1.0189  0.0277  0.0696
11582SOL     OW36186   2.245   4.139   0.148  0.1365 -0.5469 -0.5566
11582SOL    HW136187   2.239   4.226   0.109  0.3144 -0.4981 -0.4775
11582SOL    HW236188   2.242   4.156   0.242  0.2452 -0.6202 -0.5403
11583SOL     OW36189   4.209   7.471  12.443 -0.4856 -0.0046 -1.3398
11583SOL    HW136190   4.180   7.381  12.426 -0.5878 -0.2492  0.0072
11583SOL    HW236191   4.224   7.473  12.537  1.5498  0.8036 -1.6347
11584SOL     OW36192   2.363   6.378  11.695 -0.1942  0.3956 -0.4606
11584SOL    HW136193   2.453   6.345  11.695 -0.4675 -0.3982 -1.6741
11584SOL    HW236194   2.365   6.453  11.637 -0.5213 -0.2761 -1.3648
11585SOL     OW36195   5.202   5.542  11.871 -0.0148  0.1440  0.1285
11585SOL    HW136196   5.135   5.602  11.904  1.0334  0.6300  1.4526
11585SOL    HW236197   5.193   5.547  11.775 -1.7707  0.2732  0.2677
11586SOL     OW36198   1.405   5.815  10.611 -0.0850 -0.7351 -0.0070
11586SOL    HW136199   1.371   5.746  10.668  2.0673 -1.4505  0.4876
11586SOL    HW236200   1.447   5.877  10.670 -1.0262  0.4613 -0.5445
11587SOL     OW36201   2.829   7.262  11.616  0.2494  0.1954  0.3774
11587SOL    HW136202   2.888   7.334  11.638  2.6506 -1.2839 -0.7820
11587SOL    HW236203   2.887   7.190  11.592 -1.9913 -0.8229 -2.6652
11588SOL     OW36204   3.842   1.438  10.196  0.3820  0.2090 -0.1698
11588SOL    HW136205   3.807   1.448  10.284  0.3920  0.5040 -0.1967
11588SOL    HW236206   3.911   1.505  10.190  1.6229 -0.9927  0.2110
11589SOL     OW36207   3.667   5.965  10.911  0.4104 -0.3765  0.4716
11589SOL    HW136208   3.743   5.966  10.852 -0.1975 -1.6465 -0.3702
11589SOL    HW236209   3.633   6.055  10.907 -0.7195 -0.8183 -2.6263
11590SOL     OW36210   1.982   6.390  10.147 -0.3208  0.6064  0.1697
11590SOL    HW136211   2.039   6.381  10.223  0.5562 -3.0639 -0.6800
11590SOL    HW236212   2.037   6.432  10.081  0.2972  0.1719  0.3907
11591SOL     OW36213   3.225   3.466  11.154  0.4131 -0.6678 -0.3864
11591SOL    HW136214   3.307   3.439  11.112  0.5500 -0.9928  0.0820
11591SOL    HW236215   3.176   3.511  11.085  0.1965 -2.0812 -1.1891
11592SOL     OW36216   1.881   5.498   1.366 -0.0962  0.3840  0.3193
11592SOL    HW136217   1.954   5.516   1.424 -0.2596  0.8105  0.4005
11592SOL    HW236218   1.824   5.439   1.415 -1.7133  2.9914  1.8194
11593SOL     OW36219   3.793   7.273  11.142  0.1038 -0.3496 -0.0495
11593SOL    HW136220   3.846   7.352  11.144  0.4755 -0.5813 -0.7604
11593SOL    HW236221   3.721   7.291  11.203  1.1819 -0.1810  1.2287
11594SOL     OW36222   2.587   7.955  11.212  0.4534  0.2882 -0.1856
11594SOL    HW136223   2.508   7.950  11.159  0.2452  0.3162  0.1233
11594SOL    HW236224   2.658   7.964  11.148  0.4482 -2.0394 -0.5986
11595SOL     OW36225   2.455   5.648   0.159  0.1905 -0.0235 -0.0548
11595SOL    HW136226   2.375   5.664   0.109 -0.0976 -0.3362  0.2984
11595SOL    HW236227   2.462   5.552   0.162 -1.4908 -0.1811  3.0992
11596SOL     OW36228   4.556   5.882  12.044  0.1585 -0.5441  0.1948
11596SOL    HW136229   4.505   5.857  11.967  0.5545 -0.6850 -0.0291
11596SOL    HW236230   4.559   5.978  12.040 -0.5393 -0.5035  0.5120
11597SOL     OW36231   2.051   4.271  10.997 -0.4182 -0.0395  0.0910
11597SOL    HW136232   1.988   4.340  11.014 -1.9568 -1.3947  0.0922
11597SOL    HW236233   2.086   4.291  10.910 -1.8335  0.0332 -0.4824
11598SOL     OW36234   3.157   5.984   9.598 -0.5577  0.3562  0.0455
11598SOL    HW136235   3.083   6.039   9.621 -1.7882 -1.4199  0.5592
11598SOL    HW236236   3.146   5.966   9.505 -0.2856  0.7894 -0.0705
11599SOL     OW36237   4.179   5.985  10.742 -0.3036  0.2731 -0.1989
11599SOL    HW136238   4.213   5.896  10.737 -0.6186  0.1395  0.0321
11599SOL    HW236239   4.254   6.041  10.721  0.7269  0.1182  2.7067
11600SOL     OW36240   1.853   7.290  10.681 -0.3047 -0.1590 -0.1965
11600SOL    HW136241   1.918   7.266  10.747 -1.8670 -2.5756  0.6092
11600SOL    HW236242   1.873   7.235  10.606  0.5668  1.5326 -1.2667
11601SOL     OW36243   3.659   7.216   9.315  0.1572  0.3727 -0.5506
11601SOL    HW136244   3.706   7.150   9.263  0.2376  0.8395 -1.0743
11601SOL    HW236245   3.717   7.292   9.315  1.2406 -0.2992  2.1033
11602SOL     OW36246   1.675   6.929  11.179  0.1491 -0.4223 -0.7913
11602SOL    HW136247   1.673   6.995  11.109 -2.5363 -0.7376 -1.1352
11602SOL    HW236248   1.673   6.980  11.260  0.8802 -0.0664 -0.9927
11603SOL     OW36249   2.885   6.164  11.475 -0.6115  0.0266 -0.1079
11603SOL    HW136250   2.927   6.213  11.546  0.5352 -1.6230  0.4259
11603SOL    HW236251   2.798   6.143  11.509 -0.3428 -0.1075  0.5183
11604SOL     OW36252   4.569   0.008  10.968 -0.9046  0.4226  0.6451
11604SOL    HW136253   4.611  -0.070  10.931  0.3606  1.8917 -1.1888
11604SOL    HW236254   4.476  -0.001  10.945 -0.7003 -0.3378  0.0796
11605SOL     OW36255   2.142   5.377  10.711  0.5204  0.2768  0.4534
11605SOL    HW136256   2.048   5.367  10.729  1.0049 -0.3001  2.9966
11605SOL    HW236257   2.149   5.367  10.616 -1.9743  0.2571  0.2032
11606SOL     OW36258   1.193   4.990  11.018  0.1705  0.6471 -0.0038
11606SOL    HW136259   1.110   5.026  10.987  0.1983 -0.0023 -0.8623
11606SOL    HW236260   1.168   4.916  11.074  0.1407  1.4170  1.0351
11607SOL     OW36261   2.628   5.957  11.819  0.0785  0.0489 -0.3011
11607SOL    HW136262   2.723   5.967  11.821  0.0875 -0.1820  1.1453
11607SOL    HW236263   2.614   5.876  11.771  0.6906 -0.5955  0.5777
11608SOL     OW36264   3.774   6.024  10.222 -0.0869 -0.1534  0.6254
11608SOL    HW136265   3.723   6.086  10.169  1.8202 -1.3661 -2.9787
11608SOL    HW236266   3.739   5.938  10.198  1.9761 -0.8527 -0.0740
11609SOL     OW36267   3.450   7.526   9.331 -0.7299  0.2261 -0.2129
11609SOL    HW136268   3.421   7.440   9.300  0.9443 -0.2114 -0.6884
11609SOL    HW236269   3.371   7.579   9.332 -1.7262 -1.1878 -0.3568
11610SOL     OW36270   4.156   4.441   0.479  0.3621 -0.3181 -0.2761
11610SOL    HW136271   4.114   4.372   0.531  0.9516 -1.6686 -1.5305
11610SOL    HW236272   4.154   4.518   0.536 -1.5330 -0.9873  0.6639
11611SOL     OW36273   1.369   6.005   9.255  0.0439 -0.0007  0.3622
11611SOL    HW136274   1.457   5.999   9.292  0.2426  0.3976 -0.0329
11611SOL    HW236275   1.383   6.000   9.160 -0.4156 -0.5667  0.3187
11612SOL     OW36276   2.711   7.855   1.062 -0.3076  0.2480  0.1687
11612SOL    HW136277   2.691   7.789   0.996  0.2934  0.2635 -0.0368
11612SOL    HW236278   2.660   7.828   1.138  1.4362 -1.6450  0.7828
11613SOL     OW36279   2.087   1.268  10.503  0.4378  0.1509 -0.2071
11613SOL    HW136280   2.015   1.330  10.514  1.3687  1.3204 -0.4273
11613SOL    HW236281   2.122   1.256  10.591  1.6631  1.7444 -0.4281
11614SOL     OW36282   3.678   5.708  12.349 -0.1637 -0.2152  0.0706
11614SOL    HW136283   3.617   5.695  12.421 -0.0979 -3.3196 -0.3171
11614SOL    HW236284   3.623   5.741  12.277 -0.8949 -0.5138  0.4848
11615SOL     OW36285   1.850   5.033  11.378  0.5901 -0.1930  0.0262
11615SOL    HW136286   1.819   5.109  11.428 -1.5781 -0.8629 -0.1928
11615SOL    HW236287   1.881   5.070  11.296 -0.0686  0.5193  0.0803
11616SOL     OW36288   2.856   7.188   1.291 -0.3547  0.0898 -0.0774
11616SOL    HW136289   2.773   7.181   1.245 -0.1365  2.3174 -0.9370
11616SOL    HW236290   2.832   7.184   1.384 -1.3204 -0.1042 -0.3228
11617SOL     OW36291   2.150   5.061  12.024 -0.5027 -0.1046  0.2064
11617SOL    HW136292   2.152   5.129  11.957 -1.3772  0.9841  1.2523
11617SOL    HW236293   2.242   5.048  12.048 -0.2859  0.3330 -0.3644
11618SOL     OW36294   3.949   4.594  10.997  0.0382 -0.8348 -0.1090
11618SOL    HW136295   3.987   4.597  10.909  0.9678 -2.6237  0.1824
11618SOL    HW236296   3.854   4.598  10.982  0.1631 -1.5222 -1.2352
11619SOL     OW36297   2.924   4.272   0.498  0.4395  0.1386 -0.3916
11619SOL    HW136298   2.867   4.238   0.567  0.1693 -1.2334 -1.2647
11619SOL    HW236299   3.003   4.299   0.545  0.5497 -1.4386  0.4106
11620SOL     OW36300   3.582   3.744  12.402 -0.2788  0.3480 -0.2064
11620SOL    HW136301   3.503   3.702  12.437  0.7506 -1.6358 -0.1211
11620SOL    HW236302   3.580   3.833  12.437 -1.5247 -0.2292  1.2877
11621SOL     OW36303   4.502   7.347  11.024 -0.0143 -0.0306 -0.1001
11621SOL    HW136304   4.484   7.372  10.933 -1.7429  1.9466  0.7086
11621SOL    HW236305   4.500   7.251  11.023 -0.7787 -0.0382 -2.0133
11622SOL     OW36306   4.204   4.742  11.052 -0.2196 -0.4635  0.5903
11622SOL    HW136307   4.180   4.821  11.003 -0.1159 -1.4364 -1.0984
11622SOL    HW236308   4.121   4.701  11.074 -0.2903  0.3425  1.8994
11623SOL     OW36309   5.111   7.216  11.813 -0.1004  0.1627  0.1861
11623SOL    HW136310   5.140   7.308  11.814 -0.5204  0.2965  0.4247
11623SOL    HW236311   5.187   7.168  11.781 -0.8333  0.8999 -2.9799
11624SOL     OW36312   4.134   6.134  10.982 -0.0382  0.5507  0.1803
11624SOL    HW136313   4.047   6.174  10.977  0.3050  1.6855  2.0106
11624SOL    HW236314   4.144   6.086  10.900 -1.7889  1.6268 -0.7230
11625SOL     OW36315   2.166   5.117  11.618 -0.5629 -0.1554  0.3386
11625SOL    HW136316   2.119   5.034  11.626 -0.9420 -0.0184 -0.3634
11625SOL    HW236317   2.134   5.155  11.536  2.3054 -1.0425 -1.3405
11626SOL     OW36318   1.910   6.480  11.342  0.0779  0.0408 -0.5333
11626SOL    HW136319   1.950   6.474  11.255  1.2012  1.2952 -0.1417
11626SOL    HW236320   1.853   6.556  11.338  1.3775  1.1157  0.2451
11627SOL     OW36321   3.834   6.224  11.571 -0.5939  0.2940  0.7137
11627SOL    HW136322   3.919   6.266  11.586 -0.0582 -0.1867 -0.7753
11627SOL    HW236323   3.850   6.160  11.502 -1.8875 -0.8018  1.3769
11628SOL     OW36324   4.423   4.754   0.748  0.2674 -0.0577  0.2046
11628SOL    HW136325   4.468   4.735   0.831 -1.1721 -1.4068  0.7382
11628SOL    HW236326   4.436   4.847   0.735 -0.4821  0.4747  2.6422
11629SOL     OW36327   3.026   6.686  10.288 -0.2476  0.1932  0.0557
11629SOL    HW136328   2.946   6.651  10.328  1.3303 -3.1993  0.5675
11629SOL    HW236329   3.095   6.625  10.314  2.0540  1.3963 -2.6932
11630SOL     OW36330   2.595   6.206  11.572 -0.1823  0.1950 -0.0583
11630SOL    HW136331   2.550   6.152  11.637 -0.7983  2.6144  1.6983
11630SOL    HW236332   2.545   6.194  11.492 -1.1038 -0.7663  0.6343
11631SOL     OW36333   1.693   7.760  12.224 -0.4307  0.6476 -0.8477
11631SOL    HW136334   1.787   7.751  12.240 -0.2448  1.7968 -1.1914
11631SOL    HW236335   1.659   7.671  12.229  0.3887  0.3795  1.0512
11632SOL     OW36336   3.444   6.620   0.019 -0.0245  0.2380 -0.1552
11632SOL    HW136337   3.525   6.659   0.050  0.1903 -1.2787  1.3012
11632SOL    HW236338   3.390   6.611   0.097 -0.5542 -1.1977 -0.6552
11633SOL     OW36339   2.192   5.796  11.337  0.5521 -0.2663 -0.1558
11633SOL    HW136340   2.157   5.734  11.273  0.4665 -0.4855  0.0994
11633SOL    HW236341   2.280   5.817  11.306  0.5321 -0.4180 -0.3123
11634SOL     OW36342   2.754   5.250  11.579 -0.1685  0.2630 -0.1044
11634SOL    HW136343   2.748   5.334  11.625  0.9756 -0.3805  1.3096
11634SOL    HW236344   2.786   5.272  11.492 -1.1088  1.4061 -0.1762
11635SOL     OW36345   3.188   5.696  10.677  0.0620 -0.0334 -0.1394
11635SOL    HW136346   3.266   5.745  10.651 -0.1869 -0.5518 -2.0197
11635SOL    HW236347   3.221   5.620  10.725  0.6478  0.2684 -0.0627
11636SOL     OW36348   4.148   6.493   9.617  0.1281 -0.2327 -0.4975
11636SOL    HW136349   4.135   6.505   9.523 -0.6624 -0.4625 -0.4278
11636SOL    HW236350   4.166   6.399   9.627  0.9621 -0.0831 -0.4889
11637SOL     OW36351   2.521   6.103  12.018 -0.1850 -0.7821  0.2186
11637SOL    HW136352   2.557   6.054  11.944  1.0168 -1.4507  1.2155
11637SOL    HW236353   2.447   6.049  12.047  0.5332 -1.5298  0.7009
11638SOL     OW36354   1.730   7.349   9.659 -0.1022  0.2192 -0.4392
11638SOL    HW136355   1.774   7.407   9.597 -0.5742  1.0671  0.0054
11638SOL    HW236356   1.764   7.262   9.639 -0.3406  0.4555 -1.9813
11639SOL     OW36357   1.915   6.421   0.234  0.4427 -0.2299  0.4446
11639SOL    HW136358   1.992   6.365   0.237  0.1436 -0.7455 -0.8028
11639SOL    HW236359   1.852   6.373   0.181 -0.1932  0.8368  0.1994
11640SOL     OW36360   1.049   5.405  11.168 -0.2565 -0.5105 -0.4551
11640SOL    HW136361   1.022   5.399  11.259  0.2231  0.4753 -0.2331
11640SOL    HW236362   0.973   5.375  11.118 -0.4670 -1.1968  0.2678
11641SOL     OW36363   2.934   3.710  11.204  0.1776  0.2397  0.3317
11641SOL    HW136364   3.011   3.766  11.218 -0.3704  1.0685  0.1448
11641SOL    HW236365   2.942   3.681  11.114  1.4637 -1.5831  0.9826
11642SOL     OW36366   3.049   7.512   0.587  0.2560 -0.0182 -0.3354
11642SOL    HW136367   2.971   7.462   0.563 -0.2552 -0.1118  1.4108
11642SOL    HW236368   3.071   7.481   0.675  1.0048  1.5361  0.0533
11643SOL     OW36369   1.587   5.326  11.229  0.2163  0.4988 -0.1400
11643SOL    HW136370   1.595   5.276  11.148 -1.3006 -1.4717  0.8408
11643SOL    HW236371   1.501   5.367  11.224 -0.5494 -0.8649  1.0470
11644SOL     OW36372   2.848   4.424   1.335 -0.1816  0.1404  0.6818
11644SOL    HW136373   2.766   4.439   1.289 -0.5610 -2.3010  0.4257
11644SOL    HW236374   2.915   4.430   1.267 -0.1311  1.8470  0.8406
11645SOL     OW36375   3.507   5.573  10.759 -0.1864  0.0348  0.3747
11645SOL    HW136376   3.453   5.498  10.785  1.5012 -1.5035 -0.3668
11645SOL    HW236377   3.525   5.619  10.841 -1.8229  0.0772  0.7559
11646SOL     OW36378   2.851   6.237   0.174 -0.1331  0.1907 -0.7480
11646SOL    HW136379   2.772   6.291   0.167 -0.4382  0.0026  0.7731
11646SOL    HW236380   2.892   6.265   0.256  1.5108  0.4213 -1.6058
11647SOL     OW36381   2.812   5.208  10.007 -0.3429  0.0170 -0.0293
11647SOL    HW136382   2.891   5.227   9.956  0.8361 -0.3949  1.5484
11647SOL    HW236383   2.740   5.222   9.946  0.8089  2.4742 -0.9619
11648SOL     OW36384   2.031   4.577  11.249  0.2476 -0.8686  0.1327
11648SOL    HW136385   2.126   4.563  11.250  0.3462 -0.3127 -0.6418
11648SOL    HW236386   2.019   4.662  11.291  0.1294 -0.7692 -0.0982
11649SOL     OW36387   2.398   5.029  11.454  0.1854  0.6416  0.1854
11649SOL    HW136388   2.473   5.027  11.512  0.7088 -0.0742 -0.4977
11649SOL    HW236389   2.325   5.057  11.509  0.6156 -0.2436  1.2303
11650SOL     OW36390   5.172   6.791   1.446  0.2795 -0.1115  0.3968
11650SOL    HW136391   5.119   6.792   1.366 -0.9223 -1.1813  1.1356
11650SOL    HW236392   5.183   6.884   1.468 -2.8807  0.1917  1.1809
11651SOL     OW36393   1.131   7.970  12.004 -0.4651  0.1958  0.2316
11651SOL    HW136394   1.081   7.982  11.923 -0.8274  0.6050  0.5199
11651SOL    HW236395   1.070   7.991  12.074 -0.2724 -0.5531  0.6364
11652SOL     OW36396   3.927   5.741  11.726 -0.4938  0.3334 -0.1155
11652SOL    HW136397   3.964   5.748  11.815 -1.4078 -0.3861  0.3353
11652SOL    HW236398   3.835   5.762  11.737 -0.5244  0.6700 -0.9863
11653SOL     OW36399   4.800   6.295   0.109  0.1499  0.0056  0.2482
11653SOL    HW136400   4.872   6.358   0.107 -0.2174  0.4683  1.1509
11653SOL    HW236401   4.783   6.275   0.017 -0.2246  1.7975 -0.1017
11654SOL     OW36402   3.549   0.153   0.006 -0.2115  0.1408 -0.0843
11654SOL    HW136403   3.587   0.195   0.083 -1.0161  0.9266 -0.1102
11654SOL    HW236404   3.464   0.195  -0.006 -0.5102 -0.6415 -0.8385
11655SOL     OW36405   3.169   7.964  10.593 -0.5369 -0.1036  0.2194
11655SOL    HW136406   3.074   7.960  10.577 -0.6588  2.3700 -0.0669
11655SOL    HW236407   3.207   7.965  10.505 -0.4366  1.1550  0.2496
11656SOL     OW36408   2.339   7.908   0.911  0.1298 -0.4517 -0.1164
11656SOL    HW136409   2.274   7.879   0.975 -1.9695  0.4496 -1.7328
11656SOL    HW236410   2.398   7.965   0.961 -1.5597  0.3812  1.0293
11657SOL     OW36411   2.407   5.020  12.069  0.0138  0.1059  0.2281
11657SOL    HW136412   2.410   5.008  11.974  0.3520 -2.7147  0.5089
11657SOL    HW236413   2.490   5.064  12.090 -0.6768  2.0584 -0.8568
11658SOL     OW36414   4.231   7.730   0.648  0.7873  0.2933 -0.0499
11658SOL    HW136415   4.282   7.777   0.582  1.1562  2.0802  1.4404
11658SOL    HW236416   4.149   7.779   0.654 -0.5902 -1.6721 -1.3269
11659SOL     OW36417   2.849   6.875   0.135  0.0991  0.4447 -0.2303
11659SOL    HW136418   2.849   6.958   0.182  0.5920 -0.6713  1.8755
11659SOL    HW236419   2.814   6.896   0.049  0.5461  2.8880  0.1085
11660SOL     OW36420   0.946   0.033  12.181  0.2295  0.1932 -0.6121
11660SOL    HW136421   0.952   0.090  12.258 -0.2202 -0.7268  0.1243
11660SOL    HW236422   0.994  -0.046  12.205 -0.5974 -0.4326 -0.9633
11661SOL     OW36423   2.064   6.802  11.603  0.7530  0.1687  0.2973
11661SOL    HW136424   2.054   6.709  11.584  1.1691  0.3378 -0.8238
11661SOL    HW236425   1.995   6.821  11.667  0.2603 -0.7700  0.0609
11662SOL     OW36426   3.468   3.209  10.993  0.2550  0.2979  0.7513
11662SOL    HW136427   3.394   3.177  11.044  0.7027  0.2616  1.3870
11662SOL    HW236428   3.434   3.286  10.947 -0.1268  0.3947  1.1904
11663SOL     OW36429   0.188   6.023  10.099 -0.4601  0.1336  0.7423
11663SOL    HW136430   0.163   5.931  10.093 -0.2570  0.1767 -2.5951
11663SOL    HW236431   0.118   6.071  10.054  0.5158  1.3485  0.4393
11664SOL     OW36432   4.625   7.951  11.560 -0.4138  0.2469 -1.0320
11664SOL    HW136433   4.653   8.038  11.529 -0.6392  0.8307  0.3366
11664SOL    HW236434   4.530   7.959  11.569 -0.4921 -0.3003 -1.3430
11665SOL     OW36435   2.530   7.397   0.026  0.4124 -0.1836 -0.3023
11665SOL    HW136436   2.600   7.332   0.026 -1.0030 -1.8345 -2.1609
11665SOL    HW236437   2.553   7.458  -0.044  1.2497  0.8296  0.8090
11666SOL     OW36438   1.541   5.606  11.055  0.2298  0.0681 -0.2461
11666SOL    HW136439   1.594   5.676  11.016  0.4408  0.9469  1.5179
11666SOL    HW236440   1.508   5.644  11.136  3.0306 -2.8079  2.5424
11667SOL     OW36441   3.342   6.147  11.167 -0.0766 -0.0346  0.2212
11667SOL    HW136442   3.257   6.110  11.142 -0.4659  0.3343  0.9550
11667SOL    HW236443   3.364   6.208  11.097 -0.2693 -0.3568 -0.1224
11668SOL     OW36444   2.920   6.813   9.545 -0.4237  0.4781 -0.2087
11668SOL    HW136445   2.931   6.724   9.511 -1.7614  0.4186 -0.5511
11668SOL    HW236446   2.947   6.808   9.637  0.0010 -0.1623 -0.3697
11669SOL     OW36447   3.176   5.110  11.316  0.8654  0.0350  0.3013
11669SOL    HW136448   3.187   5.149  11.229  1.1507 -0.6542  0.0277
11669SOL    HW236449   3.234   5.035  11.317 -1.4972 -1.9350 -0.1121
11670SOL     OW36450   2.812   6.218  10.311 -0.2235 -0.5236 -0.7949
11670SOL    HW136451   2.886   6.274  10.289 -0.0750 -1.5711 -3.2340
11670SOL    HW236452   2.850   6.146  10.361  0.3832 -0.8665 -1.7272
11671SOL     OW36453   4.642   5.440  12.236 -0.3814  0.7828  0.2179
11671SOL    HW136454   4.687   5.501  12.295  0.0555 -0.1565  0.8984
11671SOL    HW236455   4.554   5.431  12.273  0.7913 -2.2255  2.7495
11672SOL     OW36456   1.117   5.590  10.330  0.1991  0.1186  0.6719
11672SOL    HW136457   1.147   5.680  10.338  0.2008  0.0155  2.4047
11672SOL    HW236458   1.036   5.587  10.381 -1.2549 -0.2758 -1.5634
11673SOL     OW36459   2.423   7.355  11.272  0.0545  0.0847 -0.2536
11673SOL    HW136460   2.447   7.352  11.364 -1.3630 -0.2878  0.1139
11673SOL    HW236461   2.416   7.448  11.251 -2.4877  0.1970  0.8101
11674SOL     OW36462   2.579   4.806  11.037 -0.4007 -0.1348 -0.6621
11674SOL    HW136463   2.549   4.730  10.988 -0.2932 -0.0986 -0.7881
11674SOL    HW236464   2.526   4.808  11.116  0.1141 -0.7768 -0.2906
11675SOL     OW36465   3.181   6.485   9.283  0.0624 -0.8507 -0.4750
11675SOL    HW136466   3.181   6.541   9.360 -2.9609 -1.7545  0.3070
11675SOL    HW236467   3.161   6.397   9.316 -0.4947 -1.4227 -2.1944
11676SOL     OW36468   3.962   7.293  12.026 -0.6823 -0.4119 -0.4641
11676SOL    HW136469   3.926   7.369  12.071  1.9853  0.9908 -0.5033
11676SOL    HW236470   3.934   7.304  11.935 -1.0109  0.0564 -0.3100
11677SOL     OW36471   4.076   6.715  10.935 -0.4484  0.6587 -0.4470
11677SOL    HW136472   4.098   6.634  10.981 -0.4573  0.8490 -0.0986
11677SOL    HW236473   4.084   6.694  10.842  0.0150  0.3907 -0.3463
11678SOL     OW36474   4.945   0.294  11.406 -0.6926 -0.0058  0.6814
11678SOL    HW136475   4.857   0.263  11.427 -1.4270 -0.4471 -2.5012
11678SOL    HW236476   4.950   0.289  11.310  1.2381  4.2184  0.3214
11679SOL     OW36477   2.646   5.103   0.452 -0.2013  0.1784  0.3242
11679SOL    HW136478   2.597   5.184   0.466 -2.5595 -1.0657 -0.1144
11679SOL    HW236479   2.674   5.076   0.539 -1.3097  0.3748  0.7589
11680SOL     OW36480   1.808   5.767   0.992 -0.2188  0.1843 -0.1859
11680SOL    HW136481   1.879   5.725   0.943  0.1617 -1.0095  1.3287
11680SOL    HW236482   1.843   5.854   1.013  0.9074 -0.4650  0.7262
11681SOL     OW36483   2.272   7.924  11.409 -0.2142  0.2674 -0.2201
11681SOL    HW136484   2.268   7.868  11.487  2.0152 -0.8151 -0.8066
11681SOL    HW236485   2.263   7.864  11.335 -0.6519  1.0657 -0.8358
11682SOL     OW36486   4.159   6.601   1.198 -0.8140 -0.4159 -0.1281
11682SOL    HW136487   4.106   6.539   1.247 -0.4616  0.3766  1.2900
11682SOL    HW236488   4.155   6.682   1.248  0.1498  0.2234 -1.0308
11683SOL     OW36489   2.587   6.829  11.571 -0.0250  0.1744  0.1646
11683SOL    HW136490   2.592   6.888  11.645 -0.4205 -0.0831  0.4013
11683SOL    HW236491   2.494   6.830  11.545  0.1671  0.5217 -0.5405
11684SOL     OW36492   2.480   5.553   9.910  0.4382 -0.1840 -0.0276
11684SOL    HW136493   2.455   5.572  10.000 -1.8463 -0.9062 -0.4639
11684SOL    HW236494   2.561   5.501   9.919  2.1027  2.4049  1.4190
11685SOL     OW36495   3.626   6.688  10.848 -0.1242 -0.0162 -0.3548
11685SOL    HW136496   3.622   6.626  10.921 -3.2201  0.7714  0.3336
11685SOL    HW236497   3.590   6.769  10.885 -1.4262  0.5221 -2.6157
11686SOL     OW36498   1.323   6.477  11.595 -0.2409 -0.1487 -0.3281
11686SOL    HW136499   1.383   6.411  11.631  0.4493  0.6553  0.0156
11686SOL    HW236500   1.329   6.465  11.500  0.5749  0.0150 -0.3027
11687SOL     OW36501   2.841   4.613  11.290  0.0929  0.0726  0.3493
11687SOL    HW136502   2.889   4.696  11.295  0.6462 -0.2433  0.2789
11687SOL    HW236503   2.872   4.563  11.366  0.1700 -0.2941  0.0750
11688SOL     OW36504   3.587   2.383  11.006  0.1799 -0.3248  0.2720
11688SOL    HW136505   3.624   2.323  10.942 -1.2016 -0.9081 -0.0000
11688SOL    HW236506   3.494   2.360  11.011 -0.3154  1.5296  0.4410
11689SOL     OW36507   2.952   6.376  12.455  0.5933 -0.3371  0.4347
11689SOL    HW136508   2.971   6.464  12.486  2.4556 -0.6057  0.1760
11689SOL    HW236509   2.928   6.327  12.534  1.5897 -0.1013  0.8926
11690SOL     OW36510   1.844   5.439  11.245  0.0745 -0.4253 -0.5042
11690SOL    HW136511   1.756   5.433  11.206  0.3763  0.1440 -1.3042
11690SOL    HW236512   1.838   5.387  11.325 -1.3941  0.7439  0.1995
11691SOL     OW36513   3.569   7.117  12.196  0.1370 -0.2159 -0.1096
11691SOL    HW136514   3.571   7.208  12.166  0.5272 -0.7591 -1.8691
11691SOL    HW236515   3.661   7.090  12.194  0.1428 -0.3805  1.3758
11692SOL     OW36516   3.855   5.764   9.790 -0.1357  0.0687  0.1610
11692SOL    HW136517   3.918   5.739   9.858 -1.6673 -0.7736  1.3300
11692SOL    HW236518   3.812   5.842   9.825 -1.2558 -0.6362  0.4051
11693SOL     OW36519   3.599   4.818  12.347 -0.2692  0.4564 -0.0690
11693SOL    HW136520   3.606   4.914  12.347 -0.6099  0.4839  0.5424
11693SOL    HW236521   3.648   4.791  12.269 -0.5839  1.1558 -0.5208
11694SOL     OW36522   3.344   3.307  12.232  0.1164 -0.2362 -0.5108
11694SOL    HW136523   3.416   3.369  12.239 -0.0293 -0.2250  1.1592
11694SOL    HW236524   3.387   3.221  12.227  0.2724 -0.2091  0.2102
11695SOL     OW36525   4.419   4.846   0.057  0.1492 -0.1056  0.1343
11695SOL    HW136526   4.405   4.911   0.126 -0.2606  0.2432 -0.2679
11695SOL    HW236527   4.407   4.762   0.100 -3.4453  0.1293 -0.1339
11696SOL     OW36528   5.165   3.021  11.434 -0.3338 -0.6277 -0.5283
11696SOL    HW136529   5.176   2.995  11.525  0.3017 -0.2634 -0.4947
11696SOL    HW236530   5.148   3.115  11.437 -0.2190 -0.5958 -0.7856
11697SOL     OW36531   0.675   5.358  10.644  1.2347  0.1167 -0.3314
11697SOL    HW136532   0.733   5.428  10.674  2.6689 -0.7111 -1.0438
11697SOL    HW236533   0.648   5.385  10.557  0.8051  0.3442 -0.1305
11698SOL     OW36534   3.528   0.738   9.259 -0.0907 -0.0250 -0.5256
11698SOL    HW136535   3.598   0.696   9.208 -0.2363  0.5844 -1.2453
11698SOL    HW236536   3.448   0.692   9.231 -0.0787 -0.1905 -0.2904
11699SOL     OW36537   3.143   6.531   0.496  0.0360 -0.0651 -0.1549
11699SOL    HW136538   3.060   6.515   0.451 -0.0760  0.9680 -0.3538
11699SOL    HW236539   3.210   6.517   0.429 -0.0304 -0.1252 -0.2089
11700SOL     OW36540   2.312   6.880  11.592  0.1771 -0.2849 -0.2636
11700SOL    HW136541   2.221   6.878  11.621 -0.1442 -0.2203 -1.2198
11700SOL    HW236542   2.342   6.969  11.612 -0.0954 -0.1869 -0.2894
11701SOL     OW36543   3.721   7.463   0.059 -0.2744  0.0009  0.2265
11701SOL    HW136544   3.707   7.442   0.151  1.0910 -0.4440  0.3446
11701SOL    HW236545   3.756   7.383   0.020  0.0605  0.4720 -0.4693
11702SOL     OW36546   3.318   7.759   2.121  0.0416  0.2204  0.3370
11702SOL    HW136547   3.345   7.670   2.143 -1.2031 -0.1007  0.6611
11702SOL    HW236548   3.275   7.792   2.200  0.0645  0.9298  0.0650
11703SOL     OW36549   1.785   7.189  12.284 -0.1240 -0.3730  0.1100
11703SOL    HW136550   1.865   7.206  12.235  0.2944 -1.1500  0.5158
11703SOL    HW236551   1.715   7.191  12.219  0.0208  1.7039 -0.0643
11704SOL     OW36552   4.954   7.029  11.972  0.0237 -0.0287  0.9193
11704SOL    HW136553   4.884   7.074  12.019 -1.2699  0.8237 -1.6251
11704SOL    HW236554   5.010   7.100  11.939  0.0808 -0.4729  0.0136
11705SOL     OW36555   1.282   7.795  12.119 -0.2283  0.1195  0.3275
11705SOL    HW136556   1.226   7.863  12.083 -0.5773 -0.2890  0.0899
11705SOL    HW236557   1.324   7.836  12.194  0.0625  0.8031 -0.1897
11706SOL     OW36558   0.428   6.083   0.885 -0.5801  0.0366  0.5097
11706SOL    HW136559   0.342   6.044   0.873 -0.6378  0.4674 -0.6200
11706SOL    HW236560   0.411   6.173   0.912 -0.4829  0.0515  0.5246
11707SOL     OW36561   2.792   7.453   2.569  0.3368 -0.0124 -0.7486
11707SOL    HW136562   2.718   7.499   2.529  1.2496  1.0005 -1.3355
11707SOL    HW236563   2.753   7.401   2.639 -0.8057  1.3607 -0.3202
11708SOL     OW36564   3.725   0.216  11.857 -0.1880 -0.0067  0.4445
11708SOL    HW136565   3.661   0.281  11.828  2.4221  2.8546  0.5256
11708SOL    HW236566   3.768   0.188  11.776  1.0219  1.0877  0.6804
11709SOL     OW36567   3.318   6.948   0.978 -0.1850  0.3305  0.1531
11709SOL    HW136568   3.370   7.003   1.037  1.4666 -0.4544 -0.5090
11709SOL    HW236569   3.321   6.861   1.018  0.2454 -0.0269 -0.6394
11710SOL     OW36570   0.811   1.233   0.838 -0.0211 -0.7688 -0.1399
11710SOL    HW136571   0.794   1.316   0.882  1.5434  0.2806 -1.3914
11710SOL    HW236572   0.848   1.177   0.907 -1.5226 -0.6177  0.8239
11711SOL     OW36573   2.873   6.474   2.308  0.2325  0.7871  0.2112
11711SOL    HW136574   2.871   6.527   2.387  0.2625  2.4561 -0.8644
11711SOL    HW236575   2.874   6.537   2.236  1.7370 -0.6615 -1.1215
11712SOL     OW36576   3.291   7.786  11.898  0.0972  0.2134  0.3134
11712SOL    HW136577   3.213   7.731  11.905  2.8983 -4.4814 -0.8609
11712SOL    HW236578   3.341   7.765  11.977  2.2032 -0.7459 -1.1943
11713SOL     OW36579   6.119   7.894  12.244 -0.3670 -0.3759 -0.3499
11713SOL    HW136580   6.210   7.905  12.275 -0.3058 -0.7969 -0.3721
11713SOL    HW236581   6.066   7.936  12.312 -0.1682 -0.3779 -0.1908
11714SOL     OW36582   2.153   6.940   1.201 -0.1290 -0.2314  0.2601
11714SOL    HW136583   2.080   6.880   1.215 -0.1371 -0.4710 -0.7313
11714SOL    HW236584   2.224   6.903   1.253 -0.5932 -0.2050  0.9344
11715SOL     OW36585   4.026   6.788   3.121  0.3557  0.0974 -0.4690
11715SOL    HW136586   3.951   6.740   3.158  0.4097 -0.3538 -0.9334
11715SOL    HW236587   4.069   6.827   3.197 -0.2990  0.2924 -0.1849
11716SOL     OW36588   3.163   6.332   0.247  0.0934 -0.0399 -0.4290
11716SOL    HW136589   3.247   6.376   0.259  0.1141 -0.3606  0.7660
11716SOL    HW236590   3.113   6.390   0.189  0.3578  1.2154  0.5582
11717SOL     OW36591   1.308   7.152   1.349 -0.3496 -0.0261 -0.4695
11717SOL    HW136592   1.290   7.244   1.369 -0.7631 -0.0336 -0.8047
11717SOL    HW236593   1.226   7.118   1.313  0.2044 -0.1710 -1.6364
11718SOL     OW36594   2.315   6.572   1.841  0.4819  0.9652 -0.0407
11718SOL    HW136595   2.407   6.559   1.863  0.7028  0.4898 -1.2031
11718SOL    HW236596   2.299   6.514   1.767 -1.1596 -0.0780  1.0762
11719SOL     OW36597   3.102   7.769   2.308 -0.5411  0.1025  0.6544
11719SOL    HW136598   3.156   7.722   2.371 -2.0815 -1.3316  0.9718
11719SOL    HW236599   3.032   7.807   2.360  0.2690  2.2388  0.2973
11720SOL     OW36600   4.417   0.859   1.975  0.2204  0.1284 -0.1109
11720SOL    HW136601   4.358   0.927   1.943 -1.4744 -1.7355 -1.1255
11720SOL    HW236602   4.491   0.862   1.915 -0.0774  0.7240 -0.4628
11721SOL     OW36603   4.352   7.709   1.762 -0.1588 -0.2585 -0.1892
11721SOL    HW136604   4.336   7.658   1.682 -0.7364  0.6405 -0.6606
11721SOL    HW236605   4.307   7.659   1.831  0.4545 -1.1084 -0.3900
11722SOL     OW36606   4.439   6.904  12.225 -0.3394 -0.1759  0.5484
11722SOL    HW136607   4.495   6.829  12.204  0.3356 -0.2756  2.5123
11722SOL    HW236608   4.475   6.976  12.172 -0.6627 -1.0720 -0.9450
11723SOL     OW36609   2.301   4.533  11.288 -0.0013 -0.0550 -0.7646
11723SOL    HW136610   2.320   4.518  11.381 -1.2283  0.8171 -0.3438
11723SOL    HW236611   2.364   4.600  11.261 -0.8414  1.0615 -0.0352
11724SOL     OW36612   3.266   7.415   1.932 -0.3860 -0.3520 -0.0808
11724SOL    HW136613   3.223   7.332   1.950 -0.2694  0.1110  2.6565
11724SOL    HW236614   3.306   7.440   2.015  4.0607 -0.0516 -2.0336
11725SOL     OW36615   3.715   1.574   0.574 -0.0217 -0.2910  0.5781
11725SOL    HW136616   3.711   1.599   0.482  1.0055  1.1238  0.8703
11725SOL    HW236617   3.772   1.497   0.575 -2.2820 -2.0921 -0.2211
11726SOL     OW36618   2.229   6.701   0.551  0.6795 -0.1936 -0.5137
11726SOL    HW136619   2.153   6.651   0.584 -1.0704  1.2477 -2.1343
11726SOL    HW236620   2.210   6.791   0.575  1.3883  0.3295 -1.8399
11727SOL     OW36621   3.328   7.476   2.232 -0.2163  0.2860 -0.3441
11727SOL    HW136622   3.256   7.467   2.294  0.2504  0.1376  0.1860
11727SOL    HW236623   3.407   7.474   2.286  0.1406  2.8746 -0.6397
11728SOL     OW36624   1.658   7.965   0.751  0.2846  0.4826 -0.0256
11728SOL    HW136625   1.632   7.967   0.843  0.4921 -2.3364  0.2054
11728SOL    HW236626   1.742   7.919   0.751  0.7749  1.3124 -1.5511
11729SOL     OW36627   4.394   7.715   0.166 -0.2286  0.0971 -0.0475
11729SOL    HW136628   4.348   7.734   0.085 -0.2802  1.8270  0.3396
11729SOL    HW236629   4.465   7.657   0.141  0.6623  1.7742 -1.6149
11730SOL     OW36630   3.415   6.072  12.354  0.4137 -0.2852 -0.3134
11730SOL    HW136631   3.364   6.148  12.381  1.2438  0.2356 -0.1558
11730SOL    HW236632   3.457   6.042  12.434 -0.0803 -1.0498 -0.3359
11731SOL     OW36633   3.434   7.013  12.406  0.4359  0.6709 -0.1059
11731SOL    HW136634   3.490   6.940  12.431  0.0319 -0.1826 -1.5632
11731SOL    HW236635   3.475   7.049  12.327  0.1242  1.4338  0.0706
11732SOL     OW36636   4.327   6.212   3.294  0.6060 -0.3091 -0.0436
11732SOL    HW136637   4.300   6.185   3.382 -0.7870  0.3209 -0.2578
11732SOL    HW236638   4.334   6.130   3.245  2.9796 -0.8308  1.0254
11733SOL     OW36639   3.233   6.144   2.939 -0.1035 -0.4431  0.5578
11733SOL    HW136640   3.326   6.164   2.955  0.1118  0.1756 -1.2548
11733SOL    HW236641   3.210   6.197   2.863 -1.6201 -1.5292  0.2129
11734SOL     OW36642   3.763   6.544   1.395  0.3844 -0.0010 -0.2002
11734SOL    HW136643   3.856   6.522   1.384  0.4378 -0.0988  0.4338
11734SOL    HW236644   3.763   6.614   1.460 -0.0226 -0.4099  0.2507
11735SOL     OW36645   2.734   6.660   0.265 -0.1595  0.6344 -0.3237
11735SOL    HW136646   2.784   6.725   0.215  0.9540  0.4150  0.4603
11735SOL    HW236647   2.703   6.709   0.342  1.9447 -0.0331  1.0521
11736SOL     OW36648   2.641   6.431   0.152 -0.0200  0.4552  0.0236
11736SOL    HW136649   2.656   6.452   0.060  0.3994  0.5576  0.1133
11736SOL    HW236650   2.658   6.513   0.199 -0.6857  0.5277  0.1537
11737SOL     OW36651   4.156   0.078  11.967 -0.7544  0.5414 -0.2456
11737SOL    HW136652   4.117   0.137  11.903 -0.4257  1.0031 -0.0229
11737SOL    HW236653   4.229   0.127  12.004 -1.6524  0.7549  1.3532
11738SOL     OW36654   2.803   0.675   0.129 -0.3126 -0.0712  0.4156
11738SOL    HW136655   2.798   0.734   0.204  0.3631 -0.5276  0.8313
11738SOL    HW236656   2.780   0.589   0.164  0.5764 -0.3928  0.2363
11739SOL     OW36657   2.950   5.637   0.752  0.4883 -0.0540 -0.0113
11739SOL    HW136658   2.882   5.575   0.724  0.0032  0.6620 -0.4385
11739SOL    HW236659   2.999   5.656   0.673  0.0150  0.8691 -0.0924
11740SOL     OW36660   1.610   0.029   1.033 -0.0320 -0.2765 -0.1140
11740SOL    HW136661   1.657  -0.054   1.044 -0.9411 -0.7948  0.0040
11740SOL    HW236662   1.578   0.050   1.121  0.3836  0.3165 -0.1032
11741SOL     OW36663   3.405   6.060   2.061  1.0669 -0.0678  0.1250
11741SOL    HW136664   3.471   6.012   2.110  1.6334 -0.6272 -1.1538
11741SOL    HW236665   3.334   6.074   2.124  1.3236 -1.6741  0.8255
11742SOL     OW36666   2.845   6.918   2.278 -0.2860 -0.6601 -0.0521
11742SOL    HW136667   2.844   6.964   2.362  0.7291  0.4826 -0.6319
11742SOL    HW236668   2.769   6.860   2.281 -1.0144  0.3215  1.1328
11743SOL     OW36669   2.128   7.406  12.436  0.1690 -0.1170 -0.0995
11743SOL    HW136670   2.155   7.365  12.354  0.0701 -2.5439  0.9948
11743SOL    HW236671   2.037   7.379  12.448 -0.4323  1.7758 -0.0614
11744SOL     OW36672   2.647   6.389   0.593  0.0912  0.1126 -0.1945
11744SOL    HW136673   2.583   6.448   0.554 -1.4313 -0.6088  1.0867
11744SOL    HW236674   2.708   6.447   0.640 -0.2813  0.7559 -0.4896
11745SOL     OW36675   3.386   7.793   1.022  0.1680 -0.0823 -0.1422
11745SOL    HW136676   3.470   7.795   1.069  1.0300 -3.1062 -1.2829
11745SOL    HW236677   3.337   7.722   1.065 -1.0244  0.3584 -0.7371
11746SOL     OW36678   2.502   5.893   1.729  0.6171  0.5847  0.1518
11746SOL    HW136679   2.406   5.897   1.734  0.5889  0.8369 -0.4540
11746SOL    HW236680   2.528   5.832   1.798 -0.0927 -0.8497 -0.7969
11747SOL     OW36681   2.266   6.318   0.069  0.2882 -0.1964 -0.0693
11747SOL    HW136682   2.351   6.278   0.052  0.0082 -0.6957 -0.3184
11747SOL    HW236683   2.286   6.396   0.121  0.9297 -0.1099 -0.4279
11748SOL     OW36684   2.984   0.628   0.756  0.3656 -0.6915  0.2625
11748SOL    HW136685   2.908   0.686   0.749  2.9706  3.5015  2.8819
11748SOL    HW236686   2.962   0.568   0.827 -1.0057 -0.5173  0.0081
11749SOL     OW36687   3.172   5.160  11.828  0.3807 -0.0152  0.0399
11749SOL    HW136688   3.215   5.224  11.884 -0.1656  0.1673  0.2548
11749SOL    HW236689   3.145   5.210  11.751 -0.8619  0.2214  0.6132
11750SOL     OW36690   1.560   7.489   1.279  0.5358  0.5852  0.2743
11750SOL    HW136691   1.520   7.453   1.357  1.0772 -0.4257  0.1014
11750SOL    HW236692   1.647   7.518   1.308  1.3188 -1.1389 -0.2307
11751SOL     OW36693   3.942   5.415  10.925 -0.0888  0.2086  0.3845
11751SOL    HW136694   3.854   5.447  10.943 -0.6570  0.8875 -2.8884
11751SOL    HW236695   3.931   5.348  10.857  1.8747 -0.0250  0.2149
11752SOL     OW36696   1.794   7.124   1.330  0.2185 -0.1172 -0.0480
11752SOL    HW136697   1.761   7.181   1.399  0.5424  0.9528 -0.7446
11752SOL    HW236698   1.867   7.077   1.370  1.6376  1.8886 -0.1523
11753SOL     OW36699   4.526   7.833   3.534 -0.3187  0.3110 -0.3703
11753SOL    HW136700   4.523   7.738   3.539  0.5727  0.3232  0.5855
11753SOL    HW236701   4.442   7.857   3.494 -0.3913 -0.8841 -0.9853
11754SOL     OW36702   1.757   6.739   0.720 -0.4161  0.9770 -0.1084
11754SOL    HW136703   1.667   6.706   0.719  0.1712 -0.9599  1.7167
11754SOL    HW236704   1.751   6.827   0.756 -1.7107  1.5225 -1.5815
11755SOL     OW36705   3.086   7.929   1.490 -0.8915  0.4259  0.0014
11755SOL    HW136706   3.066   7.836   1.502 -0.4682  0.5039  1.4576
11755SOL    HW236707   3.042   7.952   1.408 -1.6442 -0.8667  0.0101
11756SOL     OW36708   2.616   6.809   0.471  0.3109  0.6787 -0.1320
11756SOL    HW136709   2.585   6.891   0.432 -0.6997  0.5119  0.2940
11756SOL    HW236710   2.680   6.837   0.537  1.6299  0.9871 -1.5123
11757SOL     OW36711   3.127   6.439   1.984 -0.1634  0.3604 -0.4108
11757SOL    HW136712   3.196   6.442   1.919  0.4913  1.7853  0.2910
11757SOL    HW236713   3.171   6.455   2.067 -0.9351 -1.7238  0.4550
11758SOL     OW36714   3.890   6.896   3.431  0.2610  0.2874  0.3667
11758SOL    HW136715   3.865   6.869   3.520 -0.6060  0.5673  0.2170
11758SOL    HW236716   3.822   6.858   3.375  1.6000 -1.1499 -0.3604
11759SOL     OW36717   4.563   7.398   0.438 -0.1369 -0.4027  0.0516
11759SOL    HW136718   4.570   7.304   0.422  0.1517 -0.3849  0.0626
11759SOL    HW236719   4.519   7.433   0.361  2.2146 -0.1543 -1.2429
11760SOL     OW36720   4.003   1.459  12.115 -0.4060  0.5098  0.1024
11760SOL    HW136721   3.913   1.443  12.087 -0.9338  1.4736  1.1823
11760SOL    HW236722   4.026   1.383  12.168  0.0797 -0.6023 -1.5867
11761SOL     OW36723   2.987   6.154   2.560 -0.2789 -0.2882 -0.7085
11761SOL    HW136724   2.950   6.068   2.579 -0.7810 -0.0501 -0.5858
11761SOL    HW236725   3.068   6.136   2.513  0.1485 -0.8525  0.2205
11762SOL     OW36726   3.220   6.280  12.427 -0.1648 -0.0085 -0.5900
11762SOL    HW136727   3.196   6.283  12.519 -0.4630 -0.5038 -0.6473
11762SOL    HW236728   3.142   6.309  12.381  0.0366  0.3957 -0.6814
11763SOL     OW36729   3.606   6.498   0.566 -0.3711 -0.4187  0.0373
11763SOL    HW136730   3.596   6.451   0.483 -0.8859  0.9938 -0.7315
11763SOL    HW236731   3.565   6.440   0.631 -1.6657 -0.7254 -1.0019
11764SOL     OW36732   4.341   6.594  12.472  0.0224  0.4590 -0.5240
11764SOL    HW136733   4.272   6.591  12.538 -1.3175  1.5615 -1.8010
11764SOL    HW236734   4.317   6.528  12.408  0.0276  0.9654 -1.0641
11765SOL     OW36735   3.637   7.442   1.010  0.5202  0.1516  0.2804
11765SOL    HW136736   3.636   7.355   1.050  1.1318 -0.5650 -1.1959
11765SOL    HW236737   3.568   7.439   0.943  0.2111  0.9826  0.5443
11766SOL     OW36738   0.555   6.412   1.355  0.1494  0.2253 -0.1312
11766SOL    HW136739   0.557   6.465   1.275  0.5653 -1.1341 -1.0543
11766SOL    HW236740   0.593   6.328   1.329 -1.4939 -0.9278  1.0009
11767SOL     OW36741   0.854   7.797   1.243  0.3198 -0.6013 -0.1185
11767SOL    HW136742   0.940   7.772   1.208  0.4528  1.4286 -1.3968
11767SOL    HW236743   0.797   7.801   1.167 -0.6116 -0.7049  0.5544
11768SOL     OW36744   2.958   0.427   2.009 -0.0205 -0.0331  0.1206
11768SOL    HW136745   2.892   0.492   2.029  0.7417  0.4492  1.1734
11768SOL    HW236746   2.972   0.435   1.915 -0.0462  1.2195  0.2095
11769SOL     OW36747   3.659   5.644   3.363 -0.1903  0.3264  0.0563
11769SOL    HW136748   3.748   5.609   3.356 -0.8080 -1.2222 -0.6868
11769SOL    HW236749   3.606   5.568   3.388 -1.2777  1.2695  0.7100
11770SOL     OW36750   2.175   6.328   2.714  0.5681 -0.3659  0.5216
11770SOL    HW136751   2.186   6.273   2.637  0.3789 -2.2314  1.7600
11770SOL    HW236752   2.112   6.281   2.769  1.4665  0.3538  2.2792
11771SOL     OW36753   3.831   7.212   3.314 -0.5412 -0.0173 -0.0852
11771SOL    HW136754   3.815   7.149   3.385 -1.3818 -1.0936 -1.1836
11771SOL    HW236755   3.920   7.192   3.284 -0.5270 -0.1905  0.0704
11772SOL     OW36756   1.041   7.942   1.841 -0.5153 -0.2468 -0.0560
11772SOL    HW136757   1.031   8.037   1.827 -0.0074  0.0295  1.3530
11772SOL    HW236758   1.071   7.934   1.931 -1.7214 -1.8338  0.2337
11773SOL     OW36759   2.234   5.563   3.260  0.9098  0.5481  0.8416
11773SOL    HW136760   2.305   5.507   3.292  0.5849  0.4195  1.3551
11773SOL    HW236761   2.161   5.545   3.319  0.5288  0.8705  0.4750
11774SOL     OW36762   1.308   0.111   4.708 -0.0281  0.0154  0.1993
11774SOL    HW136763   1.274   0.142   4.624 -0.3548 -0.4388  0.1641
11774SOL    HW236764   1.368   0.040   4.686  0.2359  0.1950  0.3242
11775SOL     OW36765   2.836   6.668   2.525  0.4060  0.9548  0.1693
11775SOL    HW136766   2.830   6.647   2.618  1.3981 -0.8392 -0.1221
11775SOL    HW236767   2.890   6.747   2.521  2.0988 -0.1013  1.0372
11776SOL     OW36768   2.547   7.948   3.677  0.0003 -0.2096  0.1120
11776SOL    HW136769   2.599   8.022   3.709 -2.2576  1.0638  1.0644
11776SOL    HW236770   2.571   7.940   3.585  0.0844  1.9655 -0.1181
11777SOL     OW36771   2.359   0.171   2.736 -0.3228  0.2631  0.2325
11777SOL    HW136772   2.425   0.115   2.696 -1.0428  0.5902 -1.5010
11777SOL    HW236773   2.297   0.110   2.776  0.1037 -0.0920  0.3595
11778SOL     OW36774   0.746   0.607   4.190  0.5789  0.3526  0.5898
11778SOL    HW136775   0.822   0.651   4.151  0.3027  0.2836 -0.0518
11778SOL    HW236776   0.783   0.533   4.238  0.8006 -1.7799 -2.5006
11779SOL     OW36777   3.635   6.792   2.624  0.3501 -0.1024  0.4825
11779SOL    HW136778   3.608   6.836   2.705  1.4697 -2.2401  2.1049
11779SOL    HW236779   3.554   6.785   2.573 -0.5431  0.5927  1.7467
11780SOL     OW36780   1.791   7.341   4.140  0.0932 -0.3069  0.5937
11780SOL    HW136781   1.820   7.424   4.178 -0.0133 -1.0307  2.3612
11780SOL    HW236782   1.853   7.276   4.174 -0.5076 -1.1187  0.1845
11781SOL     OW36783   1.644   5.166   2.411  0.4252 -0.7847 -0.4659
11781SOL    HW136784   1.695   5.096   2.369  1.1094 -1.1546  0.9251
11781SOL    HW236785   1.698   5.194   2.485 -0.1638  0.7427 -0.5767
11782SOL     OW36786   1.991   7.837   4.212 -0.2271  0.0617 -0.1170
11782SOL    HW136787   2.000   7.889   4.132 -2.1442  0.1077 -0.3455
11782SOL    HW236788   2.064   7.775   4.208 -0.7041 -0.4679 -2.3403
11783SOL     OW36789   4.194   0.135   3.877 -0.1209  0.0878  0.3451
11783SOL    HW136790   4.165   0.084   3.802 -0.3426 -0.6163  0.8964
11783SOL    HW236791   4.282   0.101   3.896 -0.3899 -0.3140  0.9013
11784SOL     OW36792   2.694   6.167   3.052  0.0038 -0.7730  0.3823
11784SOL    HW136793   2.697   6.071   3.056 -1.2950 -0.8053  1.0043
11784SOL    HW236794   2.718   6.195   3.140  1.7263 -0.4458 -0.1423
11785SOL     OW36795   1.149   5.714  12.034 -0.1027 -0.0006  0.1968
11785SOL    HW136796   1.162   5.623  12.008  0.5042  0.2280 -0.3559
11785SOL    HW236797   1.086   5.748  11.971  0.3143  0.1847 -0.1235
11786SOL     OW36798   3.638   7.590   4.787 -0.0269 -0.7783 -0.1415
11786SOL    HW136799   3.547   7.578   4.811 -0.1369 -2.1907 -1.1499
11786SOL    HW236800   3.687   7.539   4.851 -0.0005 -0.7647 -0.1507
11787SOL     OW36801   1.575   4.984   5.000 -0.1848 -0.1162  0.4107
11787SOL    HW136802   1.646   5.014   4.942 -0.1480 -0.3272  0.3417
11787SOL    HW236803   1.503   4.965   4.940 -0.4033  0.3893  0.5122
11788SOL     OW36804   2.876   7.025   0.832 -0.0760 -0.5546  0.3675
11788SOL    HW136805   2.790   7.066   0.821  0.6740  0.9967 -0.0316
11788SOL    HW236806   2.927   7.089   0.882  2.0723  0.4942 -2.7962
11789SOL     OW36807   1.313   6.245   2.691 -0.5123 -0.2883  0.4031
11789SOL    HW136808   1.232   6.270   2.647 -0.3773  0.6718  0.6549
11789SOL    HW236809   1.305   6.151   2.706 -1.0505 -0.4277 -0.6401
11790SOL     OW36810   1.937   6.678   3.543 -0.2795  0.1752 -0.8581
11790SOL    HW136811   1.986   6.651   3.466 -1.0997  1.2463 -1.7824
11790SOL    HW236812   1.956   6.771   3.554  0.5458 -0.1473  0.8011
11791SOL     OW36813   2.517   0.503   2.446  0.9711  0.4766 -0.6757
11791SOL    HW136814   2.566   0.422   2.457  0.3431  0.2337  0.4999
11791SOL    HW236815   2.427   0.475   2.432  0.7060  0.9660 -0.0099
11792SOL     OW36816   2.878   6.405   1.390  0.1571  0.4416 -0.4815
11792SOL    HW136817   2.962   6.428   1.431  0.6494 -2.6305  0.4931
11792SOL    HW236818   2.895   6.412   1.296  1.0717  1.1930 -0.2812
11793SOL     OW36819   3.068   7.172   3.105 -0.0563 -0.1887 -0.1269
11793SOL    HW136820   3.025   7.222   3.174  0.1398 -0.6297  0.3190
11793SOL    HW236821   3.160   7.170   3.131  0.0381 -0.2500 -0.4647
11794SOL     OW36822   2.295   5.537   3.695  0.1681 -0.2070  0.2828
11794SOL    HW136823   2.304   5.629   3.720  2.1142 -0.5280  0.9194
11794SOL    HW236824   2.341   5.530   3.612 -2.1782 -0.1336 -1.0971
11795SOL     OW36825   3.190   1.305   1.460 -0.4299  0.5644 -0.5040
11795SOL    HW136826   3.258   1.310   1.392  1.6046  3.6581  1.4696
11795SOL    HW236827   3.116   1.353   1.423 -0.1268  0.4136 -1.3271
11796SOL     OW36828   3.078   5.686   2.605 -0.1078  0.2239  0.1636
11796SOL    HW136829   3.014   5.619   2.630  0.1694 -0.0309  0.1917
11796SOL    HW236830   3.110   5.659   2.519  1.6749 -0.9465  1.1244
11797SOL     OW36831   0.454   5.926   5.511 -0.2858  0.1337 -0.5281
11797SOL    HW136832   0.448   5.893   5.422  1.9923 -0.1110 -0.6590
11797SOL    HW236833   0.386   5.993   5.517 -0.3327  0.3204 -2.5260
11798SOL     OW36834   2.902   0.667   2.807  0.1779 -0.1706  0.0022
11798SOL    HW136835   2.933   0.681   2.897 -0.7615 -0.1520  0.3352
11798SOL    HW236836   2.825   0.611   2.817  0.4354 -0.6816 -0.8464
11799SOL     OW36837   2.437   7.346   4.915  0.3424  0.0862 -0.3693
11799SOL    HW136838   2.460   7.351   5.008 -0.3173 -0.8134 -0.1411
11799SOL    HW236839   2.347   7.312   4.915  0.5725 -0.5479 -1.3582
11800SOL     OW36840   1.212   6.492   2.772 -0.4879 -0.2738 -0.0916
11800SOL    HW136841   1.140   6.431   2.789 -0.8212  0.2427  0.3901
11800SOL    HW236842   1.279   6.470   2.836  0.7290 -2.1853 -1.9024
11801SOL     OW36843   0.881   6.875   4.648  0.1580  0.0455  0.1140
11801SOL    HW136844   0.913   6.914   4.566 -1.0777 -0.5293 -0.6734
11801SOL    HW236845   0.929   6.793   4.656  2.2310  1.2884  1.3962
11802SOL     OW36846   2.503   6.361   2.597 -0.3808 -0.0004 -0.2026
11802SOL    HW136847   2.507   6.400   2.685 -0.4446  0.0121 -0.2053
11802SOL    HW236848   2.593   6.336   2.578 -0.5266 -0.9251  0.2787
11803SOL     OW36849   1.394   7.302   1.879 -0.4766 -0.4852 -0.0328
11803SOL    HW136850   1.477   7.257   1.893 -0.5586 -0.2017  1.5296
11803SOL    HW236851   1.347   7.245   1.817  0.0450 -1.7340  0.6745
11804SOL     OW36852   3.559   6.845   4.025 -0.4559 -0.5415  0.2521
11804SOL    HW136853   3.471   6.837   4.063 -0.2315  0.6608  1.0985
11804SOL    HW236854   3.615   6.868   4.100  0.5775 -1.2796 -0.2792
11805SOL     OW36855   1.816   0.124   3.723 -0.5889  0.2064  0.6248
11805SOL    HW136856   1.771   0.042   3.703 -0.5620  0.5230 -0.8397
11805SOL    HW236857   1.766   0.191   3.677 -1.5425  1.2775  3.0499
11806SOL     OW36858   2.708   5.532   4.806  0.2148 -0.1662 -0.1030
11806SOL    HW136859   2.743   5.443   4.821  2.0338  0.3766 -0.7515
11806SOL    HW236860   2.771   5.571   4.745 -1.1121  1.2434 -0.6219
11807SOL     OW36861   4.385   6.848   2.264  0.0749  0.3606  0.5882
11807SOL    HW136862   4.365   6.755   2.274 -0.2586  0.0538 -2.1621
11807SOL    HW236863   4.322   6.879   2.198  0.5389  2.4180  1.0515
11808SOL     OW36864   2.938   7.437   3.354 -0.4824  0.4529 -0.2409
11808SOL    HW136865   2.876   7.509   3.366 -0.4847  0.2336  1.3673
11808SOL    HW236866   3.005   7.473   3.296 -1.3745  1.1611 -0.8714
11809SOL     OW36867   3.364   7.219   4.264 -0.4318 -0.2325  0.2003
11809SOL    HW136868   3.371   7.148   4.328 -0.4834 -0.4806 -0.0626
11809SOL    HW236869   3.376   7.299   4.314  2.0133 -0.5002  0.1373
11810SOL     OW36870   0.928   7.792   4.638  0.1472  0.5946 -0.5867
11810SOL    HW136871   0.898   7.728   4.573  1.1929 -0.2656 -0.2536
11810SOL    HW236872   0.869   7.780   4.712  1.3386 -1.2223  0.1388
11811SOL     OW36873   2.873   5.671   4.335  0.3668  0.5015 -0.5931
11811SOL    HW136874   2.943   5.682   4.271  0.6187 -2.2969 -0.9545
11811SOL    HW236875   2.802   5.631   4.286  0.3626 -1.2011  0.6971
11812SOL     OW36876   1.676   7.248   2.044  0.0699 -0.7457  0.1401
11812SOL    HW136877   1.771   7.236   2.036  0.0583 -1.2873  0.7053
11812SOL    HW236878   1.658   7.329   1.998  0.7497 -0.8753 -0.3686
11813SOL     OW36879   1.676   7.189   3.281  0.5712  0.1735 -0.2425
11813SOL    HW136880   1.676   7.146   3.196 -0.8962  0.3470 -0.3504
11813SOL    HW236881   1.689   7.117   3.344  0.1652 -0.1560 -0.5312
11814SOL     OW36882   2.734   6.370   3.443  0.1896  0.5339 -0.6154
11814SOL    HW136883   2.756   6.280   3.418  0.4648  0.3997  0.0830
11814SOL    HW236884   2.649   6.362   3.487  1.0316  0.3356  1.0558
11815SOL     OW36885   2.893   5.884   2.624 -0.0900 -0.2046  0.0840
11815SOL    HW136886   2.941   5.807   2.595 -0.2324  0.1879 -1.2250
11815SOL    HW236887   2.897   5.879   2.720  0.4910 -1.4543  0.0164
11816SOL     OW36888   3.932   6.898   1.435 -0.8749  0.2238 -0.3564
11816SOL    HW136889   3.889   6.834   1.491 -1.2980  0.4776 -0.3831
11816SOL    HW236890   3.938   6.977   1.489  0.6292 -0.1470  0.0513
11817SOL     OW36891   0.963   6.961   4.978 -0.5613 -0.3332  0.2209
11817SOL    HW136892   0.918   6.898   4.921  0.7014 -0.3750 -0.7827
11817SOL    HW236893   0.941   7.046   4.941  0.6516 -0.3787 -0.6993
11818SOL     OW36894   2.987   7.076   4.307  0.3284 -0.5222 -0.0638
11818SOL    HW136895   2.978   7.144   4.240 -2.8113  0.2230  0.9736
11818SOL    HW236896   2.993   6.995   4.257  0.9942  0.2173 -1.2586
11819SOL     OW36897   4.648   6.862   3.118 -0.0434  0.0340 -0.2901
11819SOL    HW136898   4.671   6.913   3.040  1.0923 -1.3368 -0.8940
11819SOL    HW236899   4.554   6.847   3.109 -0.2554  1.3041 -0.5010
11820SOL     OW36900   4.178   6.893   3.353  0.9160  0.0351  0.1989
11820SOL    HW136901   4.175   6.982   3.320  0.8808 -0.0953 -0.1561
11820SOL    HW236902   4.100   6.885   3.409  0.1048 -0.2149 -0.9209
11821SOL     OW36903   1.338   5.781   1.635  0.3750 -0.0986 -0.0532
11821SOL    HW136904   1.400   5.736   1.693 -1.5216  0.4475  2.6013
11821SOL    HW236905   1.296   5.846   1.691 -1.5221  0.5970 -2.1246
11822SOL     OW36906   3.504   0.280   2.637  0.4048 -0.0213  0.0883
11822SOL    HW136907   3.500   0.346   2.567  0.9438 -1.1127 -1.0055
11822SOL    HW236908   3.462   0.323   2.712  0.6726  1.5395 -0.5996
11823SOL     OW36909   3.055   7.447   4.846 -0.3325 -0.2112 -0.0827
11823SOL    HW136910   3.062   7.491   4.931 -0.3612 -0.8253  0.2457
11823SOL    HW236911   2.973   7.398   4.852 -0.8598  0.5517 -0.8540
11824SOL     OW36912   2.626   7.677   0.898 -0.2273  0.1464  0.1918
11824SOL    HW136913   2.568   7.602   0.908 -0.0489  0.0974  0.8597
11824SOL    HW236914   2.638   7.684   0.803 -0.1086 -0.7673  0.1304
11825SOL     OW36915   2.498   7.821   3.370  0.2598  0.0565  0.0665
11825SOL    HW136916   2.560   7.894   3.364 -0.3279  0.4888 -1.1070
11825SOL    HW236917   2.427   7.854   3.426  1.0375 -0.4202  1.3679
11826SOL     OW36918   4.247   7.068   5.262  0.6541  0.1524 -0.1340
11826SOL    HW136919   4.309   7.056   5.190  0.1354  1.2220 -0.7932
11826SOL    HW236920   4.237   7.163   5.270 -1.6630  0.0393 -0.7670
11827SOL     OW36921   3.778   0.279   6.015 -0.2141 -0.6316  0.2446
11827SOL    HW136922   3.729   0.221   6.074 -0.8221  0.2283  0.5890
11827SOL    HW236923   3.797   0.356   6.068 -0.3448 -0.0520 -0.5437
11828SOL     OW36924   0.426   7.646   1.740 -0.1507  0.0319  0.3247
11828SOL    HW136925   0.480   7.567   1.737 -1.3352 -0.7860 -0.4484
11828SOL    HW236926   0.472   7.709   1.684 -0.4015 -0.9488 -1.0377
11829SOL     OW36927   1.712   5.630   2.877  0.2373 -0.1869 -0.2955
11829SOL    HW136928   1.733   5.701   2.816  1.0429 -0.4605 -0.3425
11829SOL    HW236929   1.617   5.636   2.887  0.1866  0.3643 -0.9590
11830SOL     OW36930   1.855   5.827   2.732  0.4576  0.2816  0.1670
11830SOL    HW136931   1.924   5.874   2.779  0.0200  2.0516 -0.8559
11830SOL    HW236932   1.828   5.887   2.663 -0.4173 -1.3640 -0.9960
11831SOL     OW36933   2.207   7.265   2.603  0.3008  0.3293 -0.2120
11831SOL    HW136934   2.161   7.188   2.568 -0.6600 -0.2289  2.1128
11831SOL    HW236935   2.299   7.251   2.577 -0.3185  0.0018 -2.4544
11832SOL     OW36936   2.929   6.937   3.365 -0.3984  0.3029  0.2054
11832SOL    HW136937   2.987   6.906   3.435 -2.3359 -1.9624  0.9678
11832SOL    HW236938   2.907   7.027   3.389 -0.9659 -0.3901  2.5639
11833SOL     OW36939   3.399   6.883   2.969  0.6461 -0.1735  0.6805
11833SOL    HW136940   3.345   6.877   3.048 -0.2198  0.0401  0.1276
11833SOL    HW236941   3.408   6.792   2.940 -0.1681 -0.1545  0.3108
11834SOL     OW36942   2.164   7.321   4.245 -0.0510  0.0712  0.0078
11834SOL    HW136943   2.251   7.336   4.209  0.0568 -1.4810 -0.4513
11834SOL    HW236944   2.144   7.400   4.295  0.9175  1.1543 -1.2497
11835SOL     OW36945   1.652   7.617   3.191  0.2660 -0.3078 -0.1444
11835SOL    HW136946   1.614   7.705   3.199 -3.0707 -1.6594  0.5696
11835SOL    HW236947   1.677   7.610   3.099 -0.6313  0.9528 -0.5176
11836SOL     OW36948   3.377   0.380   5.848 -0.0592 -0.2757  0.2342
11836SOL    HW136949   3.464   0.381   5.809  0.5323  0.1576  1.5109
11836SOL    HW236950   3.392   0.358   5.940 -1.3410 -0.6007  0.3893
11837SOL     OW36951   4.318   0.182   5.115 -0.0257  0.4924  0.4213
11837SOL    HW136952   4.330   0.276   5.105 -0.2896  0.6047  1.0945
11837SOL    HW236953   4.265   0.173   5.195 -0.1482 -0.2142  0.2668
11838SOL     OW36954   3.436   7.799   6.181  0.0843 -0.4663 -0.4077
11838SOL    HW136955   3.470   7.747   6.108  0.8772 -0.5451  0.0062
11838SOL    HW236956   3.424   7.735   6.252  3.0996  0.1558  0.8211
11839SOL     OW36957   2.651   6.908   5.823  0.2898 -0.8094  0.4097
11839SOL    HW136958   2.716   6.874   5.884 -0.4718  1.2185  2.5201
11839SOL    HW236959   2.696   6.977   5.775  1.1218 -2.9152 -2.0805
11840SOL     OW36960   0.618   0.512   4.971 -0.1247 -0.2600  0.2608
11840SOL    HW136961   0.696   0.462   4.948  0.5184 -0.1350  2.0453
11840SOL    HW236962   0.559   0.448   5.011  0.0617  0.0818  1.1110
11841SOL     OW36963   3.938   6.977   5.076 -0.4389  0.1784 -0.0264
11841SOL    HW136964   3.861   6.921   5.064 -1.5935  0.9552  2.8148
11841SOL    HW236965   4.012   6.917   5.078 -1.0582 -0.7097 -1.6952
11842SOL     OW36966   1.213   5.919   5.620 -0.5149  0.5115 -0.5116
11842SOL    HW136967   1.275   5.853   5.650  0.8989  2.6576  1.6206
11842SOL    HW236968   1.205   5.903   5.526  3.4417  0.2149 -0.9566
11843SOL     OW36969   4.083   6.136   5.527  0.0948 -0.3459 -0.7407
11843SOL    HW136970   4.046   6.221   5.506  0.3595  0.2059  0.9169
11843SOL    HW236971   4.013   6.074   5.509 -0.2283  0.2575 -1.5833
11844SOL     OW36972   3.312   7.247   5.377  0.5596 -0.1801 -0.5933
11844SOL    HW136973   3.305   7.160   5.416 -0.7575 -0.4182 -1.2902
11844SOL    HW236974   3.221   7.272   5.358  1.0243  0.5852 -1.9849
11845SOL     OW36975   4.669   1.209   4.328  0.5728 -0.0196  0.1871
11845SOL    HW136976   4.621   1.218   4.246 -0.7266 -1.3665  0.7528
11845SOL    HW236977   4.727   1.286   4.331 -0.6366  0.9949 -1.1263
11846SOL     OW36978   1.919   6.896   3.706  0.0060 -0.3332  0.2429
11846SOL    HW136979   1.826   6.913   3.724  0.1632  0.2896  0.4926
11846SOL    HW236980   1.965   6.935   3.780  0.3629 -2.6184  1.3295
11847SOL     OW36981   1.675   5.746   3.542  0.1540 -0.1042 -0.1813
11847SOL    HW136982   1.671   5.776   3.633  0.6460  0.6059 -0.3819
11847SOL    HW236983   1.630   5.815   3.492  0.5979 -0.0876 -0.5628
11848SOL     OW36984   2.655   1.884   5.703 -0.0705  0.2255  0.0380
11848SOL    HW136985   2.697   1.934   5.633 -0.6194 -0.1190 -0.5539
11848SOL    HW236986   2.579   1.843   5.661 -0.4113  0.0084  0.8361
11849SOL     OW36987   3.633   0.525   4.748 -0.0312 -0.0676 -0.1013
11849SOL    HW136988   3.613   0.457   4.812  0.4460  1.1667  1.4284
11849SOL    HW236989   3.675   0.594   4.799  0.4093  0.9550 -1.7726
11850SOL     OW36990   1.894   6.371   5.764 -0.1508 -0.4476 -0.5251
11850SOL    HW136991   1.983   6.338   5.753 -0.8546 -2.3065 -1.0826
11850SOL    HW236992   1.879   6.367   5.859  0.1278 -0.7854 -0.4916
11851SOL     OW36993   1.617   5.556   4.548  0.1122 -0.5394 -0.5616
11851SOL    HW136994   1.580   5.498   4.481 -3.0196  1.2771 -0.5835
11851SOL    HW236995   1.541   5.589   4.596  1.9956  1.1975  1.4180
11852SOL     OW36996   3.650   5.684   5.123  0.6093 -0.2708 -0.2068
11852SOL    HW136997   3.693   5.644   5.199 -0.1312  0.4895  0.6463
11852SOL    HW236998   3.649   5.616   5.057  1.0328 -1.0526  0.5735
11853SOL     OW36999   2.365   7.137   5.104  0.2188 -0.2828 -0.5682
11853SOL    HW137000   2.449   7.151   5.148 -0.1990 -1.0539  0.5149
11853SOL    HW237001   2.388   7.095   5.021  1.1056  2.2396 -1.6778
11854SOL     OW37002   2.879   7.248   4.803 -0.0306  0.4467 -0.2151
11854SOL    HW137003   2.949   7.220   4.743 -1.8302 -0.4969 -1.9943
11854SOL    HW237004   2.810   7.182   4.792 -1.3311  1.4637  1.3038
11855SOL     OW37005   4.983   7.498   5.974  0.1347 -0.1203 -0.0249
11855SOL    HW137006   5.018   7.574   6.022 -2.2027 -0.4138  2.4201
11855SOL    HW237007   4.960   7.533   5.888  0.8773  1.4664  0.3756
11856SOL     OW37008   2.778   6.224   4.129 -0.4581 -0.2671  0.1987
11856SOL    HW137009   2.822   6.159   4.073 -0.8538 -0.5846  0.2515
11856SOL    HW237010   2.849   6.278   4.163 -0.0606 -1.0724  0.6669
11857SOL     OW37011   1.425   6.437   3.685 -0.3744  0.4729  0.1350
11857SOL    HW137012   1.507   6.480   3.663  0.6876 -1.9670 -0.9188
11857SOL    HW237013   1.429   6.352   3.642 -2.9305 -0.2166  1.0683
11858SOL     OW37014   3.119   7.520   4.514 -0.1476  0.0266  0.2137
11858SOL    HW137015   3.044   7.460   4.509  0.6563 -1.1437  1.4778
11858SOL    HW237016   3.182   7.475   4.569  0.4731  2.1077  1.3048
11859SOL     OW37017   0.840   0.376   6.471  0.8204 -0.2080  0.4231
11859SOL    HW137018   0.879   0.310   6.414  1.6518 -0.7642  1.6105
11859SOL    HW237019   0.759   0.401   6.426  2.0607  0.3221 -1.6471
11860SOL     OW37020   2.805   7.633   3.833 -0.2010 -0.2673  0.5152
11860SOL    HW137021   2.819   7.648   3.927 -0.2943 -0.2160  0.5216
11860SOL    HW237022   2.719   7.672   3.816  0.3021  0.7271  0.1727
11861SOL     OW37023   5.878   7.838   3.898 -0.4173 -0.1457  0.0438
11861SOL    HW137024   5.806   7.878   3.848 -1.5379  0.3486  1.9483
11861SOL    HW237025   5.939   7.909   3.915  0.2832 -0.4502 -1.1146
11862SOL     OW37026   4.567   7.117   5.336 -0.4095  0.0026  0.1661
11862SOL    HW137027   4.604   7.073   5.413  0.2240  1.2211  0.5753
11862SOL    HW237028   4.525   7.046   5.287  1.4965 -1.2665  0.2425
11863SOL     OW37029   1.987   6.926   3.392  0.1768 -0.1825 -0.4900
11863SOL    HW137030   2.007   6.846   3.343  2.7217  0.7464 -1.1027
11863SOL    HW237031   2.016   6.997   3.335 -1.7610  1.2343  0.1708
11864SOL     OW37032   2.712   7.016   4.885  0.3507  0.2435 -0.1715
11864SOL    HW137033   2.683   7.040   4.973  2.5125  0.2926  0.5853
11864SOL    HW237034   2.719   6.920   4.887  0.1750  0.2245 -0.3789
11865SOL     OW37035   3.595   7.056   5.611  0.3220 -0.1751 -0.2064
11865SOL    HW137036   3.664   7.066   5.677 -0.8131  1.2084  0.8257
11865SOL    HW237037   3.616   7.123   5.545  1.8909 -2.0560 -1.7306
11866SOL     OW37038   3.757   0.331   4.937  0.4716  0.1714 -0.4994
11866SOL    HW137039   3.836   0.295   4.896 -0.4484 -1.0157 -1.2650
11866SOL    HW237040   3.776   0.329   5.031  1.0172 -0.9357 -0.6238
11867SOL     OW37041   0.947   6.925   6.726 -0.0443 -0.0929 -0.0030
11867SOL    HW137042   0.999   6.956   6.651  0.5822 -0.9145  0.0795
11867SOL    HW237043   0.907   7.004   6.761  1.1446  0.5767 -0.0841
11868SOL     OW37044   2.647   7.126   5.164  0.3066  0.0536  0.3722
11868SOL    HW137045   2.734   7.157   5.139  0.9205 -1.4593  0.5629
11868SOL    HW237046   2.657   7.096   5.254  0.1775 -2.1912 -0.3150
11869SOL     OW37047   3.408   7.655   6.452 -0.2179  0.6666  0.2116
11869SOL    HW137048   3.478   7.627   6.511 -0.1371  1.3522  0.4481
11869SOL    HW237049   3.349   7.705   6.508 -1.4058 -0.7005  0.2198
11870SOL     OW37050   4.330   7.814   6.793 -0.0024 -0.1863 -0.3207
11870SOL    HW137051   4.340   7.834   6.700  0.2925 -0.8275 -0.4347
11870SOL    HW237052   4.397   7.747   6.810  0.7019  0.7343  0.6138
11871SOL     OW37053   1.256   0.255   3.974 -0.0681 -0.6517  0.8304
11871SOL    HW137054   1.172   0.299   3.987  0.0826 -0.3740  0.8946
11871SOL    HW237055   1.237   0.182   3.915 -0.6908 -1.7018  2.2892
11872SOL     OW37056   4.572   2.626   3.161  0.0153  0.0867 -0.1649
11872SOL    HW137057   4.543   2.591   3.077 -0.1585 -0.5730  0.1583
11872SOL    HW237058   4.536   2.715   3.164 -1.0956 -0.3352 -0.2396
11873SOL     OW37059   0.967   6.075   4.476 -0.1725  0.5415 -0.0732
11873SOL    HW137060   0.960   6.130   4.397  0.7695  0.0958 -0.4850
11873SOL    HW237061   1.023   6.126   4.535 -0.7424  0.8007  0.2515
11874SOL     OW37062   2.124   0.143   3.075 -0.4063 -0.1210  0.5159
11874SOL    HW137063   2.138   0.092   2.996 -0.7080  0.3711  0.1307
11874SOL    HW237064   2.031   0.168   3.071 -0.0947  1.0706  0.3039
11875SOL     OW37065   4.161   0.665   4.551  0.4293  0.8819 -0.2640
11875SOL    HW137066   4.256   0.679   4.552  0.5654 -0.0247  0.9920
11875SOL    HW237067   4.150   0.579   4.511  0.2299  0.4563  0.6794
11876SOL     OW37068   4.222   6.866   5.457  0.0984 -0.5206  0.1412
11876SOL    HW137069   4.126   6.869   5.463  0.0212 -2.5688  0.8795
11876SOL    HW237070   4.244   6.931   5.390 -1.7633  0.3265  0.2875
11877SOL     OW37071   2.112   5.776   3.887 -0.6276 -0.5720  0.5687
11877SOL    HW137072   2.114   5.713   3.958  0.7071 -1.0525  0.1371
11877SOL    HW237073   2.204   5.800   3.874 -1.0128  0.7171  0.0714
11878SOL     OW37074   2.487   6.768   4.849 -0.9455 -0.4180  0.1382
11878SOL    HW137075   2.493   6.694   4.788 -0.7873 -0.4048  0.1367
11878SOL    HW237076   2.534   6.738   4.927 -1.0688 -0.4007  0.2183
11879SOL     OW37077   1.181   0.306   6.626  0.2013 -0.7195  0.3454
11879SOL    HW137078   1.152   0.317   6.535 -0.9489 -0.3824  0.7458
11879SOL    HW237079   1.228   0.223   6.626 -1.4073 -1.6651 -0.1826
11880SOL     OW37080   2.019   7.948   3.793 -0.5868 -0.1006  0.5105
11880SOL    HW137081   2.110   7.973   3.808 -0.0890 -1.6009  0.1579
11880SOL    HW237082   1.975   8.030   3.770  0.1946  1.0299  2.7069
11881SOL     OW37083   3.042   0.140   6.509  0.0518  0.1768 -0.0802
11881SOL    HW137084   3.027   0.073   6.442  1.1539 -0.9441  0.7451
11881SOL    HW237085   2.992   0.215   6.479  0.5447 -0.2697 -2.1903
11882SOL     OW37086   1.976   6.271   4.474 -0.3621 -1.0377  0.1205
11882SOL    HW137087   2.045   6.241   4.416 -0.1762 -1.6150  0.6339
11882SOL    HW237088   2.022   6.316   4.545 -0.5422 -1.0088  0.2201
11883SOL     OW37089   4.890   1.249   3.040  0.5014  0.0069 -0.1741
11883SOL    HW137090   4.895   1.299   2.958  1.9836  0.4392  0.1490
11883SOL    HW237091   4.954   1.179   3.030  0.6017 -0.0157  0.5569
11884SOL     OW37092   4.440   7.433   5.207  0.0749 -0.4117 -0.3097
11884SOL    HW137093   4.431   7.405   5.116 -0.1893  0.0421 -0.4265
11884SOL    HW237094   4.438   7.352   5.258 -2.0052 -0.5612 -0.5389
11885SOL     OW37095   2.677   1.605   6.249 -0.1436  0.6276 -0.6472
11885SOL    HW137096   2.737   1.546   6.205 -0.4966 -1.7120  1.7362
11885SOL    HW237097   2.730   1.682   6.271  1.7011 -0.8384  0.3082
11886SOL     OW37098   2.159   6.956   4.050 -0.0369  0.0975 -0.0978
11886SOL    HW137099   2.092   6.985   3.989 -0.2482 -1.8505 -0.8405
11886SOL    HW237100   2.117   6.959   4.136 -0.4894  0.5719 -0.3301
11887SOL     OW37101   3.683   6.871   5.050  0.1174  0.4609 -0.3817
11887SOL    HW137102   3.636   6.935   5.102 -0.1508  0.6577 -0.8632
11887SOL    HW237103   3.641   6.873   4.964  0.1345 -0.3213 -0.4198
11888SOL     OW37104   2.347   6.565   6.638 -0.3941 -0.4496  0.8095
11888SOL    HW137105   2.295   6.635   6.678 -0.4695 -0.8869  1.4929
11888SOL    HW237106   2.291   6.529   6.569 -0.2970  0.2519  0.3562
11889SOL     OW37107   2.420   6.816   4.324  0.1012 -0.2346  0.0209
11889SOL    HW137108   2.404   6.888   4.262 -1.5951  0.3730  1.0657
11889SOL    HW237109   2.418   6.858   4.410  0.3115 -1.3647  0.5984
11890SOL     OW37110   2.149   7.024   3.597  0.8492 -0.2696  0.1748
11890SOL    HW137111   2.213   6.952   3.594  1.4710  0.3014 -1.8637
11890SOL    HW237112   2.065   6.982   3.580  1.1423 -0.5823 -0.5209
11891SOL     OW37113   4.099   0.614   5.365  0.6011 -0.4664 -0.0090
11891SOL    HW137114   4.130   0.602   5.455  0.6711 -3.2628 -0.3122
11891SOL    HW237115   4.179   0.618   5.313  0.5405  0.0692 -0.0653
11892SOL     OW37116   2.890   7.650   4.346  0.3275  0.2921 -0.0643
11892SOL    HW137117   2.864   7.645   4.438 -1.4033 -0.3912 -0.5529
11892SOL    HW237118   2.986   7.645   4.348  0.3251  0.3133  1.6908
11893SOL     OW37119   2.367   6.915   4.582 -0.2553  0.1217  0.3123
11893SOL    HW137120   2.341   6.980   4.648 -0.4651 -0.0876  0.4390
11893SOL    HW237121   2.431   6.859   4.627  0.0569  0.3443  0.1493
11894SOL     OW37122   2.138   7.233   5.238 -0.0019 -0.1340  0.4081
11894SOL    HW137123   2.103   7.274   5.159 -0.8342  0.0957  0.8802
11894SOL    HW237124   2.233   7.241   5.229 -0.0824 -0.2450 -0.6297
11895SOL     OW37125   2.462   7.093   5.611  0.7006 -0.1082 -0.4331
11895SOL    HW137126   2.408   7.032   5.561  1.5071 -0.1098 -1.3378
11895SOL    HW237127   2.477   7.050   5.695  0.7974 -0.9107 -0.8561
11896SOL     OW37128   2.865   7.998   5.988 -0.4693  0.0785  0.6187
11896SOL    HW137129   2.792   7.950   5.949  0.5817 -0.1332 -1.2083
11896SOL    HW237130   2.847   8.089   5.966 -1.7611  0.4637  2.9208
11897SOL     OW37131   4.988   6.869   7.378  0.1193 -0.0381 -0.7231
11897SOL    HW137132   4.894   6.884   7.368  0.1842  0.1177 -1.1424
11897SOL    HW237133   5.028   6.941   7.330  0.4466 -0.6487 -1.3772
11898SOL     OW37134   5.476   6.769   6.037 -0.1742 -0.0134 -0.3170
11898SOL    HW137135   5.423   6.791   6.114  0.7512 -0.2870  0.4251
11898SOL    HW237136   5.480   6.674   6.036  1.9497  0.0049  0.8550
11899SOL     OW37137   2.140   4.851   3.791 -0.2572  0.7051  0.0309
11899SOL    HW137138   2.164   4.891   3.875 -0.8506  3.9326 -1.1928
11899SOL    HW237139   2.044   4.843   3.795 -0.2332  0.3550 -0.1197
11900SOL     OW37140   2.632   7.654   5.118  0.1085  1.1414 -0.0208
11900SOL    HW137141   2.574   7.593   5.163 -0.0776  0.3280 -1.3079
11900SOL    HW237142   2.683   7.599   5.058  1.9273  1.8816  0.7652
11901SOL     OW37143   3.544   6.392   4.253 -0.5060 -0.5212  0.0494
11901SOL    HW137144   3.563   6.358   4.341 -0.9896 -2.4888 -0.5769
11901SOL    HW237145   3.630   6.418   4.219 -0.3492  0.5642  1.1864
11902SOL     OW37146   3.182   1.504   8.687 -0.3178 -0.4087  0.0818
11902SOL    HW137147   3.226   1.582   8.652 -0.8681  0.3101  0.9441
11902SOL    HW237148   3.109   1.490   8.627 -0.4782  0.0109  0.1764
11903SOL     OW37149   2.377   0.783   6.490 -0.6385 -0.0225  0.3733
11903SOL    HW137150   2.458   0.770   6.442 -1.5894 -0.2190 -1.2420
11903SOL    HW237151   2.338   0.695   6.494  0.0059 -0.2733  2.6821
11904SOL     OW37152   2.004   0.922   7.953 -0.3847 -0.5968  0.4624
11904SOL    HW137153   2.082   0.877   7.986 -1.1454 -0.5055  2.5558
11904SOL    HW237154   1.946   0.851   7.925  0.6337 -0.6493 -1.7441
11905SOL     OW37155   3.039   7.190   6.378  0.1348 -0.2332  0.0971
11905SOL    HW137156   3.131   7.194   6.402  0.3591  1.1805 -0.8406
11905SOL    HW237157   3.001   7.269   6.416 -0.7213 -0.8330  0.5291
11906SOL     OW37158   4.022   7.835   5.105 -0.0850 -0.4687  0.2092
11906SOL    HW137159   4.063   7.912   5.064 -2.0782  0.9029  0.6296
11906SOL    HW237160   4.019   7.857   5.198 -0.4549 -1.1581  0.3609
11907SOL     OW37161   5.093   0.569   8.749 -0.3648  0.0183 -0.1655
11907SOL    HW137162   5.084   0.614   8.834 -2.3610 -1.2538  0.3751
11907SOL    HW237163   5.074   0.637   8.684 -1.4578  0.4417  0.5566
11908SOL     OW37164   1.372   7.784   5.947  0.0227 -0.2706 -0.5481
11908SOL    HW137165   1.409   7.861   5.903  0.6240 -0.5279 -0.5062
11908SOL    HW237166   1.402   7.710   5.895  1.3736 -0.6396  0.6816
11909SOL     OW37167   2.691   7.818   5.921 -0.1936  0.1595 -0.4617
11909SOL    HW137168   2.654   7.751   5.863 -1.8686 -0.0055  0.7434
11909SOL    HW237169   2.619   7.841   5.980  1.6080 -0.1379  1.9878
11910SOL     OW37170   4.007   1.157   7.956  0.1737  0.3127  0.0460
11910SOL    HW137171   3.928   1.134   7.906  0.2626  0.3844 -0.1279
11910SOL    HW237172   4.026   1.079   8.007 -0.3213  0.4774  0.4972
11911SOL     OW37173   5.156   7.029   7.227 -0.0425 -0.2190  0.7033
11911SOL    HW137174   5.222   7.089   7.261  1.2530 -1.2034  0.0404
11911SOL    HW237175   5.207   6.958   7.187 -1.4320 -2.7717  3.0698
11912SOL     OW37176   4.054   7.057   7.722  0.0133 -0.3032  0.2341
11912SOL    HW137177   4.086   7.127   7.778 -3.0190  0.7363  0.8853
11912SOL    HW237178   4.059   6.978   7.776 -0.3920  0.2071  1.0405
11913SOL     OW37179   2.682   7.368   6.635  0.0185  0.7698 -0.1045
11913SOL    HW137180   2.593   7.340   6.657 -0.8488  2.3364 -1.4172
11913SOL    HW237181   2.735   7.339   6.710 -1.5710 -0.1989  0.7048
11914SOL     OW37182   2.029   6.762   5.122  0.7664  0.1516 -0.6692
11914SOL    HW137183   1.938   6.753   5.152  0.5440  1.5341 -0.8619
11914SOL    HW237184   2.067   6.827   5.181  1.2921  0.4610 -1.3381
11915SOL     OW37185   4.037   7.875   4.761  0.3314  0.0808  0.2435
11915SOL    HW137186   4.076   7.947   4.810  0.9154 -0.1493  0.1247
11915SOL    HW237187   4.015   7.914   4.676  0.3023  0.2094  0.3084
11916SOL     OW37188   4.111   0.074   6.674 -0.3485  0.2657  0.2382
11916SOL    HW137189   4.113   0.101   6.582  0.8851 -0.2759  0.0824
11916SOL    HW237190   4.194   0.107   6.710 -0.3274 -0.4603  0.8739
11917SOL     OW37191   1.985   0.167   8.420 -0.2494 -0.5465  0.2813
11917SOL    HW137192   1.982   0.214   8.337 -2.1703  0.5651  0.9222
11917SOL    HW237193   2.063   0.202   8.464  0.4211 -0.6822 -0.7684
11918SOL     OW37194   1.715   0.877   7.254 -0.1065 -0.2687 -0.0706
11918SOL    HW137195   1.747   0.787   7.263 -1.2043 -0.8817 -1.7486
11918SOL    HW237196   1.690   0.903   7.342 -1.6186 -2.3464  0.1777
11919SOL     OW37197   2.816   7.203   5.970  0.2653 -0.0047  0.0005
11919SOL    HW137198   2.804   7.211   5.876 -1.4469  0.9993  0.2596
11919SOL    HW237199   2.818   7.293   6.002 -0.4008 -0.3354  1.0377
11920SOL     OW37200   4.357   0.314   7.788  0.1017  0.1098  0.5895
11920SOL    HW137201   4.335   0.261   7.712  3.9930  1.0051 -1.3816
11920SOL    HW237202   4.422   0.262   7.836  0.4640  1.1301  1.2414
11921SOL     OW37203   4.374   0.822   4.315  0.7834 -0.3347  0.3935
11921SOL    HW137204   4.317   0.859   4.248 -0.2138  0.9388  1.8738
11921SOL    HW237205   4.318   0.762   4.364  1.4471 -1.0930  0.2502
11922SOL     OW37206   2.674   0.706   7.603 -0.2497  0.4023 -0.2403
11922SOL    HW137207   2.625   0.642   7.551 -0.5939  1.4877 -1.2773
11922SOL    HW237208   2.680   0.783   7.547  0.7768  1.0409  0.7194
11923SOL     OW37209   5.750   7.224   6.745 -0.7216  0.3584 -0.1811
11923SOL    HW137210   5.777   7.134   6.766  0.0940  0.4337 -0.8744
11923SOL    HW237211   5.777   7.275   6.822  0.5454  0.3180 -0.5769
11924SOL     OW37212   1.906   7.877   9.016 -1.1662  0.2528  0.1663
11924SOL    HW137213   1.966   7.903   8.945 -0.5997  1.3133  1.0003
11924SOL    HW237214   1.890   7.784   9.001  3.2195 -1.0091  1.6192
11925SOL     OW37215   1.187   0.088   6.247 -0.6719 -0.1784 -0.1131
11925SOL    HW137216   1.226   0.060   6.164  0.3509  1.1020 -0.1075
11925SOL    HW237217   1.256   0.073   6.312  0.4451  3.2545 -0.2865
11926SOL     OW37218   2.340   1.273   8.061 -0.5590  0.1513 -0.0439
11926SOL    HW137219   2.400   1.203   8.084  0.9332  0.9035 -1.4872
11926SOL    HW237220   2.259   1.252   8.109 -0.5763 -3.1183 -1.2414
11927SOL     OW37221   3.427   7.047   8.217  0.4300  0.2668  0.1442
11927SOL    HW137222   3.476   7.097   8.282  1.4515 -0.5680  0.0344
11927SOL    HW237223   3.339   7.040   8.254  0.5062  1.3547  0.5754
11928SOL     OW37224   1.984   6.982   7.126 -0.2055  0.1077 -0.1322
11928SOL    HW137225   2.073   7.014   7.144  0.8967 -1.7632 -1.8211
11928SOL    HW237226   1.986   6.890   7.151 -1.7763  0.0981  0.0341
11929SOL     OW37227   2.366   7.465   6.401 -0.0084 -0.0639  0.5986
11929SOL    HW137228   2.444   7.513   6.428  0.5645 -0.4716 -0.2954
11929SOL    HW237229   2.297   7.531   6.398  0.9453  0.8965 -1.4202
11930SOL     OW37230   3.221   7.759   6.631 -0.3944  0.1717 -0.4647
11930SOL    HW137231   3.203   7.743   6.724  1.0908 -0.3928 -0.2494
11930SOL    HW237232   3.135   7.751   6.588 -0.6536 -2.9380  0.3968
11931SOL     OW37233   1.606   0.064   6.073  0.4095 -0.0950 -0.0260
11931SOL    HW137234   1.587   0.007   6.148 -2.0656  0.0981 -0.4160
11931SOL    HW237235   1.580   0.151   6.102 -0.2280  0.0400 -0.9801
11932SOL     OW37236   3.488   6.558   6.572 -0.1383  0.3222  0.2418
11932SOL    HW137237   3.571   6.514   6.554 -0.3896  0.1044 -0.3719
11932SOL    HW237238   3.421   6.499   6.538 -0.5475  0.5081  0.7187
11933SOL     OW37239   3.226   1.122   7.195 -0.0593  0.0087  0.0305
11933SOL    HW137240   3.248   1.082   7.111 -2.7300  1.0709 -1.2893
11933SOL    HW237241   3.290   1.192   7.206  1.0943 -0.9338 -0.4625
11934SOL     OW37242   3.037   7.368   5.683  0.6492  0.2702  0.0155
11934SOL    HW137243   2.971   7.436   5.695 -0.5816 -1.0080  0.7660
11934SOL    HW237244   3.116   7.405   5.723  0.1791  1.4863 -0.1274
11935SOL     OW37245   2.744   5.681   7.737  0.0140 -0.5279 -0.1267
11935SOL    HW137246   2.770   5.766   7.701  0.8203 -0.8154 -0.2587
11935SOL    HW237247   2.823   5.627   7.730  0.1231 -0.6851  1.8225
11936SOL     OW37248   2.128   6.976   8.443 -0.1651  0.1394  0.0255
11936SOL    HW137249   2.090   6.981   8.356 -1.9570  0.1848  0.7628
11936SOL    HW237250   2.112   7.062   8.482 -0.6518 -0.3151  0.8718
11937SOL     OW37251   1.861   0.804   9.017  0.0371  0.2551  0.1429
11937SOL    HW137252   1.904   0.876   8.971  0.6847 -0.1224  0.1452
11937SOL    HW237253   1.823   0.844   9.096  1.1347  0.4393  0.5859
11938SOL     OW37254   1.519   1.232   5.965  0.3540 -0.0131  0.4822
11938SOL    HW137255   1.427   1.252   5.983  0.4598 -0.4482  1.5839
11938SOL    HW237256   1.568   1.287   6.027  0.9705  1.9817 -1.6500
11939SOL     OW37257   2.824   1.189   7.951 -0.5514  0.3896 -0.0313
11939SOL    HW137258   2.853   1.104   7.918 -0.9597  0.6759 -1.1844
11939SOL    HW237259   2.874   1.203   8.031 -1.3946 -1.5082  0.8682
11940SOL     OW37260   5.105   7.144   4.016 -0.0104  0.1245 -0.4246
11940SOL    HW137261   5.173   7.077   4.003 -0.3225 -0.2765 -0.0602
11940SOL    HW237262   5.078   7.168   3.928  1.0275  0.7329 -0.5890
11941SOL     OW37263   2.626   6.749   5.621 -0.6050  0.3065 -0.5302
11941SOL    HW137264   2.651   6.801   5.697  1.1924  0.6321 -1.2763
11941SOL    HW237265   2.686   6.674   5.623 -2.2338 -1.0451 -0.2467
11942SOL     OW37266   3.054   6.719   5.544  0.0429 -0.4717 -0.5404
11942SOL    HW137267   3.135   6.682   5.579  0.6885 -0.9353 -2.3759
11942SOL    HW237268   3.064   6.711   5.449 -2.0965 -0.3882 -0.8164
11943SOL     OW37269   3.156   0.552   8.894  0.6432  0.4679  0.3509
11943SOL    HW137270   3.196   0.465   8.901 -0.3049  0.0244  0.4013
11943SOL    HW237271   3.185   0.598   8.973 -1.2239 -0.8129  1.8611
11944SOL     OW37272   4.055   7.626   7.462 -0.4435  0.0731 -0.4516
11944SOL    HW137273   4.010   7.549   7.427 -0.9725 -0.5870  1.5093
11944SOL    HW237274   4.119   7.589   7.523 -0.0086  1.1595 -0.2369
11945SOL     OW37275   3.301   7.798   5.802 -0.2088  0.2342  0.6689
11945SOL    HW137276   3.238   7.839   5.861 -1.8280 -0.4939 -0.4633
11945SOL    HW237277   3.385   7.809   5.845 -0.6329  3.8794  0.8557
11946SOL     OW37278   2.304   7.394   6.000  0.2622  0.0587  0.2738
11946SOL    HW137279   2.251   7.335   5.946  1.5673 -0.3557 -0.5961
11946SOL    HW237280   2.270   7.481   5.979  0.5075 -0.1206 -0.9699
11947SOL     OW37281   2.549   0.462   7.498 -0.3766 -0.4166  0.7688
11947SOL    HW137282   2.530   0.478   7.405  0.0917 -0.3241  0.6863
11947SOL    HW237283   2.469   0.423   7.532 -0.5060 -0.5807  0.2918
11948SOL     OW37284   2.362   7.367   5.444 -0.1636 -0.3654 -0.1626
11948SOL    HW137285   2.299   7.320   5.498 -1.0190  0.4055 -0.4862
11948SOL    HW237286   2.317   7.446   5.415  1.0621  0.3949 -0.0996
11949SOL     OW37287   3.661   0.849   6.932  0.0014  0.3817  0.0426
11949SOL    HW137288   3.656   0.939   6.898  1.0181  1.0340  1.5161
11949SOL    HW237289   3.741   0.814   6.894  0.4237  0.6515  0.6578
11950SOL     OW37290   2.991   0.532   4.978 -0.6231  0.2074  0.2777
11950SOL    HW137291   3.053   0.469   4.941 -1.4578  0.6054 -1.9903
11950SOL    HW237292   3.024   0.550   5.066  1.9667 -0.2764 -0.5006
11951SOL     OW37293   4.142   7.237   7.290  0.8365 -0.0332 -0.3569
11951SOL    HW137294   4.122   7.310   7.232  0.6353 -1.5952 -2.3923
11951SOL    HW237295   4.237   7.243   7.303  0.4249  2.5396  2.4334
11952SOL     OW37296   5.978   7.094   6.500 -0.0678  0.3404  0.3124
11952SOL    HW137297   5.899   7.044   6.482 -0.3954  0.8023  0.4392
11952SOL    HW237298   6.045   7.056   6.443  0.0139 -1.0323  1.2539
11953SOL     OW37299   3.006   0.919   7.587 -0.0689 -0.8833  0.3129
11953SOL    HW137300   3.098   0.940   7.572 -0.0573  0.2228  1.6310
11953SOL    HW237301   3.002   0.824   7.587  0.9727 -0.9414 -0.2671
11954SOL     OW37302   2.461   0.506   7.234  0.0833 -0.0765 -0.7056
11954SOL    HW137303   2.481   0.435   7.173 -1.9386 -0.2396 -1.2409
11954SOL    HW237304   2.466   0.586   7.181 -0.6500 -0.1165 -0.8350
11955SOL     OW37305   4.301   0.819   7.291 -0.6418  0.8780  0.3607
11955SOL    HW137306   4.220   0.869   7.281 -0.0907  1.5810 -0.6664
11955SOL    HW237307   4.322   0.826   7.384 -1.5677  0.9673  0.5739
11956SOL     OW37308   3.755   6.096   7.008 -0.1633  0.4817 -0.1358
11956SOL    HW137309   3.681   6.081   7.068  1.3672  2.1691  2.3606
11956SOL    HW237310   3.714   6.125   6.927 -2.2856  0.7296  0.9433
11957SOL     OW37311   1.485   0.327   6.080  0.1625 -0.2412 -0.1268
11957SOL    HW137312   1.411   0.336   6.021 -0.2738 -2.0945  0.0912
11957SOL    HW237313   1.468   0.391   6.150 -1.0832 -0.4506 -0.2248
11958SOL     OW37314   1.054   6.669   6.782  0.1265  0.1770 -0.1286
11958SOL    HW137315   1.003   6.738   6.741 -1.4946 -0.7594  0.2324
11958SOL    HW237316   0.989   6.606   6.814  1.3855  0.0348  2.4024
11959SOL     OW37317   2.564   7.405   7.052  0.0878  0.3586  0.4302
11959SOL    HW137318   2.505   7.391   7.127 -0.4937 -0.6261 -0.1908
11959SOL    HW237319   2.612   7.485   7.074  0.3833 -0.2483  2.1495
11960SOL     OW37320   4.140   6.970   7.308  0.3258  0.4137 -0.2695
11960SOL    HW137321   4.044   6.965   7.311  0.4021 -0.9518  0.4833
11960SOL    HW237322   4.158   7.064   7.309 -0.9501  0.7458  2.6597
11961SOL     OW37323   1.876   1.230   6.546  0.0042  0.4881 -0.0271
11961SOL    HW137324   1.908   1.312   6.509 -1.3977  1.3140  0.5122
11961SOL    HW237325   1.781   1.235   6.537 -0.2928  0.0462  2.2560
11962SOL     OW37326   3.920   0.748   5.059 -0.2309  0.4472  0.5777
11962SOL    HW137327   4.012   0.773   5.047  0.2167 -0.5253  1.7761
11962SOL    HW237328   3.924   0.658   5.090 -1.6897 -0.2899 -1.1882
11963SOL     OW37329   5.137   7.986   8.033 -0.8520 -0.1010 -0.5177
11963SOL    HW137330   5.124   7.898   7.997  0.4529 -0.3655 -0.3851
11963SOL    HW237331   5.196   7.974   8.107  0.1122  0.9869 -1.0719
11964SOL     OW37332   0.896   7.445   7.148 -0.4138  0.5330  0.2002
11964SOL    HW137333   0.874   7.530   7.108 -0.5171  0.6321  0.4675
11964SOL    HW237334   0.908   7.386   7.073  0.5910  1.0048 -0.0326
11965SOL     OW37335   2.707   6.285   6.853 -0.3277 -0.0013  0.2106
11965SOL    HW137336   2.671   6.327   6.932 -1.9964  0.0037 -0.5203
11965SOL    HW237337   2.632   6.274   6.795  0.9025  0.2161 -1.4964
11966SOL     OW37338   1.966   5.625   5.319  0.1770  0.0941  0.7326
11966SOL    HW137339   1.876   5.646   5.295  0.0993 -0.2173  0.7464
11966SOL    HW237340   1.975   5.655   5.410  0.3046  0.7711  0.5024
11967SOL     OW37341   3.024   7.468   6.721  0.0194  0.3601  0.7562
11967SOL    HW137342   3.030   7.415   6.642  0.2086  0.9201  0.3832
11967SOL    HW237343   3.113   7.471   6.756  0.1970  1.1707  0.2689
11968SOL     OW37344   2.748   6.998   6.637 -0.0217 -0.0756 -0.3023
11968SOL    HW137345   2.810   7.007   6.565  0.2923  0.9743  0.0757
11968SOL    HW237346   2.804   6.985   6.715 -0.3532 -1.2042 -0.2329
11969SOL     OW37347   2.860   7.680   7.055  0.1427 -0.5226 -0.2701
11969SOL    HW137348   2.849   7.771   7.029  0.3502 -0.5014 -0.2876
11969SOL    HW237349   2.837   7.629   6.977  0.9249 -0.4550 -0.5540
11970SOL     OW37350   2.838   0.218   9.131 -0.0626 -0.0948 -0.1107
11970SOL    HW137351   2.751   0.257   9.132 -0.8609 -1.6371 -2.2570
11970SOL    HW237352   2.892   0.278   9.183 -2.3581  0.9157  1.2600
11971SOL     OW37353   2.063   2.219   8.537 -0.4221  0.0180  0.0748
11971SOL    HW137354   2.056   2.315   8.545  0.3145  0.3003 -2.0290
11971SOL    HW237355   2.091   2.205   8.447 -0.0361 -2.1877  0.4929
11972SOL     OW37356   4.431   0.127   6.736 -0.2051 -0.4382  0.2387
11972SOL    HW137357   4.433   0.195   6.803 -0.8499 -1.5578  1.4351
11972SOL    HW237358   4.517   0.085   6.742 -0.9705 -1.9044  1.8874
11973SOL     OW37359   3.726   7.791   9.289  0.5934  0.2285 -0.3476
11973SOL    HW137360   3.676   7.826   9.215 -0.9119  0.5364  0.7744
11973SOL    HW237361   3.660   7.759   9.350  1.6588  2.2386  2.0198
11974SOL     OW37362   4.133   1.163   8.590 -0.6007 -0.6238 -0.3771
11974SOL    HW137363   4.096   1.156   8.502 -0.4908  1.4572 -0.6343
11974SOL    HW237364   4.058   1.177   8.647 -0.5915 -1.0428 -0.2590
11975SOL     OW37365   1.081   0.179   8.758  0.8501  0.0367  0.2937
11975SOL    HW137366   1.038   0.095   8.740 -0.2740  0.7518 -0.4402
11975SOL    HW237367   1.066   0.194   8.852  0.9774 -0.5289  0.4075
11976SOL     OW37368   3.994   7.360   7.690  0.0950 -0.1305 -0.5586
11976SOL    HW137369   4.055   7.433   7.700 -0.0547  0.0076 -0.6474
11976SOL    HW237370   4.037   7.301   7.629  0.9199 -0.8735  0.7098
11977SOL     OW37371   3.637   7.739   8.178 -0.1009  1.0563  0.3545
11977SOL    HW137372   3.667   7.828   8.160  0.7934  0.6146 -0.4251
11977SOL    HW237373   3.623   7.701   8.091 -1.3870  0.7182  0.6813
11978SOL     OW37374   1.717   7.283  10.920 -0.3302  0.5174 -0.0607
11978SOL    HW137375   1.765   7.277  10.837  0.5676 -1.3055  0.5184
11978SOL    HW237376   1.783   7.314  10.982 -0.9599  1.7298  0.0218
11979SOL     OW37377   3.289   7.690   8.118 -0.0342  0.1510  0.0746
11979SOL    HW137378   3.208   7.728   8.084  0.1853 -0.5955 -1.3662
11979SOL    HW237379   3.340   7.765   8.147  0.1532  0.9715 -2.1466
11980SOL     OW37380   5.981   7.574  10.419  0.2350 -0.0879 -0.1163
11980SOL    HW137381   6.007   7.665  10.406  0.1736 -0.2857 -2.0167
11980SOL    HW237382   6.001   7.531  10.335 -0.1757 -1.7158  0.5724
11981SOL     OW37383   4.777   6.718   8.907  0.0305 -0.2502  0.1732
11981SOL    HW137384   4.771   6.626   8.878  2.9936 -0.9505  1.3991
11981SOL    HW237385   4.829   6.760   8.838 -0.6437  0.3261  0.0135
11982SOL     OW37386   3.224   0.406   8.336 -0.1521  0.5992  0.0908
11982SOL    HW137387   3.224   0.421   8.241  0.8247  0.4776  0.0622
11982SOL    HW237388   3.187   0.486   8.373  0.0827  0.9214 -0.3615
11983SOL     OW37389   3.315   1.097   9.938 -0.3780  0.3507 -0.0916
11983SOL    HW137390   3.324   1.014   9.984 -1.3934 -0.6703 -1.6268
11983SOL    HW237391   3.327   1.164  10.005  0.6488 -1.0311  1.1355
11984SOL     OW37392   5.218   7.332   9.065  0.5837 -0.5619 -0.2715
11984SOL    HW137393   5.176   7.305   8.984 -4.4567  1.2482  1.3837
11984SOL    HW237394   5.264   7.413   9.042  0.7317 -0.9888 -1.5871
11985SOL     OW37395   3.505   7.525   6.688  0.2755 -0.1102  0.0791
11985SOL    HW137396   3.575   7.562   6.741  0.7044 -0.4435 -0.2491
11985SOL    HW237397   3.434   7.510   6.750  0.6815 -0.2630  0.5133
11986SOL     OW37398   3.821   1.060   8.189 -0.0743  0.1828  0.6730
11986SOL    HW137399   3.781   0.990   8.241 -0.7355  0.8010  1.0183
11986SOL    HW237400   3.747   1.102   8.144  0.6304 -2.0472 -3.0412
11987SOL     OW37401   4.643   7.701   8.066 -0.6094 -0.5268 -0.0218
11987SOL    HW137402   4.622   7.639   8.137 -1.5641 -0.1995 -0.0017
11987SOL    HW237403   4.675   7.779   8.112 -0.9566 -0.4197  0.0457
11988SOL     OW37404   6.854   0.003   8.051  0.2057  0.5119 -0.8404
11988SOL    HW137405   6.786  -0.051   8.010  0.9229 -0.8867 -0.2545
11988SOL    HW237406   6.838   0.091   8.017 -2.7404  0.5282  0.3480
11989SOL     OW37407   2.878   5.315   7.851  0.1249 -0.3093  0.6451
11989SOL    HW137408   2.893   5.394   7.799 -0.3485  0.1538  1.1944
11989SOL    HW237409   2.941   5.321   7.923 -0.0880 -0.2926  0.8343
11990SOL     OW37410   5.269   1.321   9.733  0.1055 -0.5696 -0.0773
11990SOL    HW137411   5.214   1.346   9.659 -0.6960 -0.3112  0.5894
11990SOL    HW237412   5.219   1.253   9.778  0.8977 -1.2166 -0.1450
11991SOL     OW37413   5.427   6.855   8.758  0.1048 -0.5861  0.6076
11991SOL    HW137414   5.475   6.789   8.807  1.6899 -0.6096 -0.8919
11991SOL    HW237415   5.482   6.873   8.681 -0.3515  2.3531  0.8688
11992SOL     OW37416   2.956   6.977   7.757 -0.7935 -0.1094 -0.9181
11992SOL    HW137417   2.912   6.950   7.676 -1.8655  1.9940 -1.1040
11992SOL    HW237418   2.897   7.040   7.797 -1.1923 -2.4319  2.5650
11993SOL     OW37419   3.707   1.272   8.776 -0.3865  0.5991  0.5365
11993SOL    HW137420   3.686   1.236   8.863  0.6614 -0.5254  0.3370
11993SOL    HW237421   3.691   1.366   8.786 -0.5523  0.4609  1.8663
11994SOL     OW37422   4.748   6.878   5.870 -0.1222 -0.1611  0.0317
11994SOL    HW137423   4.776   6.833   5.790 -0.1043  0.0950 -0.1052
11994SOL    HW237424   4.794   6.961   5.869  1.7437 -1.1015  1.4951
11995SOL     OW37425   3.554   7.232   8.013  0.1957 -0.5902 -0.1787
11995SOL    HW137426   3.518   7.171   8.078  1.2946 -1.0369  0.0307
11995SOL    HW237427   3.517   7.317   8.037 -0.6277 -1.0127  0.0885
11996SOL     OW37428   2.079   6.687   6.173  0.1221 -0.1036  0.3516
11996SOL    HW137429   2.033   6.603   6.177  0.1430 -0.1011  0.7194
11996SOL    HW237430   2.011   6.751   6.153 -0.1701 -0.0055  1.5854
11997SOL     OW37431   1.183   0.020   9.946  0.1483  0.2455  1.1926
11997SOL    HW137432   1.138  -0.005  10.027 -2.1409 -1.0245 -0.3756
11997SOL    HW237433   1.231  -0.059   9.920 -0.3585  0.1505  0.5283
11998SOL     OW37434   3.032   1.497   8.279  0.1702 -0.0396  0.1493
11998SOL    HW137435   2.971   1.570   8.270 -1.5021 -1.4251 -0.1234
11998SOL    HW237436   3.027   1.473   8.371  0.9058  0.3215  0.2925
11999SOL     OW37437   3.894   0.206   7.692  0.4240 -0.0098  0.4581
11999SOL    HW137438   3.887   0.216   7.597 -0.1525 -1.7879  0.2782
11999SOL    HW237439   3.813   0.163   7.719 -0.2728  2.1168  2.0684
12000SOL     OW37440   4.286   0.335   9.279  0.4557 -0.0631  0.0579
12000SOL    HW137441   4.370   0.372   9.252  0.5252  0.0764  0.4621
12000SOL    HW237442   4.285   0.345   9.374 -0.6213  1.2130 -0.0580
12001SOL     OW37443   3.436   0.187   8.268  0.1035  0.3260 -0.7162
12001SOL    HW137444   3.345   0.192   8.296  0.5688  1.7593  0.6595
12001SOL    HW237445   3.447   0.261   8.208  0.3812  0.2202 -0.8017
12002SOL     OW37446   3.621   0.353   9.525  0.0358  0.4125  0.4039
12002SOL    HW137447   3.533   0.345   9.488 -0.5337  0.0917  1.7540
12002SOL    HW237448   3.614   0.427   9.585  0.4977 -0.0467  1.0317
12003SOL     OW37449   3.046   7.658   9.267  0.2456 -0.0826 -0.2191
12003SOL    HW137450   3.022   7.704   9.187  0.6178  0.0775 -0.2416
12003SOL    HW237451   2.964   7.650   9.316 -0.2496 -1.3813 -1.2177
12004SOL     OW37452   3.360   0.044   9.570 -0.0215 -0.2000 -0.1369
12004SOL    HW137453   3.281  -0.000   9.600 -0.5287  0.7470 -0.0271
12004SOL    HW237454   3.350   0.135   9.601  2.0341 -0.4899  1.6459
12005SOL     OW37455   4.135   7.429   8.740 -0.2008 -0.0196  0.5343
12005SOL    HW137456   4.061   7.489   8.747 -1.2829 -1.4267  2.0452
12005SOL    HW237457   4.096   7.347   8.710  0.6213 -0.9541  1.8886
12006SOL     OW37458   4.363   7.543   9.803 -0.5029 -0.6811  0.2156
12006SOL    HW137459   4.311   7.544   9.723 -1.7533 -1.9286  0.9650
12006SOL    HW237460   4.331   7.468   9.852  0.3379 -0.0459  1.8300
12007SOL     OW37461   4.476   6.783   8.350 -0.0090  0.2992  0.0674
12007SOL    HW137462   4.510   6.701   8.313 -1.3481  0.6383 -2.0539
12007SOL    HW237463   4.523   6.851   8.302 -0.3835  0.7851  0.3894
12008SOL     OW37464   4.945   7.374   8.034 -0.0326 -0.8156 -0.2759
12008SOL    HW137465   4.994   7.432   7.977  1.2405 -1.8754 -0.3086
12008SOL    HW237466   4.963   7.405   8.123  0.4298 -0.9890 -0.3069
12009SOL     OW37467   4.565   6.294   8.155 -0.6114 -0.2378  0.2658
12009SOL    HW137468   4.599   6.223   8.209  1.5196 -0.3989 -1.1653
12009SOL    HW237469   4.518   6.249   8.084 -3.9370 -0.0256  2.0859
12010SOL     OW37470   2.991   1.286   7.176  0.1028 -0.3099 -0.5644
12010SOL    HW137471   2.944   1.246   7.102 -0.2939 -0.6996 -0.1069
12010SOL    HW237472   3.064   1.226   7.192  0.0897 -0.3154 -0.5278
12011SOL     OW37473   0.952   0.556  10.190  0.7606 -0.1906 -0.6309
12011SOL    HW137474   0.870   0.530  10.148  0.0328  2.0927 -0.7308
12011SOL    HW237475   1.001   0.601  10.121  1.1433  0.4025  0.0135
12012SOL     OW37476   5.033   0.954   9.350  0.5340  0.1294  0.7317
12012SOL    HW137477   5.042   1.038   9.306  0.0500 -0.6566 -0.9719
12012SOL    HW237478   4.995   0.896   9.284 -0.0581 -1.1877  2.1476
12013SOL     OW37479   4.333   7.164   8.881 -0.2185 -0.1799  0.5438
12013SOL    HW137480   4.317   7.212   8.962  0.2457 -0.9901  1.1349
12013SOL    HW237481   4.305   7.075   8.900 -0.9964 -0.1835 -0.5081
12014SOL     OW37482   2.227   7.523   7.930 -0.4315  0.1128 -0.0021
12014SOL    HW137483   2.299   7.580   7.956 -1.4186  1.0090  0.8459
12014SOL    HW237484   2.161   7.582   7.893 -1.3762 -0.4685  0.6810
12015SOL     OW37485   5.657   0.413   9.685 -0.0300  0.2373 -0.1991
12015SOL    HW137486   5.641   0.483   9.749 -0.3098 -1.4745  1.6900
12015SOL    HW237487   5.740   0.374   9.712  0.0539 -0.2603 -1.1365
12016SOL     OW37488   2.438   7.111   8.360  0.3944  0.5946 -0.6108
12016SOL    HW137489   2.427   7.196   8.318 -0.3543  1.6566  1.5939
12016SOL    HW237490   2.415   7.047   8.292  0.1555  2.1664 -2.0558
12017SOL     OW37491   3.910   1.152  10.555 -0.2189  0.1997 -0.5915
12017SOL    HW137492   3.943   1.239  10.533  0.4132 -0.3995 -2.1588
12017SOL    HW237493   3.921   1.145  10.650  0.7541  1.4088 -0.5948
12018SOL     OW37494   2.798   0.677   9.528 -0.3455 -0.1610  0.3695
12018SOL    HW137495   2.772   0.609   9.590  1.0975  0.0929  1.3038
12018SOL    HW237496   2.768   0.644   9.443  0.5021 -2.1288  0.7567
12019SOL     OW37497   3.246   0.974   7.501 -0.1915  0.4544 -0.1286
12019SOL    HW137498   3.298   1.010   7.429 -0.2093 -0.6321 -0.7152
12019SOL    HW237499   3.294   0.896   7.528 -2.2474 -1.5350 -1.7701
12020SOL     OW37500   3.675   7.522   9.500 -0.4465  0.3661  0.1477
12020SOL    HW137501   3.643   7.573   9.574 -2.8881 -1.0768  0.1979
12020SOL    HW237502   3.607   7.530   9.433  0.6219 -0.2199 -1.0619
12021SOL     OW37503   3.288   0.665   9.404 -0.0127  0.5983 -0.2505
12021SOL    HW137504   3.222   0.638   9.469  0.3671  0.3588  0.0363
12021SOL    HW237505   3.310   0.755   9.430  1.9350 -0.3020  1.4639
12022SOL     OW37506   4.050   0.748   9.630  0.4354  0.5408  0.1701
12022SOL    HW137507   3.976   0.804   9.606 -2.6671 -2.9910  0.7026
12022SOL    HW237508   4.096   0.732   9.547 -0.5512  1.2301 -0.5347
12023SOL     OW37509   2.743   7.564   9.060 -0.0496  0.3979 -0.0317
12023SOL    HW137510   2.732   7.517   9.143  0.4680 -0.7776 -0.6043
12023SOL    HW237511   2.655   7.572   9.025 -0.2826  0.9937  0.6797
12024SOL     OW37512   2.670   7.857  10.479  0.4008  0.3362  0.2211
12024SOL    HW137513   2.672   7.762  10.463  2.1254  0.1812  1.1072
12024SOL    HW237514   2.676   7.896  10.392  0.1948 -0.3825 -0.1234
12025SOL     OW37515   2.273   7.048   7.239 -0.0831  0.6747  0.5271
12025SOL    HW137516   2.306   7.029   7.151 -0.2773  1.0617  0.3692
12025SOL    HW237517   2.349   7.038   7.295 -0.0704 -0.1028  0.3929
12026SOL     OW37518   2.743   7.311   7.386  0.4407  0.0334 -0.3759
12026SOL    HW137519   2.726   7.393   7.341 -1.6606  0.4205  1.0169
12026SOL    HW237520   2.832   7.320   7.420  0.6175  1.2773 -1.1262
12027SOL     OW37521   0.601   7.462   9.983  0.0649 -0.6138 -0.4334
12027SOL    HW137522   0.555   7.449   9.900  0.3900 -0.1270 -0.6952
12027SOL    HW237523   0.658   7.386   9.991 -1.1046 -1.4642  0.1218
12028SOL     OW37524   3.934   0.659   8.661  0.0823  0.6922  0.0490
12028SOL    HW137525   3.897   0.730   8.712  0.3414  0.2809  0.8267
12028SOL    HW237526   3.889   0.663   8.577 -0.0596  1.6314  0.1677
12029SOL     OW37527   3.880   6.281   9.170 -0.3760  0.1363 -0.1157
12029SOL    HW137528   3.808   6.344   9.178 -0.2997  0.2247 -0.1224
12029SOL    HW237529   3.899   6.278   9.076 -2.6011 -2.3862 -0.6140
12030SOL     OW37530   5.517   7.266   8.696  0.2934  0.6559 -0.1743
12030SOL    HW137531   5.513   7.347   8.747 -0.7244  2.3900 -2.8032
12030SOL    HW237532   5.590   7.278   8.636  0.5643 -0.6996 -0.1583
12031SOL     OW37533   3.773   7.979   7.014  0.1114  0.1975  0.1175
12031SOL    HW137534   3.773   7.958   6.920 -0.4767 -1.1258  0.3876
12031SOL    HW237535   3.841   8.045   7.024 -0.5571  1.1711 -1.4212
12032SOL     OW37536   3.911   6.781  11.237  1.2386 -0.2922 -0.2920
12032SOL    HW137537   3.925   6.784  11.142 -1.9410 -1.3026 -0.9158
12032SOL    HW237538   3.833   6.834  11.251  1.7194 -0.0758  1.8038
12033SOL     OW37539   3.143   7.203   7.693 -0.8556 -0.5103 -0.3013
12033SOL    HW137540   3.156   7.110   7.714 -0.2042 -0.3081  0.2181
12033SOL    HW237541   3.100   7.240   7.770 -0.5271 -0.2442 -0.2455
12034SOL     OW37542   4.826   7.156   7.651 -0.5854 -0.6065  0.2534
12034SOL    HW137543   4.803   7.247   7.669 -3.3263 -1.6059  2.5288
12034SOL    HW237544   4.842   7.117   7.737 -1.1094 -2.6276 -0.5069
12035SOL     OW37545   3.700   6.232   8.109 -0.1532 -0.1063  0.3885
12035SOL    HW137546   3.757   6.196   8.041 -0.7611 -0.7423  0.2010
12035SOL    HW237547   3.737   6.198   8.191  0.4336  0.4583  0.3603
12036SOL     OW37548   3.955   6.932   9.792 -0.0274 -0.3380  0.0161
12036SOL    HW137549   4.030   6.970   9.838 -0.1713 -0.0469  0.0119
12036SOL    HW237550   3.981   6.841   9.775  1.3502  0.3618 -2.1493
12037SOL     OW37551   1.086   7.376   9.312 -0.5119 -0.6222  0.3093
12037SOL    HW137552   1.123   7.309   9.368  1.3683  0.5644  0.5512
12037SOL    HW237553   1.087   7.455   9.365  1.0110  0.4589 -1.2341
12038SOL     OW37554   7.179   7.182  10.284  0.4520  0.0971 -0.0376
12038SOL    HW137555   7.157   7.232  10.205  0.3528 -0.8962 -0.6595
12038SOL    HW237556   7.264   7.217  10.312 -0.3106  1.6535  0.4428
12039SOL     OW37557   5.313   6.976   9.815  0.1971 -0.9514 -0.1123
12039SOL    HW137558   5.242   6.925   9.777  0.1621 -0.8634 -0.1635
12039SOL    HW237559   5.345   7.032   9.744 -1.2701  0.7854  0.5118
12040SOL     OW37560   1.605   0.595   9.758  0.0737  0.2284  0.3820
12040SOL    HW137561   1.582   0.634   9.843 -1.0431  0.7927 -0.1564
12040SOL    HW237562   1.521   0.572   9.719  0.6295 -1.1074 -0.0964
12041SOL     OW37563   3.117   0.534  10.109 -0.1273 -0.2289 -0.0755
12041SOL    HW137564   3.209   0.510  10.120  1.1166  3.6405 -0.4061
12041SOL    HW237565   3.087   0.557  10.197  0.5759  2.3373 -0.4305
12042SOL     OW37566   4.066   1.451  10.632  0.1758  0.3297  0.1414
12042SOL    HW137567   3.984   1.415  10.666  0.5533  0.9228  1.7339
12042SOL    HW237568   4.072   1.416  10.543 -2.8173  1.8624 -0.8176
12043SOL     OW37569   3.197   1.625   9.850 -0.7284  0.3096 -0.6135
12043SOL    HW137570   3.151   1.600   9.930 -1.5151  1.3164 -0.7373
12043SOL    HW237571   3.179   1.554   9.788  0.6650 -0.9545  0.3512
12044SOL     OW37572   5.983   6.052   9.542 -0.7624  0.0854 -0.1817
12044SOL    HW137573   5.927   6.037   9.618 -1.9902  0.9483 -0.8751
12044SOL    HW237574   6.038   5.974   9.536 -0.0398  0.3735  2.0759
12045SOL     OW37575   2.211   1.330  10.113 -0.0418  0.1598  0.0176
12045SOL    HW137576   2.153   1.373  10.049  2.6979  1.3864 -1.8240
12045SOL    HW237577   2.191   1.237  10.105 -0.7602  0.4241 -1.5941
12046SOL     OW37578   3.809   7.647  10.775 -0.0220 -0.4132  0.2720
12046SOL    HW137579   3.808   7.707  10.701  0.4441  0.0231  0.6168
12046SOL    HW237580   3.854   7.569  10.742 -0.8568 -0.6889 -0.2526
12047SOL     OW37581   1.357   2.347   9.967  0.2399  0.3508 -0.0930
12047SOL    HW137582   1.381   2.405   9.895  0.5738 -0.6248 -0.7857
12047SOL    HW237583   1.265   2.325   9.949  0.4944 -0.3563 -0.5561
12048SOL     OW37584   4.119   7.432  11.401  0.4492  0.4045 -0.2229
12048SOL    HW137585   4.133   7.393  11.315 -0.9796  2.4388 -1.4657
12048SOL    HW237586   4.206   7.462  11.428  1.2251 -1.7626 -0.0937
12049SOL     OW37587   3.476   1.383  10.884  0.1436 -0.0715  0.2337
12049SOL    HW137588   3.561   1.427  10.891  0.3800 -0.4658 -0.0804
12049SOL    HW237589   3.484   1.309  10.945  0.3555 -0.6200 -0.4522
12050SOL     OW37590   5.883   0.958   8.560 -0.6765  0.1522 -0.9458
12050SOL    HW137591   5.792   0.934   8.542 -0.9132  0.6917 -0.4906
12050SOL    HW237592   5.890   0.958   8.655 -0.4643  1.0830 -0.9552
12051SOL     OW37593   4.366   7.965  11.575  0.0828 -0.0584 -0.3227
12051SOL    HW137594   4.293   8.015  11.538  0.4947  1.5163  0.9227
12051SOL    HW237595   4.384   8.006  11.659  3.5649  0.7409 -1.3192
12052SOL     OW37596   3.478   7.432   8.730 -0.6021  0.1922  0.4352
12052SOL    HW137597   3.427   7.465   8.657  1.9872 -0.4826 -1.8640
12052SOL    HW237598   3.569   7.455   8.708  0.3897 -0.9144  2.9633
12053SOL     OW37599   5.283   7.413  12.248 -0.0642 -0.2467  0.2753
12053SOL    HW137600   5.191   7.404  12.222 -0.2495 -0.4941  1.0014
12053SOL    HW237601   5.306   7.327  12.283  0.1097  0.1516  1.1533
12054SOL     OW37602   4.495   1.063  11.913 -0.4035  0.0604 -0.0411
12054SOL    HW137603   4.418   1.013  11.940  0.8512 -2.4894 -0.8705
12054SOL    HW237604   4.481   1.081  11.820 -0.7526  1.1657  0.2041
12055SOL     OW37605   4.890   0.246   9.909  0.4218  0.7851 -0.3033
12055SOL    HW137606   4.830   0.257   9.835 -1.6664 -0.4550  1.0887
12055SOL    HW237607   4.897   0.151   9.919 -0.4790  0.8991  1.9024
12056SOL     OW37608   2.832   0.751  10.081  0.1811 -0.0233  0.1055
12056SOL    HW137609   2.917   0.770  10.040  0.9260  1.1896  2.0708
12056SOL    HW237610   2.790   0.689  10.021  2.6121 -0.9867 -0.7399
12057SOL     OW37611   2.438   5.631   0.462 -0.2411  0.4479  0.3831
12057SOL    HW137612   2.440   5.645   0.367  1.5550  0.2785  0.3604
12057SOL    HW237613   2.495   5.699   0.497  0.9632 -0.8936  1.1262
12058SOL     OW37614   4.201   2.144  10.852  0.2031 -0.3077  0.2880
12058SOL    HW137615   4.111   2.176  10.857  0.6799  1.0508  0.5505
12058SOL    HW237616   4.202   2.091  10.772 -0.6067  0.4309 -0.2403
12059SOL     OW37617   3.529   6.866  10.995 -0.2257  0.2041  0.2153
12059SOL    HW137618   3.446   6.905  11.023  0.2193  2.0663 -0.9366
12059SOL    HW237619   3.595   6.903  11.053  0.0890  0.4466 -0.2956
12060SOL     OW37620   1.445   7.114   9.727 -0.8011  0.7921  0.0150
12060SOL    HW137621   1.438   7.199   9.684 -0.4691  0.8102 -0.0072
12060SOL    HW237622   1.375   7.061   9.688 -0.1440  0.6253 -0.9786
12061SOL     OW37623   3.410   0.289  10.206  0.3661  0.3311  0.3571
12061SOL    HW137624   3.480   0.238  10.166  0.3266  0.9895 -0.6006
12061SOL    HW237625   3.454   0.364  10.246  0.1817  1.0426 -0.7322
12062SOL     OW37626   1.018   1.588   9.463 -0.1388 -0.0767 -0.2176
12062SOL    HW137627   1.012   1.497   9.493  1.6751 -0.4188 -0.7913
12062SOL    HW237628   1.109   1.612   9.477 -0.9262  2.2698  1.5428
12063SOL     OW37629   0.479   7.817   9.204  0.0635  0.2136  0.1637
12063SOL    HW137630   0.503   7.726   9.188 -0.0138  0.2532 -0.1760
12063SOL    HW237631   0.561   7.865   9.200  0.2800  0.0022  1.5288
12064SOL     OW37632   3.541   7.636   9.750 -0.1453 -0.0394 -0.2013
12064SOL    HW137633   3.557   7.725   9.719  0.7810  0.2929  1.1290
12064SOL    HW237634   3.448   7.633   9.769 -0.3467  0.3664 -1.0913
12065SOL     OW37635   5.371   7.885   9.705 -0.3114 -0.3056  0.0615
12065SOL    HW137636   5.354   7.899   9.612 -0.0423  2.0114  0.3020
12065SOL    HW237637   5.294   7.920   9.749 -0.0755 -0.6273  0.7548
12066SOL     OW37638   2.403   7.732   8.226 -0.2274  0.0290  0.8657
12066SOL    HW137639   2.419   7.733   8.131 -0.2716  0.4292  0.8622
12066SOL    HW237640   2.466   7.794   8.262 -0.6213  0.3385  1.0314
12067SOL     OW37641   2.969   0.015  11.009 -0.2577 -0.0905  0.3976
12067SOL    HW137642   2.971  -0.067  11.058  0.4084  0.0354  0.5954
12067SOL    HW237643   3.057   0.051  11.019 -0.0253 -0.1703 -1.0707
12068SOL     OW37644   2.293   0.525  11.306  0.1065  0.3445  0.0416
12068SOL    HW137645   2.382   0.525  11.340  0.3588 -1.0301 -0.5526
12068SOL    HW237646   2.304   0.512  11.211 -0.6052  3.2680 -0.5472
12069SOL     OW37647   3.262   0.954   9.076 -0.2249  0.1481 -0.1031
12069SOL    HW137648   3.195   1.023   9.071 -0.5203 -0.0267  1.2009
12069SOL    HW237649   3.338   0.992   9.032 -0.5991  1.0473 -0.0020
12070SOL     OW37650   2.786   7.349  11.321  0.0723 -0.1045 -0.0910
12070SOL    HW137651   2.879   7.354  11.341 -0.1124 -0.0013  0.7983
12070SOL    HW237652   2.745   7.320  11.403 -1.0010  2.6593  0.4900
12071SOL     OW37653   3.063   7.597  11.981 -0.7319  0.3358 -0.0928
12071SOL    HW137654   3.094   7.543  12.054 -1.3090 -0.5043 -0.4480
12071SOL    HW237655   2.970   7.611  11.999 -0.8832  0.1109 -0.6647
12072SOL     OW37656   2.871   0.616  10.888  0.4076 -0.2229 -0.0038
12072SOL    HW137657   2.778   0.609  10.910  0.3576  1.7032  0.5471
12072SOL    HW237658   2.916   0.592  10.969  0.3830 -0.6541 -0.1167
12073SOL     OW37659   3.709   7.603   9.950  0.0427  0.2503  0.0650
12073SOL    HW137660   3.639   7.599   9.885  1.2102 -0.4167 -1.2035
12073SOL    HW237661   3.685   7.538  10.016 -0.4225 -0.1336 -0.4712
12074SOL     OW37662   2.635   0.479  10.270  0.2791 -0.6028  0.5697
12074SOL    HW137663   2.642   0.425  10.191  1.7803  0.5282 -0.1457
12074SOL    HW237664   2.712   0.456  10.322  0.2469 -0.0829  0.8563
12075SOL     OW37665   3.756   7.888  10.961 -0.0789  0.3660 -0.3894
12075SOL    HW137666   3.720   7.848  11.041  2.3347  0.0374  0.6338
12075SOL    HW237667   3.801   7.816  10.918  1.7387  1.3000 -0.1189
12076SOL     OW37668   3.923   1.422   7.991 -0.4058 -0.4190  0.3290
12076SOL    HW137669   3.962   1.336   8.004 -0.7250 -0.4832  0.8822
12076SOL    HW237670   3.990   1.472   7.944  0.4399 -0.4623  1.4427
12077SOL     OW37671   3.395   2.569  10.166 -0.3430 -0.0465  0.8310
12077SOL    HW137672   3.436   2.491  10.127 -1.0717  0.0314 -0.1302
12077SOL    HW237673   3.442   2.643  10.127 -0.6848  0.0218  0.5462
12078SOL     OW37674   2.334   0.635  10.558  0.0183 -0.1124 -0.1455
12078SOL    HW137675   2.269   0.622  10.627  0.4235 -1.7053 -0.0060
12078SOL    HW237676   2.331   0.728  10.538  0.3285  0.5440  2.4765
12079SOL     OW37677   2.156   7.791   1.078 -0.4561  0.5252  0.0439
12079SOL    HW137678   2.225   7.773   1.142 -1.0043 -0.5848  0.3533
12079SOL    HW237679   2.076   7.799   1.131 -0.5939  1.6985 -0.3141
12080SOL     OW37680   3.672   6.088  11.764  0.4412 -0.8297  0.4467
12080SOL    HW137681   3.713   6.138  11.694 -1.1569 -0.3146 -0.1664
12080SOL    HW237682   3.579   6.089  11.743 -0.4738  1.2858  3.7293
12081SOL     OW37683   3.449   1.113   9.689  0.3068  0.3733  0.5617
12081SOL    HW137684   3.405   1.110   9.774  0.4544  0.8690  0.6572
12081SOL    HW237685   3.539   1.140   9.709 -0.4600  3.8164 -0.0166
12082SOL     OW37686   1.147   0.450  10.575 -0.1410 -0.1665 -0.5049
12082SOL    HW137687   1.135   0.542  10.599  2.5124  0.0425  0.3306
12082SOL    HW237688   1.157   0.452  10.480  0.9062  0.5869 -0.4041
12083SOL     OW37689   2.488   7.696   8.955 -0.1481 -0.2510 -0.6432
12083SOL    HW137690   2.506   7.726   8.866 -0.5650  1.4443 -0.2012
12083SOL    HW237691   2.404   7.650   8.949  0.6402 -1.6342 -1.3972
12084SOL     OW37692   3.932   7.636  10.195  0.3075 -0.4421 -0.1710
12084SOL    HW137693   3.906   7.566  10.255 -0.1645  0.4160  0.6587
12084SOL    HW237694   3.894   7.611  10.111 -0.5395 -0.7888  0.3028
12085SOL     OW37695   0.752   0.137   9.009 -0.7783  0.2601 -0.4462
12085SOL    HW137696   0.711   0.129   8.923  0.1804 -1.0382 -0.8098
12085SOL    HW237697   0.738   0.052   9.051  2.6094 -0.7756 -1.1178
12086SOL     OW37698   3.578   1.379  11.147 -0.6649  0.2814 -0.0855
12086SOL    HW137699   3.546   1.432  11.219 -2.6913  1.0777 -1.4912
12086SOL    HW237700   3.535   1.294  11.158 -2.0303  0.8079 -0.9999
12087SOL     OW37701   2.664   0.029   9.033 -0.8719  0.1574  0.3186
12087SOL    HW137702   2.729   0.094   9.059  0.9347 -0.9617 -1.1090
12087SOL    HW237703   2.675  -0.042   9.096 -2.2701  0.8471  1.3810
12088SOL     OW37704   3.500   7.571  11.219  0.7745 -0.1771 -0.1914
12088SOL    HW137705   3.536   7.577  11.131  1.4970  2.2737  0.1913
12088SOL    HW237706   3.575   7.557  11.275  1.1059  3.2066  0.4360
12089SOL     OW37707   3.594   0.241  10.595 -0.2762 -0.2598  0.6954
12089SOL    HW137708   3.589   0.186  10.673 -1.2451 -0.5842  0.4225
12089SOL    HW237709   3.531   0.311  10.611 -0.1010 -0.0418  0.4297
12090SOL     OW37710   3.907   6.563  10.569 -0.0102 -0.3567  0.0817
12090SOL    HW137711   3.961   6.632  10.607  0.9429 -1.2104  0.3172
12090SOL    HW237712   3.966   6.514  10.512 -0.6738 -0.9832 -0.0896
12091SOL     OW37713   3.025   7.881   9.464  0.2152  0.4973 -0.3511
12091SOL    HW137714   3.039   7.937   9.388 -2.3199  2.7959  0.7066
12091SOL    HW237715   2.941   7.838   9.448  0.0613  0.3446  0.7690
12092SOL     OW37716   3.951   7.471   9.471 -0.5618  0.7508  0.0213
12092SOL    HW137717   3.861   7.503   9.473 -0.2909  1.6681 -1.5120
12092SOL    HW237718   3.973   7.464   9.378  0.5951 -0.5140  0.3490
12093SOL     OW37719   0.764   5.818  10.264 -0.0546 -0.4832  0.4009
12093SOL    HW137720   0.797   5.730  10.278  0.3910 -0.2601  0.7584
12093SOL    HW237721   0.818   5.874  10.319  0.3438  0.1496 -0.5930
12094SOL     OW37722   1.982   7.502  10.834 -0.3283  0.0543 -0.1525
12094SOL    HW137723   2.037   7.487  10.757 -0.8963  1.0829 -0.7754
12094SOL    HW237724   1.905   7.546  10.800 -1.3349 -0.9293  0.7854
12095SOL     OW37725   4.736   0.816   9.320  0.0839  0.0450  0.1288
12095SOL    HW137726   4.656   0.763   9.314  2.0252 -3.0764 -0.3665
12095SOL    HW237727   4.755   0.842   9.230  0.7777 -1.1340 -0.0806
12096SOL     OW37728   2.778   1.059   9.984  0.4511  0.6752  0.0498
12096SOL    HW137729   2.751   0.976  10.023  1.5966 -0.3984 -1.3535
12096SOL    HW237730   2.868   1.044   9.956 -0.5452  1.0164 -3.8891
12097SOL     OW37731   2.612   1.342  10.787  0.0409 -0.0446  0.0749
12097SOL    HW137732   2.547   1.322  10.855  0.0121 -0.4255 -0.0607
12097SOL    HW237733   2.678   1.274  10.796  0.2571  0.1565  0.0027
12098SOL     OW37734   3.848   7.431  10.412  0.0016 -0.4600 -0.3868
12098SOL    HW137735   3.902   7.443  10.490  2.3071 -1.5917 -1.7119
12098SOL    HW237736   3.791   7.358  10.434 -0.0189 -0.1787  0.5534
12099SOL     OW37737   2.057   0.331  10.758  0.0318 -0.2689 -0.2707
12099SOL    HW137738   2.022   0.413  10.723 -2.7828 -0.2523  2.1165
12099SOL    HW237739   2.028   0.264  10.696 -0.6573  0.2406 -0.5155
12100SOL     OW37740   4.374   6.821  11.050  0.1612 -0.0712 -0.1989
12100SOL    HW137741   4.362   6.728  11.069  0.1597  0.1506  0.9113
12100SOL    HW237742   4.420   6.822  10.966  0.3822 -1.0801 -0.1007
12101SOL     OW37743   2.850   7.848  11.363 -0.2241 -0.2452  0.1082
12101SOL    HW137744   2.791   7.782  11.325 -0.4571 -0.6527  1.1637
12101SOL    HW237745   2.804   7.880  11.440 -0.1695  1.2639 -0.4476
12102SOL     OW37746   3.743   6.968  10.662 -0.5573  0.9487 -0.1470
12102SOL    HW137747   3.756   6.921  10.744 -1.6803  0.7574 -0.0667
12102SOL    HW237748   3.662   7.017  10.674 -0.8297  0.7933 -1.1968
12103SOL     OW37749   4.562   0.807   8.996 -0.3392 -0.3565 -0.3605
12103SOL    HW137750   4.525   0.721   8.976 -1.2318  0.2351 -1.3114
12103SOL    HW237751   4.489   0.868   8.987 -0.1017  0.3569  1.8082
12104SOL     OW37752   3.443   0.302   7.762 -0.0508  0.3897  0.0176
12104SOL    HW137753   3.420   0.347   7.681 -1.2490 -3.8514 -2.2566
12104SOL    HW237754   3.361   0.299   7.812  0.2870  1.5227  0.6819
12105SOL     OW37755   0.492   6.571  12.470 -0.5730 -0.8038 -0.3527
12105SOL    HW137756   0.485   6.480  12.499  1.4718 -0.2749  2.1963
12105SOL    HW237757   0.450   6.622  12.540 -2.7271  0.2651 -2.2696
12106SOL     OW37758   2.612   7.705  11.565  0.2231 -0.3548  0.3044
12106SOL    HW137759   2.637   7.797  11.566  0.6118 -0.4606  1.9047
12106SOL    HW237760   2.594   7.687  11.473  1.1467  1.0444 -0.1890
12107SOL     OW37761   3.110   0.014  12.048 -0.4120  0.2218  0.2395
12107SOL    HW137762   3.104   0.009  11.953  1.1080  1.3656  0.0510
12107SOL    HW237763   3.190  -0.032  12.070 -0.6546  0.1275  0.9574
12108SOL     OW37764   2.865   0.057  10.046  0.1295 -0.5182 -0.0797
12108SOL    HW137765   2.810   0.005   9.987 -1.9598  0.9055  0.5104
12108SOL    HW237766   2.895   0.130   9.992  0.7465 -0.8454 -0.1786
12109SOL     OW37767   3.419   6.591  11.699 -0.6400 -0.0022 -0.2775
12109SOL    HW137768   3.453   6.516  11.651  1.0533  0.9806 -0.7109
12109SOL    HW237769   3.324   6.578  11.700 -0.3908 -2.3035 -0.0308
12110SOL     OW37770   3.756   0.051  11.508  0.1124  0.2557 -0.1586
12110SOL    HW137771   3.714   0.130  11.542  1.3887  1.1692 -0.6590
12110SOL    HW237772   3.702   0.026  11.433 -1.0999 -0.1769  0.8143
12111SOL     OW37773   4.039   0.916  11.949 -0.0054 -0.7026  0.8466
12111SOL    HW137774   4.042   0.872  12.034 -1.9380 -0.1187  1.2718
12111SOL    HW237775   3.949   0.903  11.919  0.4340 -0.2383 -0.7719
12112SOL     OW37776   3.539   6.476  12.058 -0.1147 -0.4545 -0.5282
12112SOL    HW137777   3.518   6.383  12.065 -0.0699 -0.3950  0.6074
12112SOL    HW237778   3.464   6.521  12.097  0.2706 -0.0643 -0.2155
12113SOL     OW37779   3.888   7.314  11.461 -0.0124 -0.3975 -0.0086
12113SOL    HW137780   3.973   7.358  11.463 -0.4790  0.5414  2.2869
12113SOL    HW237781   3.905   7.233  11.412  2.3224 -0.4264  0.6783
12114SOL     OW37782   3.124   6.973  11.797  0.5246 -0.3183  0.1813
12114SOL    HW137783   3.115   6.886  11.836 -1.7780 -0.7246 -1.0697
12114SOL    HW237784   3.197   7.013  11.843  0.9804 -2.5318  1.5058
12115SOL     OW37785   3.566   5.582  11.934 -0.0797  0.6590  0.3193
12115SOL    HW137786   3.636   5.516  11.927 -0.7528  0.0519 -1.3044
12115SOL    HW237787   3.578   5.638  11.857 -1.0566  0.8529  0.2920
12116SOL     OW37788   1.282   0.186  10.569  0.1098  0.4144  0.1643
12116SOL    HW137789   1.235   0.267  10.588 -0.6458 -0.3458  1.7277
12116SOL    HW237790   1.213   0.121  10.552  0.6942 -0.0008 -0.7287
12117SOL     OW37791   3.553   6.583  11.354  0.7006 -0.0965 -0.9275
12117SOL    HW137792   3.488   6.652  11.339 -0.7931 -1.1687  0.3714
12117SOL    HW237793   3.502   6.505  11.375  2.3973 -0.8135  0.8558
12118SOL     OW37794   3.339   7.371   0.247 -0.6253  0.2910  0.2107
12118SOL    HW137795   3.288   7.290   0.246  0.1985 -0.2914  1.8586
12118SOL    HW237796   3.389   7.369   0.165 -0.3924 -1.0208  0.3633
12119SOL     OW37797   0.210   7.312   0.688 -0.3456  0.4949 -0.1573
12119SOL    HW137798   0.282   7.249   0.698 -0.2897  0.3073 -1.5335
12119SOL    HW237799   0.166   7.312   0.773  0.7748 -0.0083  0.4473
12120SOL     OW37800   3.556   7.585   0.592  0.0775  0.3859  0.1430
12120SOL    HW137801   3.484   7.602   0.652 -1.3442 -3.0234 -0.4107
12120SOL    HW237802   3.521   7.604   0.505  0.0544 -0.5469 -0.0651
12121SOL     OW37803   2.980   0.717   0.450 -0.1984 -0.4335 -0.7220
12121SOL    HW137804   2.929   0.665   0.513 -0.2828  0.2031 -0.2551
12121SOL    HW237805   2.915   0.769   0.403  0.0071  0.5065 -0.0089
12122SOL     OW37806   3.489   6.462   1.090  0.3542 -0.2133 -0.3307
12122SOL    HW137807   3.465   6.369   1.087  0.3766 -0.2165 -0.4075
12122SOL    HW237808   3.573   6.466   1.044  0.1202 -0.0811 -0.7475
12123SOL     OW37809   3.246   7.169  11.294 -0.2199  0.1597 -0.0408
12123SOL    HW137810   3.153   7.154  11.280 -0.5798  2.0132  0.0621
12123SOL    HW237811   3.255   7.265  11.294  1.7747  0.0136 -0.6289
12124SOL     OW37812   2.136   5.464   1.507 -0.4955  0.4072  0.1547
12124SOL    HW137813   2.230   5.467   1.528 -0.3224  1.1572 -0.6760
12124SOL    HW237814   2.122   5.377   1.469 -0.5889 -0.5508  2.2422
12125SOL     OW37815   2.858   1.613  11.884  0.4066 -0.1982  0.1210
12125SOL    HW137816   2.945   1.630  11.922  0.5333 -1.2693  0.3578
12125SOL    HW237817   2.835   1.526  11.916  0.0231 -0.6799 -1.3837
12126SOL     OW37818   0.481   7.877   0.909  0.4367 -0.3748  0.0678
12126SOL    HW137819   0.457   7.791   0.874 -0.1262 -0.3225  0.3292
12126SOL    HW237820   0.405   7.932   0.894  0.2185 -0.3260  1.2926
12127SOL     OW37821   2.773   0.362  11.866 -0.1210  0.5494 -0.3141
12127SOL    HW137822   2.824   0.296  11.819  0.7806  1.2362 -0.3329
12127SOL    HW237823   2.743   0.318  11.946  2.7997  0.8580  1.0660
12128SOL     OW37824   3.869   5.419  11.396  0.2323  0.4859  0.0729
12128SOL    HW137825   3.859   5.343  11.339  0.8551  1.1205 -0.9324
12128SOL    HW237826   3.913   5.484  11.341  0.4375  1.2930  1.1502
12129SOL     OW37827   3.130   1.690  10.469 -0.6146  0.4847 -0.4894
12129SOL    HW137828   3.214   1.734  10.452 -1.4481  1.9216 -0.9973
12129SOL    HW237829   3.092   1.740  10.541  0.0347 -1.6874  1.4971
12130SOL     OW37830   5.945   0.649  10.585  0.6093 -0.0096 -1.0653
12130SOL    HW137831   5.940   0.733  10.538  0.1477  1.2605  1.1428
12130SOL    HW237832   6.036   0.644  10.615 -0.0971  1.4450  1.6721
12131SOL     OW37833   2.912   1.454   0.254 -0.1890  0.6132  0.3016
12131SOL    HW137834   2.964   1.425   0.328 -0.1953 -0.4216 -0.0844
12131SOL    HW237835   2.843   1.388   0.246  0.2115  0.3291 -1.0348
12132SOL     OW37836   1.931   0.559   0.657 -0.6428  0.1653 -0.4726
12132SOL    HW137837   1.854   0.595   0.700 -0.8008  0.4834 -1.0156
12132SOL    HW237838   1.991   0.633   0.648 -0.3438 -0.0396 -0.2205
12133SOL     OW37839   1.450   6.748  11.471 -0.6638  0.1438  0.3142
12133SOL    HW137840   1.425   6.655  11.468  1.2933 -0.4041 -0.0473
12133SOL    HW237841   1.438   6.779  11.381  1.0376 -0.4563 -0.1594
12134SOL     OW37842   1.824   0.410   0.439 -0.3876 -0.5202 -0.2119
12134SOL    HW137843   1.865   0.470   0.501  1.7933 -1.1653 -0.9377
12134SOL    HW237844   1.785   0.342   0.494  0.9780 -0.7569  0.5050
12135SOL     OW37845   4.430   0.340   0.197  0.5281 -0.4421 -0.1036
12135SOL    HW137846   4.517   0.378   0.187  0.2865  0.1959  0.1855
12135SOL    HW237847   4.385   0.398   0.259 -0.1656 -0.6535 -0.3987
12136SOL     OW37848   2.293   0.918  11.485 -0.2070 -0.3811 -0.0243
12136SOL    HW137849   2.261   1.001  11.521 -1.1338 -0.6736 -0.1317
12136SOL    HW237850   2.293   0.857  11.559  3.4614  0.4335  0.8173
12137SOL     OW37851   2.627   7.665  11.276  0.2180 -0.1979  0.5732
12137SOL    HW137852   2.679   7.594  11.237  0.8509  0.3936  0.3151
12137SOL    HW237853   2.598   7.717  11.201  0.7654  0.4918  0.8333
12138SOL     OW37854   4.368   1.654  10.035 -0.3190 -0.6384 -0.4475
12138SOL    HW137855   4.288   1.685  10.075 -0.1943 -0.3661 -0.4101
12138SOL    HW237856   4.425   1.730  10.031 -1.2694  0.0492 -3.5869
12139SOL     OW37857   4.922   0.815  11.510 -0.4251  0.4446  0.1257
12139SOL    HW137858   4.991   0.876  11.485 -0.0307 -0.3735 -0.8204
12139SOL    HW237859   4.891   0.848  11.595 -0.1707  1.9044 -0.3185
12140SOL     OW37860   2.138   6.638  11.216 -0.2002  0.3031 -0.6510
12140SOL    HW137861   2.198   6.627  11.142 -0.7850 -2.6070 -0.7992
12140SOL    HW237862   2.062   6.585  11.193 -0.9067  0.3001  1.5119
12141SOL     OW37863   3.193   0.091   2.009 -0.4053 -0.6688  0.7182
12141SOL    HW137864   3.118   0.081   1.949 -0.1857  1.8177 -0.1146
12141SOL    HW237865   3.164   0.158   2.072  1.3780  1.1154 -0.2394
12142SOL     OW37866   4.393   0.562   0.349 -0.4193  1.0699 -0.5717
12142SOL    HW137867   4.299   0.563   0.364  0.0064  0.0185  3.3451
12142SOL    HW237868   4.430   0.605   0.426  2.3548  1.9041 -2.2057
12143SOL     OW37869   1.445   0.430  11.771  0.2783 -0.5422 -0.5135
12143SOL    HW137870   1.379   0.496  11.749 -0.6125 -0.9703  0.7685
12143SOL    HW237871   1.419   0.398  11.857  2.1810 -0.7253  0.0364
12144SOL     OW37872   1.074   7.505  10.833 -0.3424 -0.5764 -0.5241
12144SOL    HW137873   1.138   7.480  10.767 -1.5276 -0.7521 -1.6380
12144SOL    HW237874   1.062   7.599  10.821  1.0513 -0.1589  0.9344
12145SOL     OW37875   2.244   0.333  11.109  0.2143 -0.1604  0.0062
12145SOL    HW137876   2.210   0.271  11.045  0.8317  0.2481 -0.7339
12145SOL    HW237877   2.230   0.291  11.194 -2.9259  0.3331 -0.1460
12146SOL     OW37878   1.732   1.644  11.435 -0.1981 -0.2918  0.1975
12146SOL    HW137879   1.814   1.600  11.456  0.3305  0.5187 -0.0763
12146SOL    HW237880   1.667   1.605  11.493  0.4889 -0.5803  0.7825
12147SOL     OW37881   3.825   6.754   1.209 -0.0076  0.0852  0.3399
12147SOL    HW137882   3.784   6.677   1.249  1.1471 -0.0046  1.4350
12147SOL    HW237883   3.845   6.811   1.283  0.6979  0.6692 -0.2844
12148SOL     OW37884   3.250   7.426  11.262 -1.0343  0.1095  0.8201
12148SOL    HW137885   3.235   7.432  11.168 -0.9847  0.3044  0.8228
12148SOL    HW237886   3.321   7.489  11.278 -0.5835 -0.4084  0.8837
12149SOL     OW37887   2.127   0.407   0.338  0.2771  0.4244 -0.4152
12149SOL    HW137888   2.187   0.333   0.344  0.4212  0.5568 -0.2010
12149SOL    HW237889   2.058   0.387   0.402  0.5200  0.6592 -0.0767
12150SOL     OW37890   4.000   7.966  12.178  0.1731 -1.0122  0.0279
12150SOL    HW137891   4.070   7.961  12.114  0.6670 -2.6525  0.6270
12150SOL    HW237892   3.984   8.059  12.190  1.3403 -0.6441 -1.0894
12151SOL     OW37893   5.072   0.957  12.077  0.4966 -0.6516 -0.1243
12151SOL    HW137894   5.146   0.902  12.105  0.4666 -0.7472 -0.2363
12151SOL    HW237895   5.036   0.991  12.159  1.8490  0.9418 -0.1307
12152SOL     OW37896   2.860   0.012   0.120  0.6888 -0.2597 -0.4194
12152SOL    HW137897   2.932  -0.044   0.150  2.0795  1.8071  0.2992
12152SOL    HW237898   2.804   0.022   0.198  0.8088 -0.0902 -0.3556
12153SOL     OW37899   2.976   0.093  11.320 -0.0778 -0.4326  0.7659
12153SOL    HW137900   2.985   0.105  11.415 -2.7336  0.1118  1.0050
12153SOL    HW237901   2.931   0.009  11.311 -1.4230  0.3264  0.1057
12154SOL     OW37902   4.810   1.125   0.924  0.1706  0.3527 -0.2650
12154SOL    HW137903   4.734   1.067   0.920  0.4894 -0.0244 -0.9136
12154SOL    HW237904   4.774   1.208   0.955 -0.3360 -0.1026  0.4185
12155SOL     OW37905   4.132   7.950   1.068  0.1954 -0.3522 -0.2091
12155SOL    HW137906   4.055   7.921   1.019  0.0145  1.3514 -1.0215
12155SOL    HW237907   4.159   8.031   1.024  1.9988 -0.5063  0.5292
12156SOL     OW37908   2.409   0.407   0.940  0.0935 -0.1706 -0.6706
12156SOL    HW137909   2.439   0.402   1.030  1.8299 -0.5404 -1.2379
12156SOL    HW237910   2.315   0.388   0.945  0.3084 -0.9833  0.9594
12157SOL     OW37911   4.727   1.070   0.513 -0.8219 -0.0694 -0.1012
12157SOL    HW137912   4.760   1.040   0.598  0.0390 -0.2450 -0.4824
12157SOL    HW237913   4.760   1.159   0.504  0.0886 -0.4525 -0.7449
12158SOL     OW37914   3.745   2.050   0.999 -0.5016 -0.1358 -0.6881
12158SOL    HW137915   3.788   1.982   0.946 -1.3749 -1.3083  0.0472
12158SOL    HW237916   3.817   2.105   1.030  0.0426  0.6429 -3.0930
12159SOL     OW37917   5.312   0.707   2.204  0.6284  0.2589 -0.1166
12159SOL    HW137918   5.221   0.681   2.192  0.7490  0.7120 -2.5645
12159SOL    HW237919   5.361   0.626   2.195  0.5022  0.0024  1.2779
12160SOL     OW37920   3.457   0.594   2.154  0.6141  0.0201  0.3160
12160SOL    HW137921   3.533   0.629   2.109  1.1375 -0.8744  0.4862
12160SOL    HW237922   3.442   0.509   2.115 -1.3243  0.8329 -0.8562
12161SOL     OW37923   3.995   0.957   1.881  0.2475  0.5257 -0.6147
12161SOL    HW137924   3.962   0.974   1.969  2.3290 -0.2766  0.3701
12161SOL    HW237925   3.943   0.883   1.850  0.5836 -0.2335  0.5880
12162SOL     OW37926   4.291   1.178   0.426 -0.2187  0.1906 -0.5073
12162SOL    HW137927   4.265   1.134   0.507  0.4656 -0.7277 -0.7653
12162SOL    HW237928   4.276   1.271   0.443 -1.0126 -0.0717  0.3169
12163SOL     OW37929   2.597   7.532   1.605 -0.8716 -0.8771  0.3378
12163SOL    HW137930   2.657   7.484   1.547  0.1496  0.5906  0.1206
12163SOL    HW237931   2.593   7.479   1.685  0.9920 -0.8734  0.4795
12164SOL     OW37932   4.187   0.612   1.627 -0.3760  0.4709 -0.1358
12164SOL    HW137933   4.236   0.594   1.707 -0.4331 -1.9009 -0.5578
12164SOL    HW237934   4.238   0.679   1.582  0.5341  0.6561  1.1301
12165SOL     OW37935   3.551   3.325   1.614 -0.3091 -0.1160 -0.2325
12165SOL    HW137936   3.601   3.274   1.678 -1.8030  0.7001  1.6482
12165SOL    HW237937   3.466   3.282   1.609 -0.0704 -0.4879 -2.1395
12166SOL     OW37938   4.351   2.113   0.017  0.6983 -0.2417 -0.3731
12166SOL    HW137939   4.319   2.075   0.099 -0.2699  0.4596 -0.4105
12166SOL    HW237940   4.416   2.177   0.044 -0.3718  0.7484 -0.0601
12167SOL     OW37941   5.031   0.894   1.122  0.0275 -0.4602  0.5564
12167SOL    HW137942   5.069   0.851   1.198  1.0783 -0.1179  0.2449
12167SOL    HW237943   5.082   0.861   1.047 -0.0987  0.2264  0.1575
12168SOL     OW37944   4.128   0.325   1.121  0.0599 -0.4000  0.5070
12168SOL    HW137945   4.081   0.323   1.037  0.7413  0.0657  0.1049
12168SOL    HW237946   4.060   0.344   1.185  0.0487  3.2590 -0.3770
12169SOL     OW37947   3.700   1.949   0.461  0.3245  0.5752  0.6420
12169SOL    HW137948   3.741   2.028   0.496 -0.5485  1.0437  0.6372
12169SOL    HW237949   3.652   1.980   0.384 -0.7466  0.2121  1.1473
12170SOL     OW37950   4.298   0.692   2.499  0.1774 -0.8838 -0.0441
12170SOL    HW137951   4.393   0.686   2.503  0.1841 -0.3111  0.6826
12170SOL    HW237952   4.280   0.775   2.456  0.0226  0.7084  2.8444
12171SOL     OW37953   3.935   0.996   0.407  0.1564  0.3104  0.0246
12171SOL    HW137954   3.840   0.990   0.394  0.2207 -0.4443 -0.1440
12171SOL    HW237955   3.963   1.065   0.348 -0.2579  0.3738 -0.0997
12172SOL     OW37956   3.867   3.261   1.723 -0.6588 -0.0411  0.0174
12172SOL    HW137957   3.961   3.252   1.709 -0.7342  0.4890 -0.9429
12172SOL    HW237958   3.842   3.335   1.667 -1.3088  1.1352  1.7837
12173SOL     OW37959   4.406   5.987   0.515  0.2497 -0.5555  0.4636
12173SOL    HW137960   4.423   5.987   0.609 -0.8275  0.5566  0.6707
12173SOL    HW237961   4.492   6.002   0.475  1.1597 -3.3200  1.1254
12174SOL     OW37962   5.192   6.542   2.107 -0.1018 -0.5163 -0.4983
12174SOL    HW137963   5.266   6.550   2.048  0.5689  0.4082  0.4302
12174SOL    HW237964   5.120   6.511   2.052  0.8957 -1.1670 -1.4669
12175SOL     OW37965   2.982   1.881   0.029  0.0655 -0.1149 -0.3368
12175SOL    HW137966   3.009   1.958  -0.022  0.9233  0.7209  1.3070
12175SOL    HW237967   2.889   1.895   0.045  0.3568  0.9807  0.5421
12176SOL     OW37968   5.124   0.943   0.175  0.9043  0.0467  0.1161
12176SOL    HW137969   5.107   0.925   0.268 -1.1534  0.3800 -0.1574
12176SOL    HW237970   5.114   1.038   0.167 -1.9969 -0.2582 -0.9520
12177SOL     OW37971   3.716   0.461   1.753 -0.1499  0.2874  0.2151
12177SOL    HW137972   3.740   0.495   1.839 -0.2826 -1.5301  1.0232
12177SOL    HW237973   3.623   0.481   1.744 -0.0508  0.8191  0.3152
12178SOL     OW37974   4.816   0.636   1.363  0.2224 -0.2937 -0.7338
12178SOL    HW137975   4.899   0.669   1.396 -0.5493  2.2438 -1.1198
12178SOL    HW237976   4.836   0.602   1.275  0.6571  1.4918 -1.3524
12179SOL     OW37977   6.367   0.959  12.281  0.0713  0.1811  0.1791
12179SOL    HW137978   6.423   0.937  12.207  0.6828  2.2293 -0.0295
12179SOL    HW237979   6.278   0.939  12.251  0.4696 -0.7339 -0.4068
12180SOL     OW37980   2.591   1.053   3.455 -0.5481  0.0839 -0.1507
12180SOL    HW137981   2.648   1.069   3.380  0.1661 -0.8958  0.1545
12180SOL    HW237982   2.596   1.133   3.508  0.9163 -0.1507  0.0961
12181SOL     OW37983   5.903   0.593  12.421  0.1483 -0.1654  0.3208
12181SOL    HW137984   5.998   0.599  12.433  0.4290 -1.2796 -1.0601
12181SOL    HW237985   5.875   0.685  12.412  1.2311  0.1448 -0.1236
12182SOL     OW37986   5.435   0.577   1.409  0.2153  0.0694 -0.4221
12182SOL    HW137987   5.422   0.660   1.454  0.6874 -1.2632  2.3859
12182SOL    HW237988   5.362   0.571   1.347 -0.4287  2.0535  0.0798
12183SOL     OW37989   4.470   0.372   2.078 -0.7527  0.5130 -0.4720
12183SOL    HW137990   4.524   0.294   2.084 -0.9114  0.3191 -1.4278
12183SOL    HW237991   4.420   0.361   1.997 -1.4276  1.1910 -0.1644
12184SOL     OW37992   4.096   0.647   3.382  0.2729  0.0517 -0.3090
12184SOL    HW137993   4.073   0.634   3.290 -1.0034  0.1782 -0.0212
12184SOL    HW237994   4.075   0.738   3.400 -0.7690 -0.3210  0.4494
12185SOL     OW37995   4.615   1.656   0.698 -0.3519 -0.3685 -0.1866
12185SOL    HW137996   4.619   1.708   0.778 -1.5472 -0.1623 -0.2447
12185SOL    HW237997   4.627   1.566   0.727 -0.0624 -0.2276  0.1320
12186SOL     OW37998   6.403   1.869   1.667 -0.0105 -0.3689  0.3819
12186SOL    HW137999   6.375   1.778   1.672  2.0680 -1.1863 -1.3820
12186SOL    HW238000   6.462   1.881   1.741 -0.6063 -0.3102  0.8541
12187SOL     OW38001   4.879   5.776   0.503 -0.2301 -0.4998 -0.1012
12187SOL    HW138002   4.784   5.790   0.498 -0.3841 -1.6821 -0.7960
12187SOL    HW238003   4.905   5.817   0.586 -1.4699 -0.8162  0.4703
12188SOL     OW38004   4.043   1.345   1.533  0.0137  0.0493  0.0032
12188SOL    HW138005   4.016   1.295   1.610 -1.2518 -1.9671 -1.6264
12188SOL    HW238006   3.975   1.412   1.522 -0.4544 -0.4181 -0.0031
12189SOL     OW38007   6.093   0.467   1.919  0.3540  0.6295 -0.4854
12189SOL    HW138008   6.130   0.503   2.000 -1.3362 -1.1690  1.2334
12189SOL    HW238009   6.014   0.518   1.904  0.3764  0.6099 -0.6631
12190SOL     OW38010   4.702   0.130   1.021 -0.3183 -0.3475  0.2981
12190SOL    HW138011   4.666   0.158   0.937  0.1864  0.7238  0.4201
12190SOL    HW238012   4.632   0.078   1.060 -0.0401 -2.1047 -1.3905
12191SOL     OW38013   3.807   5.793   2.261 -0.3853 -0.0368 -0.2143
12191SOL    HW138014   3.833   5.880   2.230  0.0018 -0.0316  0.1216
12191SOL    HW238015   3.729   5.771   2.209  1.0410 -0.6206 -2.2320
12192SOL     OW38016   3.813   1.495  11.402  0.3120 -0.1181 -0.1350
12192SOL    HW138017   3.884   1.465  11.345  0.0799  1.5005 -1.3702
12192SOL    HW238018   3.857   1.533  11.478  0.6745 -1.2250  0.2151
12193SOL     OW38019   4.973   7.199   0.295  0.6106 -0.4313 -0.0729
12193SOL    HW138020   4.966   7.199   0.200 -1.4450 -1.5807  0.0247
12193SOL    HW238021   4.953   7.289   0.321 -1.7549 -0.7427 -0.6220
12194SOL     OW38022   4.349   0.837   1.538  0.5735  0.3357 -0.6528
12194SOL    HW138023   4.441   0.819   1.518  1.3328  2.3254  0.6747
12194SOL    HW238024   4.353   0.909   1.601 -1.8758 -0.2560  0.2776
12195SOL     OW38025   4.033   7.088   2.703  0.2459 -0.0196  0.6138
12195SOL    HW138026   4.042   6.998   2.735 -0.1075  0.0086  0.7914
12195SOL    HW238027   3.979   7.132   2.768 -0.6886 -0.0314 -0.1325
12196SOL     OW38028   4.881   6.558   0.727 -0.3279  0.0134  0.0242
12196SOL    HW138029   4.817   6.530   0.792 -0.3078  0.0492  0.0594
12196SOL    HW238030   4.963   6.567   0.776  0.2403 -2.1443 -0.4140
12197SOL     OW38031   3.892   7.776  11.522 -0.0265 -0.2681  0.3164
12197SOL    HW138032   3.843   7.856  11.542 -0.6408 -0.3639 -0.7501
12197SOL    HW238033   3.926   7.790  11.434  0.7000 -0.7857  0.5035
12198SOL     OW38034   3.353   1.732   1.809  0.3446  0.4122  0.2556
12198SOL    HW138035   3.371   1.701   1.721  1.7541  0.6164  0.4486
12198SOL    HW238036   3.440   1.744   1.849 -0.2546  0.5538  1.5826
12199SOL     OW38037   2.877   2.762   0.921  0.1101  0.2585 -0.0805
12199SOL    HW138038   2.939   2.829   0.949  1.1794 -0.9077  0.4740
12199SOL    HW238039   2.930   2.700   0.871 -0.7505 -0.4225 -0.1826
12200SOL     OW38040   5.659   7.825   0.287 -0.0683  0.2067  0.0879
12200SOL    HW138041   5.647   7.753   0.350 -0.6194 -1.6701 -2.0143
12200SOL    HW238042   5.613   7.899   0.326 -2.2296 -1.4684  0.9748
12201SOL     OW38043   5.917   2.382   3.680 -0.2007 -0.1947  0.3328
12201SOL    HW138044   5.948   2.356   3.767  1.0529  0.4081  0.0891
12201SOL    HW238045   5.848   2.446   3.697 -1.2994 -1.4618  0.8873
12202SOL     OW38046   6.816   7.570  12.458  0.0902  0.7775 -0.4668
12202SOL    HW138047   6.755   7.505  12.422 -0.5764  0.7678  0.6194
12202SOL    HW238048   6.764   7.650  12.466  0.4828  1.0271 -0.3949
12203SOL     OW38049   5.478   1.263   1.632 -0.1247  0.2303 -0.3004
12203SOL    HW138050   5.462   1.200   1.702 -2.0048 -0.9513 -1.6888
12203SOL    HW238051   5.394   1.308   1.621  0.5594  1.4115 -0.8376
12204SOL     OW38052   2.986   0.623   1.768  0.4324 -0.0319 -0.4585
12204SOL    HW138053   2.901   0.658   1.796  0.4103 -0.8771  0.6243
12204SOL    HW238054   2.993   0.646   1.676 -0.4649  1.0409 -0.2790
12205SOL     OW38055   2.542   3.291  12.243  0.0790 -0.2344 -0.1961
12205SOL    HW138056   2.636   3.282  12.227  0.6197  1.1840  1.6944
12205SOL    HW238057   2.501   3.277  12.158  2.1369  0.7154 -1.4204
12206SOL     OW38058   4.704   0.547   0.703 -0.0291 -0.2444  0.2689
12206SOL    HW138059   4.741   0.497   0.630  0.6533  0.1830  0.3110
12206SOL    HW238060   4.621   0.505   0.721  1.0664 -2.1686  1.1243
12207SOL     OW38061   6.857   1.982   3.356  0.4754  0.3314 -0.6374
12207SOL    HW138062   6.783   1.942   3.312  0.0116 -1.2486  1.4240
12207SOL    HW238063   6.843   2.076   3.347 -1.3055  0.0587 -1.0564
12208SOL     OW38064   4.572   0.742   1.277  0.4037  0.1462 -0.5093
12208SOL    HW138065   4.580   0.822   1.330  0.1351  0.0235 -0.2796
12208SOL    HW238066   4.657   0.699   1.286  0.3870  0.1674 -0.2392
12209SOL     OW38067   5.555   0.650   0.533  0.4309  0.1502 -0.2996
12209SOL    HW138068   5.597   0.728   0.494  0.9511  0.7103  1.2937
12209SOL    HW238069   5.620   0.617   0.595  0.6171 -2.1740 -1.6207
12210SOL     OW38070   3.765   0.334   2.474  0.0959 -0.0636  0.0369
12210SOL    HW138071   3.828   0.264   2.458 -0.9088 -1.1213  0.5293
12210SOL    HW238072   3.818   0.413   2.482  1.1342 -0.4672 -2.1505
12211SOL     OW38073   6.001   7.793   0.328  0.0272  0.0983 -0.0015
12211SOL    HW138074   6.076   7.780   0.270  0.6289  0.5988  0.6466
12211SOL    HW238075   5.927   7.808   0.269  0.4714 -0.2205 -0.6471
12212SOL     OW38076   5.327   7.482   2.082 -0.0860  0.2297  0.2371
12212SOL    HW138077   5.351   7.568   2.048  1.5810  0.1196  1.0218
12212SOL    HW238078   5.389   7.422   2.042  0.5891 -0.1825  1.8119
12213SOL     OW38079   5.653   0.755  11.698 -0.4651  0.1964  0.0994
12213SOL    HW138080   5.652   0.850  11.688 -0.1374  0.5281  2.5866
12213SOL    HW238081   5.711   0.739  11.772 -0.4019 -1.9746 -0.3424
12214SOL     OW38082   4.314   2.128   0.528 -0.4347 -0.0132  0.6087
12214SOL    HW138083   4.227   2.090   0.512 -0.6295 -0.1430  1.8877
12214SOL    HW238084   4.347   2.081   0.604 -0.1787  1.5357  1.4986
12215SOL     OW38085   4.777   0.405   0.505 -0.1176  0.3083  0.0798
12215SOL    HW138086   4.822   0.320   0.505  1.2351  0.9560  2.0286
12215SOL    HW238087   4.828   0.458   0.443  0.3923  0.3220  0.4988
12216SOL     OW38088   3.159   2.048   0.392  0.7105  0.3322  0.0797
12216SOL    HW138089   3.220   2.019   0.324  2.1701  1.8754  0.6487
12216SOL    HW238090   3.180   2.140   0.406 -1.1867  0.6847  0.9477
12217SOL     OW38091   3.029   0.431   1.242 -0.4994 -0.1163  0.2850
12217SOL    HW138092   3.022   0.515   1.287 -1.3640 -0.4388  0.7716
12217SOL    HW238093   2.949   0.384   1.265  0.0258 -1.1295  0.1281
12218SOL     OW38094   5.666   6.901   1.930 -0.0804 -0.1798 -0.0555
12218SOL    HW138095   5.653   6.930   1.840 -0.8023 -0.0256  0.0945
12218SOL    HW238096   5.758   6.876   1.934 -0.9778 -4.8030 -2.1883
12219SOL     OW38097   4.258   1.484   1.381 -0.7472  0.1810  0.4830
12219SOL    HW138098   4.329   1.422   1.400  0.8592  1.8619  0.2937
12219SOL    HW238099   4.186   1.455   1.437 -0.3197 -2.2355 -0.1150
12220SOL     OW38100   3.333   7.206   0.632 -0.3753 -0.0170  0.4382
12220SOL    HW138101   3.241   7.194   0.611 -0.1962  0.1583 -0.4953
12220SOL    HW238102   3.366   7.266   0.565  0.5108 -0.3872  0.5207
12221SOL     OW38103   5.320   0.918   1.355 -0.2016  0.3633  0.0593
12221SOL    HW138104   5.372   0.980   1.304 -0.6975  0.5093 -0.2785
12221SOL    HW238105   5.368   0.908   1.437  1.1892 -0.6732 -0.8080
12222SOL     OW38106   3.227   2.415   0.903  0.2117 -0.2679 -0.2506
12222SOL    HW138107   3.249   2.480   0.837  2.1364 -0.3788  0.2169
12222SOL    HW238108   3.223   2.332   0.855 -0.1029 -0.1075 -0.4997
12223SOL     OW38109   5.348   1.488   1.436 -0.1544 -0.0514 -0.1558
12223SOL    HW138110   5.264   1.479   1.483  0.2864 -0.0489  0.6546
12223SOL    HW238111   5.352   1.410   1.380  0.0324 -0.9309  1.0169
12224SOL     OW38112   3.721   2.557   2.046  0.0763  0.0425 -0.0014
12224SOL    HW138113   3.800   2.606   2.069 -0.7713  0.7478  1.5578
12224SOL    HW238114   3.661   2.623   2.010 -0.2701 -0.2438  0.0441
12225SOL     OW38115   3.504   0.411   1.474  0.0934 -0.1307 -0.5558
12225SOL    HW138116   3.430   0.431   1.416 -0.9593 -0.0684  0.7572
12225SOL    HW238117   3.518   0.317   1.464 -0.3180 -0.1846 -0.6340
12226SOL     OW38118   3.891   7.329   0.459  0.3482  0.0290 -0.3936
12226SOL    HW138119   3.807   7.323   0.413 -0.4300  0.3969  0.9339
12226SOL    HW238120   3.956   7.303   0.393 -0.7564  0.1231 -1.5626
12227SOL     OW38121   5.955   0.995   2.433 -0.6087  0.7919  0.0023
12227SOL    HW138122   5.967   0.994   2.338 -1.2347 -0.1836 -0.0784
12227SOL    HW238123   5.917   0.910   2.454  0.5492  0.5618  1.2789
12228SOL     OW38124   3.472   7.958   0.542  0.3689  0.3812 -0.4517
12228SOL    HW138125   3.448   7.959   0.635 -0.5315  1.3904 -0.6737
12228SOL    HW238126   3.464   8.050   0.514  0.8672  0.1283 -1.4667
12229SOL     OW38127   3.541   0.499   1.079 -0.2631 -0.0334  0.3649
12229SOL    HW138128   3.527   0.565   1.146 -0.1181 -1.3622  1.7662
12229SOL    HW238129   3.456   0.490   1.036 -0.2447  1.1392  0.0495
12230SOL     OW38130   4.626   7.101   1.636 -0.5305  0.0004 -0.2716
12230SOL    HW138131   4.688   7.115   1.707 -1.0030 -1.7828  0.5539
12230SOL    HW238132   4.600   7.009   1.645 -1.4691  0.0479 -2.0593
12231SOL     OW38133   5.009   1.264   2.139  0.1423  0.3281 -0.6226
12231SOL    HW138134   4.986   1.355   2.159  0.8370  0.7511 -1.6909
12231SOL    HW238135   5.069   1.238   2.209  0.6256  0.9785 -0.7942
12232SOL     OW38136   4.179   7.323   0.852 -0.5292 -0.5949  0.5383
12232SOL    HW138137   4.180   7.314   0.757  1.2969 -0.8464  0.5393
12232SOL    HW238138   4.088   7.345   0.873 -1.3379 -2.0986 -1.0899
12233SOL     OW38139   5.354   0.208   0.940 -0.4873 -0.0141  0.0781
12233SOL    HW138140   5.413   0.171   0.875 -1.2379 -0.0239 -0.6090
12233SOL    HW238141   5.412   0.235   1.012  0.1396 -2.0065  0.3812
12234SOL     OW38142   4.136   2.633   1.832 -0.3855 -0.3468 -0.5896
12234SOL    HW138143   4.145   2.561   1.895  0.7760  1.0320  0.8803
12234SOL    HW238144   4.226   2.654   1.806 -0.7136  0.5660 -1.0309
12235SOL     OW38145   5.080   0.567   2.116  0.0742 -0.3115  0.7239
12235SOL    HW138146   5.118   0.481   2.134 -0.3172 -0.0067  3.3942
12235SOL    HW238147   4.987   0.557   2.136 -0.0043  0.6849  0.9111
12236SOL     OW38148   3.133   0.269   2.735  0.3276 -0.4695  0.7167
12236SOL    HW138149   3.120   0.336   2.668 -2.1959 -0.3260  1.2507
12236SOL    HW238150   3.218   0.289   2.773 -0.6475  3.0202  1.4272
12237SOL     OW38151   2.867   0.505   3.276  0.7700  0.6590  0.1938
12237SOL    HW138152   2.774   0.519   3.294  0.6091 -0.1440  0.0451
12237SOL    HW238153   2.909   0.506   3.362  0.4848  0.0907  0.3432
12238SOL     OW38154   3.602   7.526   1.373 -0.2496  0.2110 -0.1393
12238SOL    HW138155   3.687   7.558   1.402  0.1135 -0.8638  0.0163
12238SOL    HW238156   3.610   7.431   1.373 -1.2675  0.1046 -0.6891
12239SOL     OW38157   5.706   7.998   1.190 -0.2566  0.1911  0.1202
12239SOL    HW138158   5.617   8.016   1.222  0.5103  0.0365  2.5956
12239SOL    HW238159   5.727   8.072   1.134 -1.0597  1.5397  1.5304
12240SOL     OW38160   5.227   0.646  11.413  0.3109 -0.2377 -0.2296
12240SOL    HW138161   5.240   0.605  11.327  0.5086  1.0445 -0.8292
12240SOL    HW238162   5.291   0.717  11.415 -1.2259  1.1802  0.0324
12241SOL     OW38163   6.426   0.111  11.686  0.1585 -0.1281 -0.3103
12241SOL    HW138164   6.366   0.169  11.638 -0.8051 -0.3913  0.5292
12241SOL    HW238165   6.481   0.073  11.618 -0.1826  0.6381 -1.0417
12242SOL     OW38166   4.927   0.708   0.846 -0.4135  0.4067  0.0809
12242SOL    HW138167   4.852   0.651   0.861  0.3624 -0.4306  0.8720
12242SOL    HW238168   4.945   0.701   0.753 -1.9815  1.4829 -0.3481
12243SOL     OW38169   6.803   0.155  12.021 -0.0951  0.5455  0.0519
12243SOL    HW138170   6.806   0.196  12.107  1.8457 -0.6034  0.5724
12243SOL    HW238171   6.834   0.223  11.961 -0.4828  1.0158  0.3772
12244SOL     OW38172   3.745   7.203  12.444  0.5101 -0.0168 -0.1603
12244SOL    HW138173   3.790   7.158  12.373  1.1156  0.4753 -0.0966
12244SOL    HW238174   3.760   7.149  12.521 -0.0853 -0.5127 -0.3794
12245SOL     OW38175   2.267   0.831   0.256  0.1894 -0.2744 -0.6998
12245SOL    HW138176   2.200   0.775   0.296 -0.1177  0.0952 -0.6992
12245SOL    HW238177   2.218   0.895   0.204  0.5310  0.1835 -0.4618
12246SOL     OW38178   4.954   0.643   3.056  0.3364 -0.5322 -0.3261
12246SOL    HW138179   4.892   0.715   3.065 -0.3634 -1.2248  0.7612
12246SOL    HW238180   5.022   0.661   3.121  0.6044 -0.4191 -0.6375
12247SOL     OW38181   5.268   1.753   2.552  0.2932 -0.2043 -0.0971
12247SOL    HW138182   5.279   1.829   2.494 -1.4040  0.0030 -0.2025
12247SOL    HW238183   5.357   1.723   2.569  0.9525  1.1802 -0.8933
12248SOL     OW38184   4.211   1.395   0.649 -0.0947  0.5279  0.0056
12248SOL    HW138185   4.293   1.428   0.613  0.2733 -1.3189 -0.9902
12248SOL    HW238186   4.237   1.339   0.722 -0.4698  0.1676 -0.1279
12249SOL     OW38187   4.677   0.869   1.698  0.0423  0.2142 -0.7824
12249SOL    HW138188   4.738   0.935   1.664  0.3690 -0.1796 -0.9587
12249SOL    HW238189   4.653   0.902   1.785 -0.8673  1.2754 -1.4095
12250SOL     OW38190   5.559   6.658   0.571 -0.5511  0.0283 -0.2706
12250SOL    HW138191   5.559   6.732   0.631  1.3810 -1.2116  1.3729
12250SOL    HW238192   5.626   6.680   0.506  0.6304 -0.5809  0.7000
12251SOL     OW38193   4.731   7.833   5.411 -0.1776 -0.3980  0.1107
12251SOL    HW138194   4.711   7.741   5.392 -0.4028 -0.6708  1.5780
12251SOL    HW238195   4.648   7.878   5.397 -0.9176 -0.9235  2.3254
12252SOL     OW38196   5.161   0.786   3.812  0.5430 -0.1771  0.8524
12252SOL    HW138197   5.222   0.794   3.885  1.5387  1.1615 -0.0715
12252SOL    HW238198   5.120   0.872   3.805  0.8479 -0.1101 -0.4516
12253SOL     OW38199   5.021   2.153   1.641 -0.1668  0.6879 -0.0435
12253SOL    HW138200   5.008   2.240   1.604 -1.0132  0.0251 -1.4016
12253SOL    HW238201   5.016   2.094   1.565  0.9747 -0.4984  0.7540
12254SOL     OW38202   4.269   0.790  11.832 -0.0029  0.5049  0.3806
12254SOL    HW138203   4.202   0.841  11.878 -0.6952 -0.0786  0.0393
12254SOL    HW238204   4.304   0.851  11.767 -1.0127  0.4838 -0.2082
12255SOL     OW38205   6.813   0.038   1.626  0.4692 -0.7783 -0.2382
12255SOL    HW138206   6.768   0.122   1.635  0.8797 -0.3904 -1.5797
12255SOL    HW238207   6.743  -0.027   1.634 -0.0482 -0.2640 -0.4805
12256SOL     OW38208   2.592   2.200   2.436 -0.0847  0.5852  0.4150
12256SOL    HW138209   2.582   2.181   2.529 -0.1324 -0.7572  0.1513
12256SOL    HW238210   2.508   2.174   2.397  0.8192 -1.2984 -0.3595
12257SOL     OW38211   3.183   0.998   0.992 -0.0330 -0.1614 -0.5786
12257SOL    HW138212   3.141   0.940   1.056  0.8084 -1.6173 -1.2973
12257SOL    HW238213   3.119   1.006   0.921  0.2342 -1.0682 -0.9384
12258SOL     OW38214   5.242   0.477   0.253 -0.4953 -0.1993 -0.5403
12258SOL    HW138215   5.279   0.565   0.242 -1.2834  0.2084 -0.0796
12258SOL    HW238216   5.286   0.442   0.330 -0.9846  0.2443 -0.0492
12259SOL     OW38217   4.592   0.965   2.318 -0.3236  0.1231 -0.0233
12259SOL    HW138218   4.619   0.940   2.406 -1.0478 -1.4218 -0.1885
12259SOL    HW238219   4.668   0.944   2.263 -0.9974 -2.2087 -0.1954
12260SOL     OW38220   2.969   1.835   2.516  0.1396  0.4036 -0.7791
12260SOL    HW138221   2.922   1.791   2.586  1.9860  0.2759  0.4579
12260SOL    HW238222   2.915   1.822   2.438 -1.3843 -0.4701  0.3772
12261SOL     OW38223   4.401   1.077   1.682  0.3598 -0.0072  0.1808
12261SOL    HW138224   4.482   1.128   1.690  0.3769 -0.0072 -0.0067
12261SOL    HW238225   4.366   1.076   1.771  0.3367  0.3709  0.1774
12262SOL     OW38226   4.065   0.219   2.056 -0.0606  0.2231  0.0796
12262SOL    HW138227   4.041   0.157   2.125  0.9572  0.0712  0.3153
12262SOL    HW238228   4.146   0.184   2.020  0.2020  1.0956 -0.1938
12263SOL     OW38229   3.771   0.752   3.425 -0.2847 -0.6408 -0.6794
12263SOL    HW138230   3.680   0.773   3.446 -0.3231 -1.6603  0.2022
12263SOL    HW238231   3.773   0.748   3.329 -1.2879 -1.1487 -0.6856
12264SOL     OW38232   5.767   2.295   1.561  0.2893 -0.3103 -0.0596
12264SOL    HW138233   5.750   2.249   1.644  0.3450 -2.1840 -1.0391
12264SOL    HW238234   5.838   2.245   1.520  0.4107  0.7179 -1.1409
12265SOL     OW38235   5.258   5.875   2.278  0.0909  0.7458 -0.0897
12265SOL    HW138236   5.341   5.877   2.326  0.4707  0.7258 -0.7424
12265SOL    HW238237   5.282   5.851   2.189 -0.4189  2.2017 -0.6536
12266SOL     OW38238   3.887   0.571   2.513  0.1228  0.1725  0.1208
12266SOL    HW138239   3.903   0.629   2.586 -0.1135  0.4193 -0.0240
12266SOL    HW238240   3.830   0.620   2.454 -0.5964 -0.4333  0.2934
12267SOL     OW38241   3.288   7.758   2.986 -0.1680  0.4604 -0.0904
12267SOL    HW138242   3.202   7.744   2.947 -0.2208  0.3355  0.0694
12267SOL    HW238243   3.325   7.671   2.995 -1.4319  0.1259  3.0514
12268SOL     OW38244   4.917   0.539   1.078 -0.1022  0.1400 -0.2453
12268SOL    HW138245   4.984   0.478   1.048 -0.2638  0.0389 -0.4061
12268SOL    HW238246   4.929   0.617   1.024  0.4583  0.4613  0.3356
12269SOL     OW38247   6.892   7.392   0.472  0.5170  0.0779  0.6932
12269SOL    HW138248   6.872   7.442   0.393  2.9693 -0.0083 -0.0805
12269SOL    HW238249   6.886   7.455   0.544  0.5137  0.7103  0.1386
12270SOL     OW38250   6.116   1.928   2.157 -0.3171 -0.1961 -0.4137
12270SOL    HW138251   6.131   1.906   2.248 -1.6366 -1.4534 -0.4738
12270SOL    HW238252   6.204   1.930   2.118  0.1250 -1.8569  0.4045
12271SOL     OW38253   3.834   1.574   2.504 -0.0141 -0.3177  0.1703
12271SOL    HW138254   3.796   1.640   2.446  0.3193 -0.2196  0.0635
12271SOL    HW238255   3.920   1.555   2.466  0.4203  0.1169  0.9179
12272SOL     OW38256   5.178   0.373   3.437 -0.2747 -0.1101  0.0945
12272SOL    HW138257   5.120   0.368   3.513 -1.2164  1.5268 -0.4613
12272SOL    HW238258   5.128   0.334   3.365  0.9573 -2.5064  0.4123
12273SOL     OW38259   3.037   0.097   4.346  0.2672  0.1197  0.4150
12273SOL    HW138260   3.119   0.078   4.391  1.6008 -2.0046 -2.5749
12273SOL    HW238261   3.043   0.190   4.324  2.7387 -0.2971 -1.0901
12274SOL     OW38262   4.089   7.521   2.177 -0.7788 -0.2676 -0.4587
12274SOL    HW138263   4.114   7.430   2.158 -0.8742 -0.2490 -0.6796
12274SOL    HW238264   4.125   7.571   2.104 -0.7712 -0.1347 -0.3628
12275SOL     OW38265   0.059   7.784   0.624  0.5786 -0.0630 -0.9435
12275SOL    HW138266   0.151   7.793   0.599  0.8066 -1.3844 -0.6590
12275SOL    HW238267   0.030   7.703   0.581 -0.4475  0.3161 -1.0051
12276SOL     OW38268   5.531   0.994   0.584  0.2517  0.2226  0.1728
12276SOL    HW138269   5.454   0.952   0.621 -0.3395 -0.1371 -1.3995
12276SOL    HW238270   5.506   1.014   0.494  1.7007  0.8950 -0.1002
12277SOL     OW38271   5.489   6.599   1.511 -0.2677 -0.2239 -0.3696
12277SOL    HW138272   5.530   6.536   1.570 -1.0051 -1.8237 -1.4882
12277SOL    HW238273   5.425   6.548   1.462  0.2604  1.0381 -2.5061
12278SOL     OW38274   3.123   2.297   4.100  0.5355  0.5639 -0.6587
12278SOL    HW138275   3.208   2.315   4.061  0.3806  0.8845 -0.8471
12278SOL    HW238276   3.114   2.201   4.095  2.3118  0.1083  2.2854
12279SOL     OW38277   3.953   1.296   1.938  0.7108  0.0183  0.0016
12279SOL    HW138278   3.933   1.267   1.849  0.2975  2.7477 -0.9183
12279SOL    HW238279   3.919   1.227   1.995  0.8428 -1.7296 -1.9298
12280SOL     OW38280   5.666   0.555   1.259 -0.3903 -0.3677  0.2551
12280SOL    HW138281   5.633   0.608   1.186  0.3016  1.3203  1.1050
12280SOL    HW238282   5.592   0.550   1.320 -0.0024  0.9955  0.8747
12281SOL     OW38283   6.666   7.431  11.955 -0.2537 -0.2904 -0.2471
12281SOL    HW138284   6.647   7.525  11.963 -2.4252 -0.5583 -1.4471
12281SOL    HW238285   6.664   7.414  11.861  3.1508 -1.0505 -0.2886
12282SOL     OW38286   3.060   1.562   1.141 -0.3379 -0.0311 -0.7875
12282SOL    HW138287   3.149   1.535   1.164 -0.2003  2.1845  1.8429
12282SOL    HW238288   3.008   1.539   1.217 -1.8903 -0.4705 -1.9347
12283SOL     OW38289   3.029   0.442   4.285 -0.0197  0.2657 -0.4170
12283SOL    HW138290   3.118   0.407   4.274 -0.4133 -0.4843 -1.4243
12283SOL    HW238291   3.039   0.537   4.276  0.7868  0.2592  0.3135
12284SOL     OW38292   4.765   6.942   0.650 -0.3252  0.3809  0.7235
12284SOL    HW138293   4.833   6.993   0.606 -0.6258  0.5859  0.4930
12284SOL    HW238294   4.740   6.876   0.586  2.0120 -1.8754  1.9726
12285SOL     OW38295   6.094   0.212  11.536 -0.2129  0.0523  0.0069
12285SOL    HW138296   6.012   0.211  11.487 -0.6472  0.4251  0.7106
12285SOL    HW238297   6.073   0.169  11.619  0.5676 -0.7612 -0.2018
12286SOL     OW38298   2.867   0.464   1.486 -0.3987  0.2554 -0.6564
12286SOL    HW138299   2.903   0.417   1.562 -0.4820 -0.5824 -1.1302
12286SOL    HW238300   2.782   0.496   1.516  0.3443  1.5118  0.1927
12287SOL     OW38301   4.254   3.247   0.322 -0.0702 -0.4639 -0.3293
12287SOL    HW138302   4.204   3.302   0.382  0.2432 -0.3755 -0.1454
12287SOL    HW238303   4.248   3.292   0.237 -1.1573 -0.9937 -0.5440
12288SOL     OW38304   3.288   0.041   1.640  0.6428 -0.0505  1.1054
12288SOL    HW138305   3.363   0.062   1.584  0.5233  0.3215  1.0806
12288SOL    HW238306   3.216   0.024   1.579  0.5528  0.1972  1.1422
12289SOL     OW38307   3.220   1.217   1.160  0.4433 -0.5066  0.1934
12289SOL    HW138308   3.254   1.144   1.107  0.8564 -1.2040  1.3948
12289SOL    HW238309   3.126   1.199   1.169 -0.2778  1.1204 -2.6406
12290SOL     OW38310   3.312   0.072   0.293  0.2533  0.0075  0.1225
12290SOL    HW138311   3.362   0.116   0.361 -1.2230 -0.4951  1.5807
12290SOL    HW238312   3.234   0.039   0.337 -1.0049  0.0879 -1.9064
12291SOL     OW38313   4.360   7.079   2.404 -0.6203 -0.1692 -0.3184
12291SOL    HW138314   4.418   7.148   2.372  1.6750 -1.4768  0.7780
12291SOL    HW238315   4.382   7.003   2.350 -1.1433 -0.7535  0.2775
12292SOL     OW38316   6.819   0.924   2.430  0.1443 -0.3443  0.0500
12292SOL    HW138317   6.802   0.927   2.525  0.1238 -0.3928  0.0480
12292SOL    HW238318   6.911   0.899   2.423  0.5510  1.0542  0.0833
12293SOL     OW38319   3.758   0.050   1.632  0.3826  0.4926 -0.3201
12293SOL    HW138320   3.812   0.123   1.601  2.1254 -0.4227  0.4219
12293SOL    HW238321   3.740  -0.001   1.553  1.4663  0.2857 -0.4548
12294SOL     OW38322   5.471   1.388   2.590 -0.0965  0.0408 -0.1856
12294SOL    HW138323   5.479   1.406   2.684  0.5209 -0.8157 -0.0611
12294SOL    HW238324   5.474   1.474   2.548 -2.0314  0.5742  0.6677
12295SOL     OW38325   1.792   0.228   0.937 -0.2254  0.0900 -0.1876
12295SOL    HW138326   1.731   0.302   0.936  1.7778  1.8366  0.0101
12295SOL    HW238327   1.739   0.154   0.968 -2.2432  1.4644 -0.1253
12296SOL     OW38328   2.411   7.819   2.922  0.1110  0.2337 -0.1388
12296SOL    HW138329   2.418   7.767   3.001 -1.2821  0.1433 -0.0412
12296SOL    HW238330   2.392   7.908   2.953  0.9267  0.4858 -0.3424
12297SOL     OW38331   4.701   3.894   2.027 -0.5830 -0.0379 -0.0635
12297SOL    HW138332   4.726   3.885   2.119 -2.4069  1.0996  0.5908
12297SOL    HW238333   4.703   3.804   1.993  2.0739 -0.2654  0.4758
12298SOL     OW38334   2.977   1.753   0.327 -0.1119  0.1306  0.7042
12298SOL    HW138335   2.930   1.670   0.335 -1.9127  1.0395  0.1172
12298SOL    HW238336   3.064   1.729   0.297 -0.5285 -1.5650  0.7910
12299SOL     OW38337   3.914   0.034   2.221 -0.0819 -0.1419  0.5652
12299SOL    HW138338   3.909   0.038   2.316 -2.1525  0.3291  0.4796
12299SOL    HW238339   3.823   0.026   2.192  0.5720 -1.5017 -1.3389
12300SOL     OW38340   5.199   1.832   1.438  0.7117 -0.4951 -0.3244
12300SOL    HW138341   5.169   1.746   1.467 -0.8340 -0.1178 -0.7365
12300SOL    HW238342   5.267   1.855   1.501  0.0800 -1.3522  0.7178
12301SOL     OW38343   5.102   7.365  11.469 -0.1749  0.1890  0.0333
12301SOL    HW138344   5.026   7.396  11.519  1.0833  1.3142  1.3292
12301SOL    HW238345   5.134   7.290  11.517  0.8214  1.0542  0.7639
12302SOL     OW38346   6.461   1.175   2.425  0.1470  0.4051 -0.3978
12302SOL    HW138347   6.507   1.165   2.508  0.7872  1.1950 -0.6395
12302SOL    HW238348   6.386   1.231   2.446 -0.0817  0.0366 -0.2223
12303SOL     OW38349   4.766   1.427   0.120  0.0750  0.2266  0.1325
12303SOL    HW138350   4.828   1.373   0.071 -0.7895 -1.2654  0.6064
12303SOL    HW238351   4.682   1.382   0.109 -0.1926 -0.0648  2.7569
12304SOL     OW38352   3.606   1.070   2.020 -0.1426  0.9754 -0.2688
12304SOL    HW138353   3.525   1.099   2.062  0.2329  0.5672  0.7798
12304SOL    HW238354   3.670   1.139   2.038  0.2513  0.4007  0.6083
12305SOL     OW38355   3.640   0.712   2.788  0.2568  0.1456 -0.4765
12305SOL    HW138356   3.568   0.679   2.734  0.3090 -0.9828  0.1126
12305SOL    HW238357   3.634   0.663   2.869  1.7559 -0.0531 -0.4474
12306SOL     OW38358   4.875   7.189   1.509  0.4062  0.4123  0.0134
12306SOL    HW138359   4.912   7.218   1.593  1.2419  0.7704 -0.4645
12306SOL    HW238360   4.801   7.134   1.534  0.3117  0.9413  0.9804
12307SOL     OW38361   5.191   1.577  12.407 -0.1338  0.0650  0.1820
12307SOL    HW138362   5.197   1.617  12.494  0.7461 -0.8494  0.5630
12307SOL    HW238363   5.125   1.509  12.416  0.1439 -0.2049  0.2219
12308SOL     OW38364   6.346   7.950   0.583 -0.2338 -0.3653 -1.4057
12308SOL    HW138365   6.256   7.923   0.566 -0.7199  0.3818 -0.1936
12308SOL    HW238366   6.393   7.868   0.595 -1.3030 -0.7810  0.4192
12309SOL     OW38367   4.210   0.287   1.625  0.3465  0.5509  0.2787
12309SOL    HW138368   4.287   0.304   1.570 -0.3253 -0.7154 -1.1186
12309SOL    HW238369   4.195   0.371   1.669  2.6108  0.7858  0.7559
12310SOL     OW38370   6.502   1.449   0.075 -0.2867  0.1404 -0.0160
12310SOL    HW138371   6.467   1.363   0.099 -0.3969 -0.1538 -1.1425
12310SOL    HW238372   6.551   1.478   0.151 -1.4891 -0.2531  0.9391
12311SOL     OW38373   5.025   0.014   1.348 -0.3042  0.2503 -0.8046
12311SOL    HW138374   4.930   0.006   1.339 -0.5464 -0.0712  1.4123
12311SOL    HW238375   5.060  -0.028   1.270 -1.9472  2.9348 -3.1601
12312SOL     OW38376   4.972   0.555  11.551  0.4892  0.0755 -0.2085
12312SOL    HW138377   4.943   0.644  11.533 -2.4443 -0.6162  0.5756
12312SOL    HW238378   4.980   0.515  11.465  0.9147  0.8115 -0.5246
12313SOL     OW38379   5.406   1.955   1.541  0.3121  0.1125  0.2562
12313SOL    HW138380   5.410   2.038   1.494  0.4278  0.1364  0.3070
12313SOL    HW238381   5.432   1.977   1.631 -1.0575  0.2887  0.6379
12314SOL     OW38382   3.589   7.543   2.290 -0.0374 -0.4667  0.2209
12314SOL    HW138383   3.621   7.577   2.374 -1.0928  0.3518  0.3235
12314SOL    HW238384   3.607   7.613   2.227 -0.3289 -0.5771  0.0116
12315SOL     OW38385   4.969   6.922   0.874 -0.1556  0.8486  0.1268
12315SOL    HW138386   4.949   7.016   0.868 -0.1262  0.8646  0.2776
12315SOL    HW238387   4.909   6.881   0.812 -0.9344  0.8496  0.8539
12316SOL     OW38388   6.049   2.639  11.713  0.8105  0.3142  0.1278
12316SOL    HW138389   6.076   2.565  11.768 -0.6864  1.2620  2.2931
12316SOL    HW238390   5.968   2.609  11.672  0.5412  0.5073  0.5101
12317SOL     OW38391   4.630   1.115   3.037 -0.3467  0.1353  0.2207
12317SOL    HW138392   4.698   1.182   3.026 -0.4474  0.2422  0.2411
12317SOL    HW238393   4.559   1.160   3.083 -0.9552  0.3919 -0.9065
12318SOL     OW38394   6.236   0.461   0.860  0.0468 -0.3455 -0.1369
12318SOL    HW138395   6.301   0.464   0.789  0.5494 -0.4078  0.3132
12318SOL    HW238396   6.287   0.474   0.939 -0.6817  0.9835  0.1329
12319SOL     OW38397   5.594   0.783   0.049  0.5626  0.0344  0.4732
12319SOL    HW138398   5.512   0.795   0.097 -1.0491 -2.2678 -1.4641
12319SOL    HW238399   5.635   0.707   0.091  2.0383  1.4755  1.7529
12320SOL     OW38400   3.507   7.965   2.142 -0.6406 -0.0444 -0.0629
12320SOL    HW138401   3.578   7.905   2.121  0.4711 -0.0445  3.1486
12320SOL    HW238402   3.428   7.911   2.143 -0.2009 -0.7061 -0.5217
12321SOL     OW38403   4.387   1.495   2.267  0.2936 -0.3552  0.5026
12321SOL    HW138404   4.333   1.548   2.208  0.0594  0.4122  1.3894
12321SOL    HW238405   4.446   1.558   2.308 -0.0879 -0.7581  1.6885
12322SOL     OW38406   6.219   1.607  12.087  0.3609 -0.4497 -0.0841
12322SOL    HW138407   6.204   1.575  11.997 -1.3439 -3.2430  1.0550
12322SOL    HW238408   6.314   1.605  12.098  0.7991  1.9436 -2.4004
12323SOL     OW38409   3.069   6.794   0.540 -0.6075  0.4306  0.5032
12323SOL    HW138410   3.135   6.847   0.584  0.1270  0.6398 -0.7960
12323SOL    HW238411   3.111   6.709   0.527 -0.6235  0.5349 -0.2493
12324SOL     OW38412   5.821   0.865  12.452  0.2155 -0.6297 -0.1512
12324SOL    HW138413   5.731   0.843  12.477  0.3944  0.3192  1.4419
12324SOL    HW238414   5.825   0.960  12.459  0.8970 -0.4885 -1.8905
12325SOL     OW38415   6.203   1.126   2.088 -0.6928 -0.3863  0.3224
12325SOL    HW138416   6.144   1.050   2.086 -0.2107 -0.7576 -0.4036
12325SOL    HW238417   6.157   1.191   2.141 -0.9511 -1.3153  1.2719
12326SOL     OW38418   5.519   6.965   0.650 -0.1461 -0.4838 -0.6943
12326SOL    HW138419   5.458   6.934   0.583  0.0404  0.8786 -1.5394
12326SOL    HW238420   5.465   7.021   0.707  0.2720  0.7428 -1.4576
12327SOL     OW38421   4.322   7.323   2.959  0.6958  0.2805  0.1562
12327SOL    HW138422   4.304   7.237   2.995  0.0910 -0.5663 -2.0290
12327SOL    HW238423   4.313   7.313   2.864  0.6500  2.7310 -0.1870
12328SOL     OW38424   2.184   6.393   0.447  0.0964 -0.1499 -0.1742
12328SOL    HW138425   2.167   6.327   0.379  0.9224 -1.1794  0.5884
12328SOL    HW238426   2.248   6.452   0.408  0.3931 -0.6031 -0.3787
12329SOL     OW38427   6.170   7.870   3.500  0.3972 -0.0812 -0.0981
12329SOL    HW138428   6.143   7.785   3.534 -0.1201  0.2305  0.2901
12329SOL    HW238429   6.147   7.868   3.408  3.1555 -1.5025 -0.8747
12330SOL     OW38430   4.514   5.745   0.964 -0.4052 -0.2952  0.2922
12330SOL    HW138431   4.468   5.822   0.997 -2.0982 -0.5207 -1.3186
12330SOL    HW238432   4.454   5.709   0.898  0.8122 -2.3730  0.2411
12331SOL     OW38433   5.108   7.692  11.972  0.2471  0.1691  0.6750
12331SOL    HW138434   5.073   7.615  11.927  1.0150 -0.5533  1.2759
12331SOL    HW238435   5.109   7.760  11.905  0.3913 -0.5970 -0.1270
12332SOL     OW38436   4.795   1.774   1.161 -0.7488 -0.5750  0.4990
12332SOL    HW138437   4.846   1.697   1.186 -0.8758 -1.3748 -1.4987
12332SOL    HW238438   4.771   1.816   1.244  3.8459  0.3901  1.6037
12333SOL     OW38439   6.848   7.815   0.748 -0.1012 -0.4972  0.1314
12333SOL    HW138440   6.929   7.862   0.767  0.0479 -1.0282  0.8333
12333SOL    HW238441   6.841   7.819   0.653 -0.5754  1.7351  0.1898
12334SOL     OW38442   4.164   7.928   1.674  0.3855 -0.4974  0.8457
12334SOL    HW138443   4.106   7.943   1.748 -1.3948 -2.6261  0.0263
12334SOL    HW238444   4.244   7.894   1.713  0.1477  0.1023  1.8902
12335SOL     OW38445   2.881   0.967   3.121 -0.5706  0.4133 -0.0391
12335SOL    HW138446   2.869   1.057   3.091 -0.0864  0.8934  1.1793
12335SOL    HW238447   2.900   0.974   3.214 -0.3234 -0.9424  0.0369
12336SOL     OW38448   2.891   7.926   2.760 -0.4566 -0.0136  0.1773
12336SOL    HW138449   2.938   7.879   2.828  0.8466 -0.0198 -0.6943
12336SOL    HW238450   2.893   8.018   2.788 -1.9713 -0.2879  1.2851
12337SOL     OW38451   5.497   2.126   5.480 -0.6955  0.8136  0.2237
12337SOL    HW138452   5.507   2.066   5.554  1.3339  1.3838  0.4836
12337SOL    HW238453   5.417   2.097   5.436  0.6895 -2.8036 -0.2932
12338SOL     OW38454   4.605   1.614  12.242  0.0243  0.2815  0.1318
12338SOL    HW138455   4.526   1.572  12.276 -0.2498  0.2183 -0.5639
12338SOL    HW238456   4.659   1.542  12.211  0.3546  0.3272  0.5852
12339SOL     OW38457   4.986   0.179   0.986 -0.1429  0.4699 -0.2433
12339SOL    HW138458   4.890   0.174   0.989 -0.1516 -0.1276 -1.2554
12339SOL    HW238459   5.013   0.098   0.943  0.6409  1.9611 -2.7534
12340SOL     OW38460   7.496   1.116   3.125  0.0728 -0.7795  0.2131
12340SOL    HW138461   7.492   1.211   3.127  2.0092 -0.6241 -0.5631
12340SOL    HW238462   7.518   1.091   3.214 -0.3679 -0.4863  0.4037
12341SOL     OW38463   5.167   7.956   1.586 -0.2794 -0.2079  0.0587
12341SOL    HW138464   5.109   8.004   1.527 -0.1702  0.2807  0.3464
12341SOL    HW238465   5.231   7.915   1.528  0.8004  1.5712 -0.0847
12342SOL     OW38466   4.868   7.736  12.133 -0.0787 -0.3624 -0.0116
12342SOL    HW138467   4.920   7.704  12.059  1.0843 -0.8743  1.0027
12342SOL    HW238468   4.903   7.691  12.209 -0.1776  1.3297  1.1036
12343SOL     OW38469   4.903   1.976   0.184 -0.0927  0.1843  0.0277
12343SOL    HW138470   4.849   1.934   0.116 -0.0818  0.0613  0.0955
12343SOL    HW238471   4.928   2.060   0.145  0.8499 -0.3505 -0.5782
12344SOL     OW38472   4.676   7.706  11.426  0.3530 -0.1290  0.1283
12344SOL    HW138473   4.707   7.780  11.477  0.8978  0.2680 -0.7426
12344SOL    HW238474   4.721   7.715  11.342 -0.6488 -0.6563 -0.4838
12345SOL     OW38475   6.157   0.413  11.198  0.2415  0.1820  0.5458
12345SOL    HW138476   6.116   0.339  11.242 -1.3108  1.2659  0.9934
12345SOL    HW238477   6.136   0.400  11.105  0.3921 -0.1871  0.5616
12346SOL     OW38478   5.792   1.339   1.328 -0.4584  0.0557 -0.1258
12346SOL    HW138479   5.815   1.411   1.387 -0.3369  0.8136 -1.0608
12346SOL    HW238480   5.742   1.381   1.258 -2.4541 -1.1567  0.5080
12347SOL     OW38481   3.235   1.350   2.204 -0.2037  0.5692 -0.1977
12347SOL    HW138482   3.237   1.385   2.115 -1.0573  0.3360 -0.3235
12347SOL    HW238483   3.157   1.389   2.243 -0.8924 -0.7655 -0.1734
12348SOL     OW38484   3.234   0.615   1.872  0.2167  0.5066  0.0819
12348SOL    HW138485   3.150   0.623   1.827  0.6417  0.7053 -0.6961
12348SOL    HW238486   3.215   0.635   1.963 -0.6784  0.0178  0.0119
12349SOL     OW38487   2.956   5.940   3.289 -0.1563 -0.2077 -0.3174
12349SOL    HW138488   2.951   5.920   3.195  1.1164 -2.6738  0.0664
12349SOL    HW238489   3.034   5.995   3.298  1.3873 -2.2524 -0.4552
12350SOL     OW38490   5.395   0.004   2.084 -0.3282 -0.4240 -0.5892
12350SOL    HW138491   5.309  -0.027   2.056 -1.0736  3.1512 -2.8534
12350SOL    HW238492   5.395  -0.006   2.179 -2.9516 -1.1580 -0.6007
12351SOL     OW38493   3.471   7.247   0.022  0.3511  0.3039 -0.3721
12351SOL    HW138494   3.566   7.250   0.011  0.4064 -1.0589 -0.4755
12351SOL    HW238495   3.448   7.156   0.003 -1.2308  1.0395 -2.3354
12352SOL     OW38496   4.459   0.067   2.319 -0.0982  0.3999  0.3545
12352SOL    HW138497   4.554   0.076   2.325 -0.0685  1.1994 -0.9554
12352SOL    HW238498   4.429   0.155   2.295 -1.0484 -0.1419 -0.4943
12353SOL     OW38499   3.455   0.488   1.750 -0.3258 -0.0031  0.2994
12353SOL    HW138500   3.447   0.470   1.656 -1.0911  3.3372 -0.4094
12353SOL    HW238501   3.370   0.523   1.774  0.0854 -0.1840  2.1280
12354SOL     OW38502   5.406   2.255   1.102 -0.0439  0.0477  0.5042
12354SOL    HW138503   5.499   2.276   1.107 -0.1504  0.2196  2.3223
12354SOL    HW238504   5.404   2.166   1.066  0.8614 -0.2490  1.1516
12355SOL     OW38505   4.203   7.284   2.093 -0.4468  0.4081 -0.0449
12355SOL    HW138506   4.212   7.231   2.013 -0.0620 -0.4967  0.5807
12355SOL    HW238507   4.278   7.343   2.091  0.8740 -1.1532  0.7560
12356SOL     OW38508   3.851   7.919   3.074  0.2379 -0.1159  0.0027
12356SOL    HW138509   3.937   7.959   3.078  0.8149 -1.1832 -1.0402
12356SOL    HW238510   3.843   7.870   3.156  1.2024 -1.0961 -0.4656
12357SOL     OW38511   5.814   0.449   0.576 -0.5344 -0.0965  0.0495
12357SOL    HW138512   5.770   0.400   0.644 -0.1464 -1.3226 -0.5562
12357SOL    HW238513   5.795   0.402   0.495  0.5803  0.2355 -0.4340
12358SOL     OW38514   3.958   1.369   0.530  0.5590  0.0101 -0.5446
12358SOL    HW138515   3.972   1.399   0.440  1.8609 -2.3706 -1.2200
12358SOL    HW238516   4.042   1.384   0.574  0.3200  0.0089 -0.0836
12359SOL     OW38517   6.115   1.401   0.716  0.6794 -0.2816 -0.2033
12359SOL    HW138518   6.028   1.362   0.713 -0.0735  1.3854 -1.4159
12359SOL    HW238519   6.103   1.490   0.682  2.8381  0.0226 -0.3106
12360SOL     OW38520   2.327   7.487   1.232  0.6107  0.2409 -0.0908
12360SOL    HW138521   2.330   7.575   1.268 -0.6456 -0.0043  0.6423
12360SOL    HW238522   2.263   7.440   1.285  1.3900 -1.1842 -0.3368
12361SOL     OW38523   4.927   6.108   1.568 -0.4457 -0.6178 -0.3662
12361SOL    HW138524   4.859   6.048   1.536 -1.2696  0.1177 -0.0523
12361SOL    HW238525   4.910   6.114   1.663 -0.6675  0.4480 -0.4654
12362SOL     OW38526   3.856   0.230   0.001  0.4830  0.3410 -0.9311
12362SOL    HW138527   3.902   0.151   0.027 -0.2455  0.3123  0.3703
12362SOL    HW238528   3.875   0.240  -0.092  1.1766 -0.9550 -0.9448
12363SOL     OW38529   4.433   1.404   0.276  0.2942 -0.2173 -0.7697
12363SOL    HW138530   4.458   1.402   0.183  3.5189  1.0132 -0.0747
12363SOL    HW238531   4.420   1.313   0.300 -0.2175 -0.5815 -2.3420
12364SOL     OW38532   5.248   7.069   1.490 -0.2072  0.2498  0.3637
12364SOL    HW138533   5.170   7.119   1.511 -0.7053 -0.7814  1.0917
12364SOL    HW238534   5.318   7.134   1.482 -0.3788  0.9406  3.3895
12365SOL     OW38535   2.983   7.734   3.662  0.1754  0.7268 -0.1802
12365SOL    HW138536   2.934   7.699   3.736 -1.0510  2.4503 -0.1342
12365SOL    HW238537   2.951   7.683   3.587  1.2757 -0.8808  0.3904
12366SOL     OW38538   4.440   6.222   4.147 -0.0923  0.3930 -0.8691
12366SOL    HW138539   4.450   6.181   4.234 -0.5453 -0.1907 -1.0854
12366SOL    HW238540   4.351   6.257   4.147 -0.4035 -0.3719 -1.4091
12367SOL     OW38541   5.500   1.251   3.463 -0.1628 -1.0291 -0.1382
12367SOL    HW138542   5.588   1.243   3.426 -0.3121  1.2727 -1.1748
12367SOL    HW238543   5.442   1.251   3.387 -0.6197  2.0816  0.0898
12368SOL     OW38544   5.907   0.427   3.533  0.3125 -0.3322 -0.2982
12368SOL    HW138545   5.954   0.479   3.599  1.1167 -0.7928 -0.4964
12368SOL    HW238546   5.822   0.409   3.573  0.0683  1.0231 -0.1783
12369SOL     OW38547   4.178   0.421   4.363 -0.0814  0.6446 -0.0541
12369SOL    HW138548   4.233   0.351   4.327  0.7890  1.2399  0.0657
12369SOL    HW238549   4.161   0.480   4.289 -1.4114 -0.0459 -0.3204
12370SOL     OW38550   4.690   1.380   0.753  0.0077  0.1583 -0.6852
12370SOL    HW138551   4.636   1.303   0.733 -1.2167  0.8732 -0.2308
12370SOL    HW238552   4.751   1.386   0.680 -0.7789 -0.4539 -1.4178
12371SOL     OW38553   2.367   2.224   3.536 -0.5552 -0.1403 -0.3526
12371SOL    HW138554   2.376   2.314   3.565  1.5148 -0.0847 -1.0151
12371SOL    HW238555   2.284   2.222   3.489  0.0775  1.8390 -1.6665
12372SOL     OW38556   5.217   0.316   3.786  0.1005  0.0928  0.6681
12372SOL    HW138557   5.290   0.377   3.789  0.8291 -0.7014 -0.2728
12372SOL    HW238558   5.143   0.368   3.754  1.0437  0.2203 -1.4643
12373SOL     OW38559   3.563   1.992   2.737  0.1286 -0.3742  0.8299
12373SOL    HW138560   3.627   2.063   2.739 -1.5948  1.2690  0.5658
12373SOL    HW238561   3.531   1.985   2.827  0.0038 -0.5556  0.7724
12374SOL     OW38562   4.551   0.018   4.682 -0.0482  0.1545 -0.4768
12374SOL    HW138563   4.574  -0.024   4.599  2.7592  1.1283 -0.3167
12374SOL    HW238564   4.476  -0.031   4.714 -0.2935 -1.1984 -2.8653
12375SOL     OW38565   5.723   3.483   4.492 -0.0740  0.6595 -0.2584
12375SOL    HW138566   5.665   3.527   4.555 -0.9092  1.0911 -1.3040
12375SOL    HW238567   5.791   3.547   4.473  0.3224  0.4370  0.3798
12376SOL     OW38568   5.288   2.826   3.382  0.0039 -0.2614  0.0229
12376SOL    HW138569   5.357   2.835   3.448  0.1107 -0.1214 -0.1077
12376SOL    HW238570   5.216   2.784   3.429  0.0931 -0.1989  0.2196
12377SOL     OW38571   5.277   0.886   5.073 -0.2823 -0.0509  0.2696
12377SOL    HW138572   5.237   0.799   5.076 -1.5944  0.4624 -1.0456
12377SOL    HW238573   5.365   0.872   5.106 -0.5348 -1.8437  0.3298
12378SOL     OW38574   5.216   1.184   2.306 -0.0676  0.6264 -0.3469
12378SOL    HW138575   5.221   1.225   2.393 -1.6953  1.6982 -0.7291
12378SOL    HW238576   5.275   1.109   2.313 -0.3437  0.5311  1.7693
12379SOL     OW38577   6.114   1.414   2.719  0.2565  0.1106 -0.6001
12379SOL    HW138578   6.134   1.322   2.732 -2.6450 -0.3900  1.4593
12379SOL    HW238579   6.021   1.421   2.740  0.1334  3.3562 -1.6717
12380SOL     OW38580   4.615   0.106   2.851  0.1574  0.3531 -0.2249
12380SOL    HW138581   4.550   0.057   2.800  0.5878  0.0806 -0.5171
12380SOL    HW238582   4.564   0.145   2.922 -0.8077  2.2953 -1.8790
12381SOL     OW38583   2.205   2.555   2.516 -0.3741 -0.0634 -0.3286
12381SOL    HW138584   2.224   2.495   2.444 -1.7906  1.2520 -1.8768
12381SOL    HW238585   2.163   2.630   2.475 -1.8568  0.4757  1.9447
12382SOL     OW38586   4.289   0.574   3.611  0.4695  0.4636 -0.3013
12382SOL    HW138587   4.259   0.492   3.650 -0.0315  1.5323  1.6974
12382SOL    HW238588   4.219   0.599   3.551 -0.6259  0.6934  1.0106
12383SOL     OW38589   6.043   2.636   4.206  0.1582  0.1335 -0.1166
12383SOL    HW138590   6.016   2.551   4.171  0.4977  0.2082 -0.5847
12383SOL    HW238591   6.028   2.697   4.134 -0.2591  0.5055  0.2811
12384SOL     OW38592   4.326   1.606   1.948 -0.1991 -0.0162  0.1704
12384SOL    HW138593   4.316   1.559   1.864 -0.6576  1.1494 -0.4413
12384SOL    HW238594   4.421   1.613   1.959 -0.1264  0.4725 -0.6432
12385SOL     OW38595   4.868   7.303   4.097 -0.5779  0.1639  0.5708
12385SOL    HW138596   4.954   7.278   4.063 -0.6896 -0.4463  0.7399
12385SOL    HW238597   4.842   7.231   4.154 -1.3543  0.1825  0.2581
12386SOL     OW38598   4.329   0.272   4.611  0.2476  0.7520  0.2209
12386SOL    HW138599   4.387   0.311   4.546  0.6355  1.2210  0.8404
12386SOL    HW238600   4.314   0.183   4.580  1.6079  0.4957  0.2521
12387SOL     OW38601   5.804   1.484   2.096  0.4896 -0.0886  0.0178
12387SOL    HW138602   5.804   1.448   2.185  1.6542 -0.6529 -0.1903
12387SOL    HW238603   5.853   1.566   2.103 -1.3821  1.0708  0.3111
12388SOL     OW38604   6.198   0.589   4.674 -0.5396  0.3511  0.7924
12388SOL    HW138605   6.168   0.679   4.660  0.9254  0.6793 -0.5822
12388SOL    HW238606   6.290   0.598   4.697 -0.0954 -0.8083 -0.3831
12389SOL     OW38607   1.970   4.028   1.886 -0.6829 -0.1300  0.3028
12389SOL    HW138608   2.043   4.026   1.947 -0.8709  3.3229  0.8212
12389SOL    HW238609   1.978   4.112   1.841 -4.1537  0.3395  0.2480
12390SOL     OW38610   3.912   0.953   2.142 -0.3662 -0.2617 -0.1936
12390SOL    HW138611   3.939   0.872   2.186 -2.7215  0.0213  2.0232
12390SOL    HW238612   3.940   1.022   2.202 -1.3784  0.3165 -0.3724
12391SOL     OW38613   4.878   0.720   3.464  0.2116  0.1702  0.0591
12391SOL    HW138614   4.821   0.645   3.444  1.1923 -0.4569 -0.4774
12391SOL    HW238615   4.824   0.777   3.518 -0.7597 -0.6437 -0.0145
12392SOL     OW38616   5.355   1.732   4.329  0.0545  0.7034 -0.3759
12392SOL    HW138617   5.265   1.763   4.328  0.2386  1.2335 -0.5193
12392SOL    HW238618   5.396   1.775   4.254  0.5126  0.7169 -0.1190
12393SOL     OW38619   4.726   2.300   1.433 -0.2179 -0.2315 -0.9247
12393SOL    HW138620   4.664   2.369   1.457  1.6102  0.8124  1.1701
12393SOL    HW238621   4.689   2.220   1.470 -1.8633 -0.2887 -2.5228
12394SOL     OW38622   3.789   6.689   3.225  0.0427 -0.1197 -0.6644
12394SOL    HW138623   3.816   6.599   3.211  0.4782 -0.7755  3.2511
12394SOL    HW238624   3.695   6.684   3.241  0.3780 -0.3041  1.5977
12395SOL     OW38625   5.779   1.959   3.495  0.4733 -0.1467  0.2232
12395SOL    HW138626   5.842   2.027   3.472  1.0975 -0.8465 -0.1477
12395SOL    HW238627   5.712   2.005   3.545  2.5986  0.1784  3.0198
12396SOL     OW38628   6.616   1.388   2.298  0.4452 -0.0957  1.1556
12396SOL    HW138629   6.577   1.301   2.287 -0.9641  0.2308  3.0841
12396SOL    HW238630   6.546   1.441   2.337  1.4586  1.7684  0.5588
12397SOL     OW38631   5.807   3.089   3.672 -0.5760 -0.4858  0.9661
12397SOL    HW138632   5.795   3.153   3.602  0.6514  1.6782  2.6242
12397SOL    HW238633   5.831   3.008   3.626  0.0998  0.8080 -1.1105
12398SOL     OW38634   3.887   0.787   4.218  0.0739  0.4670  0.6746
12398SOL    HW138635   3.933   0.844   4.279 -0.2354  0.3876  0.9799
12398SOL    HW238636   3.794   0.802   4.236 -0.0632  1.4310 -0.6611
12399SOL     OW38637   2.737   7.703   4.093  0.4665 -0.1826 -0.5922
12399SOL    HW138638   2.775   7.674   4.176 -1.1061 -1.9737 -0.4152
12399SOL    HW238639   2.753   7.797   4.090  1.0677 -0.1824  1.4636
12400SOL     OW38640   6.119   1.947   4.708  0.3812 -0.0858  0.0656
12400SOL    HW138641   6.034   1.990   4.715  0.2408 -0.2434 -0.6209
12400SOL    HW238642   6.107   1.862   4.750 -0.0246 -0.4184 -0.7067
12401SOL     OW38643   2.044   0.311   1.968  0.2843  0.4326 -0.4255
12401SOL    HW138644   2.025   0.217   1.968  1.3665  0.1594 -2.4471
12401SOL    HW238645   2.127   0.319   2.014 -0.2888  0.5329  0.6057
12402SOL     OW38646   5.930   0.361   1.309  0.1837 -0.4808 -0.1801
12402SOL    HW138647   5.843   0.400   1.324 -0.1770 -1.0809 -0.6763
12402SOL    HW238648   5.969   0.355   1.396 -0.3284 -0.3206  0.0616
12403SOL     OW38649   3.965   1.330   2.691 -0.0949  0.3643  0.1239
12403SOL    HW138650   3.956   1.238   2.667 -0.5725 -0.0421  1.7025
12403SOL    HW238651   3.942   1.378   2.612  0.8415 -0.8593 -0.9366
12404SOL     OW38652   4.156   1.986   5.185 -0.3162  0.4011 -0.3519
12404SOL    HW138653   4.163   2.074   5.149  1.4457 -0.3793 -2.1629
12404SOL    HW238654   4.220   1.935   5.135  0.0901 -1.5013  1.8872
12405SOL     OW38655   4.218   6.461   5.517 -0.7372  0.4175  0.4166
12405SOL    HW138656   4.262   6.375   5.516 -0.9426  0.3135  0.2676
12405SOL    HW238657   4.134   6.444   5.560 -0.0566  0.9096  2.0253
12406SOL     OW38658   4.432   1.765   4.112  0.0479  0.2119  0.2913
12406SOL    HW138659   4.362   1.718   4.066  0.1717 -0.1102  0.4282
12406SOL    HW238660   4.471   1.699   4.170 -0.6800  0.8270  1.5111
12407SOL     OW38661   4.641   7.727   3.776  0.7136  0.3686  0.0679
12407SOL    HW138662   4.661   7.745   3.684  0.7670  0.7291  0.1470
12407SOL    HW238663   4.548   7.744   3.784  0.5873 -0.2648 -0.0586
12408SOL     OW38664   4.926   1.122   1.922 -0.5789  0.1901  0.3494
12408SOL    HW138665   4.961   1.182   1.987 -1.7899  1.1344  0.1704
12408SOL    HW238666   4.904   1.043   1.971  0.8123 -0.0464  0.6307
12409SOL     OW38667   4.573   0.462   4.137 -0.2771 -0.3291  0.1865
12409SOL    HW138668   4.576   0.536   4.198 -0.1339  0.7382 -1.0517
12409SOL    HW238669   4.564   0.503   4.051 -2.9379 -1.8477 -0.3547
12410SOL     OW38670   1.632   0.739   4.294  0.2734  0.3667 -0.1544
12410SOL    HW138671   1.609   0.648   4.273  1.6693 -0.3210  1.1524
12410SOL    HW238672   1.549   0.781   4.316 -0.1339 -1.2003  1.4239
12411SOL     OW38673   3.922   0.092   2.475 -0.9046  0.1045 -0.3502
12411SOL    HW138674   3.860   0.064   2.541 -0.6862  0.7358  0.1365
12411SOL    HW238675   4.008   0.085   2.518 -0.7509  0.4103 -0.6025
12412SOL     OW38676   3.284   7.366   4.676  0.2519 -0.7848 -0.3251
12412SOL    HW138677   3.331   7.291   4.713  1.5531 -0.1327 -0.6152
12412SOL    HW238678   3.202   7.369   4.725 -0.1543 -2.8224 -0.8013
12413SOL     OW38679   5.404   0.615   3.740  0.2421 -0.0013  0.6952
12413SOL    HW138680   5.446   0.696   3.769  1.5938 -0.4569  0.0992
12413SOL    HW238681   5.322   0.643   3.701  0.4490  1.0290  0.9842
12414SOL     OW38682   4.495   7.658   5.516 -0.0188  0.2454  0.7115
12414SOL    HW138683   4.550   7.699   5.583 -0.0057  0.8354  0.3541
12414SOL    HW238684   4.550   7.590   5.477  0.4347  0.7556  0.4333
12415SOL     OW38685   5.420   2.468   3.511 -0.1311  0.7408 -0.2076
12415SOL    HW138686   5.445   2.559   3.495 -1.3839  1.3830  1.2629
12415SOL    HW238687   5.358   2.473   3.584 -2.1074 -1.0416 -1.6510
12416SOL     OW38688   4.605   2.593   2.673  0.3661  0.2066  0.0882
12416SOL    HW138689   4.681   2.620   2.723 -1.1229  1.7270  1.6653
12416SOL    HW238690   4.625   2.619   2.583  3.5250 -3.5019 -0.5398
12417SOL     OW38691   6.210   0.582  12.448  0.7687  0.2661  0.2675
12417SOL    HW138692   6.268   0.658  12.450  0.1215  0.7839 -0.3297
12417SOL    HW238693   6.237   0.530  12.524  0.6700  1.4941  1.1873
12418SOL     OW38694   5.365   1.567   4.546 -0.3877 -0.3678  0.0096
12418SOL    HW138695   5.352   1.626   4.471 -0.8354  0.0514  0.4056
12418SOL    HW238696   5.320   1.487   4.522 -0.6086 -0.2018 -0.1309
12419SOL     OW38697   4.116   7.476   2.447  0.1086  0.2581 -0.1828
12419SOL    HW138698   4.110   7.502   2.356  1.3741  1.7396  0.1238
12419SOL    HW238699   4.133   7.382   2.444  0.1889  0.3030 -1.4671
12420SOL     OW38700   4.193   1.651   2.935 -0.6277  0.1706 -0.0619
12420SOL    HW138701   4.186   1.588   2.864 -1.4912  1.5142 -1.2220
12420SOL    HW238702   4.166   1.734   2.897  3.0777  1.9150  0.5885
12421SOL     OW38703   4.054   1.803   3.256 -0.4757  0.3727  0.1630
12421SOL    HW138704   4.122   1.869   3.240  0.2254 -0.4112 -0.1721
12421SOL    HW238705   4.090   1.748   3.326 -0.6771 -0.1731 -0.1582
12422SOL     OW38706   4.890   1.057   1.289  0.2337  0.7240  0.1265
12422SOL    HW138707   4.924   0.998   1.221  0.4296  0.0743  0.7666
12422SOL    HW238708   4.827   1.112   1.244 -0.8625 -0.7848 -0.2646
12423SOL     OW38709   2.978   0.089   3.595  0.1881  0.0874 -0.1289
12423SOL    HW138710   2.943   0.037   3.523  0.7543 -0.2983 -0.1370
12423SOL    HW238711   3.053   0.038   3.626  2.2001  1.9782 -1.6285
12424SOL     OW38712   3.989   1.140   2.346  0.3381 -0.6001  0.0993
12424SOL    HW138713   4.028   1.111   2.428  1.9888  1.1571  0.0032
12424SOL    HW238714   4.045   1.212   2.316 -0.9276 -0.3639 -1.9395
12425SOL     OW38715   3.393   0.429   3.123 -0.0488  0.1549 -0.1450
12425SOL    HW138716   3.433   0.404   3.206 -0.2504  1.8181  0.4810
12425SOL    HW238717   3.367   0.520   3.135 -0.5068  0.2867 -1.8800
12426SOL     OW38718   4.941   0.973   0.687 -0.4624 -0.2748 -0.0333
12426SOL    HW138719   4.991   1.051   0.662  0.2969 -0.9035 -0.5294
12426SOL    HW238720   4.940   0.975   0.782  1.9701 -1.0925  0.0919
12427SOL     OW38721   4.834   3.618   1.888 -0.8779 -0.1000  0.1536
12427SOL    HW138722   4.900   3.671   1.932  0.8309 -1.4643 -0.6293
12427SOL    HW238723   4.807   3.554   1.953  0.8749 -1.4531 -0.3722
12428SOL     OW38724   4.679   1.554   3.647 -0.3347  0.1411  0.1637
12428SOL    HW138725   4.636   1.633   3.614  1.5558  2.4718  2.8210
12428SOL    HW238726   4.770   1.562   3.617  0.2123 -0.2384  1.6223
12429SOL     OW38727   4.134   1.763   1.521  0.3425 -0.9213  0.2231
12429SOL    HW138728   4.074   1.698   1.557 -0.6340 -0.1192  0.0870
12429SOL    HW238729   4.103   1.777   1.431  1.7234 -1.6652 -0.4104
12430SOL     OW38730   7.040   6.647   2.108  0.1145 -0.0681  0.3088
12430SOL    HW138731   6.986   6.644   2.029 -1.6738 -1.2990  1.5113
12430SOL    HW238732   7.114   6.590   2.087 -1.3576 -2.0233  0.1805
12431SOL     OW38733   3.226   5.294   1.837 -0.0195 -0.0980 -0.5507
12431SOL    HW138734   3.309   5.259   1.868 -0.5113 -0.3531  0.5303
12431SOL    HW238735   3.242   5.317   1.745  0.4030 -2.8414 -1.2380
12432SOL     OW38736   4.002   0.394   3.038 -0.4865  0.1188  0.1428
12432SOL    HW138737   3.912   0.363   3.040 -0.6397  0.5705  1.0274
12432SOL    HW238738   4.034   0.371   2.951 -1.2834 -0.5190  0.0048
12433SOL     OW38739   4.779   0.952   3.976 -0.3634 -0.1351  0.2830
12433SOL    HW138740   4.856   0.899   3.961  0.7862  1.4212  0.4640
12433SOL    HW238741   4.766   0.950   4.071 -2.0470 -2.3472  0.0926
12434SOL     OW38742   4.769   6.813   2.857 -0.2142  0.2006 -0.4427
12434SOL    HW138743   4.714   6.743   2.823 -1.4045  1.2966 -0.8887
12434SOL    HW238744   4.851   6.771   2.880 -0.8269 -1.2900 -0.8741
12435SOL     OW38745   3.864   1.301   4.614  0.0109  0.1360 -0.3382
12435SOL    HW138746   3.959   1.295   4.619 -0.0144  0.0202  0.0861
12435SOL    HW238747   3.833   1.248   4.687 -0.3804  0.1423 -0.4966
12436SOL     OW38748   4.429   1.509   3.218 -0.2621  0.3533 -0.1553
12436SOL    HW138749   4.498   1.459   3.261  0.3993  1.8194  0.5548
12436SOL    HW238750   4.348   1.480   3.261 -0.2786 -2.0979 -1.6659
12437SOL     OW38751   3.912   6.491   4.812 -0.0129 -0.0254 -0.1765
12437SOL    HW138752   3.897   6.543   4.890  1.9555  0.2305  0.0849
12437SOL    HW238753   3.859   6.533   4.744  0.2543  1.3346  0.4202
12438SOL     OW38754   5.015   1.313   1.349 -0.0900  0.0671  0.1769
12438SOL    HW138755   5.080   1.316   1.418 -0.5874 -2.3424  0.8451
12438SOL    HW238756   4.981   1.223   1.351 -1.2628  0.3678 -2.1476
12439SOL     OW38757   4.086   7.182   2.423 -0.0834 -0.8533 -0.0649
12439SOL    HW138758   4.173   7.143   2.414  1.1715  1.1310  2.4132
12439SOL    HW238759   4.051   7.145   2.504  0.9904  2.5593  2.1603
12440SOL     OW38760   4.811   7.999   3.937  0.2420  0.1187  0.5137
12440SOL    HW138761   4.744   7.976   3.873 -0.5394  0.9779  0.9979
12440SOL    HW238762   4.890   8.013   3.885 -0.2692  0.3703 -0.2129
12441SOL     OW38763   4.919   5.768   3.218 -0.1062  0.0530  0.2607
12441SOL    HW138764   4.960   5.854   3.222 -0.0797  0.1459 -1.2231
12441SOL    HW238765   4.831   5.781   3.252 -0.5122  0.9684 -1.0308
12442SOL     OW38766   6.009   2.088   3.086 -0.3049  0.3289  0.0663
12442SOL    HW138767   5.930   2.136   3.109  0.5708  1.5644  0.6538
12442SOL    HW238768   6.039   2.128   3.004  0.6438  1.1114  0.7616
12443SOL     OW38769   4.261   2.247   3.698  0.4485  0.0238  0.0032
12443SOL    HW138770   4.302   2.315   3.645  0.9659  1.7477  2.4668
12443SOL    HW238771   4.169   2.273   3.705  0.2720 -0.4645 -0.4131
12444SOL     OW38772   5.019   2.047   3.346 -0.5921 -0.1653  0.2671
12444SOL    HW138773   5.017   2.081   3.436  0.4618  1.6508 -0.3531
12444SOL    HW238774   4.949   2.095   3.301 -0.0083  0.1590 -0.2964
12445SOL     OW38775   2.744   7.137   4.000  0.1463  0.3791  0.0516
12445SOL    HW138776   2.775   7.202   4.064  2.6034  0.0666 -0.7167
12445SOL    HW238777   2.706   7.190   3.930  0.9631  0.9522  0.0199
12446SOL     OW38778   3.385   7.538   3.605  0.1862 -0.4340  0.2090
12446SOL    HW138779   3.345   7.452   3.616 -0.8161 -0.0235 -0.0076
12446SOL    HW238780   3.354   7.567   3.519  1.7695 -0.4933 -0.4032
12447SOL     OW38781   3.435   6.608   4.399  0.4510  0.0839  0.1443
12447SOL    HW138782   3.358   6.646   4.357 -0.8055 -1.0900  1.2965
12447SOL    HW238783   3.463   6.537   4.341 -0.7572 -0.9771  0.8170
12448SOL     OW38784   3.831   0.544   3.739 -0.7887 -0.0469 -0.0414
12448SOL    HW138785   3.787   0.518   3.658 -1.6082 -1.3191  0.7708
12448SOL    HW238786   3.759   0.565   3.799 -0.1978  0.7074  0.4178
12449SOL     OW38787   5.648   5.909   2.584 -0.3415  0.7129 -0.3042
12449SOL    HW138788   5.644   5.985   2.641  0.3590  0.9441 -0.5547
12449SOL    HW238789   5.732   5.867   2.605 -0.3928  0.4153 -0.6741
12450SOL     OW38790   5.727   1.407   3.767  0.2741  0.4038  0.0516
12450SOL    HW138791   5.820   1.393   3.786  0.2286  1.8703  1.6636
12450SOL    HW238792   5.727   1.469   3.693  0.6809  2.0852  1.3837
12451SOL     OW38793   3.417   1.818   3.682 -0.2964  0.2122  0.3429
12451SOL    HW138794   3.466   1.866   3.615  1.1827 -1.1101  0.4219
12451SOL    HW238795   3.336   1.792   3.637 -0.0151  0.6718 -0.4552
12452SOL     OW38796   6.730   0.377   1.093  1.0217  0.6014  0.7079
12452SOL    HW138797   6.768   0.463   1.075  0.4215  0.9733  1.1683
12452SOL    HW238798   6.771   0.349   1.175  0.9922  0.5882  0.7186
12453SOL     OW38799   4.887   2.534   2.753  0.3548 -0.2782  0.0596
12453SOL    HW138800   4.940   2.580   2.818  1.1343  3.3918 -2.8311
12453SOL    HW238801   4.924   2.560   2.669 -3.4103 -0.9050 -2.0165
12454SOL     OW38802   4.484   2.539   2.908 -0.0821  0.2035  0.2726
12454SOL    HW138803   4.542   2.561   2.835 -0.0940  0.8066  0.4387
12454SOL    HW238804   4.415   2.485   2.869 -0.0226  0.4232 -0.1389
12455SOL     OW38805   4.195   1.208   2.955 -0.2369 -0.0502 -0.4777
12455SOL    HW138806   4.162   1.124   2.989 -1.7772  0.4845 -0.6034
12455SOL    HW238807   4.118   1.264   2.951  0.4114  0.7607 -2.3140
12456SOL     OW38808   4.068   7.588   3.178 -0.3401 -0.1043 -0.2151
12456SOL    HW138809   4.115   7.519   3.225  0.9818  1.3238  0.6511
12456SOL    HW238810   4.095   7.578   3.087  2.6220  1.2959  0.3709
12457SOL     OW38811   7.542   2.582   4.461  0.1974  0.9249 -0.0376
12457SOL    HW138812   7.585   2.662   4.491  0.7997  0.0623  1.4929
12457SOL    HW238813   7.499   2.547   4.539  0.9387 -0.8707 -0.3795
12458SOL     OW38814   5.421   1.656   3.774  0.6501  0.2952 -0.5857
12458SOL    HW138815   5.502   1.620   3.811 -0.1454 -0.0138  0.9403
12458SOL    HW238816   5.356   1.643   3.842 -0.9022 -0.2053 -2.0841
12459SOL     OW38817   6.828   2.167   4.593  0.4350  0.0061 -0.1243
12459SOL    HW138818   6.739   2.138   4.615  0.4692 -0.3151 -0.3953
12459SOL    HW238819   6.862   2.204   4.674  0.9358 -2.0935  0.6917
12460SOL     OW38820   4.406   1.946   2.762 -0.5087 -0.3305  0.3117
12460SOL    HW138821   4.350   1.884   2.715 -1.2088  2.3192 -2.7530
12460SOL    HW238822   4.346   1.992   2.821 -1.3785  1.2778 -1.6747
12461SOL     OW38823   5.243   1.255   2.578 -0.4040 -0.5920  0.2064
12461SOL    HW138824   5.330   1.293   2.572 -0.5155 -0.2235  0.8398
12461SOL    HW238825   5.234   1.227   2.669  0.1909 -3.4572 -0.5397
12462SOL     OW38826   6.779   7.425   5.646  0.0269 -0.4577 -0.2109
12462SOL    HW138827   6.795   7.441   5.739  0.1693  0.8897 -0.4448
12462SOL    HW238828   6.864   7.440   5.604 -0.3002  0.1129 -0.6865
12463SOL     OW38829   3.565   0.359   3.319 -0.2786  0.1362  0.0298
12463SOL    HW138830   3.645   0.399   3.355 -1.8314  1.3611  2.3914
12463SOL    HW238831   3.543   0.291   3.383 -0.5221 -0.9846 -1.2237
12464SOL     OW38832   3.505   2.162   1.038 -0.1025  0.0522 -0.7643
12464SOL    HW138833   3.598   2.137   1.037 -0.2291 -0.8806  2.0548
12464SOL    HW238834   3.500   2.234   1.100 -1.1396  0.9403 -1.8224
12465SOL     OW38835   6.510   1.531   4.780 -0.2669 -0.1112  0.6370
12465SOL    HW138836   6.585   1.484   4.817  0.4357 -1.8771 -2.6575
12465SOL    HW238837   6.546   1.613   4.747 -0.1574 -0.1503  0.6613
12466SOL     OW38838   5.031   1.881   2.968 -0.3732  0.1611 -0.0326
12466SOL    HW138839   5.050   1.914   2.880  1.3011  1.2742  0.7081
12466SOL    HW238840   5.028   1.959   3.023  1.9204 -0.7300  1.4668
12467SOL     OW38841   3.147   2.686   5.453 -0.1013  0.0104  0.0290
12467SOL    HW138842   3.062   2.642   5.451 -0.2118  0.1498  1.0402
12467SOL    HW238843   3.185   2.669   5.367 -1.2681  0.1786 -0.5398
12468SOL     OW38844   4.914   1.532   3.531 -0.2540 -0.0941 -0.6932
12468SOL    HW138845   4.874   1.483   3.460 -0.6690  0.0946 -0.5981
12468SOL    HW238846   4.942   1.614   3.491 -0.3100 -0.0698 -0.6838
12469SOL     OW38847   5.366   7.506   1.443  0.3134 -0.0106 -0.7451
12469SOL    HW138848   5.277   7.538   1.459  0.2222 -0.2845 -0.7047
12469SOL    HW238849   5.423   7.569   1.489  0.1061 -0.2363 -0.1735
12470SOL     OW38850   3.852   6.726   2.197 -0.8183 -0.1933 -0.4103
12470SOL    HW138851   3.798   6.801   2.172 -0.3069  0.5053  0.5244
12470SOL    HW238852   3.919   6.763   2.254  1.8715 -0.6722 -2.9990
12471SOL     OW38853   4.979   2.888   3.168  0.3056 -0.4107  0.2299
12471SOL    HW138854   4.893   2.926   3.148 -0.6145 -1.7993  1.2745
12471SOL    HW238855   4.958   2.804   3.210  2.1946 -1.2714 -0.4234
12472SOL     OW38856   5.515   1.114   2.587 -0.1959  0.5937  0.3169
12472SOL    HW138857   5.522   1.208   2.571 -1.7090  0.7470  0.4271
12472SOL    HW238858   5.602   1.088   2.618  1.0023  1.4652 -2.0640
12473SOL     OW38859   3.339   2.891   3.585 -0.1728  0.1706  1.4686
12473SOL    HW138860   3.265   2.918   3.639 -1.1850  1.1401 -0.3049
12473SOL    HW238861   3.309   2.811   3.541 -0.7497  1.3003 -0.2880
12474SOL     OW38862   4.785   6.744   4.245  0.0018  0.1544  0.6970
12474SOL    HW138863   4.698   6.745   4.204  0.4967  1.2271 -0.3906
12474SOL    HW238864   4.768   6.762   4.337 -0.9623  0.0179  0.5590
12475SOL     OW38865   7.529   0.752   3.131  0.7541  0.1212 -0.3494
12475SOL    HW138866   7.583   0.680   3.096  0.0940 -0.8229  0.5464
12475SOL    HW238867   7.523   0.814   3.058  1.6874 -0.5248 -1.0029
12476SOL     OW38868   5.571   0.944   6.861  0.6306  0.1744  0.1618
12476SOL    HW138869   5.525   0.939   6.945 -0.8479 -1.4450 -0.6659
12476SOL    HW238870   5.544   1.028   6.823 -0.7107 -0.1970  0.2429
12477SOL     OW38871   4.349   7.783   3.782  0.0176  0.4009 -0.6032
12477SOL    HW138872   4.368   7.846   3.851  1.3933 -0.8782  0.2473
12477SOL    HW238873   4.258   7.757   3.796  0.2833  0.1544  0.7513
12478SOL     OW38874   3.564   1.953   3.492 -0.2963 -0.6832 -0.6322
12478SOL    HW138875   3.557   2.047   3.507 -0.7560 -0.9813  1.3178
12478SOL    HW238876   3.653   1.940   3.459 -0.2268  0.4327 -0.8956
12479SOL     OW38877   4.254   7.762   3.470 -0.1417 -0.0660 -0.0907
12479SOL    HW138878   4.169   7.720   3.482 -0.3900  0.4281 -0.1142
12479SOL    HW238879   4.293   7.760   3.558 -0.7941  1.0234  0.2460
12480SOL     OW38880   2.426   7.323   3.627 -0.2072 -0.0778 -1.2745
12480SOL    HW138881   2.430   7.417   3.607 -1.4109 -0.0562 -1.5106
12480SOL    HW238882   2.368   7.287   3.559  0.7920 -1.1158 -1.6004
12481SOL     OW38883   4.819   7.834   2.356  0.6014 -0.1094 -0.2180
12481SOL    HW138884   4.893   7.815   2.415  0.1697  0.5916  0.5843
12481SOL    HW238885   4.763   7.893   2.407 -0.7135 -0.9311 -0.6637
12482SOL     OW38886   3.884   1.646   4.255 -0.6317  0.1747 -0.4218
12482SOL    HW138887   3.927   1.683   4.332 -2.5824 -0.8620  1.2444
12482SOL    HW238888   3.957   1.622   4.197  1.0737 -1.0298  2.0198
12483SOL     OW38889   3.298   0.797   4.443  0.0809  0.0083 -0.1373
12483SOL    HW138890   3.325   0.708   4.467  1.1832  0.0392 -1.1532
12483SOL    HW238891   3.294   0.844   4.526  2.7045 -0.1613  0.1684
12484SOL     OW38892   6.797   7.727   6.331  0.2517 -0.6709 -0.8691
12484SOL    HW138893   6.773   7.660   6.395  1.4736 -0.6980 -0.4194
12484SOL    HW238894   6.717   7.779   6.320  0.4635  0.4421  2.0222
12485SOL     OW38895   3.652   7.996   2.909  0.3381 -1.1866 -0.5831
12485SOL    HW138896   3.723   7.956   2.960  0.6686  0.1569  0.0572
12485SOL    HW238897   3.630   8.076   2.958 -1.5114 -1.4853 -0.8506
12486SOL     OW38898   5.194   6.084   3.126  0.2721 -0.1166  0.1071
12486SOL    HW138899   5.125   6.065   3.190  0.6770  2.0275  1.2858
12486SOL    HW238900   5.258   6.137   3.175  2.1245 -0.9580 -1.2957
12487SOL     OW38901   4.521   1.594   3.849  0.5712 -0.5290 -0.6079
12487SOL    HW138902   4.564   1.634   3.925 -1.1709  0.5134 -0.1379
12487SOL    HW238903   4.593   1.575   3.789  1.8331 -0.0609  0.6935
12488SOL     OW38904   3.412   1.753   3.316  0.3077 -0.3909  0.0831
12488SOL    HW138905   3.465   1.674   3.325  0.4138 -0.2102  1.1533
12488SOL    HW238906   3.460   1.806   3.252  0.5749 -0.9086 -0.1567
12489SOL     OW38907   4.984   0.303   4.239  0.3793 -0.3296 -0.0258
12489SOL    HW138908   5.015   0.222   4.198 -1.0093 -0.7960 -0.2174
12489SOL    HW238909   5.039   0.372   4.200  0.2832 -0.9620 -1.3471
12490SOL     OW38910   5.136   0.543   4.131 -0.3483  0.3524  0.2530
12490SOL    HW138911   5.214   0.596   4.115 -0.2615  0.4303  0.8895
12490SOL    HW238912   5.082   0.597   4.190 -1.0072  0.4114 -0.3862
12491SOL     OW38913   6.466   0.017   0.354  0.0858 -0.4646 -0.6158
12491SOL    HW138914   6.434  -0.071   0.376 -1.3513 -0.5266 -2.6112
12491SOL    HW238915   6.432   0.073   0.423 -1.9113 -1.0029 -1.1007
12492SOL     OW38916   5.376   0.550   1.014  0.2323 -0.5025 -0.2058
12492SOL    HW138917   5.327   0.529   1.093 -0.2398  0.4676 -0.2258
12492SOL    HW238918   5.447   0.486   1.012  1.2843  0.4787  1.9323
12493SOL     OW38919   2.524   1.048   0.933  0.1529  0.1556 -0.0075
12493SOL    HW138920   2.496   1.022   1.021 -0.1082 -0.0365 -0.1435
12493SOL    HW238921   2.514   0.969   0.881 -2.3077  0.9132 -0.8164
12494SOL     OW38922   3.402   1.503   2.384 -0.1499  0.2676 -0.2680
12494SOL    HW138923   3.337   1.442   2.350  0.4059 -0.0164 -0.8466
12494SOL    HW238924   3.351   1.569   2.431 -0.8567  0.0634 -0.7278
12495SOL     OW38925   3.947   7.171   3.620 -0.0708 -0.3154 -0.0833
12495SOL    HW138926   4.031   7.185   3.575  1.1269 -0.6223  1.9388
12495SOL    HW238927   3.947   7.234   3.692 -1.5930 -0.3350 -0.0322
12496SOL     OW38928   7.077   0.480   3.164 -0.3363  0.3821  0.5003
12496SOL    HW138929   7.159   0.442   3.194 -0.2416  1.2014  1.3103
12496SOL    HW238930   7.101   0.569   3.137 -1.1461  1.0444  1.8652
12497SOL     OW38931   5.464   1.076   3.892 -0.3418 -0.2374  0.1205
12497SOL    HW138932   5.377   1.063   3.929  0.3284 -0.2926  1.7854
12497SOL    HW238933   5.455   1.151   3.834 -1.4964 -0.2494  0.2724
12498SOL     OW38934   4.663   7.180   1.100  0.2020 -0.2917  0.1600
12498SOL    HW138935   4.713   7.146   1.025  0.3639 -0.7786  0.4817
12498SOL    HW238936   4.721   7.167   1.175  1.4177  3.1519 -0.0017
12499SOL     OW38937   4.243   1.385   3.381 -0.0916  0.1187  0.9123
12499SOL    HW138938   4.239   1.320   3.451  0.1855 -0.8643  0.0449
12499SOL    HW238939   4.180   1.353   3.316 -1.6533  1.9386  1.4429
12500SOL     OW38940   3.349   1.318   2.605  0.0395  0.7621 -0.1130
12500SOL    HW138941   3.299   1.250   2.559 -1.2047  1.3440  0.3257
12500SOL    HW238942   3.440   1.292   2.595 -0.3999 -0.9727  0.0263
12501SOL     OW38943   7.145   6.883   3.573 -0.2177  0.4494  0.9730
12501SOL    HW138944   7.093   6.957   3.542  0.6729  0.8689  0.4587
12501SOL    HW238945   7.208   6.866   3.503 -0.4639 -0.8658  1.0281
12502SOL     OW38946   4.588   7.227   3.144  0.5233  0.5374  0.3899
12502SOL    HW138947   4.597   7.144   3.096 -0.5601  1.5134 -1.6582
12502SOL    HW238948   4.676   7.264   3.146  0.6588  0.2936 -0.5615
12503SOL     OW38949   4.151   0.019   3.642 -0.0793 -0.0289  0.0372
12503SOL    HW138950   4.183  -0.055   3.590 -2.0597 -0.0110 -1.3422
12503SOL    HW238951   4.066   0.040   3.603  1.0191  3.9462 -0.6189
12504SOL     OW38952   6.051   2.605   4.606  0.0181 -0.1680  0.0106
12504SOL    HW138953   6.050   2.700   4.612 -1.6006 -0.2049  1.0513
12504SOL    HW238954   6.077   2.576   4.694  0.2072 -0.6965 -0.2153
12505SOL     OW38955   3.788   7.574   4.325  0.1190 -0.4153 -0.0958
12505SOL    HW138956   3.828   7.661   4.333  0.1979 -0.5110  0.6006
12505SOL    HW238957   3.694   7.591   4.332  0.1289 -0.3670 -0.0739
12506SOL     OW38958   4.338   0.293   2.288 -0.5462 -0.1752 -0.1780
12506SOL    HW138959   4.372   0.328   2.205  0.5629  0.6017  0.5777
12506SOL    HW238960   4.259   0.344   2.304 -0.0604  0.5867 -0.1252
12507SOL     OW38961   3.362   0.864   3.975  0.0717 -0.5568 -0.0500
12507SOL    HW138962   3.334   0.883   4.064  2.0227 -1.8960  0.9266
12507SOL    HW238963   3.455   0.887   3.973  0.3157 -1.4806 -1.4316
12508SOL     OW38964   3.526   7.936   3.980 -0.5482  0.1567 -0.3327
12508SOL    HW138965   3.447   7.985   3.959 -0.4652  0.5539  0.2493
12508SOL    HW238966   3.519   7.856   3.928 -1.9218 -0.3671  0.5893
12509SOL     OW38967   5.446   2.684   3.201  0.0258  0.0152  0.8184
12509SOL    HW138968   5.498   2.763   3.189  0.1725 -0.0847  0.8001
12509SOL    HW238969   5.372   2.712   3.256 -0.2935  0.3172  0.2425
12510SOL     OW38970   4.189   7.419   3.328 -0.2564 -0.0655  0.3328
12510SOL    HW138971   4.170   7.445   3.418  0.8822  1.9477  0.0338
12510SOL    HW238972   4.275   7.378   3.332 -0.2230 -0.0120  0.1631
12511SOL     OW38973   4.708   1.117   5.583  0.7179 -0.4353  0.0821
12511SOL    HW138974   4.665   1.075   5.508  0.0531  0.1622  0.1144
12511SOL    HW238975   4.782   1.061   5.603  1.6973  0.0675 -1.8601
12512SOL     OW38976   6.524   0.579   3.363  0.1037 -0.0835  0.0888
12512SOL    HW138977   6.527   0.574   3.268 -1.8164 -0.3385 -0.0051
12512SOL    HW238978   6.581   0.652   3.386  0.1819  0.3069 -1.2937
12513SOL     OW38979   3.974   2.049   2.597 -0.5268  0.2579 -0.2757
12513SOL    HW138980   4.013   2.030   2.512 -0.3218 -0.6945  0.0197
12513SOL    HW238981   3.926   1.969   2.620 -0.6076  0.5134  0.4818
12514SOL     OW38982   4.923   2.013   2.048 -0.6819  0.1572  0.7313
12514SOL    HW138983   4.874   1.964   1.983  2.1225  0.5235 -1.8598
12514SOL    HW238984   4.950   1.947   2.113  1.3561 -1.5087 -1.6375
12515SOL     OW38985   6.202   1.495   3.355 -0.2770  0.7674  0.8799
12515SOL    HW138986   6.151   1.455   3.284 -0.7428  2.7235  0.0445
12515SOL    HW238987   6.292   1.499   3.320  0.0614 -0.7087  1.5025
12516SOL     OW38988   5.808   2.114   4.324 -0.3703  0.2286  0.0594
12516SOL    HW138989   5.829   2.067   4.243  0.8624  1.0514 -0.1162
12516SOL    HW238990   5.874   2.083   4.387 -1.3968 -0.5046  0.8083
12517SOL     OW38991   5.187   2.539   3.942  0.3163 -0.1785  0.1129
12517SOL    HW138992   5.129   2.546   4.018  1.0328 -2.3647  0.9360
12517SOL    HW238993   5.254   2.606   3.956  0.6255 -0.7643  1.5986
12518SOL     OW38994   5.411   1.542   4.950 -0.5682  0.4279  0.2785
12518SOL    HW138995   5.423   1.462   5.001 -1.6964 -0.1802 -0.3807
12518SOL    HW238996   5.482   1.540   4.886  0.2015  0.6450  1.1022
12519SOL     OW38997   3.076   0.608   3.471 -0.2113  0.0920  0.2653
12519SOL    HW138998   3.058   0.529   3.523  0.8370  0.8801  1.8800
12519SOL    HW238999   3.165   0.596   3.439  0.2188  0.9447  1.1235
12520SOL     OW39000   2.947   2.924   4.660  0.1780  0.1874 -0.0060
12520SOL    HW139001   2.965   3.000   4.605 -0.7061  1.3802  1.2735
12520SOL    HW239002   3.033   2.890   4.684  0.6037  1.0479 -0.2760
12521SOL     OW39003   3.860   1.112   1.283 -0.0942 -0.0098  0.1081
12521SOL    HW139004   3.782   1.100   1.229  0.2438 -1.2949 -0.1338
12521SOL    HW239005   3.850   1.048   1.353  0.6922 -0.1299  0.1157
12522SOL     OW39006   4.843   2.965   4.414  0.7076 -0.0731  0.9649
12522SOL    HW139007   4.823   3.006   4.330  0.2172 -2.3819 -0.1176
12522SOL    HW239008   4.792   3.014   4.478 -0.8426  0.2187 -0.4370
12523SOL     OW39009   5.273   1.909   3.623  0.0280 -0.1522 -0.4873
12523SOL    HW139010   5.290   1.816   3.640  1.2404  0.4058  1.8020
12523SOL    HW239011   5.199   1.930   3.680 -2.2386 -0.2703 -3.1398
12524SOL     OW39012   3.762   7.742   3.791  0.6823 -0.0606 -0.0342
12524SOL    HW139013   3.709   7.665   3.812  1.9128 -0.9591 -0.0589
12524SOL    HW239014   3.742   7.805   3.861  0.6256 -0.9095  0.7381
12525SOL     OW39015   4.917   7.994   3.194 -0.6429 -0.1189 -0.0788
12525SOL    HW139016   4.842   8.053   3.191  0.4675  1.3733  0.3692
12525SOL    HW239017   4.962   8.016   3.275  1.2278  0.2527 -1.1536
12526SOL     OW39018   3.328   0.470   4.031 -1.0667  0.4614  0.1544
12526SOL    HW139019   3.298   0.423   4.109  0.8953 -1.6352 -0.2549
12526SOL    HW239020   3.383   0.541   4.066  0.7561 -1.1552  0.7470
12527SOL     OW39021   3.667   2.835   2.619  0.0098 -0.0673  0.3963
12527SOL    HW139022   3.707   2.769   2.562 -1.6459 -0.7342 -0.0712
12527SOL    HW239023   3.683   2.803   2.708 -0.5968 -1.0241  0.1805
12528SOL     OW39024   4.753   7.367   3.850  0.2473 -0.1711  0.5509
12528SOL    HW139025   4.775   7.459   3.866 -0.2895  0.0213  0.1860
12528SOL    HW239026   4.810   7.319   3.910 -0.0832  0.4375  1.3736
12529SOL     OW39027   4.652   0.886   2.651  0.0527  0.7095 -0.9960
12529SOL    HW139028   4.613   0.950   2.710  1.2857  1.1715 -0.6466
12529SOL    HW239029   4.738   0.867   2.690 -0.3392 -1.2930 -0.9927
12530SOL     OW39030   6.347   3.092   2.162 -0.2621 -0.7665 -0.5892
12530SOL    HW139031   6.410   3.132   2.223  0.1658 -0.1733 -1.3908
12530SOL    HW239032   6.299   3.167   2.125 -2.2738 -1.2794  0.8660
12531SOL     OW39033   2.697   2.186   3.777  0.3219 -0.2976  0.4913
12531SOL    HW139034   2.729   2.276   3.783 -1.1381  0.3184 -0.2015
12531SOL    HW239035   2.639   2.176   3.852  0.1935 -0.5288  0.3624
12532SOL     OW39036   3.947   0.937   3.326 -0.4749 -0.2614  0.0397
12532SOL    HW139037   3.879   0.897   3.381 -1.6184  1.0045 -0.3959
12532SOL    HW239038   4.029   0.919   3.372 -1.3253  0.1967  1.8353
12533SOL     OW39039   4.344   7.198   1.559 -0.2386  0.4493 -0.1085
12533SOL    HW139040   4.427   7.152   1.552  0.2090  1.0652  0.8487
12533SOL    HW239041   4.361   7.269   1.621 -1.0073  1.6846 -1.2618
12534SOL     OW39042   3.743   6.446   0.955 -0.1594 -0.1383 -0.4253
12534SOL    HW139043   3.780   6.387   1.021 -3.1731 -1.3287  0.3941
12534SOL    HW239044   3.683   6.390   0.905  0.1699  1.3178 -2.5794
12535SOL     OW39045   3.291   7.759   3.393  0.4183  0.1075  0.0294
12535SOL    HW139046   3.244   7.784   3.313  0.7210 -0.7854 -0.4444
12535SOL    HW239047   3.383   7.758   3.367  0.5153 -0.2317  0.3793
12536SOL     OW39048   5.606   0.097   3.968 -0.1237  0.1844 -0.3754
12536SOL    HW139049   5.691   0.131   3.997 -0.4894  1.3902 -0.6648
12536SOL    HW239050   5.626   0.051   3.886  0.2298  0.6546 -0.5632
12537SOL     OW39051   2.846   7.422   4.528  0.1591 -0.3267  0.1656
12537SOL    HW139052   2.802   7.477   4.592  1.0317 -0.1629  0.6441
12537SOL    HW239053   2.841   7.334   4.564  0.3875 -0.2782  0.3211
12538SOL     OW39054   3.617   0.915   4.061 -0.2614  0.0374  0.4318
12538SOL    HW139055   3.667   0.996   4.071 -1.9769  1.4189 -1.2702
12538SOL    HW239056   3.597   0.888   4.151  0.0212  1.7384  1.0564
12539SOL     OW39057   3.908   1.594   2.800 -0.0207  0.4066 -0.5068
12539SOL    HW139058   3.952   1.527   2.747  1.9160  1.8237 -0.7803
12539SOL    HW239059   3.918   1.563   2.890  0.1700 -0.0665 -0.6853
12540SOL     OW39060   3.442   7.095   2.083 -0.5330 -0.0857 -0.5588
12540SOL    HW139061   3.388   7.047   2.020  0.5236 -1.7797 -0.2186
12540SOL    HW239062   3.512   7.035   2.106  0.4025  1.3509  0.5110
12541SOL     OW39063   5.892   0.568   4.392 -0.3237 -0.0245  0.1749
12541SOL    HW139064   5.847   0.527   4.318 -0.1519  3.7825 -2.2820
12541SOL    HW239065   5.978   0.526   4.393  0.2888  0.8435 -2.9787
12542SOL     OW39066   4.461   6.135   4.438 -1.0949  0.2070 -0.0485
12542SOL    HW139067   4.374   6.100   4.421 -0.8337  0.0562 -1.1190
12542SOL    HW239068   4.518   6.058   4.438 -0.8459  0.3915 -0.1363
12543SOL     OW39069   4.043   2.015   1.370  0.1523 -0.1812 -0.2605
12543SOL    HW139070   3.957   2.054   1.386 -0.2023 -0.4863 -1.3448
12543SOL    HW239071   4.025   1.936   1.318  1.0408 -0.5713 -0.0040
12544SOL     OW39072   6.736   1.170   3.324  0.1477 -0.5577  0.0472
12544SOL    HW139073   6.775   1.106   3.265  0.0842  0.3433 -1.0013
12544SOL    HW239074   6.658   1.201   3.278  1.4490  2.0263 -0.6290
12545SOL     OW39075   4.532   2.950   4.032  0.0478 -0.3389  0.0086
12545SOL    HW139076   4.482   2.997   3.965 -2.0850 -2.0219  0.3100
12545SOL    HW239077   4.547   2.863   3.995 -0.5827 -1.0767  1.3944
12546SOL     OW39078   4.860   7.416   4.614  0.0631 -0.5024  0.1013
12546SOL    HW139079   4.912   7.452   4.685  1.0548 -0.2293 -0.7405
12546SOL    HW239080   4.793   7.363   4.657 -0.2188  0.7601  1.2899
12547SOL     OW39081   3.573   0.987   2.777 -0.2338 -0.1543  0.3835
12547SOL    HW139082   3.608   0.898   2.770 -1.6571 -0.6663 -5.2814
12547SOL    HW239083   3.641   1.042   2.737 -0.6610  0.8492  1.0015
12548SOL     OW39084   4.487   3.078   3.805  0.0394  1.0355 -0.1293
12548SOL    HW139085   4.515   3.169   3.790 -0.6732  0.9225 -2.8031
12548SOL    HW239086   4.403   3.071   3.758  0.2884 -1.0971 -0.3671
12549SOL     OW39087   5.359   0.259   4.347  0.0610  0.4965 -0.2485
12549SOL    HW139088   5.420   0.326   4.316 -0.9208  0.9214 -1.3496
12549SOL    HW239089   5.290   0.257   4.281  1.2326 -3.3246 -1.6481
12550SOL     OW39090   6.090   7.598   2.745 -0.3659 -0.3015  0.0620
12550SOL    HW139091   6.184   7.605   2.726  0.1030 -2.4386  1.1684
12550SOL    HW239092   6.080   7.508   2.779 -2.7956 -0.0813  0.0796
12551SOL     OW39093   5.785   1.897   2.905  0.2515 -0.5270 -0.1350
12551SOL    HW139094   5.770   1.989   2.881 -0.9820 -1.0206 -1.3686
12551SOL    HW239095   5.725   1.881   2.977 -0.7586 -0.7992 -1.0143
12552SOL     OW39096   5.523   7.092   5.431  0.2212 -0.0408  0.2519
12552SOL    HW139097   5.587   7.091   5.360  0.6137 -0.7489  0.6013
12552SOL    HW239098   5.542   7.172   5.480 -0.5658  0.8721 -0.8841
12553SOL     OW39099   6.407   1.569   4.406 -0.1293  0.0528 -0.2809
12553SOL    HW139100   6.422   1.662   4.391 -0.3150 -0.0732 -1.4047
12553SOL    HW239101   6.488   1.537   4.445 -0.1294  0.7116  0.2643
12554SOL     OW39102   3.958   2.131   4.455  0.5402  0.3359 -0.4375
12554SOL    HW139103   4.027   2.179   4.502 -0.6606  0.8946  0.8497
12554SOL    HW239104   3.892   2.198   4.435 -1.9834 -0.8545  2.8853
12555SOL     OW39105   4.453   2.915   3.484  0.1925 -0.9267  0.0474
12555SOL    HW139106   4.472   2.886   3.573  2.3897 -1.0835 -0.4036
12555SOL    HW239107   4.420   3.004   3.495  0.6467 -0.8576  1.0224
12556SOL     OW39108   4.452   6.812   4.413 -0.1969 -0.1808 -0.5529
12556SOL    HW139109   4.481   6.809   4.322  1.3847  1.1263 -0.1346
12556SOL    HW239110   4.525   6.776   4.463  0.4646  2.3057  0.4481
12557SOL     OW39111   6.057   2.188   3.852  0.5437  0.1024  0.2216
12557SOL    HW139112   6.143   2.203   3.813  0.8256 -0.2959  0.6789
12557SOL    HW239113   6.035   2.097   3.828  0.1604  0.2656 -0.0616
12558SOL     OW39114   6.330   1.366   3.927 -0.0343 -0.2620 -0.5350
12558SOL    HW139115   6.363   1.402   4.009 -0.8096  0.1795 -0.4060
12558SOL    HW239116   6.290   1.283   3.952 -0.3298 -0.0963 -0.4468
12559SOL     OW39117   5.020   3.438   2.921  0.2446 -0.1223  0.6483
12559SOL    HW139118   5.069   3.503   2.972  0.5134  1.3901 -1.3988
12559SOL    HW239119   4.958   3.490   2.870  1.0708 -1.3607 -1.7500
12560SOL     OW39120   4.137   7.027   4.396 -0.0240 -0.1874 -0.2969
12560SOL    HW139121   4.071   7.041   4.464  0.8308  0.2724  0.4750
12560SOL    HW239122   4.157   6.933   4.400 -3.3951 -1.2251 -3.2272
12561SOL     OW39123   3.408   1.246   4.284  0.7167  0.0844 -0.3853
12561SOL    HW139124   3.382   1.279   4.198  0.6217  0.6521 -0.1425
12561SOL    HW239125   3.491   1.291   4.302  1.2690 -0.8015 -0.6216
12562SOL     OW39126   6.952   1.466   4.529  0.1910 -0.2767 -0.1828
12562SOL    HW139127   6.991   1.382   4.554  0.1677 -0.0639  0.5918
12562SOL    HW239128   7.000   1.531   4.580 -0.0197  0.1484 -0.5227
12563SOL     OW39129   3.898   7.870   1.815  0.1828 -0.2722 -0.2035
12563SOL    HW139130   3.839   7.941   1.789  0.6520  0.5415  0.8511
12563SOL    HW239131   3.841   7.794   1.823 -0.5762  0.2912 -0.0863
12564SOL     OW39132   5.095   0.693   3.300  0.0949  0.1814  0.4871
12564SOL    HW139133   5.137   0.614   3.334 -2.1799 -0.3542  2.3734
12564SOL    HW239134   5.036   0.720   3.370 -1.9818  1.3720 -1.5755
12565SOL     OW39135   4.344   0.875   3.916  0.5771  0.4733  0.1525
12565SOL    HW139136   4.417   0.876   3.854  1.7607  1.1766  1.5228
12565SOL    HW239137   4.353   0.791   3.961 -1.4320 -0.9482 -1.8631
12566SOL     OW39138   4.445   1.266   1.287  0.4560  0.1065  0.4018
12566SOL    HW139139   4.490   1.296   1.366  0.4518  1.0363  0.0640
12566SOL    HW239140   4.362   1.231   1.319  0.2705  0.8710  0.7762
12567SOL     OW39141   5.278   7.654   3.586  0.1959  0.3944  0.2143
12567SOL    HW139142   5.347   7.719   3.598 -0.2746  0.5618  2.4110
12567SOL    HW239143   5.316   7.573   3.621 -0.0289  0.0107 -0.4128
12568SOL     OW39144   4.867   6.567   2.479 -0.2104 -0.1299 -0.2215
12568SOL    HW139145   4.905   6.481   2.465 -1.3913 -0.4870 -1.5483
12568SOL    HW239146   4.921   6.607   2.547 -0.0009 -2.1224  0.8640
12569SOL     OW39147   5.039   3.034   1.929  0.3214  0.7038 -0.3488
12569SOL    HW139148   5.113   3.094   1.925  0.3680  0.5885 -1.7863
12569SOL    HW239149   5.073   2.952   1.895  0.8201 -0.8450  3.4231
12570SOL     OW39150   5.117   2.515   3.675  0.6362  0.0974  0.3615
12570SOL    HW139151   5.154   2.428   3.656 -0.3292 -0.2078 -0.1951
12570SOL    HW239152   5.151   2.537   3.761  1.4209 -0.5458  0.2307
12571SOL     OW39153   5.526   7.462   0.891  0.2915 -0.0466 -0.0160
12571SOL    HW139154   5.579   7.395   0.935  1.2262 -0.1339 -1.2080
12571SOL    HW239155   5.438   7.425   0.888  0.3102 -0.2391  1.3201
12572SOL     OW39156   4.833   2.220   3.221 -0.4279  0.0571  0.1049
12572SOL    HW139157   4.790   2.224   3.307 -0.9292  0.7242 -0.1604
12572SOL    HW239158   4.768   2.256   3.161  0.1285  0.1179 -0.4686
12573SOL     OW39159   4.157   0.452   2.408 -0.0859  0.7457 -1.0720
12573SOL    HW139160   4.062   0.460   2.419  0.2311  1.9070  1.4516
12573SOL    HW239161   4.193   0.529   2.451  2.0793 -0.4362 -0.6270
12574SOL     OW39162   4.559   1.131   2.753  0.0715 -0.0702 -0.3320
12574SOL    HW139163   4.567   1.097   2.842  1.1413 -0.7032 -0.6468
12574SOL    HW239164   4.597   1.218   2.756  0.2278 -0.1432 -0.1929
12575SOL     OW39165   5.115   0.722   2.614 -0.0537  0.0716  0.3922
12575SOL    HW139166   5.129   0.811   2.583  0.5892 -0.1550  0.0150
12575SOL    HW239167   5.179   0.711   2.685  1.1171 -0.6680 -0.7360
12576SOL     OW39168   4.022   1.162   4.892  0.1859  0.3855 -0.3097
12576SOL    HW139169   4.066   1.129   4.970 -2.3672  1.5682  1.7813
12576SOL    HW239170   4.093   1.178   4.830  2.5058  0.5154  2.1687
12577SOL     OW39171   5.765   0.733   5.235 -0.0373  0.3776 -0.3173
12577SOL    HW139172   5.694   0.784   5.197  0.7542  1.7747 -0.0153
12577SOL    HW239173   5.833   0.731   5.167  0.7485  1.5198  0.3985
12578SOL     OW39174   3.789   0.191   6.678 -0.3818 -0.2333  0.0847
12578SOL    HW139175   3.855   0.173   6.745  2.8866  3.0773 -1.8634
12578SOL    HW239176   3.763   0.104   6.645  3.3832 -1.7608  0.6820
12579SOL     OW39177   3.730   2.177   4.750  0.0988  0.4967 -0.9764
12579SOL    HW139178   3.702   2.234   4.821  1.6030 -0.5805  0.5558
12579SOL    HW239179   3.665   2.191   4.681 -1.6399  1.2933  0.7347
12580SOL     OW39180   7.153   0.691   6.401  0.2808 -0.4355  0.0988
12580SOL    HW139181   7.205   0.699   6.481  1.7445  2.0080 -0.9727
12580SOL    HW239182   7.074   0.742   6.420  0.3353 -0.3924  0.2152
12581SOL     OW39183   5.240   1.466   3.477 -0.2082 -0.1479 -0.3923
12581SOL    HW139184   5.150   1.447   3.452  0.1341 -1.8079 -0.4883
12581SOL    HW239185   5.279   1.380   3.494  1.4529  0.5045 -0.6762
12582SOL     OW39186   5.242   7.150   5.141  0.0181  0.1969  0.3502
12582SOL    HW139187   5.291   7.229   5.122 -1.5604  1.2804  0.5876
12582SOL    HW239188   5.163   7.156   5.088 -0.9650 -0.3357  1.6648
12583SOL     OW39189   6.401   2.253   4.529  0.2548  0.0433  0.5963
12583SOL    HW139190   6.404   2.253   4.625  0.0964  0.5992  0.6092
12583SOL    HW239191   6.379   2.344   4.507  1.1524  0.1344  0.0126
12584SOL     OW39192   4.407   1.345   3.882  0.1992  0.4948 -0.9778
12584SOL    HW139193   4.360   1.340   3.965 -0.4141 -1.2132 -1.4039
12584SOL    HW239194   4.423   1.439   3.869 -0.7416  0.8777  0.4722
12585SOL     OW39195   3.652   1.160   5.104  0.1509  0.2368  0.6161
12585SOL    HW139196   3.710   1.100   5.150 -0.1735  1.1434  2.2522
12585SOL    HW239197   3.567   1.116   5.105  0.2153  0.1099  0.5821
12586SOL     OW39198   7.800   1.218   5.670 -0.0278  0.1629  0.1626
12586SOL    HW139199   7.754   1.167   5.737 -3.0699  2.2169 -0.1402
12586SOL    HW239200   7.837   1.293   5.718  3.3436 -1.4521  0.4030
12587SOL     OW39201   4.138   7.446   3.610 -0.3555 -0.0309  0.3579
12587SOL    HW139202   4.128   7.401   3.694 -1.5094 -0.0423  0.2336
12587SOL    HW239203   4.076   7.519   3.614  0.3130  0.5767 -0.0881
12588SOL     OW39204   6.257   1.425   7.362  0.5972 -0.4001 -0.3458
12588SOL    HW139205   6.168   1.397   7.385  0.7833 -1.6095 -1.0035
12588SOL    HW239206   6.243   1.497   7.301  0.0760 -0.0626  0.1591
12589SOL     OW39207   4.773   0.055   6.496  0.3135  0.3049  0.0983
12589SOL    HW139208   4.806  -0.006   6.561 -0.9953 -0.7856 -0.2270
12589SOL    HW239209   4.784   0.009   6.412  1.8471  1.6257 -0.4868
12590SOL     OW39210   4.846   0.133   5.837 -0.1455 -0.1558  0.8623
12590SOL    HW139211   4.812   0.204   5.891 -0.3604 -1.4923  2.5783
12590SOL    HW239212   4.942   0.142   5.842 -0.0709 -1.4708  3.3086
12591SOL     OW39213   5.032   2.043   5.597 -0.1668  0.0787  0.0696
12591SOL    HW139214   4.955   2.070   5.647  0.6499  1.4242  0.6588
12591SOL    HW239215   5.024   1.948   5.590 -1.4865  0.1139  0.7675
12592SOL     OW39216   5.905   7.096   4.817  0.0362  0.1824 -0.0772
12592SOL    HW139217   5.867   7.145   4.744 -2.2301 -2.0187 -0.5181
12592SOL    HW239218   5.892   7.152   4.893 -1.7011  0.6795 -0.6937
12593SOL     OW39219   4.576   0.918   3.771 -0.1333 -0.0028  0.3373
12593SOL    HW139220   4.623   0.954   3.846  0.2075 -1.5491  0.9040
12593SOL    HW239221   4.625   0.839   3.748 -1.5311 -0.7769 -0.0782
12594SOL     OW39222   2.416   1.141   3.947  0.1857 -0.1798 -0.2687
12594SOL    HW139223   2.337   1.187   3.918  0.1614  0.3797  0.6766
12594SOL    HW239224   2.489   1.195   3.915  0.2134 -0.8728 -1.4387
12595SOL     OW39225   3.439   1.362   4.895  0.3146 -0.1512  0.0992
12595SOL    HW139226   3.494   1.289   4.922 -0.0635 -0.8540 -0.9713
12595SOL    HW239227   3.500   1.429   4.864  0.6347 -0.2334  0.5541
12596SOL     OW39228   3.892   1.842   2.199 -0.4422 -1.0687  0.2432
12596SOL    HW139229   3.924   1.793   2.123 -0.5037  2.2065 -2.1160
12596SOL    HW239230   3.828   1.784   2.239  0.6736 -3.5460 -1.3028
12597SOL     OW39231   4.278   7.740   6.504  0.1202 -0.0890  0.0049
12597SOL    HW139232   4.285   7.656   6.459 -0.3554 -0.4318  0.5502
12597SOL    HW239233   4.193   7.737   6.548 -0.2197  0.9761 -0.5450
12598SOL     OW39234   3.250   6.458   3.609  0.1362 -0.1380 -0.1107
12598SOL    HW139235   3.175   6.399   3.606 -0.7865  0.9702  0.3480
12598SOL    HW239236   3.285   6.447   3.697 -0.5932  0.6521  0.2866
12599SOL     OW39237   5.608   2.083   4.751 -0.1401  0.1310  0.5451
12599SOL    HW139238   5.542   2.092   4.819 -1.8056 -1.4057 -0.7657
12599SOL    HW239239   5.585   2.150   4.686  0.7930  0.8806  0.9657
12600SOL     OW39240   2.403   2.437   3.842 -0.4891  0.0199  0.0577
12600SOL    HW139241   2.350   2.365   3.808 -0.8865 -0.1656  1.0305
12600SOL    HW239242   2.455   2.397   3.912  0.5746  0.3144 -0.5480
12601SOL     OW39243   5.524   1.128   4.311  0.1525 -0.1426  0.1442
12601SOL    HW139244   5.467   1.197   4.278  2.2486  0.6202 -2.2255
12601SOL    HW239245   5.569   1.094   4.233  1.0190 -2.4978  1.5493
12602SOL     OW39246   5.306   7.580   3.964  0.2693  0.0869 -0.0027
12602SOL    HW139247   5.369   7.590   4.035  0.7386  0.0847 -0.4186
12602SOL    HW239248   5.286   7.669   3.937 -0.4619  0.1178  0.6100
12603SOL     OW39249   2.769   1.289   5.199  0.4180  0.1355  0.0340
12603SOL    HW139250   2.784   1.198   5.173 -0.7797  0.7111 -3.1355
12603SOL    HW239251   2.720   1.327   5.126  3.0623  4.0431 -0.0187
12604SOL     OW39252   3.331   0.197   4.615  0.0470 -0.0774 -0.0038
12604SOL    HW139253   3.312   0.120   4.563 -1.0430 -0.3407  0.7374
12604SOL    HW239254   3.250   0.249   4.612  0.3074  0.3871  0.5809
12605SOL     OW39255   4.358   2.471   5.020  0.0098  0.6671  0.1977
12605SOL    HW139256   4.286   2.534   5.031  1.3243  1.8338  3.5729
12605SOL    HW239257   4.420   2.516   4.963 -0.6584  0.8408 -0.4158
12606SOL     OW39258   4.451   7.925   5.335  0.1734 -0.0434 -0.1594
12606SOL    HW139259   4.385   7.866   5.298  1.2292 -1.0360 -0.4920
12606SOL    HW239260   4.499   7.958   5.259 -0.2880  1.1361  0.0368
12607SOL     OW39261   2.013   1.398   3.597  0.4906 -0.1951 -0.5220
12607SOL    HW139262   2.018   1.489   3.627 -0.0210 -0.9443  2.0081
12607SOL    HW239263   2.035   1.403   3.504  0.0267  2.5640 -0.5654
12608SOL     OW39264   5.685   7.488   5.253  0.4462  0.6279 -0.5064
12608SOL    HW139265   5.674   7.502   5.159  0.1369 -0.0284 -0.5679
12608SOL    HW239266   5.598   7.465   5.285  0.1842  2.4992  0.2432
12609SOL     OW39267   3.582   1.038   6.181  0.0324 -0.0238 -0.4687
12609SOL    HW139268   3.587   1.057   6.087 -1.7363 -1.1621 -0.8466
12609SOL    HW239269   3.639   1.103   6.222 -0.3466  1.4980 -2.2187
12610SOL     OW39270   4.239   6.330   5.233 -0.0815 -0.5832 -0.2735
12610SOL    HW139271   4.244   6.318   5.328  0.8961  1.0440 -0.0839
12610SOL    HW239272   4.326   6.304   5.201  0.0863  0.2665 -0.5297
12611SOL     OW39273   4.527   1.935   5.851 -0.7624  0.6035 -0.3475
12611SOL    HW139274   4.471   1.907   5.778 -0.6385 -0.1374 -0.1617
12611SOL    HW239275   4.473   1.920   5.929 -0.8526  1.2912 -0.2680
12612SOL     OW39276   5.093   1.251   3.290 -0.3302  0.4464 -0.1581
12612SOL    HW139277   5.062   1.161   3.275 -0.3559  0.6502 -1.4364
12612SOL    HW239278   5.013   1.303   3.295 -0.2847  0.5716 -0.6751
12613SOL     OW39279   3.252   7.617   4.047  0.0484  0.0657 -0.3740
12613SOL    HW139280   3.196   7.540   4.057 -0.0221  0.0825 -0.6548
12613SOL    HW239281   3.327   7.585   3.997 -0.3649  0.3726 -1.1928
12614SOL     OW39282   5.147   0.176   5.876  0.8272  0.5390  0.7956
12614SOL    HW139283   5.236   0.166   5.912  1.0140  1.3755  0.5974
12614SOL    HW239284   5.160   0.223   5.794  0.3588 -1.0173 -0.1957
12615SOL     OW39285   4.233   1.416   4.107  0.3269 -0.2586  0.0389
12615SOL    HW139286   4.180   1.441   4.183 -0.6806 -2.2783  0.0692
12615SOL    HW239287   4.177   1.436   4.032  1.3447  1.7906 -0.2290
12616SOL     OW39288   6.187   0.923   4.205  0.6615  0.1663 -0.3811
12616SOL    HW139289   6.177   0.844   4.152 -2.1630  1.0383 -1.3274
12616SOL    HW239290   6.245   0.897   4.276 -0.7829 -3.0154 -0.2147
12617SOL     OW39291   4.698   0.625   6.206  0.5370  0.0025  0.1389
12617SOL    HW139292   4.607   0.602   6.222  0.9767 -1.2916  0.9235
12617SOL    HW239293   4.717   0.589   6.119  0.0934  1.0249 -0.4106
12618SOL     OW39294   2.633   0.557   6.183  0.2065 -0.1124  0.2669
12618SOL    HW139295   2.721   0.559   6.222  1.3183 -2.6162 -1.8102
12618SOL    HW239296   2.649   0.567   6.089 -1.1448 -4.7760 -0.6929
12619SOL     OW39297   3.977   6.669   5.290 -0.3275  0.1314  0.4945
12619SOL    HW139298   3.998   6.609   5.362 -1.5803 -0.8159  0.1064
12619SOL    HW239299   3.912   6.729   5.327  1.8646  2.1714  1.2784
12620SOL     OW39300   4.415   2.373   4.438  0.2337  0.1461  0.0839
12620SOL    HW139301   4.479   2.411   4.377  1.5528 -0.2606  1.1694
12620SOL    HW239302   4.349   2.334   4.381  0.1406  1.8447 -1.0783
12621SOL     OW39303   3.404   0.322   6.854  0.0827  0.0439 -0.8498
12621SOL    HW139304   3.460   0.391   6.818 -0.4536  0.2117 -1.3703
12621SOL    HW239305   3.394   0.259   6.782 -0.4752  0.0607 -0.7912
12622SOL     OW39306   4.012   1.279   3.847 -0.0793  0.1062  0.1369
12622SOL    HW139307   3.961   1.220   3.791 -0.7652  0.2242  0.6273
12622SOL    HW239308   4.100   1.241   3.847 -0.0555  0.1167 -1.0400
12623SOL     OW39309   5.002   1.782   7.046 -0.5167  0.1820 -0.6824
12623SOL    HW139310   5.019   1.830   7.128  0.5843  0.8362 -1.2623
12623SOL    HW239311   4.961   1.846   6.989 -3.1772 -0.8209 -0.0236
12624SOL     OW39312   6.374   6.618   6.144 -0.5196  0.4288 -0.2289
12624SOL    HW139313   6.432   6.554   6.103  0.1918  0.6367  0.4282
12624SOL    HW239314   6.417   6.639   6.227 -1.1320  1.1940 -0.0990
12625SOL     OW39315   5.164   3.578   3.684 -0.5278 -0.0545 -0.3518
12625SOL    HW139316   5.119   3.518   3.743  1.5377 -0.8131  0.5392
12625SOL    HW239317   5.143   3.665   3.718 -0.9220 -0.4091  0.3369
12626SOL     OW39318   3.698   0.480   5.453  0.8806 -0.4391 -0.2651
12626SOL    HW139319   3.744   0.558   5.481  0.0936 -0.3400  0.8144
12626SOL    HW239320   3.676   0.497   5.361 -0.2107  1.1012  0.2259
12627SOL     OW39321   4.842   1.197   4.969 -0.6804 -0.0141  0.0410
12627SOL    HW139322   4.929   1.214   4.933 -0.4696 -1.0503  0.0286
12627SOL    HW239323   4.793   1.278   4.954  0.5632  0.9338  0.9177
12628SOL     OW39324   2.545   2.146   4.791 -0.0247 -0.7261  0.5065
12628SOL    HW139325   2.622   2.124   4.738  0.9398 -0.3279  1.7029
12628SOL    HW239326   2.485   2.073   4.777  0.2207 -0.6577 -1.0734
12629SOL     OW39327   4.592   1.501   4.134  0.9740  0.8989 -0.4794
12629SOL    HW139328   4.630   1.448   4.064 -0.7972  1.0024 -1.5767
12629SOL    HW239329   4.654   1.493   4.206  1.2796 -1.8980 -0.9280
12630SOL     OW39330   7.200   2.411   5.053  0.5839 -0.2564 -0.2040
12630SOL    HW139331   7.156   2.349   4.995 -1.0236  1.0413 -0.4359
12630SOL    HW239332   7.157   2.495   5.036  0.9003  0.4109  1.9808
12631SOL     OW39333   3.710   1.836   2.972  0.2354 -0.0084 -0.5104
12631SOL    HW139334   3.692   1.886   3.052  1.2442  1.7707 -1.3331
12631SOL    HW239335   3.756   1.758   3.002 -1.2366 -0.4234  0.8014
12632SOL     OW39336   5.337   7.856   4.980 -0.4414  0.5679 -0.3103
12632SOL    HW139337   5.404   7.794   5.010 -1.5690 -0.6052 -0.1470
12632SOL    HW239338   5.381   7.906   4.911  1.3940  1.5715  1.4723
12633SOL     OW39339   3.381   2.199   6.096 -0.1418  0.0485 -0.6698
12633SOL    HW139340   3.303   2.253   6.086 -0.5063 -0.3080  0.1561
12633SOL    HW239341   3.449   2.246   6.046 -0.4646  1.2202 -0.0500
12634SOL     OW39342   4.884   3.273   4.060  0.2264 -0.0074  0.5202
12634SOL    HW139343   4.928   3.335   4.002 -0.0934  0.3484  0.6592
12634SOL    HW239344   4.922   3.288   4.146  0.7097 -0.5451  0.4121
12635SOL     OW39345   3.832   0.716   5.623 -0.0519  0.3654  0.2238
12635SOL    HW139346   3.737   0.710   5.632 -0.2154 -4.0412 -1.6057
12635SOL    HW239347   3.866   0.663   5.695  1.1435  2.4567  1.2680
12636SOL     OW39348   4.206   2.716   2.591  0.5145 -0.3565  0.3000
12636SOL    HW139349   4.188   2.681   2.678  0.6739 -1.2900 -0.0300
12636SOL    HW239350   4.259   2.794   2.607  0.2097 -0.2887  1.0497
12637SOL     OW39351   6.106   1.713   4.022  0.3642  0.2577  0.5565
12637SOL    HW139352   6.151   1.778   4.076  0.4684  1.3913 -0.8266
12637SOL    HW239353   6.154   1.632   4.036  0.8371  0.6990  1.5790
12638SOL     OW39354   0.603   0.305   3.592 -0.3315  0.2113  0.1362
12638SOL    HW139355   0.550   0.236   3.554  0.7768 -0.0714 -0.9406
12638SOL    HW239356   0.678   0.260   3.632  0.1976  0.7367 -0.2303
12639SOL     OW39357   4.557   2.149   3.798  0.0855  0.0300 -0.1543
12639SOL    HW139358   4.480   2.184   3.752 -0.6443  1.5965  2.0768
12639SOL    HW239359   4.521   2.087   3.862  0.9882 -1.4329 -1.0173
12640SOL     OW39360   5.064   7.734   6.087 -0.0680 -0.1800 -0.1083
12640SOL    HW139361   4.994   7.705   6.144 -2.1483  1.4159 -1.6889
12640SOL    HW239362   5.093   7.818   6.124  1.7015 -1.2112  1.0152
12641SOL     OW39363   1.959   7.535   5.252  0.6821  0.2759  0.1960
12641SOL    HW139364   1.961   7.487   5.169 -0.8206 -1.0750  0.8943
12641SOL    HW239365   1.963   7.627   5.226 -0.2084 -0.1025 -1.4194
12642SOL     OW39366   4.545   2.122   5.518  0.5680 -0.4334 -0.4347
12642SOL    HW139367   4.511   2.083   5.437  1.5373 -2.2220 -0.0379
12642SOL    HW239368   4.563   2.213   5.495  0.1737 -0.7292 -2.0418
12643SOL     OW39369   5.503   7.672   3.274  0.0348 -0.1105  0.2659
12643SOL    HW139370   5.572   7.682   3.340  0.5372  0.1247 -0.2911
12643SOL    HW239371   5.506   7.579   3.252 -0.9889 -0.4544  1.4872
12644SOL     OW39372   4.693   7.303   6.548 -0.7659  0.1300 -0.1272
12644SOL    HW139373   4.633   7.361   6.595 -0.4954  0.9816 -0.8007
12644SOL    HW239374   4.664   7.215   6.571 -1.9174  0.5273  0.0024
12645SOL     OW39375   5.149   6.952   5.866 -0.4381 -0.3387  0.2011
12645SOL    HW139376   5.152   7.039   5.825 -0.2790  0.6903  2.2894
12645SOL    HW239377   5.236   6.939   5.902 -0.8280 -0.7702  1.0255
12646SOL     OW39378   5.456   0.151   5.491 -0.3678  0.4433  0.2602
12646SOL    HW139379   5.439   0.244   5.476 -0.1107  0.4777  0.1787
12646SOL    HW239380   5.551   0.145   5.502 -0.4249  0.2494  0.6859
12647SOL     OW39381   5.946   1.501   4.980 -0.1108 -0.1577  0.2074
12647SOL    HW139382   5.867   1.487   5.033  0.6033 -2.8620  0.7430
12647SOL    HW239383   5.955   1.420   4.930  1.7120  0.5487 -0.6932
12648SOL     OW39384   4.537   7.876   4.454  0.2692  0.4047  0.1191
12648SOL    HW139385   4.571   7.907   4.371 -0.5506 -1.3309 -0.9318
12648SOL    HW239386   4.581   7.792   4.468 -0.9352 -0.1867  0.5076
12649SOL     OW39387   4.776   7.667   3.322 -0.7069 -0.0354  0.1870
12649SOL    HW139388   4.857   7.674   3.272 -0.4596 -0.6991  0.4827
12649SOL    HW239389   4.730   7.750   3.306  2.1053  2.4967  3.6494
12650SOL     OW39390   3.841   1.573   3.464  0.1931  0.2010  0.0046
12650SOL    HW139391   3.816   1.485   3.436 -1.3873  0.1649  1.3223
12650SOL    HW239392   3.899   1.559   3.539 -3.0171  0.0886  2.7299
12651SOL     OW39393   3.854   0.229   3.603 -0.1074 -0.2244 -0.4862
12651SOL    HW139394   3.879   0.307   3.553 -1.6832  0.9244  0.4211
12651SOL    HW239395   3.878   0.156   3.547  2.0472  0.8624 -1.0956
12652SOL     OW39396   5.431   7.724   7.363 -0.2534  0.4217 -0.1417
12652SOL    HW139397   5.487   7.646   7.371 -1.0334 -0.1154  0.1964
12652SOL    HW239398   5.422   7.737   7.268  1.5654  1.3598 -0.2324
12653SOL     OW39399   5.744   0.522   5.557 -0.7747 -0.0471  0.0998
12653SOL    HW139400   5.763   0.532   5.650 -1.6621  2.8091  0.0782
12653SOL    HW239401   5.677   0.588   5.539 -2.5853 -2.2851 -2.0623
12654SOL     OW39402   4.662   1.326   5.186  0.5411  0.1971 -0.2722
12654SOL    HW139403   4.701   1.334   5.099 -0.3903  1.5295 -0.6083
12654SOL    HW239404   4.603   1.401   5.192  0.4219  0.0014  1.4326
12655SOL     OW39405   2.462   0.419   5.205  0.4720 -0.0737  0.1249
12655SOL    HW139406   2.522   0.396   5.133 -1.0676  1.7651 -1.8837
12655SOL    HW239407   2.393   0.353   5.200 -0.0008  0.4589 -0.6022
12656SOL     OW39408   5.300   1.188   2.839  0.2839 -0.0027 -1.2325
12656SOL    HW139409   5.343   1.272   2.857 -0.7334  0.2288  0.3055
12656SOL    HW239410   5.351   1.123   2.887 -0.1425  0.0531 -0.6898
12657SOL     OW39411   6.570   7.340   4.887  0.4835  0.3116  0.3607
12657SOL    HW139412   6.495   7.398   4.876  0.5536  0.0632 -2.1042
12657SOL    HW239413   6.590   7.343   4.980 -1.3586  1.9021  0.7632
12658SOL     OW39414   3.245   7.606   5.366  0.2357  0.1326 -0.2172
12658SOL    HW139415   3.238   7.676   5.431 -0.7816 -1.6446  1.6916
12658SOL    HW239416   3.317   7.551   5.398  0.7942  0.0683 -1.5022
12659SOL     OW39417   4.169   5.945   4.047  0.5984  0.5809 -0.0638
12659SOL    HW139418   4.085   5.921   4.087  0.5375 -0.1107 -0.5873
12659SOL    HW239419   4.226   5.871   4.066  1.4214  1.5205  1.2245
12660SOL     OW39420   5.160   7.598   4.380 -0.0981  0.2398  0.1479
12660SOL    HW139421   5.139   7.644   4.299 -3.0941  3.6036  2.4877
12660SOL    HW239422   5.101   7.523   4.381  0.1462  0.0197 -0.8348
12661SOL     OW39423   5.797   7.382   6.963 -0.0689  0.1848 -0.1723
12661SOL    HW139424   5.854   7.457   6.981 -0.6211  0.5417  0.1094
12661SOL    HW239425   5.783   7.342   7.048  2.0660 -1.6112 -0.5893
12662SOL     OW39426   6.398   1.548   6.040  0.0726 -0.0458 -0.3248
12662SOL    HW139427   6.327   1.583   6.094 -0.2618 -1.1411 -0.0344
12662SOL    HW239428   6.373   1.571   5.950 -0.2044  0.3356 -0.1532
12663SOL     OW39429   7.003   0.372   4.722  0.7247 -0.1466 -0.2062
12663SOL    HW139430   6.937   0.398   4.787  0.7698  0.3049 -0.3334
12663SOL    HW239431   6.983   0.281   4.702 -0.2354  0.1682 -0.6953
12664SOL     OW39432   7.537   6.925   5.312  0.1692 -0.2277  0.1033
12664SOL    HW139433   7.491   7.007   5.296  0.1959 -0.4389 -1.1536
12664SOL    HW239434   7.520   6.872   5.235  1.6938 -0.6997  0.0500
12665SOL     OW39435   3.327   2.327   2.200 -0.1507  0.1817  0.3682
12665SOL    HW139436   3.413   2.365   2.219  0.1101 -0.3424  0.2313
12665SOL    HW239437   3.329   2.309   2.106 -0.0051 -0.8523  0.5654
12666SOL     OW39438   4.163   1.052   3.820 -0.1923  0.2631 -0.4280
12666SOL    HW139439   4.091   1.011   3.868 -0.1967 -0.6551 -1.1972
12666SOL    HW239440   4.240   0.999   3.841  0.3332  1.3645  0.5610
12667SOL     OW39441   4.124   0.616   4.155  0.2913  0.5351 -0.4081
12667SOL    HW139442   4.045   0.667   4.172  0.7303  0.8810  0.6515
12667SOL    HW239443   4.106   0.571   4.072 -0.4347  1.7336 -0.9295
12668SOL     OW39444   6.072   0.830   4.664  0.4556  0.0727  0.4358
12668SOL    HW139445   6.026   0.888   4.724  1.9785  0.2606  1.4959
12668SOL    HW239446   6.060   0.869   4.578 -0.9094  0.3692  0.7384
12669SOL     OW39447   3.826   2.066   5.224  0.3619 -0.2070 -0.5541
12669SOL    HW139448   3.838   2.072   5.319 -1.9607 -1.9188 -0.0622
12669SOL    HW239449   3.862   2.148   5.190  0.4950  0.8292  1.8792
12670SOL     OW39450   3.168   0.489   5.193 -0.0364  0.0245  0.1912
12670SOL    HW139451   3.223   0.445   5.258 -0.3054  0.6407  0.8383
12670SOL    HW239452   3.228   0.507   5.120  0.1707 -1.0479  0.0682
12671SOL     OW39453   6.260   1.870   5.734 -0.1875  0.5121 -0.4794
12671SOL    HW139454   6.266   1.921   5.654  0.0324  0.7939 -0.2845
12671SOL    HW239455   6.211   1.925   5.795  0.6352  0.7830 -0.0454
12672SOL     OW39456   2.817   2.499   4.911  0.3746  0.2043  0.0221
12672SOL    HW139457   2.895   2.444   4.902 -0.4287 -0.9953  0.1213
12672SOL    HW239458   2.755   2.465   4.847 -0.1241  1.0524  0.0335
12673SOL     OW39459   4.091   0.867   6.602  0.1610  0.5142  0.0158
12673SOL    HW139460   4.126   0.807   6.668 -0.5574 -0.2865 -0.3006
12673SOL    HW239461   4.157   0.868   6.533 -1.0046 -2.2362 -1.3260
12674SOL     OW39462   5.127   1.680   5.875 -0.1537 -0.6360  0.0687
12674SOL    HW139463   5.153   1.682   5.783 -2.5812  1.0660 -0.6920
12674SOL    HW239464   5.073   1.602   5.884  0.5119 -1.0943  0.2394
12675SOL     OW39465   4.765   0.188   4.756 -0.4902  0.9468  0.3771
12675SOL    HW139466   4.790   0.197   4.848 -0.7217  0.3905  0.5006
12675SOL    HW239467   4.706   0.112   4.755 -1.0273  1.3673 -0.1244
12676SOL     OW39468   3.905   7.978   3.504 -0.3969  0.1494  0.4784
12676SOL    HW139469   3.818   7.946   3.529 -0.0899 -1.8304 -0.7092
12676SOL    HW239470   3.943   7.906   3.454  0.7866  2.0922 -1.6140
12677SOL     OW39471   4.454   2.023   4.028 -0.0987 -0.3535  0.0323
12677SOL    HW139472   4.460   1.930   4.049 -1.0209 -0.4184  0.0461
12677SOL    HW239473   4.484   2.068   4.106  1.0758 -0.6408 -0.2382
12678SOL     OW39474   4.501   6.857   5.264 -0.1719  0.3038 -0.3924
12678SOL    HW139475   4.471   6.766   5.276  0.6601 -0.1190 -1.3718
12678SOL    HW239476   4.575   6.865   5.324 -1.0611  0.7681  0.6685
12679SOL     OW39477   3.819   1.474   3.925  0.6026 -0.2016 -0.1747
12679SOL    HW139478   3.870   1.396   3.903 -0.3816 -1.0034  0.2812
12679SOL    HW239479   3.880   1.532   3.971  1.9206  0.2443 -2.3508
12680SOL     OW39480   5.073   1.269   4.851 -0.1032 -0.2382  0.2315
12680SOL    HW139481   5.156   1.288   4.895 -0.7176 -0.2612  1.4378
12680SOL    HW239482   5.067   1.335   4.782  1.5808 -1.1223 -0.8197
12681SOL     OW39483   5.082   0.002   7.122  0.3981  0.1825  0.2184
12681SOL    HW139484   5.104   0.054   7.198 -0.3349 -0.1988  0.7041
12681SOL    HW239485   5.075  -0.088   7.155 -1.3285  0.2004  0.0136
12682SOL     OW39486   4.596   1.899   5.130 -0.2123  1.1219  0.2958
12682SOL    HW139487   4.633   1.949   5.058 -0.9616  0.7619 -0.3467
12682SOL    HW239488   4.504   1.889   5.108 -0.4057  0.8157  1.1937
12683SOL     OW39489   5.962   4.155   2.742  0.0005 -0.9487  0.0458
12683SOL    HW139490   5.978   4.079   2.686  1.1573  0.2012 -1.2915
12683SOL    HW239491   5.882   4.194   2.708 -0.6164 -1.5704  0.7589
12684SOL     OW39492   6.182   0.670   4.049  0.4382  0.6421 -0.0813
12684SOL    HW139493   6.267   0.674   4.093  0.6751 -0.2995 -0.4441
12684SOL    HW239494   6.198   0.708   3.963  0.5363  0.3096 -0.2114
12685SOL     OW39495   3.877   1.682   6.289 -0.3931  0.4209 -0.5614
12685SOL    HW139496   3.930   1.709   6.214 -0.9701  1.3342 -0.6500
12685SOL    HW239497   3.892   1.750   6.355  0.8237 -0.8397  0.5129
12686SOL     OW39498   5.001   2.670   2.525  0.0152  0.2358  0.0011
12686SOL    HW139499   5.041   2.636   2.445  0.2955 -2.0833  1.0413
12686SOL    HW239500   5.069   2.725   2.564  0.6390 -0.2503 -0.3745
12687SOL     OW39501   5.496   1.612   6.628  0.7423 -0.0918 -0.2845
12687SOL    HW139502   5.478   1.683   6.689  0.6093  0.2841 -0.7535
12687SOL    HW239503   5.440   1.630   6.552 -0.6449 -1.6551  0.2984
12688SOL     OW39504   4.763   7.024   7.919 -0.5570 -0.3997 -0.1601
12688SOL    HW139505   4.719   6.948   7.958  0.2817 -0.0678  1.5529
12688SOL    HW239506   4.855   6.998   7.915 -0.6001 -0.3903 -1.9594
12689SOL     OW39507   4.722   1.047   6.091  0.3622  0.0915  0.5891
12689SOL    HW139508   4.660   0.993   6.042  0.9545  0.4877 -0.6614
12689SOL    HW239509   4.782   0.984   6.132  1.1031 -0.2427 -0.9248
12690SOL     OW39510   4.650   7.927   5.766  0.4828  0.6814  0.4322
12690SOL    HW139511   4.719   7.993   5.756  0.9278 -0.0524 -2.3782
12690SOL    HW239512   4.578   7.960   5.712  1.2015 -1.5824 -2.1823
12691SOL     OW39513   5.047   0.421   4.740 -0.4141  0.2852  0.5250
12691SOL    HW139514   5.116   0.451   4.681 -0.4069 -4.0557 -2.1493
12691SOL    HW239515   4.966   0.453   4.701 -0.1864  0.8525  0.5174
12692SOL     OW39516   3.869   0.240   5.202  0.5588  0.0525 -0.3008
12692SOL    HW139517   3.875   0.154   5.162 -0.3808  0.1018 -0.5585
12692SOL    HW239518   3.779   0.247   5.232  0.3190  1.3445 -1.2097
12693SOL     OW39519   4.326   1.378   6.194 -0.0558  0.0443  0.1984
12693SOL    HW139520   4.346   1.289   6.164  0.7060 -0.5412  2.2143
12693SOL    HW239521   4.411   1.423   6.193  0.0154 -0.0281  1.4634
12694SOL     OW39522   4.785   0.965   3.538 -0.5644  0.7482  1.0742
12694SOL    HW139523   4.819   1.042   3.583 -3.5657  1.5424  2.2624
12694SOL    HW239524   4.716   0.999   3.481 -0.3920 -0.8509 -0.1553
12695SOL     OW39525   5.126   0.841   4.853  0.3674  0.0741 -0.3720
12695SOL    HW139526   5.081   0.907   4.801 -0.4073 -0.4858 -0.4248
12695SOL    HW239527   5.169   0.891   4.923 -1.1202  0.5509  0.2421
12696SOL     OW39528   5.986   7.828   6.275  0.9519 -0.1979 -0.6866
12696SOL    HW139529   6.028   7.900   6.229 -0.1170  0.6303 -0.3997
12696SOL    HW239530   6.022   7.832   6.364 -0.0141  0.7811 -0.3181
12697SOL     OW39531   5.081   7.703   4.947  0.2256 -0.3161  0.2452
12697SOL    HW139532   5.149   7.770   4.939 -0.2663  0.4870  2.1959
12697SOL    HW239533   5.005   7.751   4.981 -1.4523 -1.1241 -2.0974
12698SOL     OW39534   4.709   0.676   3.737  0.5540 -0.5176 -0.7958
12698SOL    HW139535   4.749   0.652   3.821  0.9222  0.4418 -0.6821
12698SOL    HW239536   4.738   0.609   3.676  1.1045 -0.6717 -0.3693
12699SOL     OW39537   5.764   7.078   6.061 -0.8629 -0.1397 -0.3962
12699SOL    HW139538   5.692   7.132   6.094  0.6399  0.9076  1.3761
12699SOL    HW239539   5.733   6.988   6.072 -1.3692  0.2335  1.7864
12700SOL     OW39540   5.596   1.025   5.733  0.6737  0.6720 -0.0203
12700SOL    HW139541   5.653   1.061   5.800 -0.3705  1.5733  0.4107
12700SOL    HW239542   5.520   0.991   5.781  1.2926 -1.5596 -0.4696
12701SOL     OW39543   5.579   0.488   4.961  0.2585 -0.0647  0.7581
12701SOL    HW139544   5.591   0.413   4.903  1.6660  0.6138  0.0985
12701SOL    HW239545   5.590   0.452   5.049 -1.4365 -1.0223  0.6196
12702SOL     OW39546   2.863   1.306   6.513  0.1825 -0.3073  0.1381
12702SOL    HW139547   2.773   1.303   6.544  0.1091  0.3375 -0.0129
12702SOL    HW239548   2.906   1.373   6.566  0.3376  0.0316 -0.4026
12703SOL     OW39549   5.390   7.006   4.539 -0.0661 -0.0790  0.5995
12703SOL    HW139550   5.376   7.037   4.628 -0.3855  0.8824  0.2297
12703SOL    HW239551   5.383   6.911   4.545 -0.7421  0.0140  1.4914
12704SOL     OW39552   4.327   7.446   5.689 -0.5088  0.0680 -0.2701
12704SOL    HW139553   4.354   7.494   5.611 -1.9235 -0.4478 -1.1276
12704SOL    HW239554   4.396   7.462   5.753 -0.4564  2.3877 -0.8499
12705SOL     OW39555   5.489   6.786   4.258 -0.2182 -0.0439 -0.3067
12705SOL    HW139556   5.471   6.880   4.254 -1.7840 -0.2994  0.2429
12705SOL    HW239557   5.524   6.765   4.172 -2.7231  0.5058 -1.5585
12706SOL     OW39558   4.735   7.128   4.298 -0.0405 -0.1504  0.6511
12706SOL    HW139559   4.764   7.113   4.388  1.8378 -1.1591 -0.0722
12706SOL    HW239560   4.648   7.088   4.295  1.2605 -3.3878  1.1758
12707SOL     OW39561   4.588   0.861   4.682 -0.5426  0.2208  0.1700
12707SOL    HW139562   4.655   0.798   4.708 -2.0455 -1.1147  1.0266
12707SOL    HW239563   4.606   0.938   4.735 -0.1383 -0.4001  0.9644
12708SOL     OW39564   3.606   0.400   5.710 -0.2825  0.4260 -0.5471
12708SOL    HW139565   3.660   0.465   5.756 -2.5613  1.3861  0.9372
12708SOL    HW239566   3.637   0.403   5.619  2.7560  0.2091  0.3699
12709SOL     OW39567   2.642   0.201   6.513 -0.2543 -0.2234 -0.1462
12709SOL    HW139568   2.697   0.277   6.532 -1.7791  1.1861 -1.1117
12709SOL    HW239569   2.596   0.185   6.595  0.1372 -0.1752  0.0889
12710SOL     OW39570   5.012   7.685   4.187  0.5027  0.0388 -0.0305
12710SOL    HW139571   4.950   7.689   4.114  1.4862 -1.0000 -0.9648
12710SOL    HW239572   5.057   7.770   4.184  0.7306 -0.1006 -0.8156
12711SOL     OW39573   4.245   2.008   3.271 -0.4692 -0.7062  0.1295
12711SOL    HW139574   4.297   1.939   3.230  0.3662  0.4917 -0.9522
12711SOL    HW239575   4.309   2.065   3.312 -1.1126 -0.4046  0.7371
12712SOL     OW39576   4.172   1.996   3.767  0.2437  0.8403  0.1994
12712SOL    HW139577   4.188   1.944   3.688  1.4618  0.9723  0.3456
12712SOL    HW239578   4.224   2.075   3.755  2.6825 -0.3089  2.2988
12713SOL     OW39579   4.062   1.913   4.299  0.0751 -0.3869 -0.3659
12713SOL    HW139580   4.027   2.001   4.309 -1.6829 -0.6072 -3.3600
12713SOL    HW239581   4.086   1.906   4.206 -2.8702 -3.9376 -1.1196
12714SOL     OW39582   5.073   7.972   4.511  0.1552  0.1481  0.5822
12714SOL    HW139583   5.022   8.053   4.515  0.5937  0.6805 -2.3418
12714SOL    HW239584   5.007   7.903   4.511 -0.3506  0.6182  0.5524
12715SOL     OW39585   4.769   1.098   4.552  0.0488  0.0511 -0.4763
12715SOL    HW139586   4.731   1.143   4.476  0.4848 -0.4043 -0.9747
12715SOL    HW239587   4.714   1.124   4.626 -0.9585 -0.2402 -1.1071
12716SOL     OW39588   5.223   7.839   5.241  0.8548  0.6123 -0.3025
12716SOL    HW139589   5.256   7.886   5.164 -0.9308  1.5635 -0.5381
12716SOL    HW239590   5.186   7.908   5.297  1.6039 -0.1303  1.1513
12717SOL     OW39591   4.047   2.733   5.661 -0.6241 -0.5088  0.0239
12717SOL    HW139592   4.015   2.642   5.656 -2.0209 -0.0051 -0.9285
12717SOL    HW239593   4.082   2.741   5.750  0.9695 -2.4209 -0.3714
12718SOL     OW39594   5.509   0.007   4.780  0.0217  0.1318 -0.4349
12718SOL    HW139595   5.469   0.044   4.701  1.2544  1.0057 -0.6788
12718SOL    HW239596   5.603   0.025   4.770  0.8499 -3.5349 -0.8241
12719SOL     OW39597   3.295   1.105   5.105 -0.3072  0.2751 -0.7833
12719SOL    HW139598   3.205   1.122   5.076 -1.0899 -1.2835  0.5342
12719SOL    HW239599   3.319   1.182   5.155 -1.6585 -0.0598  0.4466
12720SOL     OW39600   4.576   0.260   4.502 -0.3141  0.0518 -0.3456
12720SOL    HW139601   4.604   0.173   4.531 -0.7276 -0.3795 -1.2102
12720SOL    HW239602   4.620   0.273   4.418  1.8005  1.7829  0.9297
12721SOL     OW39603   5.518   3.254   5.294  0.3938  0.6437  0.3739
12721SOL    HW139604   5.565   3.205   5.227 -0.2148 -0.8294  0.9769
12721SOL    HW239605   5.510   3.342   5.258 -0.9826 -0.3655 -2.0838
12722SOL     OW39606   4.466   0.793   5.080 -0.5889  0.1375 -0.2137
12722SOL    HW139607   4.540   0.734   5.064 -1.1490 -0.3640 -1.0134
12722SOL    HW239608   4.507   0.875   5.105  0.2771 -0.0018 -1.0827
12723SOL     OW39609   5.222   1.195   5.095  0.2163  0.8868 -0.3489
12723SOL    HW139610   5.158   1.131   5.125  1.4335 -0.3051 -0.1702
12723SOL    HW239611   5.182   1.280   5.113 -0.1974  0.2323  2.3291
12724SOL     OW39612   5.303   7.866   4.021  0.2948  0.0128 -0.0099
12724SOL    HW139613   5.259   7.816   4.090 -0.4672  0.3121 -0.2646
12724SOL    HW239614   5.391   7.882   4.055  0.8704 -2.2152 -0.2567
12725SOL     OW39615   4.285   7.424   4.823 -0.6969  0.8230  0.0534
12725SOL    HW139616   4.213   7.486   4.832 -0.7482  0.6972  0.5410
12725SOL    HW239617   4.242   7.338   4.816 -0.6079  0.7905 -0.1272
12726SOL     OW39618   5.793   2.512   4.481 -0.5280 -0.3835  0.3455
12726SOL    HW139619   5.767   2.489   4.571 -0.7825  0.9956  0.6523
12726SOL    HW239620   5.879   2.552   4.491 -1.6723  2.3075  0.3969
12727SOL     OW39621   4.465   1.953   1.807  0.7251  0.1676  0.4019
12727SOL    HW139622   4.431   1.902   1.734  0.5240  1.0530 -0.1344
12727SOL    HW239623   4.446   2.044   1.784 -0.3211  0.4018  2.0587
12728SOL     OW39624   2.662   0.692   5.141  0.1515 -0.3730 -0.2229
12728SOL    HW139625   2.734   0.700   5.204 -1.1258 -0.4668  1.3276
12728SOL    HW239626   2.657   0.598   5.123  0.9513 -0.2744 -1.0228
12729SOL     OW39627   3.814   0.581   4.512 -0.7430  0.2484 -0.1553
12729SOL    HW139628   3.774   0.564   4.597 -4.3207  0.0169 -1.6683
12729SOL    HW239629   3.834   0.674   4.512 -0.9543  0.2949  0.8389
12730SOL     OW39630   3.655   6.046   4.713  0.0975 -0.2571 -0.6226
12730SOL    HW139631   3.584   5.988   4.684 -0.3701 -0.5962  1.1180
12730SOL    HW239632   3.612   6.129   4.732  0.1552 -0.4719  0.4702
12731SOL     OW39633   5.861   0.940   5.397 -0.0064  0.5832 -0.1484
12731SOL    HW139634   5.821   0.885   5.330  2.5877 -0.6557 -0.8178
12731SOL    HW239635   5.892   0.878   5.463  0.5846  1.4896  0.4411
12732SOL     OW39636   2.743   1.282   4.735  0.4938  0.0408  0.1441
12732SOL    HW139637   2.726   1.339   4.660  1.7036  0.3731  0.1012
12732SOL    HW239638   2.836   1.263   4.730 -0.1223 -3.5687 -1.0121
12733SOL     OW39639   5.204   0.107   5.129 -0.3882  0.0177 -0.0784
12733SOL    HW139640   5.250   0.155   5.061  0.7629 -0.8496  0.0643
12733SOL    HW239641   5.112   0.129   5.116 -0.3798 -1.1237 -2.7651
12734SOL     OW39642   4.785   0.234   5.048 -0.3230 -0.1703  0.1385
12734SOL    HW139643   4.756   0.286   5.123 -0.5786 -0.8595  0.5331
12734SOL    HW239644   4.877   0.257   5.037 -0.1554 -0.4014  0.9707
12735SOL     OW39645   4.266   1.887   3.543  0.1019  0.1143  0.4495
12735SOL    HW139646   4.238   1.798   3.521  2.0900 -0.2248 -0.9765
12735SOL    HW239647   4.262   1.935   3.461  1.3852  0.6424  0.6630
12736SOL     OW39648   4.073   2.059   4.893  0.2904 -0.1688  0.1347
12736SOL    HW139649   4.082   2.154   4.897  1.2098 -0.0110 -3.1084
12736SOL    HW239650   3.986   2.041   4.928 -1.1792  2.2455 -1.9623
12737SOL     OW39651   7.059   6.807   5.430 -0.6349 -0.4599  0.2511
12737SOL    HW139652   7.072   6.884   5.374 -2.1320 -1.8579 -2.2150
12737SOL    HW239653   7.144   6.764   5.431 -0.8341 -1.0341 -2.0772
12738SOL     OW39654   3.586   7.756   3.324 -0.3361  0.0084  0.0146
12738SOL    HW139655   3.589   7.759   3.228  1.9578 -1.0962  0.0010
12738SOL    HW239656   3.573   7.664   3.345  2.2205 -0.2728  0.7126
12739SOL     OW39657   3.294   1.234   3.827  0.4505  0.0583  0.5776
12739SOL    HW139658   3.224   1.272   3.880  0.7710  1.8524 -0.2159
12739SOL    HW239659   3.375   1.263   3.869  0.7434 -1.1248  0.8780
12740SOL     OW39660   5.734   6.759   6.226 -0.1065 -0.5168  0.2062
12740SOL    HW139661   5.688   6.789   6.148  2.2770  0.4618 -0.9168
12740SOL    HW239662   5.667   6.715   6.278 -1.9277 -0.5777 -2.0408
12741SOL     OW39663   5.400   1.780   4.720 -0.1221  0.3515  0.2212
12741SOL    HW139664   5.404   1.688   4.693 -1.1920  0.5594 -0.7406
12741SOL    HW239665   5.459   1.825   4.661  0.7747  0.2350  1.0056
12742SOL     OW39666   5.292   2.858   3.808 -0.3192 -0.4926 -0.0439
12742SOL    HW139667   5.356   2.928   3.793 -0.3479 -0.3409  0.4943
12742SOL    HW239668   5.336   2.778   3.779 -0.4624 -0.1941 -1.1108
12743SOL     OW39669   3.596   1.878   3.983 -0.0294 -0.1194 -0.3161
12743SOL    HW139670   3.578   1.956   3.929  1.8224 -0.1445 -1.0202
12743SOL    HW239671   3.519   1.822   3.970  0.3122 -0.1011 -2.9414
12744SOL     OW39672   5.949   1.185   5.397 -0.0573 -0.4971 -0.5653
12744SOL    HW139673   5.911   1.098   5.394  0.8050 -0.8621 -1.3780
12744SOL    HW239674   6.044   1.171   5.392  0.2528  0.3676  1.8429
12745SOL     OW39675   4.663   0.504   4.578 -0.0360  0.0289 -0.4472
12745SOL    HW139676   4.634   0.413   4.577 -1.2122  0.3928 -0.5519
12745SOL    HW239677   4.755   0.500   4.552  0.0823 -1.1779  0.1031
12746SOL     OW39678   4.504   0.442   3.773 -0.0377 -0.3064 -0.1833
12746SOL    HW139679   4.413   0.468   3.785  0.4785  1.0682  1.2743
12746SOL    HW239680   4.551   0.526   3.766  1.4661 -0.8177  2.4214
12747SOL     OW39681   4.924   1.308   5.326  0.3165  0.0933  0.2834
12747SOL    HW139682   4.927   1.212   5.319  0.9883  0.0792  0.7045
12747SOL    HW239683   4.857   1.334   5.263  0.7567 -0.5884 -0.4860
12748SOL     OW39684   7.212   7.287   6.137  0.3747 -0.3833  0.0509
12748SOL    HW139685   7.151   7.294   6.211  1.9929  0.6185  1.3517
12748SOL    HW239686   7.240   7.377   6.120 -0.5179 -0.4925 -2.3187
12749SOL     OW39687   4.767   2.573   5.136  0.0632 -0.1231  0.4746
12749SOL    HW139688   4.723   2.639   5.083 -1.4524 -1.5412 -0.1486
12749SOL    HW239689   4.747   2.599   5.227  0.5975  0.9675  0.2937
12750SOL     OW39690   5.131   1.143   5.643 -0.0742 -0.2883 -0.1851
12750SOL    HW139691   5.176   1.177   5.720 -0.1642 -3.1464  1.2544
12750SOL    HW239692   5.200   1.137   5.576  0.4070  0.5287  0.2216
12751SOL     OW39693   4.610   6.558   5.817  0.4760  0.1104 -0.1391
12751SOL    HW139694   4.656   6.525   5.739 -0.3388  1.1539 -1.0858
12751SOL    HW239695   4.670   6.623   5.853  0.1439  0.8280 -0.8615
12752SOL     OW39696   4.040   2.428   5.699  0.0944  0.5252 -0.3602
12752SOL    HW139697   4.030   2.356   5.637 -3.0079  0.2531  0.3166
12752SOL    HW239698   4.028   2.389   5.785 -1.2663  1.7422  0.0449
12753SOL     OW39699   6.773   1.631   5.735 -0.4046 -0.3839 -0.3556
12753SOL    HW139700   6.787   1.543   5.699 -1.2141 -0.5000 -0.3914
12753SOL    HW239701   6.738   1.615   5.823 -2.5629 -0.1339 -1.1092
12754SOL     OW39702   4.023   0.288   4.883  0.1557 -0.4376 -0.3362
12754SOL    HW139703   4.025   0.305   4.789 -1.8210  1.4072 -0.1350
12754SOL    HW239704   4.012   0.375   4.922  0.4254 -1.2193  1.5883
12755SOL     OW39705   5.675   1.791   5.733 -0.2519 -0.1855 -0.0514
12755SOL    HW139706   5.650   1.756   5.818 -1.0375  0.3208 -0.0732
12755SOL    HW239707   5.616   1.864   5.717  0.0083 -0.1483 -0.9496
12756SOL     OW39708   6.640   0.176   5.393  0.2128  0.1613  0.0595
12756SOL    HW139709   6.654   0.203   5.484 -0.1378 -3.2887  1.2941
12756SOL    HW239710   6.725   0.138   5.367 -0.2547 -0.6624 -0.3023
12757SOL     OW39711   4.479   2.421   1.863  0.1663  0.3148 -0.2614
12757SOL    HW139712   4.448   2.495   1.810 -0.6737  0.5544  0.5474
12757SOL    HW239713   4.399   2.382   1.899  0.7018 -0.0968  0.5001
12758SOL     OW39714   4.532   7.008   5.675  0.0276  0.2116 -0.1629
12758SOL    HW139715   4.569   7.093   5.651  1.0196 -0.0354  0.4051
12758SOL    HW239716   4.607   6.958   5.707 -0.4763 -1.0217 -0.8556
12759SOL     OW39717   4.021   1.536   3.678 -0.4570 -0.0376 -0.6312
12759SOL    HW139718   4.055   1.573   3.760 -2.4763  0.8265 -0.1229
12759SOL    HW239719   3.974   1.457   3.704 -0.3883 -0.2302 -1.0748
12760SOL     OW39720   2.987   1.786   4.134 -0.1109  0.2866  0.2996
12760SOL    HW139721   3.059   1.739   4.174  1.3292  0.3641 -1.9876
12760SOL    HW239722   2.955   1.727   4.066 -0.8741  1.0583 -0.0321
12761SOL     OW39723   6.127   1.044   6.471  0.0175  0.1252  0.1308
12761SOL    HW139724   6.169   1.124   6.440 -0.5226  0.7809  1.0295
12761SOL    HW239725   6.194   1.001   6.524  0.5348 -0.3784 -0.9101
12762SOL     OW39726   2.796   7.306   4.219 -0.2301 -0.5712 -0.8731
12762SOL    HW139727   2.742   7.272   4.290 -0.6163 -0.9808 -1.3502
12762SOL    HW239728   2.845   7.378   4.258 -2.9205  1.4788 -0.9969
12763SOL     OW39729   3.049   0.168   4.712 -0.2360 -0.5351 -0.1757
12763SOL    HW139730   2.994   0.215   4.650  0.8725  1.1859  0.0759
12763SOL    HW239731   2.989   0.143   4.782 -1.2002 -1.1162 -1.1718
12764SOL     OW39732   4.802   1.660   6.039 -0.2584 -0.3045 -0.6357
12764SOL    HW139733   4.763   1.602   5.974 -1.0238 -0.8837  0.3206
12764SOL    HW239734   4.785   1.748   6.005  1.1567 -0.5872 -2.2415
12765SOL     OW39735   4.570   0.898   7.260  0.5851 -0.2460  0.0195
12765SOL    HW139736   4.479   0.871   7.269  0.7233 -0.3578  1.1556
12765SOL    HW239737   4.620   0.834   7.311  1.3434 -0.3716 -0.8364
12766SOL     OW39738   4.161   2.296   4.575  0.3327 -0.5599 -0.5075
12766SOL    HW139739   4.133   2.387   4.574  0.6344 -0.4700 -1.0792
12766SOL    HW239740   4.158   2.271   4.667  1.4121  0.3907 -0.1996
12767SOL     OW39741   3.271   2.495   3.255  0.2589 -0.0452  0.1090
12767SOL    HW139742   3.204   2.502   3.323  0.2028 -0.7637  0.1421
12767SOL    HW239743   3.222   2.468   3.177  0.1707  1.7663 -0.4996
12768SOL     OW39744   4.064   3.177   5.006 -0.0778  0.2046  0.1145
12768SOL    HW139745   4.046   3.232   5.082 -0.4014  0.7510 -0.3469
12768SOL    HW239746   4.108   3.235   4.944 -2.5817  0.6849 -1.3631
12769SOL     OW39747   5.991   7.297   2.526  0.0333  0.7683 -0.0890
12769SOL    HW139748   6.064   7.356   2.506  0.4605  0.2557 -0.0652
12769SOL    HW239749   6.022   7.210   2.500 -1.0113  0.7031 -1.1975
12770SOL     OW39750   6.357   2.523   4.543 -0.4988 -0.6531  0.1596
12770SOL    HW139751   6.330   2.600   4.493 -1.7460 -1.3693 -0.3162
12770SOL    HW239752   6.324   2.540   4.632 -0.2989 -0.4109  0.1900
12771SOL     OW39753   4.612   1.630   4.892 -0.0760  0.3935  0.4944
12771SOL    HW139754   4.535   1.644   4.837 -1.3108  1.4058  2.3614
12771SOL    HW239755   4.660   1.713   4.888 -0.2946  0.5561  1.0817
12772SOL     OW39756   4.891   0.589   3.925 -0.1066  0.3739 -0.0573
12772SOL    HW139757   4.911   0.500   3.896 -2.0783  0.4263 -1.8467
12772SOL    HW239758   4.966   0.615   3.978  0.6905 -2.1987  0.2014
12773SOL     OW39759   5.110   3.384   6.260 -0.6862  0.0208  0.4353
12773SOL    HW139760   5.081   3.429   6.339 -0.8465  0.3666  0.1814
12773SOL    HW239761   5.106   3.451   6.192 -1.5754 -0.5486 -0.0823
12774SOL     OW39762   5.490   1.325   6.236 -0.1607 -0.1642 -0.1921
12774SOL    HW139763   5.415   1.380   6.260  0.0999 -0.0537  0.3807
12774SOL    HW239764   5.529   1.299   6.319  1.2529  0.8894 -0.4905
12775SOL     OW39765   4.094   1.768   5.554 -0.0984  0.0970 -0.2888
12775SOL    HW139766   4.052   1.700   5.501 -1.0378  0.5690 -0.1586
12775SOL    HW239767   4.068   1.851   5.512 -2.0661  0.5774  1.6971
12776SOL     OW39768   5.327   2.048   5.934 -0.0006 -0.1164  0.0354
12776SOL    HW139769   5.315   2.141   5.918  0.5571 -0.0674 -0.0972
12776SOL    HW239770   5.288   2.033   6.020 -2.1516 -0.1947 -0.8732
12777SOL     OW39771   3.525   1.124   7.360 -0.5976  0.1662  0.1674
12777SOL    HW139772   3.613   1.155   7.335 -0.5680 -0.8589 -1.0831
12777SOL    HW239773   3.466   1.181   7.311 -0.5912 -0.2383 -0.3131
12778SOL     OW39774   4.627   2.600   7.667  0.1308  0.0463 -0.3891
12778SOL    HW139775   4.556   2.538   7.679  0.3122 -0.1912 -0.5231
12778SOL    HW239776   4.593   2.683   7.701  0.7640 -0.6695  2.2072
12779SOL     OW39777   5.125   6.052   5.791 -0.1529 -0.1159 -0.1178
12779SOL    HW139778   5.168   5.968   5.807 -2.7429 -1.3507  1.0268
12779SOL    HW239779   5.162   6.111   5.856  0.5259 -0.8371  0.1694
12780SOL     OW39780   5.453   7.147   7.023  0.8188  0.3861  0.3240
12780SOL    HW139781   5.523   7.083   7.011  1.0942  0.6717  0.3952
12780SOL    HW239782   5.434   7.144   7.117 -0.5749 -1.0520  0.0385
12781SOL     OW39783   3.693   1.278   2.795  0.5024  0.0762  0.3964
12781SOL    HW139784   3.772   1.330   2.780 -0.3857  0.5506 -4.1742
12781SOL    HW239785   3.622   1.332   2.758 -1.5829 -1.5186  1.8182
12782SOL     OW39786   5.941   0.714   5.016 -0.4479 -0.2260  0.1429
12782SOL    HW139787   5.908   0.800   4.990 -2.8428 -1.3330 -0.8019
12782SOL    HW239788   5.913   0.656   4.945  0.1105 -1.9774  1.3003
12783SOL     OW39789   4.067   7.722   6.812  0.5142  0.3461 -0.1918
12783SOL    HW139790   4.075   7.627   6.801 -2.4409 -0.0381  0.1403
12783SOL    HW239791   4.157   7.752   6.821  1.5719 -2.3955 -0.4278
12784SOL     OW39792   3.531   7.984   5.083 -0.8522 -0.3386  0.5494
12784SOL    HW139793   3.498   7.902   5.046  0.7684 -2.0152  2.5411
12784SOL    HW239794   3.494   7.988   5.171  0.2505  0.2976  1.0076
12785SOL     OW39795   5.759   7.270   5.401  0.1235  0.1108 -0.5446
12785SOL    HW139796   5.757   7.363   5.378  0.8869  0.7706  1.8222
12785SOL    HW239797   5.852   7.250   5.407  0.0144  0.1595  2.3466
12786SOL     OW39798   5.312   2.673   5.298 -0.9797 -0.1410 -0.3584
12786SOL    HW139799   5.335   2.703   5.211 -2.2273 -0.5715 -0.8571
12786SOL    HW239800   5.390   2.691   5.351 -1.1294  2.6390 -0.9144
12787SOL     OW39801   5.479   4.306   3.213  0.4811 -0.0240  0.6113
12787SOL    HW139802   5.520   4.374   3.266 -0.6716 -0.2919  1.8935
12787SOL    HW239803   5.407   4.350   3.169  1.5341  0.2363 -0.9288
12788SOL     OW39804   2.864   7.444   6.076  0.7096 -0.1513  0.2662
12788SOL    HW139805   2.816   7.502   6.135 -0.2657  0.0482 -0.6982
12788SOL    HW239806   2.931   7.500   6.037  1.1001 -0.1872  0.8732
12789SOL     OW39807   2.873   1.096   5.999 -0.0070 -0.0725 -0.1266
12789SOL    HW139808   2.840   1.012   5.966  0.3673 -0.3005  0.0674
12789SOL    HW239809   2.856   1.158   5.928 -1.4221 -0.0375  0.2057
12790SOL     OW39810   3.891   2.140   5.638  0.0105 -0.5987  0.7133
12790SOL    HW139811   3.865   2.223   5.598 -0.1970 -0.8255  0.3795
12790SOL    HW239812   3.943   2.096   5.571  2.7170  0.5513  1.8940
12791SOL     OW39813   4.696   7.274   7.955 -0.7145 -0.3985  0.2325
12791SOL    HW139814   4.780   7.310   7.984 -0.3201 -1.4338  0.4198
12791SOL    HW239815   4.714   7.182   7.938 -2.1390 -0.9822  1.6700
12792SOL     OW39816   5.544   1.547   7.389  0.1402  0.4975 -0.4882
12792SOL    HW139817   5.559   1.465   7.436 -1.7622  0.6526  0.5004
12792SOL    HW239818   5.475   1.591   7.439  1.0298  2.6705 -1.0588
12793SOL     OW39819   2.906   1.640   4.914 -0.1796 -0.3983  0.0429
12793SOL    HW139820   2.965   1.580   4.958  1.4346  0.7649 -0.4553
12793SOL    HW239821   2.854   1.679   4.984 -0.5395 -1.5804  0.4621
12794SOL     OW39822   5.889   7.853   5.870 -0.2261 -0.0874 -0.4928
12794SOL    HW139823   5.914   7.794   5.800  0.4322 -1.7802  1.0975
12794SOL    HW239824   5.795   7.867   5.856 -0.2148 -0.8150 -1.4086
12795SOL     OW39825   4.100   1.449   6.807 -0.6517 -0.3771 -0.2290
12795SOL    HW139826   4.019   1.402   6.785 -1.8341  0.6334  1.7397
12795SOL    HW239827   4.114   1.430   6.900  1.3176 -0.3931 -0.4904
12796SOL     OW39828   5.189   1.054   8.385 -0.5757 -0.5022  0.0894
12796SOL    HW139829   5.184   1.031   8.292 -1.5400  1.3259 -0.3605
12796SOL    HW239830   5.258   0.997   8.420 -0.3822 -1.4314 -1.6662
12797SOL     OW39831   2.957   6.944   6.494  0.4423 -0.4377  0.0125
12797SOL    HW139832   3.000   7.020   6.455  1.4079 -0.3320  1.2292
12797SOL    HW239833   3.029   6.888   6.523 -0.1896 -0.4023  1.8074
12798SOL     OW39834   4.662   1.007   6.565 -0.7478 -0.4533 -0.4474
12798SOL    HW139835   4.756   1.008   6.580 -0.7236  1.2154 -0.6216
12798SOL    HW239836   4.625   0.974   6.647 -0.0828  0.0897  0.0805
12799SOL     OW39837   2.475   1.740   7.134  0.1564  0.6913  0.0746
12799SOL    HW139838   2.506   1.820   7.091  0.4416  0.4007 -0.2671
12799SOL    HW239839   2.554   1.701   7.171 -0.0634  0.8601  0.7469
12800SOL     OW39840   3.389   0.528   5.013 -0.1722  0.0527 -0.0317
12800SOL    HW139841   3.410   0.446   4.969  0.1860  0.3653 -0.4455
12800SOL    HW239842   3.342   0.580   4.948 -0.7686  0.0200  0.3573
12801SOL     OW39843   4.721   7.992   8.603 -0.6897  0.0392  0.0096
12801SOL    HW139844   4.752   7.906   8.578 -1.4232 -0.8330  1.9119
12801SOL    HW239845   4.790   8.027   8.660 -1.9480 -0.8596  2.1940
12802SOL     OW39846   1.846   1.199   5.964  0.0458  0.0765 -0.3599
12802SOL    HW139847   1.935   1.189   5.932  0.4051  0.3061  0.5274
12802SOL    HW239848   1.824   1.291   5.947  0.3493  0.2808  0.2836
12803SOL     OW39849   3.764   1.215   6.246  0.0287 -0.2614  0.4118
12803SOL    HW139850   3.802   1.279   6.186 -1.0866  0.5189  0.5087
12803SOL    HW239851   3.834   1.150   6.259  0.8221  0.3799 -0.4935
12804SOL     OW39852   4.594   1.418   6.405  0.2333  0.2223 -0.3264
12804SOL    HW139853   4.610   1.414   6.311 -0.0614 -0.8512 -0.3428
12804SOL    HW239854   4.547   1.500   6.418 -1.4137 -0.5048 -1.3768
12805SOL     OW39855   3.229   2.474   6.697  0.0532 -0.3490  0.2230
12805SOL    HW139856   3.204   2.382   6.705 -0.0620 -0.3106  0.3082
12805SOL    HW239857   3.298   2.486   6.762  0.1759 -0.4145  0.1031
12806SOL     OW39858   5.372   0.098   3.496 -0.3840 -0.4267 -0.5048
12806SOL    HW139859   5.397   0.065   3.582  1.6640 -1.0934 -1.3069
12806SOL    HW239860   5.312   0.171   3.515  0.3272 -0.2968  1.4859
12807SOL     OW39861   3.973   2.128   8.126  0.6199 -0.1174 -0.6364
12807SOL    HW139862   3.880   2.148   8.131  0.7588  0.4976 -0.3938
12807SOL    HW239863   3.978   2.033   8.139  0.2618  0.1943  3.0588
12808SOL     OW39864   4.232   1.096   4.690  0.1340 -0.2297  0.5086
12808SOL    HW139865   4.288   1.095   4.613 -0.4076  0.9379  0.0826
12808SOL    HW239866   4.206   1.004   4.702 -0.1188 -0.3673 -0.9504
12809SOL     OW39867   5.230   1.897   6.229 -0.1052 -0.4258  0.3835
12809SOL    HW139868   5.152   1.889   6.173 -0.7031  1.7075  0.8226
12809SOL    HW239869   5.222   1.984   6.268  1.6870 -0.8146  1.7132
12810SOL     OW39870   4.984   1.443   5.837  0.1999 -0.7064 -0.0947
12810SOL    HW139871   4.952   1.461   5.748 -0.8458 -0.3722  0.3271
12810SOL    HW239872   4.921   1.381   5.873 -0.6437  0.8003  1.1395
12811SOL     OW39873   5.234   2.446   8.162 -0.1772  0.0356  0.5986
12811SOL    HW139874   5.247   2.401   8.245  0.1941 -2.4669 -0.6981
12811SOL    HW239875   5.156   2.500   8.175 -0.8333 -1.2274  2.2068
12812SOL     OW39876   4.913   1.679   4.514  0.5442  0.3778  0.1705
12812SOL    HW139877   4.828   1.723   4.514  0.2742 -0.0580 -1.6125
12812SOL    HW239878   4.969   1.736   4.565 -0.8978  0.4820  1.7351
12813SOL     OW39879   6.258   7.448   6.190 -0.2399  0.3753 -0.0554
12813SOL    HW139880   6.313   7.398   6.250 -0.7541 -1.1638 -0.8275
12813SOL    HW239881   6.193   7.385   6.158 -1.0147  1.5756 -0.9500
12814SOL     OW39882   7.068   2.220   4.878  0.2594  0.1348  0.0787
12814SOL    HW139883   6.977   2.245   4.887  0.7258  1.5319  1.2471
12814SOL    HW239884   7.066   2.124   4.873 -1.2091  0.0870  1.0023
12815SOL     OW39885   2.188   6.745   6.782  0.1733 -0.9588 -0.9454
12815SOL    HW139886   2.145   6.831   6.783  1.2917 -0.3778 -1.3183
12815SOL    HW239887   2.120   6.684   6.811 -0.5282  0.0967 -0.3093
12816SOL     OW39888   2.423   1.855   4.821 -0.5144  0.1036  0.2942
12816SOL    HW139889   2.429   1.815   4.735 -0.7702 -0.6272  0.6098
12816SOL    HW239890   2.485   1.806   4.875  3.0236  3.2954 -0.4491
12817SOL     OW39891   4.380   0.201   6.479  0.1357  0.1425  0.0516
12817SOL    HW139892   4.351   0.292   6.487 -1.0706 -0.2583  0.6154
12817SOL    HW239893   4.398   0.174   6.569 -0.8516 -0.5679  0.0536
12818SOL     OW39894   3.714   1.841   5.331  0.3565 -0.0797  0.0576
12818SOL    HW139895   3.652   1.868   5.399 -1.6868 -1.5925 -1.0981
12818SOL    HW239896   3.732   1.921   5.281 -0.3734  0.4463  0.6214
12819SOL     OW39897   3.156   0.861   4.982  0.1006  0.6874  0.4649
12819SOL    HW139898   3.166   0.907   5.065 -0.2948 -0.9553  1.4763
12819SOL    HW239899   3.064   0.874   4.957  0.3771  1.7115 -0.0715
12820SOL     OW39900   4.397   0.250   5.593  0.7390  0.4663 -0.2975
12820SOL    HW139901   4.395   0.315   5.523 -0.0343 -0.4666 -1.1652
12820SOL    HW239902   4.307   0.220   5.601  1.4585 -2.3082 -1.6688
12821SOL     OW39903   4.632   3.061   6.794 -0.4247 -0.5943  0.0546
12821SOL    HW139904   4.678   3.059   6.710 -2.3068  0.0344 -1.0701
12821SOL    HW239905   4.701   3.057   6.860  1.6602  4.3465 -1.3789
12822SOL     OW39906   5.553   0.175   8.244 -0.4817  0.4052 -0.3025
12822SOL    HW139907   5.461   0.177   8.217 -0.2041  0.2699 -1.2609
12822SOL    HW239908   5.571   0.083   8.260 -0.4217  0.3984 -0.4124
12823SOL     OW39909   5.799   0.158   8.594 -0.1429 -0.1940  0.3590
12823SOL    HW139910   5.869   0.096   8.616  0.3782 -0.2231 -1.2897
12823SOL    HW239911   5.806   0.226   8.661  0.7755 -0.7318  0.8316
12824SOL     OW39912   6.371   2.333   5.432  0.0641  0.4641  0.4519
12824SOL    HW139913   6.314   2.275   5.382 -0.6826  0.6971  1.0114
12824SOL    HW239914   6.387   2.286   5.514  3.2709 -1.0324 -0.8558
12825SOL     OW39915   4.729   0.312   6.593  1.1367 -0.0200  0.1421
12825SOL    HW139916   4.702   0.290   6.682  0.5032  0.2695  0.0294
12825SOL    HW239917   4.734   0.227   6.548 -0.6284 -0.0220 -0.1109
12826SOL     OW39918   4.882   0.558   6.386  0.4857  0.1929  0.5084
12826SOL    HW139919   4.806   0.572   6.330 -0.4794 -2.4091  1.0039
12826SOL    HW239920   4.954   0.541   6.326 -0.5779 -2.7894 -0.1271
12827SOL     OW39921   3.827   1.094   7.312  0.2579  0.0017 -0.0683
12827SOL    HW139922   3.830   1.181   7.272  1.6054 -0.8790 -2.0815
12827SOL    HW239923   3.862   1.107   7.400  2.1382  1.2609 -0.9160
12828SOL     OW39924   2.812   1.785   7.382 -0.1509  0.2418 -0.7679
12828SOL    HW139925   2.887   1.807   7.326 -0.4262  0.8499 -0.9030
12828SOL    HW239926   2.763   1.720   7.332 -0.2822  0.6255 -1.1358
12829SOL     OW39927   4.943   0.984   7.871  0.1671  0.6000 -0.1163
12829SOL    HW139928   4.917   1.070   7.904 -2.3767  0.2738 -1.0522
12829SOL    HW239929   5.002   1.003   7.798  0.6204  1.4953  0.4662
12830SOL     OW39930   3.137   7.726   7.531 -0.0052  0.1163 -0.0902
12830SOL    HW139931   3.184   7.664   7.475  0.4067 -0.1041  0.4985
12830SOL    HW239932   3.064   7.675   7.567 -0.5948  0.4045 -0.8459
12831SOL     OW39933   3.993   1.062   6.256  0.4495 -0.1063 -0.4187
12831SOL    HW139934   4.064   1.080   6.318 -0.4889 -0.5561  0.8376
12831SOL    HW239935   4.037   1.048   6.172  1.8464 -0.3798  0.3239
12832SOL     OW39936   4.317   1.479   5.877 -0.1886 -0.0409 -0.0125
12832SOL    HW139937   4.383   1.413   5.852  0.9688  0.3568  1.8056
12832SOL    HW239938   4.341   1.556   5.826 -0.0064 -0.2715 -0.2848
12833SOL     OW39939   4.023   1.605   5.363 -0.6098 -0.0603 -0.2034
12833SOL    HW139940   4.059   1.518   5.344  0.1925 -0.0558  1.1567
12833SOL    HW239941   3.929   1.590   5.377 -0.5216 -0.6525 -0.2338
12834SOL     OW39942   4.154   2.079   6.067 -0.2687  0.2401 -0.5616
12834SOL    HW139943   4.117   2.122   6.144 -1.1378  0.2496 -0.9716
12834SOL    HW239944   4.092   2.099   5.996  0.8852  0.8506 -1.4368
12835SOL     OW39945   4.841   7.758   5.136  0.0657  0.4232 -0.0942
12835SOL    HW139946   4.806   7.831   5.187  0.1653  1.1494 -1.0365
12835SOL    HW239947   4.764   7.713   5.101  0.0118  0.9962 -0.7501
12836SOL     OW39948   3.698   0.806   5.889  0.2418 -0.2010 -0.1750
12836SOL    HW139949   3.724   0.849   5.807  0.5971  0.1343  0.1078
12836SOL    HW239950   3.605   0.825   5.897  0.1103 -0.5942 -0.7141
12837SOL     OW39951   4.438   7.977   5.603  1.0495 -0.0098 -0.6885
12837SOL    HW139952   4.429   8.072   5.597  0.6756 -0.0436 -0.6723
12837SOL    HW239953   4.465   7.950   5.515 -0.4471 -0.0584 -1.1576
12838SOL     OW39954   4.737   1.898   4.852 -0.1404  0.4591  0.1194
12838SOL    HW139955   4.821   1.939   4.874 -0.5119  0.6532  1.2905
12838SOL    HW239956   4.692   1.962   4.798  0.0140  0.8394  0.4345
12839SOL     OW39957   3.924   1.212   5.849 -0.0189  0.0749  0.3112
12839SOL    HW139958   3.884   1.291   5.886 -0.1862 -0.2049  0.7301
12839SOL    HW239959   3.856   1.176   5.792  0.2214  0.4782 -0.2496
12840SOL     OW39960   5.211   2.272   5.822 -0.3102  0.0911 -0.3853
12840SOL    HW139961   5.137   2.290   5.880 -0.6874  1.7978 -1.3254
12840SOL    HW239962   5.180   2.297   5.735  1.1282  0.1518 -0.9104
12841SOL     OW39963   5.969   1.224   8.595  0.3964 -0.3844 -0.3325
12841SOL    HW139964   5.922   1.141   8.586 -2.6565  1.0406  0.7650
12841SOL    HW239965   5.952   1.270   8.513 -2.0063  0.9121  0.7922
12842SOL     OW39966   4.281   2.044   6.457  0.3867  0.0302 -0.8408
12842SOL    HW139967   4.214   2.068   6.521  0.8977 -0.2053 -0.1989
12842SOL    HW239968   4.281   1.948   6.457  0.9416  0.0233 -0.5865
12843SOL     OW39969   4.945   0.562   7.100 -0.4393  0.2967  1.4023
12843SOL    HW139970   4.917   0.653   7.111 -1.2423  0.0870  1.1246
12843SOL    HW239971   4.981   0.559   7.011  0.7638  0.6312  1.8563
12844SOL     OW39972   4.735   7.574   6.983  0.2331 -0.1653  0.4426
12844SOL    HW139973   4.700   7.658   7.013 -0.2728 -0.2352  0.0694
12844SOL    HW239974   4.781   7.538   7.059  1.7118  1.1025  0.1945
12845SOL     OW39975   6.613   0.992   8.607  0.0023 -0.2936 -0.7028
12845SOL    HW139976   6.532   0.941   8.608 -0.4436  0.3892 -1.0820
12845SOL    HW239977   6.669   0.946   8.545 -0.7797  0.2226 -1.8438
12846SOL     OW39978   4.370   2.702   4.795 -0.0829  0.1672  0.0391
12846SOL    HW139979   4.288   2.711   4.844 -0.1044 -1.1516  0.2773
12846SOL    HW239980   4.411   2.788   4.802 -1.4856  0.8981 -0.1726
12847SOL     OW39981   4.604   7.528   7.855 -0.1057 -0.2504  0.4436
12847SOL    HW139982   4.600   7.596   7.922  1.6102  0.8309 -0.4853
12847SOL    HW239983   4.622   7.447   7.903  0.3505  0.3855  1.3665
12848SOL     OW39984   4.326   1.076   5.632 -0.2077  0.0738 -0.5935
12848SOL    HW139985   4.389   1.015   5.594 -0.4791  0.1708 -1.2003
12848SOL    HW239986   4.380   1.137   5.683  0.3072  0.7550 -1.9017
12849SOL     OW39987   4.728   0.519   5.960  0.3811  0.0648  0.5989
12849SOL    HW139988   4.652   0.467   5.938  0.5540  0.6219 -1.5403
12849SOL    HW239989   4.802   0.459   5.952  0.3106 -0.1178  1.2566
12850SOL     OW39990   6.639   0.540   7.096 -0.1394  0.1624 -0.9604
12850SOL    HW139991   6.557   0.564   7.139 -0.4137  1.5990 -2.1834
12850SOL    HW239992   6.663   0.618   7.045  2.1213 -0.1190 -0.4507
12851SOL     OW39993   2.249   1.994   5.044 -0.2432 -0.5240 -0.4121
12851SOL    HW139994   2.254   2.007   4.950  0.3178  1.6648 -0.1154
12851SOL    HW239995   2.230   2.080   5.080  3.5792 -0.3866  1.7624
12852SOL     OW39996   4.368   0.672   5.305 -0.0071  0.4178 -0.2897
12852SOL    HW139997   4.367   0.576   5.300 -0.7962  0.4298 -0.3939
12852SOL    HW239998   4.375   0.701   5.215  0.6368  0.4619 -0.2322
12853SOL     OW39999   4.575   0.864   5.968 -0.0194  0.6433  0.4154
12853SOL    HW140000   4.523   0.797   6.013 -0.4229  0.0492 -0.8751
12853SOL    HW240001   4.619   0.816   5.898 -0.7591  1.8006 -0.8860
12854SOL     OW40002   4.953   0.087   8.724  0.0677 -0.0469  0.2482
12854SOL    HW140003   4.951   0.182   8.724  1.0159  0.0072  1.6271
12854SOL    HW240004   4.934   0.062   8.814 -1.4410 -1.2264 -0.3600
12855SOL     OW40005   3.728   6.382   5.745 -0.0750  0.1926  0.2452
12855SOL    HW140006   3.688   6.350   5.664 -2.4559  2.0053  0.6190
12855SOL    HW240007   3.732   6.304   5.801 -0.6513 -0.5842 -0.7518
12856SOL     OW40008   4.561   0.558   7.593 -0.3430  0.0423 -0.5322
12856SOL    HW140009   4.532   0.620   7.661 -0.6359  0.7132 -1.2594
12856SOL    HW240010   4.480   0.535   7.547  0.0401  0.7105 -1.5679
12857SOL     OW40011   5.231   1.295   5.856 -0.1027  0.4001 -0.6668
12857SOL    HW140012   5.295   1.360   5.826  0.0916 -0.4264 -2.1503
12857SOL    HW240013   5.147   1.340   5.851  0.2064  1.1147  0.1502
12858SOL     OW40014   5.008   1.767   5.543  0.2623  0.1268  0.5125
12858SOL    HW140015   4.937   1.799   5.487 -0.6176  1.5844  2.3329
12858SOL    HW240016   4.990   1.674   5.555 -0.2975  0.0941 -0.5382
12859SOL     OW40017   3.933   1.453   6.438 -0.2267  0.4709 -0.2216
12859SOL    HW140018   3.894   1.524   6.386 -1.2315 -0.0834 -0.2437
12859SOL    HW240019   3.922   1.375   6.384 -0.7546 -0.0101  0.5523
12860SOL     OW40020   2.846   2.057   7.028 -0.7103  0.1769 -0.0804
12860SOL    HW140021   2.884   2.019   6.949  0.4108  0.9161  0.0811
12860SOL    HW240022   2.921   2.084   7.080 -1.4441  0.0261  1.0868
12861SOL     OW40023   3.100   0.966   5.242 -0.2685  0.0145  0.4755
12861SOL    HW140024   3.069   1.046   5.285  1.1330  0.0598  1.4721
12861SOL    HW240025   3.189   0.954   5.275  0.4739 -0.5963 -1.5874
12862SOL     OW40026   5.218   0.822   5.350  0.0195 -0.2126  0.3896
12862SOL    HW140027   5.187   0.862   5.431 -3.9090  0.6684 -1.3552
12862SOL    HW240028   5.246   0.896   5.296  1.0978 -0.6689  0.2852
12863SOL     OW40029   2.747   0.253   5.408 -0.0961  0.2855  0.2721
12863SOL    HW140030   2.809   0.307   5.358  1.1046 -0.4126  0.9594
12863SOL    HW240031   2.765   0.164   5.380 -0.8354  0.0761  0.4535
12864SOL     OW40032   4.189   0.250   7.493  1.0204 -0.2442  0.0412
12864SOL    HW140033   4.095   0.261   7.507  0.7777  0.5498 -1.8133
12864SOL    HW240034   4.206   0.159   7.515 -1.0014 -1.5869 -3.1758
12865SOL     OW40035   5.106   1.530   6.995  0.3495 -0.4064  0.3740
12865SOL    HW140036   5.064   1.467   7.054  1.6883 -1.2129  0.4879
12865SOL    HW240037   5.084   1.615   7.033 -2.3011 -0.6736 -0.3031
12866SOL     OW40038   4.990   2.603   6.425 -0.5473 -0.7748 -0.2596
12866SOL    HW140039   5.069   2.549   6.429  0.1614  0.2853  1.6661
12866SOL    HW240040   4.931   2.556   6.367  0.9230 -2.3816 -0.5302
12867SOL     OW40041   5.683   2.706   8.145  0.0213  0.1342  0.4514
12867SOL    HW140042   5.651   2.780   8.197  1.4358  0.4196  0.9682
12867SOL    HW240043   5.759   2.674   8.194  1.3944  0.3868 -1.4205
12868SOL     OW40044   5.941   0.471   6.351  0.2754  0.1290 -0.5010
12868SOL    HW140045   5.870   0.410   6.373  0.1185  0.4770 -0.0271
12868SOL    HW240046   5.926   0.547   6.407  1.2666  0.0352 -0.0763
12869SOL     OW40047   4.068   2.752   4.091  0.1999  0.2878  0.5116
12869SOL    HW140048   4.144   2.796   4.128 -0.3882  0.9546  0.9354
12869SOL    HW240049   4.084   2.752   3.997  1.9583 -1.8829  0.7164
12870SOL     OW40050   3.119   0.027   6.961 -0.4980 -0.3212  0.2368
12870SOL    HW140051   3.114   0.113   7.003 -0.7625 -0.7320  1.0609
12870SOL    HW240052   3.212   0.004   6.965 -0.2976  0.2514 -0.6843
12871SOL     OW40053   2.941   6.396   7.501  0.3302  0.2187 -0.2860
12871SOL    HW140054   2.849   6.420   7.508  0.2181 -0.3325  0.1628
12871SOL    HW240055   2.942   6.314   7.451  0.4571 -0.5072  0.8719
12872SOL     OW40056   3.103   2.067   4.676  0.5621 -0.2220  0.3763
12872SOL    HW140057   3.100   2.162   4.671 -0.1710 -0.2564  0.0063
12872SOL    HW240058   3.191   2.044   4.647  0.2041  0.2498 -1.1523
12873SOL     OW40059   4.516   1.633   6.092 -0.4049 -0.2754 -0.5300
12873SOL    HW140060   4.503   1.583   6.012  0.0194  0.7833 -1.2771
12873SOL    HW240061   4.607   1.662   6.088 -0.2904 -0.4557  0.4875
12874SOL     OW40062   3.264   0.716   6.467 -0.2723  0.3756 -0.1128
12874SOL    HW140063   3.169   0.716   6.470 -0.2885  1.2977 -0.3230
12874SOL    HW240064   3.285   0.748   6.379  0.2328 -0.4787 -0.3130
12875SOL     OW40065   6.181   0.388   6.849  0.1776 -0.7031  0.2856
12875SOL    HW140066   6.264   0.436   6.845 -0.4308  0.4967  1.4943
12875SOL    HW240067   6.205   0.298   6.826  1.3955  0.0605 -1.7765
12876SOL     OW40068   6.359   0.824   6.800 -0.7065 -0.3225  0.1923
12876SOL    HW140069   6.446   0.822   6.839 -1.6065 -0.2199  2.3242
12876SOL    HW240070   6.344   0.735   6.769 -0.3012 -0.6454  0.9109
12877SOL     OW40071   5.929   0.402   9.096  0.3687  0.5035 -0.2642
12877SOL    HW140072   5.856   0.354   9.135 -0.3769  1.5169 -0.3652
12877SOL    HW240073   5.946   0.474   9.157  1.9169 -0.2394  0.2319
12878SOL     OW40074   6.657   2.094   6.453 -0.6139 -0.6243 -0.2696
12878SOL    HW140075   6.638   2.182   6.421 -0.7739 -0.3256  0.6248
12878SOL    HW240076   6.580   2.043   6.428 -1.2549 -0.1254  0.6208
12879SOL     OW40077   5.688   7.439   5.827  0.2149 -0.2260  0.6703
12879SOL    HW140078   5.624   7.381   5.786  0.4795  0.1981 -0.3534
12879SOL    HW240079   5.680   7.420   5.921  0.2225 -1.8417  0.3769
12880SOL     OW40080   2.694   1.965   4.632  0.0437 -0.5214  0.6824
12880SOL    HW140081   2.747   2.019   4.573  1.1475 -1.3938  0.8385
12880SOL    HW240082   2.758   1.923   4.690 -0.8013 -1.7292  0.7716
12881SOL     OW40083   4.639   1.355   6.890  0.3615 -0.3272  0.3190
12881SOL    HW140084   4.639   1.450   6.894  0.7288 -0.3620  1.8747
12881SOL    HW240085   4.725   1.332   6.854  0.2106 -0.0738 -0.2063
12882SOL     OW40086   3.502   0.366   4.370  0.4070  0.3719  0.0403
12882SOL    HW140087   3.576   0.315   4.401  1.4008  1.2904 -0.7539
12882SOL    HW240088   3.476   0.419   4.445  1.0032  0.5605  0.1133
12883SOL     OW40089   4.488   1.177   6.782  0.5428 -0.0337  0.1314
12883SOL    HW140090   4.548   1.249   6.801  0.9215 -0.6919  1.6376
12883SOL    HW240091   4.463   1.189   6.691  1.2469  1.5146  0.1169
12884SOL     OW40092   4.887   2.319   7.596 -0.5385 -0.0588  0.3624
12884SOL    HW140093   4.801   2.281   7.610 -0.9223  1.5347  3.0845
12884SOL    HW240094   4.923   2.329   7.684  2.3541 -0.4143 -0.6659
12885SOL     OW40095   3.990   6.861   4.739 -0.4718 -0.4433  0.0881
12885SOL    HW140096   4.057   6.926   4.719 -0.1935  0.2540  2.8674
12885SOL    HW240097   4.033   6.777   4.726  0.8619 -0.0060  1.4681
12886SOL     OW40098   4.898   1.485   5.529 -0.6574  0.2676  0.6404
12886SOL    HW140099   4.927   1.433   5.454 -0.8527 -0.8995  1.3365
12886SOL    HW240100   4.813   1.519   5.504  0.7027  2.8046 -0.9965
12887SOL     OW40101   2.438   1.582   6.384  0.0847 -0.2900 -0.3870
12887SOL    HW140102   2.518   1.567   6.334 -0.9152 -1.4587 -1.7403
12887SOL    HW240103   2.437   1.512   6.449 -0.1598 -0.7211 -0.8411
12888SOL     OW40104   4.330   1.787   5.676  0.0020  0.1908  0.2278
12888SOL    HW140105   4.268   1.775   5.604  0.4271  0.6521 -0.2257
12888SOL    HW240106   4.278   1.819   5.749 -0.4996 -0.6478  0.2516
12889SOL     OW40107   2.816   0.361   6.937 -0.3322 -0.2138 -0.6705
12889SOL    HW140108   2.884   0.382   6.873  1.5059  0.3942  1.3860
12889SOL    HW240109   2.819   0.433   6.999 -2.1531 -0.7314  0.0671
12890SOL     OW40110   4.009   0.275   6.491  0.3962 -0.7847  0.1999
12890SOL    HW140111   3.992   0.197   6.438 -1.3900 -0.5074  0.3116
12890SOL    HW240112   3.945   0.270   6.563  0.7882  0.3726  0.6478
12891SOL     OW40113   5.312   2.120   7.583 -0.4359 -0.4541  0.8631
12891SOL    HW140114   5.318   2.024   7.580 -2.5324 -0.6670  1.8971
12891SOL    HW240115   5.222   2.140   7.556 -1.0313  0.9866  3.5726
12892SOL     OW40116   4.405   2.841   5.989 -0.3907  0.1352 -0.1598
12892SOL    HW140117   4.469   2.839   6.060 -1.2832  0.3786  0.6770
12892SOL    HW240118   4.393   2.934   5.969 -0.5025  0.0930 -0.2955
12893SOL     OW40119   3.267   0.806   5.452  0.2190 -0.0328 -0.4475
12893SOL    HW140120   3.281   0.890   5.497 -0.5692  0.7774 -1.6403
12893SOL    HW240121   3.355   0.773   5.435  0.5438  0.4403  0.2336
12894SOL     OW40122   5.519   0.632   6.336 -0.3398  0.8899 -0.0977
12894SOL    HW140123   5.582   0.617   6.407 -0.7206 -1.0883 -0.1297
12894SOL    HW240124   5.435   0.608   6.374 -0.5485 -0.1450 -1.1833
12895SOL     OW40125   5.967   2.520   7.627  0.6540  0.2573  0.4638
12895SOL    HW140126   6.016   2.441   7.605  0.5586  0.2204  0.3798
12895SOL    HW240127   5.895   2.522   7.563  2.2954  1.9558 -1.5142
12896SOL     OW40128   5.618   2.479   8.020  0.3658 -0.2024  0.0595
12896SOL    HW140129   5.552   2.499   7.954  0.3206  0.8581  0.4018
12896SOL    HW240130   5.627   2.560   8.070  0.2472 -1.0446  1.4872
12897SOL     OW40131   4.032   7.901   5.649 -0.0303  0.2032  0.7446
12897SOL    HW140132   4.067   7.838   5.711  0.1857 -1.4548 -0.9757
12897SOL    HW240133   3.945   7.867   5.627 -0.4355  1.2082  0.7389
12898SOL     OW40134   5.723   1.889   6.635 -0.0885  0.7483  0.1772
12898SOL    HW140135   5.736   1.809   6.687 -0.7695  1.4371  1.4480
12898SOL    HW240136   5.728   1.859   6.544  1.5464 -0.4308  0.6061
12899SOL     OW40137   5.886   0.330   8.816  0.0356  0.1598 -0.6021
12899SOL    HW140138   5.819   0.265   8.836  1.9419 -2.4937 -2.2942
12899SOL    HW240139   5.934   0.339   8.898  0.1324 -1.0702 -0.5025
12900SOL     OW40140   4.295   0.079   8.246  0.3761 -0.2333  0.2524
12900SOL    HW140141   4.376   0.100   8.294  1.4239 -0.8104 -1.1978
12900SOL    HW240142   4.236   0.047   8.314  1.2415  0.4876  1.4006
12901SOL     OW40143   4.030   1.068   6.805  0.2007  1.2833 -0.2942
12901SOL    HW140144   3.997   0.985   6.771 -0.2260  0.6452  1.5729
12901SOL    HW240145   4.047   1.121   6.727 -0.4448 -0.1955 -1.4817
12902SOL     OW40146   3.960   1.860   7.518 -0.0461 -0.1417 -0.0107
12902SOL    HW140147   3.881   1.820   7.555 -0.0634  0.1818  0.3077
12902SOL    HW240148   4.011   1.786   7.485 -0.3977 -0.3677 -0.0578
12903SOL     OW40149   4.698   7.972   6.882  0.3719  0.0661 -0.0633
12903SOL    HW140150   4.760   7.935   6.944 -0.1171 -0.4581  0.1258
12903SOL    HW240151   4.613   7.964   6.925  0.1571  0.6912 -0.3512
12904SOL     OW40152   3.131   1.446   5.454  0.2348 -0.0088  0.3961
12904SOL    HW140153   3.072   1.432   5.528  0.0137  0.3674  0.2942
12904SOL    HW240154   3.164   1.535   5.467  0.8832 -0.2651  0.5250
12905SOL     OW40155   4.245   1.879   4.798 -0.3436 -0.2894  0.0878
12905SOL    HW140156   4.190   1.949   4.833 -0.8147 -0.0495 -1.0832
12905SOL    HW240157   4.187   1.829   4.741 -0.2365 -2.1595  1.5157
12906SOL     OW40158   2.032   1.324   7.347  0.6263 -0.5721 -0.2611
12906SOL    HW140159   2.094   1.360   7.283  1.3643 -1.6066 -0.1518
12906SOL    HW240160   2.065   1.354   7.432 -0.1436  0.4939 -0.3265
12907SOL     OW40161   4.638   1.527   5.845 -0.0698 -0.1483 -0.0734
12907SOL    HW140162   4.636   1.571   5.760 -2.0882 -0.4621 -0.2330
12907SOL    HW240163   4.616   1.436   5.826  0.9270 -0.5577  0.6307
12908SOL     OW40164   5.479   1.190   7.205  0.1724  0.1091  0.1976
12908SOL    HW140165   5.487   1.183   7.300  1.0829 -0.7437  0.0843
12908SOL    HW240166   5.438   1.275   7.190  1.2171  0.8479  1.3080
12909SOL     OW40167   5.405   7.611   5.231 -0.1601  0.4232  0.7005
12909SOL    HW140168   5.344   7.543   5.203  0.0048  0.6470 -0.2506
12909SOL    HW240169   5.351   7.689   5.240 -0.0676  0.5585  0.1203
12910SOL     OW40170   4.401   0.556   7.151  0.1399 -0.1451 -0.0175
12910SOL    HW140171   4.456   0.496   7.201 -0.8101  0.1519  1.4465
12910SOL    HW240172   4.348   0.601   7.217 -0.0622  1.4101 -1.1808
12911SOL     OW40173   3.357   2.370   7.478 -0.6038  0.3084 -0.1142
12911SOL    HW140174   3.438   2.407   7.442 -1.5201  2.1882 -0.3578
12911SOL    HW240175   3.326   2.435   7.540 -1.1757 -1.0810  1.1249
12912SOL     OW40176   3.451   0.059   5.962  0.6628  0.0760  0.8996
12912SOL    HW140177   3.379  -0.002   5.975  1.7879 -1.8449 -1.2019
12912SOL    HW240178   3.513   0.038   6.031  0.9739 -1.1173  0.2780
12913SOL     OW40179   5.953   1.749   6.005 -0.5646 -0.1191 -0.0188
12913SOL    HW140180   5.990   1.826   5.962  1.7426  1.1338  3.7270
12913SOL    HW240181   5.861   1.772   6.020  0.1807  2.3115  1.4941
12914SOL     OW40182   2.217   0.573   7.399 -0.1069  0.7727 -0.2543
12914SOL    HW140183   2.162   0.495   7.395 -0.8509  1.3356 -1.7629
12914SOL    HW240184   2.267   0.572   7.317  0.2704  1.6116 -0.0495
12915SOL     OW40185   5.003   1.299   7.886  0.4473  0.1623  0.0408
12915SOL    HW140186   4.950   1.367   7.928  0.0844 -0.8147  1.2388
12915SOL    HW240187   4.946   1.264   7.817 -0.5052 -0.8123  1.2554
12916SOL     OW40188   4.077   0.853   4.724 -0.1024  0.1776  0.1690
12916SOL    HW140189   4.115   0.788   4.665 -2.7884 -0.7779 -0.6502
12916SOL    HW240190   4.089   0.817   4.811  0.3528 -0.3458 -0.1012
12917SOL     OW40191   4.536   1.321   5.467 -0.3337 -0.6819 -0.1624
12917SOL    HW140192   4.594   1.392   5.441 -2.3071  1.0735 -0.0915
12917SOL    HW240193   4.585   1.272   5.533  1.0967  0.5905 -0.2239
12918SOL     OW40194   4.680   1.480   4.586 -0.0115  0.4000  0.4014
12918SOL    HW140195   4.623   1.403   4.593  2.0406 -1.0734  2.1480
12918SOL    HW240196   4.631   1.550   4.630 -1.2060 -0.3149  0.2653
12919SOL     OW40197   3.725   7.991   5.470 -0.5333 -0.2748 -0.1991
12919SOL    HW140198   3.698   8.074   5.431  0.2324 -0.2083 -0.6218
12919SOL    HW240199   3.729   8.009   5.564  1.7512  0.8499 -0.4429
12920SOL     OW40200   3.878   7.916   6.735  0.3559  0.1673 -0.1445
12920SOL    HW140201   3.956   7.968   6.715  0.2720  0.2895 -0.1521
12920SOL    HW240202   3.912   7.839   6.780  0.4945  0.1537 -0.2708
12921SOL     OW40203   4.492   2.578   6.000  0.0696 -0.0144  1.1085
12921SOL    HW140204   4.447   2.662   5.991  2.9951  1.5121 -1.5545
12921SOL    HW240205   4.429   2.513   5.969 -1.3923  1.5133  0.7366
12922SOL     OW40206   5.993   0.211   5.432  0.1027 -0.2990 -0.3975
12922SOL    HW140207   6.062   0.247   5.489 -0.3749  0.0851 -0.0574
12922SOL    HW240208   6.002   0.116   5.441  0.6892 -0.2601 -0.4809
12923SOL     OW40209   3.586   2.831   6.600  0.6114 -0.5969  0.0519
12923SOL    HW140210   3.671   2.839   6.556 -0.2505  0.9009 -1.4669
12923SOL    HW240211   3.608   2.819   6.693  2.4664 -1.9588 -0.5083
12924SOL     OW40212   4.215   1.260   6.664 -0.2454  0.6056  0.2584
12924SOL    HW140213   4.301   1.284   6.633 -0.0541 -0.3829 -0.0077
12924SOL    HW240214   4.182   1.338   6.709  1.6287  0.3674  2.1987
12925SOL     OW40215   5.485   1.689   5.288  0.2011 -0.0095 -0.3691
12925SOL    HW140216   5.461   1.626   5.356  0.6999  0.3477  0.1504
12925SOL    HW240217   5.419   1.758   5.294  0.4732  0.2236  0.0393
12926SOL     OW40218   2.406   0.493   6.487  0.1904 -0.3547  0.1267
12926SOL    HW140219   2.372   0.423   6.541  1.5591 -1.9281 -0.9462
12926SOL    HW240220   2.491   0.515   6.526 -0.5584  1.3024  0.9203
12927SOL     OW40221   5.419   0.419   9.551 -0.0008  0.0114 -0.1685
12927SOL    HW140222   5.501   0.413   9.600 -0.0801  0.6941  0.0647
12927SOL    HW240223   5.438   0.485   9.483  0.0702 -0.8265 -0.9829
12928SOL     OW40224   3.349   0.819   6.844 -0.0640  0.2446 -0.6739
12928SOL    HW140225   3.397   0.750   6.798 -0.6007 -0.8621  0.3567
12928SOL    HW240226   3.409   0.848   6.912  0.0861  0.6749 -0.9832
12929SOL     OW40227   3.190   0.784   6.216  0.6213 -0.5137  0.9183
12929SOL    HW140228   3.263   0.734   6.180  0.4280 -0.9814  1.1646
12929SOL    HW240229   3.225   0.872   6.227  0.1003  0.1920 -2.2996
12930SOL     OW40230   4.764   6.608   7.657 -0.4620  0.0617 -0.0554
12930SOL    HW140231   4.719   6.599   7.573 -0.6695  0.3371  0.0274
12930SOL    HW240232   4.848   6.649   7.635 -0.8797  0.9392 -0.0177
12931SOL     OW40233   3.102   0.905   5.853  0.1331 -0.2057 -0.3851
12931SOL    HW140234   3.041   0.875   5.920  0.6342  0.6761  0.4991
12931SOL    HW240235   3.054   0.897   5.771 -1.4577  1.1911  0.3551
12932SOL     OW40236   4.559   6.819   7.740 -0.0189  0.2105  0.2488
12932SOL    HW140237   4.597   6.733   7.722  2.6449  0.7672  2.4631
12932SOL    HW240238   4.604   6.878   7.681 -2.0043  0.1613 -1.4257
12933SOL     OW40239   4.056   0.512   5.937 -0.4545  0.7274  0.5487
12933SOL    HW140240   4.127   0.506   5.872 -0.2109 -0.3253  0.8823
12933SOL    HW240241   4.072   0.439   5.996 -1.2318  1.1025  1.2421
12934SOL     OW40242   4.584   0.651   4.331 -0.2101 -0.1922 -0.3198
12934SOL    HW140243   4.568   0.602   4.412 -1.8041 -1.3693 -1.2824
12934SOL    HW240244   4.526   0.727   4.337  0.8661  0.5983  0.3335
12935SOL     OW40245   2.848   1.100   7.472  0.0546  0.4212 -0.4480
12935SOL    HW140246   2.889   1.182   7.499 -0.0420  0.2212  0.3149
12935SOL    HW240247   2.886   1.034   7.530 -1.3606  0.2342  0.2908
12936SOL     OW40248   3.509   0.692   5.404 -0.1947  0.3087 -0.2168
12936SOL    HW140249   3.576   0.749   5.366  1.5850  1.0334  3.5809
12936SOL    HW240250   3.544   0.604   5.394  1.1084  0.6280  1.1211
12937SOL     OW40251   6.613   7.913   6.173  0.2955 -0.7687 -0.1414
12937SOL    HW140252   6.528   7.941   6.208  0.2656 -1.2539  0.1854
12937SOL    HW240253   6.599   7.822   6.146  1.2294 -1.5385  1.7914
12938SOL     OW40254   7.460   2.227   5.935 -0.2489  0.1531 -0.0732
12938SOL    HW140255   7.444   2.296   5.870 -0.0712  0.9938  0.7418
12938SOL    HW240256   7.471   2.147   5.884 -0.8409  0.6639 -1.0231
12939SOL     OW40257   4.657   1.556   5.433 -0.4955 -0.2806  0.0902
12939SOL    HW140258   4.606   1.601   5.365  0.3687  1.0127  0.2681
12939SOL    HW240259   4.631   1.600   5.514 -1.1978 -1.5295  0.5706
12940SOL     OW40260   3.434   7.956   5.333 -0.4410  0.1717  0.4281
12940SOL    HW140261   3.469   7.881   5.381 -0.2291  0.3926  0.6203
12940SOL    HW240262   3.389   8.007   5.400 -1.6449 -0.4051  0.0935
12941SOL     OW40263   3.307   1.319   5.279  0.2802  0.4850 -1.1650
12941SOL    HW140264   3.392   1.324   5.323  0.4055 -2.3429 -0.8988
12941SOL    HW240265   3.249   1.373   5.332  1.5330  1.1455 -0.4172
12942SOL     OW40266   4.687   6.311   7.236  0.0594 -0.1197 -0.2660
12942SOL    HW140267   4.775   6.299   7.201 -0.6413  0.7739 -2.4812
12942SOL    HW240268   4.655   6.222   7.254  0.7850 -0.5539 -1.0884
12943SOL     OW40269   3.781   1.393   5.595 -0.0717  0.3459 -0.0696
12943SOL    HW140270   3.790   1.477   5.550  0.4805  1.4877  2.0664
12943SOL    HW240271   3.870   1.368   5.618 -0.1833 -1.1020 -1.1007
12944SOL     OW40272   3.982   2.409   7.674  0.4751  0.9944 -0.2300
12944SOL    HW140273   4.009   2.492   7.634  0.9066  1.7195  1.4741
12944SOL    HW240274   4.052   2.389   7.736  0.1212 -0.4025 -0.2559
12945SOL     OW40275   3.230   1.573   5.135  0.3374 -0.2782  0.7048
12945SOL    HW140276   3.139   1.552   5.112  0.1883 -0.2503  1.2610
12945SOL    HW240277   3.259   1.499   5.188  0.4240  0.0268  1.0845
12946SOL     OW40278   3.773   2.367   6.739 -0.2677  0.4660  0.5329
12946SOL    HW140279   3.805   2.393   6.825 -1.6740  1.6538  0.7516
12946SOL    HW240280   3.734   2.281   6.753  2.4120 -0.8828  0.3104
12947SOL     OW40281   4.550   2.770   5.650 -0.1536  0.0975 -0.0150
12947SOL    HW140282   4.476   2.710   5.661  0.0874 -0.3028 -0.5559
12947SOL    HW240283   4.511   2.850   5.614 -0.9648  1.4195  3.4120
12948SOL     OW40284   4.631   1.658   6.676  0.2848 -0.1231 -0.2136
12948SOL    HW140285   4.617   1.752   6.664 -0.8836 -0.3836 -1.1841
12948SOL    HW240286   4.545   1.625   6.703  0.5643 -0.9706 -0.3500
12949SOL     OW40287   5.672   1.804   6.052  0.0272  0.5124  0.0706
12949SOL    HW140288   5.579   1.794   6.075 -0.2656  0.2263 -1.2004
12949SOL    HW240289   5.679   1.894   6.022 -0.4751 -0.2285 -2.5084
12950SOL     OW40290   4.719   6.925   7.522 -0.2006  0.4063 -0.1386
12950SOL    HW140291   4.722   7.020   7.538 -2.5514  0.3816  0.8276
12950SOL    HW240292   4.794   6.891   7.570 -0.2639  1.6377  0.9062
12951SOL     OW40293   5.301   1.504   6.341  0.1500 -0.9446 -0.6589
12951SOL    HW140294   5.220   1.502   6.392 -0.5466 -0.2483 -1.6761
12951SOL    HW240295   5.342   1.587   6.365  0.8183 -1.5143  0.2096
12952SOL     OW40296   4.060   1.748   6.746  0.4180  0.4460  0.0342
12952SOL    HW140297   3.966   1.747   6.726  0.3721 -1.0578  0.1961
12952SOL    HW240298   4.090   1.659   6.727  2.0988  1.2260 -1.2101
12953SOL     OW40299   4.418   0.441   5.067  0.1514 -0.2590 -0.5752
12953SOL    HW140300   4.426   0.531   5.036  0.1140 -0.6986 -1.9174
12953SOL    HW240301   4.461   0.389   5.000  1.2753 -1.1627  0.7849
12954SOL     OW40302   7.936   1.919   5.774  0.8062  0.3878 -0.2794
12954SOL    HW140303   7.896   1.832   5.769 -1.2952  1.2979 -0.6498
12954SOL    HW240304   7.968   1.926   5.864  0.7525 -0.6697 -0.1649
12955SOL     OW40305   2.547   1.859   7.779 -0.0860 -0.0694  0.3035
12955SOL    HW140306   2.581   1.880   7.866 -0.4846 -0.7755  0.6413
12955SOL    HW240307   2.621   1.822   7.733  0.3764  1.1621  0.0152
12956SOL     OW40308   4.199   0.486   6.399 -0.5055  0.1027 -0.3753
12956SOL    HW140309   4.133   0.418   6.412  0.1598 -0.8876 -2.0223
12956SOL    HW240310   4.154   0.552   6.346  0.4980 -1.8367 -3.9244
12957SOL     OW40311   5.168   0.190   4.723  0.1185  0.1443 -0.0335
12957SOL    HW140312   5.118   0.272   4.723  0.0754  0.1337  0.9528
12957SOL    HW240313   5.137   0.142   4.646 -0.0084  0.9603 -0.4947
12958SOL     OW40314   5.199   1.416   5.537  0.0240 -0.2208 -0.1435
12958SOL    HW140315   5.162   1.329   5.551  0.7828 -0.5937 -0.4280
12958SOL    HW240316   5.127   1.476   5.556 -0.9043 -0.9519 -1.2012
12959SOL     OW40317   4.550   1.256   5.790  0.1131 -0.3488  0.3361
12959SOL    HW140318   4.623   1.210   5.748 -0.5674 -1.0271 -0.1230
12959SOL    HW240319   4.523   1.198   5.861 -0.2590 -0.3103  0.2295
12960SOL     OW40320   7.062   7.062   7.154  0.3297 -0.3787  0.7449
12960SOL    HW140321   7.090   7.104   7.235  0.4565 -0.7919  0.9163
12960SOL    HW240322   6.976   7.025   7.174 -0.7914  1.6169 -0.0232
12961SOL     OW40323   3.805   2.590   4.495 -0.2608 -0.3956  0.1014
12961SOL    HW140324   3.894   2.621   4.480  0.1934 -1.1444  1.1246
12961SOL    HW240325   3.759   2.667   4.528  0.3860 -0.3442  0.9205
12962SOL     OW40326   3.012   0.352   5.928 -0.4415 -0.2444 -0.6480
12962SOL    HW140327   2.921   0.342   5.902  0.0025  0.5520 -2.6963
12962SOL    HW240328   3.047   0.420   5.869  1.5501 -0.7597 -0.1452
12963SOL     OW40329   5.121   0.789   7.277 -0.4234 -0.6420 -0.2812
12963SOL    HW140330   5.041   0.767   7.229 -0.5186 -0.7861 -0.0561
12963SOL    HW240331   5.146   0.876   7.243 -2.1748  0.6748  1.5618
12964SOL     OW40332   3.348   0.388   5.421  0.2632 -0.1033 -0.1027
12964SOL    HW140333   3.376   0.370   5.511  0.7682 -0.7238 -0.3740
12964SOL    HW240334   3.380   0.313   5.371 -1.8745 -0.8383 -0.4516
12965SOL     OW40335   4.871   7.768   6.533  0.2784  0.3478 -0.1985
12965SOL    HW140336   4.810   7.706   6.572 -0.0845 -0.2007 -1.5580
12965SOL    HW240337   4.940   7.778   6.598 -0.5977 -0.0369  0.8177
12966SOL     OW40338   2.618   1.049   6.600 -0.0138  0.1188 -0.5500
12966SOL    HW140339   2.559   1.010   6.664  0.0014 -2.2426 -1.8594
12966SOL    HW240340   2.619   1.142   6.622 -1.4269 -0.3175  1.6935
12967SOL     OW40341   6.047   3.075   5.286 -0.1431  0.6669  0.3570
12967SOL    HW140342   6.060   2.989   5.246  1.5446 -0.3843  2.8734
12967SOL    HW240343   5.995   3.056   5.365  0.0033  1.9921  0.7961
12968SOL     OW40344   4.452   0.841   5.487  0.1458  0.3788 -0.0443
12968SOL    HW140345   4.405   0.789   5.421  0.2959  0.0417  0.1143
12968SOL    HW240346   4.544   0.828   5.467  0.3903 -2.4112  2.1741
12969SOL     OW40347   4.523   0.391   5.824  0.0849  0.1209  0.1025
12969SOL    HW140348   4.467   0.345   5.762  3.3121  0.4097 -3.3924
12969SOL    HW240349   4.559   0.323   5.880  1.0813 -1.0592 -1.8519
12970SOL     OW40350   3.571   0.653   7.305  0.2503  0.1869 -0.1241
12970SOL    HW140351   3.494   0.710   7.306  0.0692 -0.0500 -0.1691
12970SOL    HW240352   3.642   0.708   7.273  0.3272  0.6903  0.8579
12971SOL     OW40353   5.941   1.940   8.312 -0.1880 -0.3817 -0.0017
12971SOL    HW140354   5.918   2.025   8.274 -1.8533 -0.6431  0.3751
12971SOL    HW240355   5.904   1.942   8.401  0.8053 -1.0470  0.4462
12972SOL     OW40356   2.989   1.087   6.441 -0.4696 -0.1566  0.5206
12972SOL    HW140357   2.921   1.141   6.482  1.7596  2.2820  1.3811
12972SOL    HW240358   3.016   1.138   6.364 -1.1359 -2.2315 -1.1742
12973SOL     OW40359   7.932   2.286   7.411 -0.0314  0.1545 -0.5831
12973SOL    HW140360   7.862   2.351   7.405  1.1720  1.6235  0.5736
12973SOL    HW240361   7.903   2.225   7.479  0.6059  1.8383  1.2630
12974SOL     OW40362   6.597   0.817   6.942  0.5774  0.1845 -0.5957
12974SOL    HW140363   6.674   0.770   6.909  2.4509  2.5350  0.1382
12974SOL    HW240364   6.614   0.909   6.921 -0.6079  1.1553  2.1997
12975SOL     OW40365   4.728   7.941   7.326 -0.7128 -0.2340 -0.3328
12975SOL    HW140366   4.682   7.919   7.245 -0.3746  2.0930 -1.2285
12975SOL    HW240367   4.658   7.948   7.391 -1.1223 -0.9715 -0.6826
12976SOL     OW40368   6.069   0.775   7.085  0.1424  0.0883  0.0221
12976SOL    HW140369   6.105   0.863   7.098 -0.0105 -0.2068  3.3231
12976SOL    HW240370   5.981   0.790   7.051  0.2174  1.2373  0.2947
12977SOL     OW40371   4.947   7.908   5.578  0.3420 -0.0348  0.0642
12977SOL    HW140372   4.954   7.865   5.663 -1.0405 -0.8128 -0.1763
12977SOL    HW240373   4.884   7.854   5.529 -0.0076  1.2139 -0.9225
12978SOL     OW40374   3.783   1.936   4.897 -0.3545 -0.0005 -0.3378
12978SOL    HW140375   3.698   1.900   4.868 -0.9216  0.7436  0.3567
12978SOL    HW240376   3.774   2.030   4.882 -0.1308  0.2321  0.9259
12979SOL     OW40377   4.095   1.556   6.017 -0.2634 -0.8250 -0.0926
12979SOL    HW140378   4.165   1.508   5.973  0.9858  0.0916  0.8014
12979SOL    HW240379   4.073   1.627   5.957  1.7670  0.7069  0.8424
12980SOL     OW40380   3.020   1.193   5.372 -0.0966  0.0198 -0.3142
12980SOL    HW140381   2.954   1.173   5.438  0.4304 -0.6687  0.0171
12980SOL    HW240382   3.041   1.285   5.387  0.0869 -0.1581  0.5479
12981SOL     OW40383   3.545   0.907   6.559 -0.1467 -0.1606 -0.0677
12981SOL    HW140384   3.494   0.847   6.614 -3.4839  1.8751 -0.6112
12981SOL    HW240385   3.485   0.930   6.488  1.3717  2.8053 -0.5458
12982SOL     OW40386   5.444   2.363   7.195 -0.4709 -0.3387  0.3084
12982SOL    HW140387   5.381   2.408   7.251  0.1947 -0.5226  1.2297
12982SOL    HW240388   5.402   2.361   7.109 -1.1586  0.6892  0.5981
12983SOL     OW40389   2.669   2.557   5.943  0.1326  0.0379 -0.0008
12983SOL    HW140390   2.632   2.621   6.004 -0.3431  0.1533 -0.4004
12983SOL    HW240391   2.637   2.584   5.857 -3.0975 -2.6421  0.1013
12984SOL     OW40392   3.963   0.497   5.146  0.0375  0.6341 -0.0422
12984SOL    HW140393   4.009   0.517   5.227 -2.8782  1.8122  1.4730
12984SOL    HW240394   3.946   0.403   5.150  2.3816  0.1304 -0.7564
12985SOL     OW40395   4.405   0.642   6.077  0.3569  0.3922  0.0878
12985SOL    HW140396   4.430   0.592   6.154  1.0412  0.2323 -0.2244
12985SOL    HW240397   4.347   0.710   6.110  1.2813  0.8272  0.8778
12986SOL     OW40398   5.380   1.952   7.010  0.2579  0.0374  0.1239
12986SOL    HW140399   5.462   1.951   6.960 -0.4781 -0.3164 -1.0931
12986SOL    HW240400   5.335   2.031   6.980 -0.2640 -0.2635  0.1178
12987SOL     OW40401   2.756   0.277   5.894  0.6653 -0.8018 -0.2187
12987SOL    HW140402   2.691   0.339   5.926  1.1317 -1.7432  2.7880
12987SOL    HW240403   2.760   0.294   5.799 -2.6060  0.4739 -0.2508
12988SOL     OW40404   2.391   2.433   6.666 -0.2888 -0.5238 -0.3415
12988SOL    HW140405   2.409   2.358   6.723  0.8170 -0.2899 -0.3644
12988SOL    HW240406   2.400   2.509   6.723  2.4885 -0.1701 -1.1186
12989SOL     OW40407   4.108   1.031   6.002 -0.3241  0.1820  0.2443
12989SOL    HW140408   4.098   1.116   5.960  0.2834  0.2326  0.1998
12989SOL    HW240409   4.144   0.975   5.934  0.4257  0.2006  0.6209
12990SOL     OW40410   3.369   2.514   5.553  0.5809 -0.1245  0.3388
12990SOL    HW140411   3.443   2.567   5.582 -0.4398  1.6359 -0.1453
12990SOL    HW240412   3.303   2.577   5.527 -0.6424 -1.6563 -0.4343
12991SOL     OW40413   6.286   0.402   7.531 -0.6160 -0.4273  0.0505
12991SOL    HW140414   6.209   0.412   7.475 -1.1261 -2.3568  0.3358
12991SOL    HW240415   6.260   0.441   7.615 -1.0140 -0.4147 -0.0794
12992SOL     OW40416   3.109   2.656   7.382 -0.0037  0.0786 -0.2265
12992SOL    HW140417   3.169   2.730   7.390  2.0714 -1.5403 -0.0713
12992SOL    HW240418   3.046   2.668   7.453  1.8111  0.3942  1.3963
12993SOL     OW40419   2.653   0.828   5.487 -0.1803  0.4384  0.5191
12993SOL    HW140420   2.639   0.918   5.458 -0.6076 -0.1325 -1.1385
12993SOL    HW240421   2.723   0.794   5.431 -1.9904 -1.1418 -0.9160
12994SOL     OW40422   3.472   1.849   6.997 -0.6996  0.2818 -0.3329
12994SOL    HW140423   3.544   1.878   6.941 -0.8516  0.9327 -0.1907
12994SOL    HW240424   3.514   1.826   7.080 -0.3159 -1.7042 -1.0099
12995SOL     OW40425   5.381   1.063   7.954  0.1908 -0.0709  0.5243
12995SOL    HW140426   5.421   0.999   7.896 -0.2983 -1.8359  2.0227
12995SOL    HW240427   5.454   1.096   8.007  0.5202  1.0163 -0.5609
12996SOL     OW40428   7.087   7.729   7.084  0.1000 -0.1285  0.0067
12996SOL    HW140429   7.123   7.718   7.172 -1.9771  2.0212  1.2193
12996SOL    HW240430   7.036   7.649   7.069  0.0301 -0.2834  1.0088
12997SOL     OW40431   4.675   6.266   6.174  0.7423  0.0789  0.0940
12997SOL    HW140432   4.649   6.174   6.181 -1.6188  0.8158  2.2828
12997SOL    HW240433   4.639   6.294   6.089 -1.1121 -0.3143  0.7108
12998SOL     OW40434   2.650   3.119   4.219  0.3140 -0.5325  0.3357
12998SOL    HW140435   2.715   3.176   4.261 -0.8558 -0.8369  2.7684
12998SOL    HW240436   2.640   3.046   4.280 -2.0235 -0.6718 -0.1221
12999SOL     OW40437   4.100   2.008   5.756 -0.6341 -0.2563  0.2079
12999SOL    HW140438   4.020   2.049   5.724 -1.1976 -1.4176  0.0514
12999SOL    HW240439   4.170   2.056   5.714 -1.2755  0.3479 -0.1965
13000SOL     OW40440   6.457   2.801   8.456  0.3534 -0.2137  0.1925
13000SOL    HW140441   6.387   2.738   8.435  0.6343  0.2144 -2.4224
13000SOL    HW240442   6.413   2.869   8.507 -0.1218 -2.0540  2.3942
13001SOL     OW40443   4.879   1.796  10.259  0.5711  0.4440  0.6384
13001SOL    HW140444   4.809   1.767  10.317  1.9721 -1.1091  1.6422
13001SOL    HW240445   4.894   1.722  10.200  1.5639  0.6155  0.6553
13002SOL     OW40446   0.505   1.636   6.013  0.1734  0.1433  0.0511
13002SOL    HW140447   0.416   1.634   5.980  0.1279  0.1731  0.1696
13002SOL    HW240448   0.560   1.645   5.935  0.0643  0.2853 -0.0090
13003SOL     OW40449   6.386   2.337   8.094  0.1063  0.1199 -0.1758
13003SOL    HW140450   6.387   2.268   8.028  2.3281 -1.1369  1.0345
13003SOL    HW240451   6.425   2.296   8.172 -1.3336  1.8695  1.5862
13004SOL     OW40452   6.163   1.473   8.536  0.5851 -0.0059  0.5952
13004SOL    HW140453   6.129   1.490   8.623 -1.6447 -1.0986  0.0390
13004SOL    HW240454   6.175   1.378   8.533  1.2752  0.0856 -0.0912
13005SOL     OW40455   4.338   0.459   7.461  0.1128 -0.2973 -0.2309
13005SOL    HW140456   4.260   0.507   7.432  0.1081 -1.1328 -1.6787
13005SOL    HW240457   4.306   0.372   7.482  0.7000 -0.7912 -1.2917
13006SOL     OW40458   5.185   1.836   7.676 -0.7613 -0.1972  0.0964
13006SOL    HW140459   5.180   1.810   7.768  0.7653  1.8126  0.8259
13006SOL    HW240460   5.099   1.874   7.657 -0.7039  0.4456  1.0696
13007SOL     OW40461   2.339   0.842   7.850  0.2714  0.0620  0.6084
13007SOL    HW140462   2.315   0.750   7.843 -1.2863  0.4690  0.3801
13007SOL    HW240463   2.348   0.872   7.760 -1.9163  0.7837  0.5862
13008SOL     OW40464   5.138   2.137   9.500  0.4140 -0.4604  0.3902
13008SOL    HW140465   5.210   2.169   9.446  0.6340  1.3902  1.6648
13008SOL    HW240466   5.140   2.193   9.578 -2.4947 -0.2026  0.4064
13009SOL     OW40467   4.774   0.424   7.267 -0.6077  0.8317 -0.8988
13009SOL    HW140468   4.840   0.481   7.230  0.1851 -0.0166 -0.8235
13009SOL    HW240469   4.803   0.335   7.246 -0.1328  0.3008  1.6615
13010SOL     OW40470   5.691   3.819   9.142 -0.0385 -0.1846  0.4309
13010SOL    HW140471   5.685   3.910   9.170  0.5231  0.1037 -0.3442
13010SOL    HW240472   5.715   3.824   9.050  0.3106 -1.1222  0.4627
13011SOL     OW40473   5.408   0.457   8.362  0.5009  0.2019  0.5728
13011SOL    HW140474   5.452   0.393   8.418 -0.6547 -0.5312  0.6695
13011SOL    HW240475   5.329   0.412   8.332 -0.6769  1.8214  1.1758
13012SOL     OW40476   5.319   1.074   8.753 -0.1243 -0.1352 -0.0650
13012SOL    HW140477   5.331   1.013   8.826  0.7004 -0.6146 -0.5818
13012SOL    HW240478   5.317   1.018   8.675 -2.5727  0.2034 -0.3295
13013SOL     OW40479   3.551   1.886   8.601  0.4629 -0.0366 -0.0697
13013SOL    HW140480   3.525   1.973   8.572  0.1121  0.2005  0.9149
13013SOL    HW240481   3.544   1.889   8.696 -1.1604 -1.6289 -0.0648
13014SOL     OW40482   4.881   0.814   9.907 -0.4692 -0.2124 -0.0196
13014SOL    HW140483   4.931   0.798   9.827 -3.5977  0.3684 -2.2966
13014SOL    HW240484   4.947   0.825   9.975  2.4393  0.3687 -2.6941
13015SOL     OW40485   3.537   2.115   6.818  0.0695  1.3065 -0.1300
13015SOL    HW140486   3.461   2.148   6.770 -0.0679 -0.7938 -1.4819
13015SOL    HW240487   3.517   2.133   6.910 -2.1497  0.6975 -0.4280
13016SOL     OW40488   5.236   1.509  10.012 -0.1739  0.0833  0.6534
13016SOL    HW140489   5.212   1.595   9.978  2.7421  0.8418  0.2624
13016SOL    HW240490   5.201   1.447   9.948  0.8600  1.2233 -1.1025
13017SOL     OW40491   3.194   2.192   6.772  0.2014  0.9211 -0.3512
13017SOL    HW140492   3.172   2.234   6.855  0.5185  1.2947 -0.4466
13017SOL    HW240493   3.212   2.101   6.794 -2.9079  0.1683 -0.4891
13018SOL     OW40494   5.646   0.818   9.460  0.5506 -0.3396 -0.2819
13018SOL    HW140495   5.738   0.844   9.465  0.2751  0.4526  1.2538
13018SOL    HW240496   5.617   0.815   9.551 -1.1968  0.3031 -0.7744
13019SOL     OW40497   4.096   0.727   7.613 -0.9140  0.9133 -0.0482
13019SOL    HW140498   4.088   0.697   7.704  0.4246 -0.5136 -0.3710
13019SOL    HW240499   4.058   0.815   7.614 -2.5899  0.2239  1.4886
13020SOL     OW40500   3.554   1.610   7.210 -0.3265  0.2038  0.4498
13020SOL    HW140501   3.612   1.677   7.245 -1.2794  1.9171 -1.0678
13020SOL    HW240502   3.600   1.574   7.135 -1.1706  1.5660 -0.7568
13021SOL     OW40503   3.733   7.177   9.822  0.2498  0.6240 -0.1237
13021SOL    HW140504   3.676   7.204   9.750 -0.8025 -1.7807 -0.3011
13021SOL    HW240505   3.787   7.107   9.786  0.4207  0.0729  1.1273
13022SOL     OW40506   4.386   0.876   7.528  0.5885  0.1905  0.8827
13022SOL    HW140507   4.369   0.832   7.611 -2.3229 -0.5707 -0.0040
13022SOL    HW240508   4.354   0.965   7.541  0.1881  0.0889  0.6143
13023SOL     OW40509   4.867   3.093   5.679 -0.3965  0.0538  0.1056
13023SOL    HW140510   4.893   3.184   5.691  2.0557 -0.7203  1.1810
13023SOL    HW240511   4.803   3.077   5.748 -1.4582  1.1208 -0.5787
13024SOL     OW40512   1.887   2.721  10.028  0.5682  0.3829  0.4113
13024SOL    HW140513   1.952   2.653  10.042  0.5665  0.1697 -0.5209
13024SOL    HW240514   1.821   2.707  10.097  0.5365 -0.5977  0.1930
13025SOL     OW40515   5.936   0.742   7.694 -0.0840  0.1351 -0.3859
13025SOL    HW140516   5.986   0.805   7.642  2.8519 -1.3683  0.4126
13025SOL    HW240517   5.927   0.666   7.637  1.5309 -0.8293  0.5828
13026SOL     OW40518   6.104   0.209   9.580 -0.4870 -0.6103 -0.0720
13026SOL    HW140519   6.124   0.116   9.584  1.1832 -0.2401  1.8941
13026SOL    HW240520   6.189   0.253   9.575 -1.2260  0.8293 -0.6958
13027SOL     OW40521   3.507   2.189   8.783  0.3292 -0.0897  0.3278
13027SOL    HW140522   3.563   2.193   8.861 -0.0204 -0.3873  0.5956
13027SOL    HW240523   3.426   2.233   8.809  0.3254  0.0827  0.0323
13028SOL     OW40524   4.645   1.259   7.447 -0.1283  0.3363 -0.3162
13028SOL    HW140525   4.738   1.282   7.437  0.0403  0.8171  1.8109
13028SOL    HW240526   4.646   1.166   7.469 -0.1984  0.2048 -0.8648
13029SOL     OW40527   5.728   0.981   9.017  0.2804 -0.2559  0.3178
13029SOL    HW140528   5.678   0.901   9.001  0.3441 -0.5498  1.5189
13029SOL    HW240529   5.666   1.052   8.998 -1.2395 -0.5962  3.3831
13030SOL     OW40530   4.012   0.860   5.453  0.2800 -0.5533  0.3289
13030SOL    HW140531   3.958   0.839   5.529  1.8709 -2.2179  1.0736
13030SOL    HW240532   4.043   0.775   5.421  2.3978  0.3059 -0.0841
13031SOL     OW40533   3.465   1.625  10.001  0.2652  0.2516  0.0361
13031SOL    HW140534   3.384   1.625   9.950  0.4079 -0.2241 -0.1995
13031SOL    HW240535   3.512   1.704   9.973  1.3910 -1.1144 -2.2827
13032SOL     OW40536   3.364   1.362   7.229  0.0651  0.1526  0.2894
13032SOL    HW140537   3.347   1.402   7.314  1.5728  0.0042  0.6999
13032SOL    HW240538   3.418   1.426   7.183 -2.6279  1.2867 -1.5456
13033SOL     OW40539   5.438   1.928   9.406 -0.2658  0.7077  0.2715
13033SOL    HW140540   5.415   1.914   9.498  1.8392  2.7073  1.1883
13033SOL    HW240541   5.526   1.891   9.396  0.2585  2.0474 -0.4351
13034SOL     OW40542   4.431   1.053   8.945 -0.2646 -0.2216 -0.6012
13034SOL    HW140543   4.500   1.103   8.901 -0.3791  1.6737  1.1733
13034SOL    HW240544   4.362   1.045   8.880  0.7788 -0.2855 -1.7419
13035SOL     OW40545   2.258   1.128   6.832 -0.2168  0.2009 -0.1155
13035SOL    HW140546   2.264   1.079   6.750 -0.0946 -0.5904  0.3591
13035SOL    HW240547   2.347   1.132   6.865 -0.3488 -0.0348  0.2865
13036SOL     OW40548   6.315   1.978   7.240 -0.4608 -0.1371 -0.0193
13036SOL    HW140549   6.336   2.037   7.313 -0.6576 -1.3408  1.0438
13036SOL    HW240550   6.387   1.990   7.179  0.0611  0.4209  0.6796
13037SOL     OW40551   2.987   0.716   6.488  0.2336  0.3132 -0.4047
13037SOL    HW140552   2.981   0.744   6.397 -2.5356 -1.4865 -0.8751
13037SOL    HW240553   2.908   0.751   6.530 -0.9970 -2.7312  0.0692
13038SOL     OW40554   6.496   1.322   7.394  0.5885 -0.2279  0.2585
13038SOL    HW140555   6.403   1.341   7.380  0.3506 -1.9286 -0.6525
13038SOL    HW240556   6.523   1.273   7.317  1.7752 -1.3583  1.3461
13039SOL     OW40557   6.332   1.858   6.651  0.0435 -0.5677  0.0961
13039SOL    HW140558   6.380   1.778   6.628  0.2442  0.0071 -1.5856
13039SOL    HW240559   6.390   1.902   6.714  0.8015 -0.8610 -0.3728
13040SOL     OW40560   5.337   0.344  10.220 -0.5945 -0.6324 -0.6748
13040SOL    HW140561   5.248   0.366  10.247 -0.5197 -0.0558 -0.8742
13040SOL    HW240562   5.344   0.379  10.131  0.1193  0.1489 -0.3330
13041SOL     OW40563   5.460   2.982   8.939 -0.3747 -0.3560  0.5855
13041SOL    HW140564   5.372   2.993   8.902 -0.8682 -3.0820  0.7480
13041SOL    HW240565   5.518   2.988   8.863 -0.6925  1.2104  0.4406
13042SOL     OW40566   5.245   1.847   8.149  0.5971 -0.6326 -0.0334
13042SOL    HW140567   5.329   1.846   8.195 -0.1683  1.1775  1.5538
13042SOL    HW240568   5.219   1.939   8.150 -0.9324 -1.0037 -1.4386
13043SOL     OW40569   4.094   0.551   8.862  0.3901  0.0555  0.2070
13043SOL    HW140570   4.039   0.572   8.786  0.1679 -1.5398 -0.1014
13043SOL    HW240571   4.136   0.635   8.884 -0.6669  0.8777 -0.7486
13044SOL     OW40572   3.619   0.104   6.390  0.3166 -0.1306 -0.1996
13044SOL    HW140573   3.542   0.102   6.446  0.2539 -0.2318 -0.2890
13044SOL    HW240574   3.650   0.195   6.395 -0.0593  0.0164 -0.5041
13045SOL     OW40575   3.104   1.690   7.791  0.9074 -0.2026  0.0698
13045SOL    HW140576   3.125   1.596   7.785 -3.5903 -1.3552 -2.4016
13045SOL    HW240577   3.107   1.720   7.700 -1.8980  0.7893  0.2046
13046SOL     OW40578   2.696   1.405   7.987  0.0536  0.4144  0.0514
13046SOL    HW140579   2.754   1.329   7.982 -0.8624 -0.3503  0.7160
13046SOL    HW240580   2.738   1.470   7.931  1.0610 -0.4402 -0.2293
13047SOL     OW40581   5.363   6.677   7.442 -0.7032  0.2888  0.6638
13047SOL    HW140582   5.439   6.620   7.451  0.2642  1.1801 -1.1892
13047SOL    HW240583   5.396   6.765   7.457 -1.3463  0.6895 -0.1410
13048SOL     OW40584   5.998   0.309   7.595 -0.0182  0.1525  0.0113
13048SOL    HW140585   6.003   0.300   7.500 -0.6413  0.0511 -0.0149
13048SOL    HW240586   5.998   0.219   7.628  2.2248  0.1761  0.2406
13049SOL     OW40587   4.544   2.106   7.887  0.5557 -0.1722 -0.0591
13049SOL    HW140588   4.584   2.043   7.946  0.2670  0.0394  0.3666
13049SOL    HW240589   4.489   2.160   7.943 -0.5378 -0.6186 -0.6708
13050SOL     OW40590   3.865   1.441   7.698  0.2605  0.1053  1.0235
13050SOL    HW140591   3.940   1.410   7.648  0.0746  0.4828  0.4980
13050SOL    HW240592   3.890   1.430   7.789  0.0097 -2.0692  0.8850
13051SOL     OW40593   5.027   1.548   6.464 -0.1473  0.2579  0.4427
13051SOL    HW140594   5.032   1.628   6.412 -0.0034  0.3176  0.5454
13051SOL    HW240595   4.943   1.554   6.509 -0.8576 -0.4116 -0.7637
13052SOL     OW40596   5.716   2.694   8.823  0.2747 -0.3306 -0.1032
13052SOL    HW140597   5.685   2.712   8.912  0.2618 -3.3234  0.5760
13052SOL    HW240598   5.649   2.732   8.767 -1.6182 -1.4876  1.2521
13053SOL     OW40599   6.863   1.103   7.374 -0.2112 -0.2390  0.2208
13053SOL    HW140600   6.931   1.168   7.354  0.5483 -0.7364  1.0949
13053SOL    HW240601   6.870   1.039   7.303 -0.4768  0.2516 -0.2556
13054SOL     OW40602   5.211   1.546   9.375 -0.4395 -0.5015  0.5549
13054SOL    HW140603   5.130   1.595   9.390 -0.3060 -0.4864  1.2544
13054SOL    HW240604   5.233   1.564   9.283 -1.2783 -0.5893  0.3330
13055SOL     OW40605   5.780   1.194   8.114 -0.4522 -0.6328  0.0833
13055SOL    HW140606   5.780   1.102   8.086  0.1435 -0.5019 -0.3524
13055SOL    HW240607   5.763   1.244   8.034  0.1900 -0.3169  0.1385
13056SOL     OW40608   4.538   1.043  10.160  0.5264  0.2205  0.1019
13056SOL    HW140609   4.465   1.059  10.220 -1.5599 -0.4509 -2.1065
13056SOL    HW240610   4.593   0.980  10.206 -0.2171  0.7959  1.8676
13057SOL     OW40611   3.125   1.411   9.640  0.1907 -0.3297 -0.4446
13057SOL    HW140612   3.038   1.451   9.639  0.8316  1.1923 -2.5124
13057SOL    HW240613   3.135   1.374   9.552  1.9312  0.2901 -0.5415
13058SOL     OW40614   4.133   1.900   8.375  0.0712  0.3595  0.1715
13058SOL    HW140615   4.064   1.941   8.428 -0.5746  0.6694 -0.8850
13058SOL    HW240616   4.189   1.972   8.348  0.6139  0.1538  0.7155
13059SOL     OW40617   4.443   7.961   8.768  0.1172 -0.0624  0.0939
13059SOL    HW140618   4.470   7.940   8.679  3.9334  0.0051  1.0539
13059SOL    HW240619   4.446   7.877   8.814 -0.5146  0.1111  0.4637
13060SOL     OW40620   6.912   1.121   6.858 -0.7939 -0.1583 -0.2937
13060SOL    HW140621   6.869   1.144   6.776 -1.3573  0.7384  0.2315
13060SOL    HW240622   7.005   1.136   6.842 -1.0203  1.2840 -0.3820
13061SOL     OW40623   4.363   2.309   8.029  0.0743  0.0761  0.3707
13061SOL    HW140624   4.297   2.319   7.961 -0.0012 -1.9086  0.0850
13061SOL    HW240625   4.318   2.330   8.111 -0.6357 -0.2987  0.0822
13062SOL     OW40626   5.568   0.264   8.496 -0.1382 -0.3586 -0.1801
13062SOL    HW140627   5.572   0.238   8.403  0.5925  2.0853 -0.9091
13062SOL    HW240628   5.646   0.225   8.535  1.3830  1.2586 -1.4261
13063SOL     OW40629   4.384   0.791   9.599 -0.5328  0.1647  0.1920
13063SOL    HW140630   4.347   0.757   9.680 -1.0449  0.8956  0.2752
13063SOL    HW240631   4.388   0.886   9.612 -1.3654  0.3814 -0.9339
13064SOL     OW40632   4.501   0.526   8.373  0.0605  0.1971  0.0375
13064SOL    HW140633   4.498   0.618   8.400 -2.0844 -0.4109  2.2319
13064SOL    HW240634   4.590   0.513   8.341  1.0177  2.5563  1.4996
13065SOL     OW40635   7.432   1.020   7.581 -0.7245  0.4934 -0.0632
13065SOL    HW140636   7.517   1.054   7.609 -0.8617  1.7629 -1.1200
13065SOL    HW240637   7.368   1.080   7.620 -0.9501  1.8203 -2.3455
13066SOL     OW40638   6.196   0.187   7.842  0.7534 -0.2137 -0.0550
13066SOL    HW140639   6.135   0.117   7.869 -0.2006  0.9428  0.9246
13066SOL    HW240640   6.248   0.148   7.772  0.0430 -1.8067  0.2550
13067SOL     OW40641   4.928   7.792   8.285 -0.5015 -0.0784 -0.0078
13067SOL    HW140642   4.875   7.835   8.218  0.2877  1.6424  0.4175
13067SOL    HW240643   4.997   7.747   8.237 -1.4503 -1.1041 -0.4690
13068SOL     OW40644   4.228   0.777   9.832  0.1999 -0.3880 -0.1010
13068SOL    HW140645   4.191   0.858   9.866 -0.2904 -1.3135  1.6765
13068SOL    HW240646   4.166   0.748   9.765  1.2649  1.5512 -2.0642
13069SOL     OW40647   4.138   1.612   8.363  0.2407  0.1238 -0.7859
13069SOL    HW140648   4.209   1.565   8.318  0.0702 -0.3813 -0.5362
13069SOL    HW240649   4.161   1.704   8.353  1.1101 -0.0391 -0.4268
13070SOL     OW40650   5.503   1.188   8.152  0.6590  0.3950  0.3621
13070SOL    HW140651   5.473   1.232   8.232  1.1129  3.5603 -1.0204
13070SOL    HW240652   5.598   1.188   8.158  0.6626 -2.3277  1.1922
13071SOL     OW40653   4.131   2.651   7.023  0.0119  0.1413 -0.0253
13071SOL    HW140654   4.164   2.680   7.107  0.0795  2.0232 -0.6552
13071SOL    HW240655   4.039   2.680   7.022 -0.3578 -0.9601 -0.1322
13072SOL     OW40656   4.951   1.147   8.490 -0.3612 -0.1397 -0.0519
13072SOL    HW140657   5.028   1.110   8.448 -0.8557 -0.9968 -0.2443
13072SOL    HW240658   4.985   1.213   8.550  0.3981  0.6819 -1.3493
13073SOL     OW40659   4.243   6.253   9.081 -0.1829 -0.2647  0.0542
13073SOL    HW140660   4.190   6.310   9.026  0.0093 -0.2228 -0.0901
13073SOL    HW240661   4.192   6.172   9.089 -0.2595 -0.2318 -0.0998
13074SOL     OW40662   3.667   2.512   6.062 -0.4638  0.5828  0.0328
13074SOL    HW140663   3.728   2.521   5.988  1.6238  1.1250  1.7215
13074SOL    HW240664   3.635   2.601   6.077  0.0876  0.7031  0.5360
13075SOL     OW40665   6.942   7.695   7.977  0.5324  0.7693  0.3501
13075SOL    HW140666   6.927   7.751   7.901  0.3618  0.5156  0.1943
13075SOL    HW240667   7.034   7.707   7.998  0.6928  0.4991 -0.1730
13076SOL     OW40668   3.171   0.341   4.891 -0.0126  0.3510 -0.7704
13076SOL    HW140669   3.118   0.291   4.828 -0.5229  0.7277 -0.6450
13076SOL    HW240670   3.261   0.324   4.864 -0.1294 -1.3261 -0.2130
13077SOL     OW40671   3.862   1.980  10.144 -0.0536 -0.1741 -0.3259
13077SOL    HW140672   3.921   2.010  10.214 -0.0759 -0.7777 -0.0401
13077SOL    HW240673   3.779   2.022  10.165  0.3447  0.9474 -0.9179
13078SOL     OW40674   5.263   2.538   7.305  0.0750 -0.2017 -0.1339
13078SOL    HW140675   5.210   2.507   7.378  0.1264 -0.2308 -0.1084
13078SOL    HW240676   5.200   2.553   7.234  0.1879 -1.6824 -0.5867
13079SOL     OW40677   5.365   7.166   8.057 -0.1964  0.1213  0.4484
13079SOL    HW140678   5.314   7.179   8.137  0.4506  0.7463  0.7754
13079SOL    HW240679   5.442   7.117   8.085  1.0073  2.0085  0.6181
13080SOL     OW40680   4.750   2.221   8.378  0.0274 -0.6114 -0.4689
13080SOL    HW140681   4.840   2.242   8.351  0.1780 -1.0547 -0.3085
13080SOL    HW240682   4.700   2.226   8.296  0.4245 -1.6225 -0.7854
13081SOL     OW40683   5.031   6.518   8.455  0.4112  0.3921  0.5236
13081SOL    HW140684   5.101   6.459   8.480 -0.4534 -0.1816  1.6940
13081SOL    HW240685   5.075   6.599   8.431  1.6862 -0.9149 -1.8986
13082SOL     OW40686   4.072   2.216   8.884  0.3552 -0.1046 -0.3557
13082SOL    HW140687   4.067   2.159   8.808 -0.3549 -1.6474  0.7899
13082SOL    HW240688   4.164   2.212   8.911  0.7516  0.9683 -1.4744
13083SOL     OW40689   2.940   0.965   7.850  0.4796 -0.4833  0.5442
13083SOL    HW140690   2.974   0.963   7.761  0.4065 -0.8824  0.5237
13083SOL    HW240691   2.865   0.905   7.848  0.7814 -0.8877  0.9960
13084SOL     OW40692   4.102   0.911   8.043 -0.2392  1.0709  0.2875
13084SOL    HW140693   4.079   0.901   8.136 -0.7741 -0.5742 -0.0115
13084SOL    HW240694   4.060   0.838   7.999  0.3810  1.5795 -1.2078
13085SOL     OW40695   6.723   7.660   7.557 -0.2851 -0.4239  0.1219
13085SOL    HW140696   6.742   7.628   7.469  0.7231  2.2515 -0.7191
13085SOL    HW240697   6.775   7.604   7.615 -0.4804 -1.8244 -1.0051
13086SOL     OW40698   5.180   1.885   9.939 -0.9642  0.1851  0.1629
13086SOL    HW140699   5.190   1.886  10.034  2.4014 -1.0306 -0.0328
13086SOL    HW240700   5.147   1.972   9.917 -1.7565  0.5182  2.4075
13087SOL     OW40701   5.042   0.769   8.582  0.3856 -0.2692 -0.5022
13087SOL    HW140702   5.058   0.738   8.493 -1.3313 -0.6851 -0.6901
13087SOL    HW240703   5.013   0.859   8.572 -0.4964 -0.5354 -0.4395
13088SOL     OW40704   5.027   1.409   9.844  0.0891  0.0703  0.2498
13088SOL    HW140705   4.970   1.373   9.776 -1.7304  1.0961  1.1447
13088SOL    HW240706   5.057   1.492   9.809 -0.6765  0.4986  0.5782
13089SOL     OW40707   3.033   1.206   6.206  0.3857  0.1512  0.2905
13089SOL    HW140708   2.986   1.163   6.134  0.6075 -1.1736  0.9031
13089SOL    HW240709   3.124   1.209   6.177  0.1130  2.0479 -0.5788
13090SOL     OW40710   5.370   0.917   5.968 -0.6994  0.3756  0.4821
13090SOL    HW140711   5.347   0.998   6.012 -0.9267 -0.0613  1.1891
13090SOL    HW240712   5.430   0.873   6.028  0.6589  0.7170 -0.5763
13091SOL     OW40713   5.559   1.657   8.723 -0.4988 -0.2424  0.4948
13091SOL    HW140714   5.514   1.653   8.639 -0.6406 -0.7558  0.5865
13091SOL    HW240715   5.589   1.567   8.738 -0.3452 -0.1244  0.9210
13092SOL     OW40716   4.356   0.487  10.151 -0.1139 -0.0173  0.0602
13092SOL    HW140717   4.427   0.451  10.205 -0.4715  1.3669  1.5281
13092SOL    HW240718   4.401   0.545  10.090  0.1397 -0.1484  0.1195
13093SOL     OW40719   5.798   1.597   7.953  0.2928  0.1724 -0.0212
13093SOL    HW140720   5.803   1.581   8.047 -1.3987  0.3717  0.1410
13093SOL    HW240721   5.764   1.515   7.917 -0.5249  0.5986 -0.2447
13094SOL     OW40722   3.290   1.706   7.185 -0.1442 -0.1824 -0.1902
13094SOL    HW140723   3.304   1.776   7.121 -1.4248  0.1208 -0.1791
13094SOL    HW240724   3.377   1.681   7.214  0.3288  1.8068  0.2132
13095SOL     OW40725   6.251   2.053   9.797 -0.6373 -0.3117 -0.0748
13095SOL    HW140726   6.211   2.011   9.721  0.0349 -1.5135  0.2023
13095SOL    HW240727   6.329   2.095   9.763 -1.4423  0.9720 -0.3967
13096SOL     OW40728   4.729   1.959   8.484  0.2028 -0.4081 -0.7975
13096SOL    HW140729   4.649   1.974   8.533  0.1127 -1.9079 -0.4388
13096SOL    HW240730   4.730   2.029   8.418 -1.6714 -0.6763 -1.1608
13097SOL     OW40731   4.582   0.917  10.550  0.2704 -0.2279 -0.4298
13097SOL    HW140732   4.551   0.861  10.478  1.8132 -0.2012 -1.1561
13097SOL    HW240733   4.505   0.930  10.605 -0.1193 -3.2642 -0.0996
13098SOL     OW40734   6.528   0.089   6.973 -0.0972  1.1432  0.3509
13098SOL    HW140735   6.598   0.075   7.037 -0.5432 -0.5769  0.4902
13098SOL    HW240736   6.551   0.172   6.931  0.2615  2.2696  2.6357
13099SOL     OW40737   5.738   0.685  10.231  0.2594  0.1606 -0.6622
13099SOL    HW140738   5.726   0.678  10.326  1.7641 -1.9704 -0.5628
13099SOL    HW240739   5.649   0.697  10.196 -0.3417  0.7357  0.9774
13100SOL     OW40740   2.576   1.075   8.089 -0.4734  0.9348  0.3471
13100SOL    HW140741   2.604   1.080   8.181  1.5498  0.2179 -0.1611
13100SOL    HW240742   2.641   1.126   8.041 -2.0108  2.0531 -0.6357
13101SOL     OW40743   4.250   2.744   9.814  0.4037  0.4610 -0.2589
13101SOL    HW140744   4.231   2.835   9.791 -0.2117  0.0376 -1.5616
13101SOL    HW240745   4.196   2.726   9.891 -3.5504 -0.2305 -2.9198
13102SOL     OW40746   6.090   0.701   8.896  0.4982 -0.2280  0.3908
13102SOL    HW140747   6.083   0.663   8.809 -0.0611 -0.7761  0.6686
13102SOL    HW240748   6.027   0.773   8.896 -1.2728 -1.6905  1.0787
13103SOL     OW40749   4.273   1.907   9.082  0.2467 -0.0380 -0.1670
13103SOL    HW140750   4.329   1.899   9.005  1.8524  1.7672  0.7494
13103SOL    HW240751   4.306   1.984   9.128 -2.1215  0.2632  1.1635
13104SOL     OW40752   2.828   2.817   8.818 -0.8236 -0.3574  0.3603
13104SOL    HW140753   2.817   2.838   8.911 -0.7676  0.3228  0.2212
13104SOL    HW240754   2.820   2.722   8.814  1.0076 -0.6106  1.3271
13105SOL     OW40755   4.442   0.782   7.783 -0.1322  0.1391 -0.4153
13105SOL    HW140756   4.533   0.802   7.804 -0.0015 -2.4047  2.0680
13105SOL    HW240757   4.394   0.861   7.807  1.1110  0.4356  1.3249
13106SOL     OW40758   6.603   1.252   9.298 -0.3600 -0.0100 -0.0315
13106SOL    HW140759   6.594   1.161   9.269  0.8659  0.2528 -1.3453
13106SOL    HW240760   6.682   1.253   9.352  0.7134  0.5624 -1.5253
13107SOL     OW40761   6.216   1.175   7.589  0.5450  0.7119 -0.3032
13107SOL    HW140762   6.270   1.155   7.513 -0.2270  0.8701 -0.9169
13107SOL    HW240763   6.140   1.222   7.552 -0.3612 -0.1371  0.4251
13108SOL     OW40764   6.275   0.560   9.622 -0.3485  0.5597 -0.4618
13108SOL    HW140765   6.312   0.476   9.596  0.3135  0.5833  0.3610
13108SOL    HW240766   6.203   0.538   9.681  0.4027  0.5713  0.4847
13109SOL     OW40767   2.159   1.984   8.852  0.5904  0.1030  0.6022
13109SOL    HW140768   2.212   2.013   8.777  1.1125  0.1751  0.9944
13109SOL    HW240769   2.121   1.901   8.823 -1.0024  1.1852 -0.5688
13110SOL     OW40770   2.975   2.750   9.235 -0.3361  0.2651  0.1652
13110SOL    HW140771   2.909   2.795   9.183 -0.7080 -0.4572  0.0077
13110SOL    HW240772   2.986   2.665   9.192 -0.0297 -0.0071  0.7682
13111SOL     OW40773   6.602   0.383   9.130 -0.4437 -0.0223  0.0314
13111SOL    HW140774   6.608   0.471   9.168  0.3815 -0.0059 -0.1048
13111SOL    HW240775   6.689   0.368   9.092 -0.3890 -1.1410  0.5717
13112SOL     OW40776   6.371   1.765   8.290 -0.2823  0.1960 -0.4074
13112SOL    HW140777   6.361   1.729   8.378 -0.7410 -0.2517 -0.6431
13112SOL    HW240778   6.282   1.788   8.263 -0.4958 -1.9305 -1.7167
13113SOL     OW40779   5.373   7.153   9.568  0.0104  0.0013 -0.1073
13113SOL    HW140780   5.326   7.123   9.490 -0.3662  0.5345 -0.0881
13113SOL    HW240781   5.307   7.199   9.620 -0.4016 -2.4384  1.7342
13114SOL     OW40782   2.754   0.779   8.164  0.0798 -0.5171 -0.1028
13114SOL    HW140783   2.769   0.808   8.074  0.0839 -0.7793 -0.1900
13114SOL    HW240784   2.823   0.820   8.215  0.4824 -0.9021 -0.3307
13115SOL     OW40785   4.859   2.681   8.396 -0.1126  0.3992  0.2967
13115SOL    HW140786   4.773   2.640   8.404  0.2930 -0.1321  2.5450
13115SOL    HW240787   4.846   2.770   8.428 -0.1299  0.8418 -0.8751
13116SOL     OW40788   5.350   1.504  11.321 -0.0608  0.2409 -0.1039
13116SOL    HW140789   5.296   1.533  11.248 -0.7119 -1.0909 -0.1950
13116SOL    HW240790   5.423   1.565  11.324 -0.3864  0.7136 -1.4362
13117SOL     OW40791   4.998   1.209   9.234 -0.1820 -0.0529  0.5640
13117SOL    HW140792   4.983   1.262   9.312 -1.0998 -1.2767  1.2632
13117SOL    HW240793   4.911   1.176   9.210  0.4832 -2.1522  0.8611
13118SOL     OW40794   3.821   1.754   6.626  1.2073 -0.9568 -0.5762
13118SOL    HW140795   3.749   1.695   6.604 -0.5423  0.8282  0.0141
13118SOL    HW240796   3.832   1.808   6.548 -1.7493  2.1774  0.8557
13119SOL     OW40797   5.607   0.017   9.132 -0.0071 -0.3201 -0.1627
13119SOL    HW140798   5.666   0.049   9.200  1.2616  1.6241 -2.0547
13119SOL    HW240799   5.599  -0.077   9.151 -0.5242  0.2536  3.1738
13120SOL     OW40800   6.968   1.183   8.738 -0.1969  0.4022 -0.4093
13120SOL    HW140801   7.052   1.164   8.780  0.9089 -0.2908 -2.7751
13120SOL    HW240802   6.920   1.100   8.743 -0.9573  0.8879  1.2439
13121SOL     OW40803   5.314   0.266   8.621  0.4618 -0.0346 -0.0495
13121SOL    HW140804   5.292   0.186   8.670 -0.5225 -0.4711 -1.1575
13121SOL    HW240805   5.410   0.267   8.620  0.5027 -1.4466 -0.3502
13122SOL     OW40806   7.399   0.456   9.076  0.3500  0.5052  0.1657
13122SOL    HW140807   7.416   0.363   9.066  0.9927  0.7727 -1.7293
13122SOL    HW240808   7.306   0.466   9.054 -0.0406  0.1723  1.6091
13123SOL     OW40809   6.698   1.596   7.483  0.5208  0.3627  0.1325
13123SOL    HW140810   6.685   1.631   7.395 -1.0277  0.9650  0.5676
13123SOL    HW240811   6.700   1.501   7.472 -1.9056  0.3234 -0.3297
13124SOL     OW40812   4.865   1.675  10.554 -0.2267  0.5123  0.3198
13124SOL    HW140813   4.914   1.633  10.483 -1.2770  0.5135 -0.4238
13124SOL    HW240814   4.806   1.606  10.585 -1.5915  1.2696 -0.5531
13125SOL     OW40815   3.466   0.439   8.125 -0.5103  0.2213 -0.2000
13125SOL    HW140816   3.383   0.486   8.120 -0.9805 -0.6243 -0.6108
13125SOL    HW240817   3.501   0.439   8.036  0.2660  1.1327  0.0861
13126SOL     OW40818   1.994   2.471   8.620 -0.0137 -0.4234 -0.1744
13126SOL    HW140819   1.933   2.419   8.673 -1.5848 -1.4661 -2.7795
13126SOL    HW240820   2.008   2.551   8.671 -1.0458 -1.5236  1.9623
13127SOL     OW40821   4.345   0.471   8.589  0.6876  0.0242  0.2952
13127SOL    HW140822   4.338   0.566   8.604  1.2595 -0.1021  1.4602
13127SOL    HW240823   4.377   0.464   8.499  2.4204  1.0209  0.7874
13128SOL     OW40824   5.590   1.475   7.059 -0.5636 -0.4742  0.7416
13128SOL    HW140825   5.584   1.435   6.972 -2.0138  0.9162  0.1565
13128SOL    HW240826   5.514   1.441   7.106 -0.3370 -0.4314  1.1445
13129SOL     OW40827   5.480   2.730   7.570  0.7935  0.7035  0.4296
13129SOL    HW140828   5.490   2.811   7.621  2.9609  1.1458 -0.5915
13129SOL    HW240829   5.395   2.740   7.528  0.5613  1.9916  1.1284
13130SOL     OW40830   2.071   2.428   8.990 -0.1187 -0.1690  0.2582
13130SOL    HW140831   2.047   2.508   8.943 -0.2395  0.6492  1.6724
13130SOL    HW240832   2.164   2.418   8.974  0.0150  0.5788  0.5319
13131SOL     OW40833   2.814   1.028   9.086 -0.1701  0.0701 -0.2397
13131SOL    HW140834   2.768   0.982   9.016 -0.4348 -0.7424  0.4411
13131SOL    HW240835   2.770   1.113   9.092 -0.9753 -0.3334 -0.2336
13132SOL     OW40836   5.865   2.947   9.086  0.0521 -0.3564  0.1455
13132SOL    HW140837   5.790   2.968   9.140 -0.4808 -2.1761  0.1831
13132SOL    HW240838   5.877   3.024   9.029 -3.3599 -0.9096 -1.5654
13133SOL     OW40839   5.339   7.585   9.053 -0.2104  0.2853 -0.3848
13133SOL    HW140840   5.334   7.568   9.147  1.3063  2.7880  0.2376
13133SOL    HW240841   5.276   7.655   9.037 -0.7046 -0.3509 -1.3174
13134SOL     OW40842   4.266   1.988   7.179  0.3874 -0.5709  0.5457
13134SOL    HW140843   4.311   1.956   7.257  0.4702 -0.1478  0.6751
13134SOL    HW240844   4.178   2.009   7.208  0.0785 -1.4407  0.2821
13135SOL     OW40845   3.300   2.466   8.992 -0.6446 -0.1118  0.4297
13135SOL    HW140846   3.299   2.561   9.007 -0.3834  0.2818 -1.7420
13135SOL    HW240847   3.392   2.441   9.003 -0.3975  0.2314 -0.6810
13136SOL     OW40848   3.698   1.340   7.281 -0.5294 -0.7039  0.3177
13136SOL    HW140849   3.642   1.416   7.297 -2.2148 -1.6433 -0.7923
13136SOL    HW240850   3.676   1.313   7.191  1.4176 -1.3873  0.0057
13137SOL     OW40851   3.543   1.568   8.870 -0.3593 -0.4518  0.0430
13137SOL    HW140852   3.463   1.604   8.833 -1.5540 -1.7664  1.2343
13137SOL    HW240853   3.516   1.485   8.909  1.7006 -1.1880  0.0004
13138SOL     OW40854   6.386   7.715   9.647 -0.3404  0.1457  0.3283
13138SOL    HW140855   6.468   7.689   9.689 -0.3535 -0.6862 -0.1474
13138SOL    HW240856   6.327   7.641   9.660 -1.0081  0.7200  0.6246
13139SOL     OW40857   4.789   0.918  11.273  0.1455 -0.7445  0.2983
13139SOL    HW140858   4.857   0.876  11.326 -0.3078 -0.7414  0.8918
13139SOL    HW240859   4.838   0.975  11.213  0.6052  1.4192  2.5485
13140SOL     OW40860   4.747   6.614  11.140 -0.1429 -0.5938 -0.8595
13140SOL    HW140861   4.765   6.701  11.106 -0.8203 -0.4966 -0.9923
13140SOL    HW240862   4.808   6.556  11.095  1.9113  0.0983  0.8750
13141SOL     OW40863   6.436   1.959   8.532  0.0982  0.0723 -0.5035
13141SOL    HW140864   6.473   1.992   8.614  0.3125  1.1850 -1.0300
13141SOL    HW240865   6.427   1.865   8.546  0.7873  0.1449  0.5456
13142SOL     OW40866   6.810   7.733   8.686  0.5171 -0.1212  0.6688
13142SOL    HW140867   6.762   7.672   8.742  1.6452 -0.1654  1.6322
13142SOL    HW240868   6.869   7.779   8.746 -0.1988  1.8358 -0.0481
13143SOL     OW40869   3.370   2.739   6.946  0.0722 -0.0078 -0.7860
13143SOL    HW140870   3.286   2.697   6.960  2.0868 -4.5422 -0.6141
13143SOL    HW240871   3.396   2.771   7.033 -1.4315  1.6460 -0.8902
13144SOL     OW40872   4.853   1.642  11.383 -0.3126  0.1774 -0.1624
13144SOL    HW140873   4.910   1.633  11.460  0.2528  0.2025 -0.5721
13144SOL    HW240874   4.769   1.669  11.419  0.4459  2.0458  0.3069
13145SOL     OW40875   5.175   2.401   9.153 -0.4052 -0.9982 -0.4984
13145SOL    HW140876   5.198   2.431   9.241 -0.5118 -3.4692  0.4497
13145SOL    HW240877   5.158   2.481   9.104  4.2220  0.8036  0.3577
13146SOL     OW40878   3.636   7.854   7.865 -0.3553 -0.1038  0.1471
13146SOL    HW140879   3.682   7.886   7.943  0.1108 -0.3710 -0.0147
13146SOL    HW240880   3.586   7.930   7.835 -0.3779  0.0632  0.5867
13147SOL     OW40881   3.809   0.831   8.991 -0.0431 -0.5824  0.0197
13147SOL    HW140882   3.845   0.796   9.073  1.1949  0.1911 -0.1621
13147SOL    HW240883   3.729   0.876   9.017  1.2608  1.2370  1.1512
13148SOL     OW40884   4.290   1.372   8.685 -0.3138 -0.9425  0.1957
13148SOL    HW140885   4.369   1.325   8.658 -0.9769 -1.0423 -1.7591
13148SOL    HW240886   4.218   1.320   8.649 -1.2496 -0.5283  1.4080
13149SOL     OW40887   5.766   0.986  10.585 -0.0360  0.0875 -0.1122
13149SOL    HW140888   5.791   1.078  10.588 -0.5664  0.2258  0.4621
13149SOL    HW240889   5.689   0.981  10.642 -0.4146 -0.5866 -0.6739
13150SOL     OW40890   3.775   1.955   7.765 -0.0188  0.6101  0.3784
13150SOL    HW140891   3.797   2.029   7.708  1.5727 -1.5890 -2.1179
13150SOL    HW240892   3.737   1.891   7.706  0.2728 -1.2506  2.1176
13151SOL     OW40893   3.980   1.200   8.803 -0.2709  0.5472  0.2092
13151SOL    HW140894   4.047   1.232   8.863  0.7806 -0.6180 -0.2920
13151SOL    HW240895   3.900   1.196   8.855  0.6099 -0.4019  1.5290
13152SOL     OW40896   5.503   2.206   8.157  0.4171 -0.3110  0.4396
13152SOL    HW140897   5.565   2.274   8.184 -0.4501  0.7242 -0.1066
13152SOL    HW240898   5.429   2.255   8.121  0.8007 -1.5677 -2.2996
13153SOL     OW40899   4.772   0.980   8.655 -0.1089 -0.1108  0.0890
13153SOL    HW140900   4.854   1.027   8.637 -0.2751 -0.7180 -2.7344
13153SOL    HW240901   4.720   1.042   8.706  0.8894  1.5692 -0.8454
13154SOL     OW40902   5.000   0.880   9.021  0.0478  0.2603  0.2048
13154SOL    HW140903   4.963   0.958   8.979 -1.7616 -0.0253  1.1884
13154SOL    HW240904   4.936   0.811   9.004  1.8497 -1.1971 -1.0856
13155SOL     OW40905   5.513   3.223   8.461 -0.1038  0.4309 -0.6133
13155SOL    HW140906   5.488   3.315   8.447 -1.4391  0.3969  1.2082
13155SOL    HW240907   5.437   3.173   8.431  0.0249 -0.0054 -0.2159
13156SOL     OW40908   5.232   3.506   9.414  0.0615 -0.7296  0.9265
13156SOL    HW140909   5.185   3.435   9.458  0.0413 -0.5180  1.2545
13156SOL    HW240910   5.206   3.499   9.323 -0.3359 -0.8274  1.0454
13157SOL     OW40911   7.010   0.432   6.370  0.1345 -0.1252 -0.1785
13157SOL    HW140912   7.028   0.518   6.408  0.9949  0.7610 -2.4367
13157SOL    HW240913   6.947   0.449   6.300 -1.8083 -1.7876  1.0258
13158SOL     OW40914   5.368   1.374   7.653  0.0899  0.3009  0.0937
13158SOL    HW140915   5.364   1.358   7.748  0.1547 -0.1631  0.0231
13158SOL    HW240916   5.373   1.469   7.645 -1.2620  0.4284  0.5006
13159SOL     OW40917   3.626   1.189   7.057 -0.9306 -0.2375  0.2415
13159SOL    HW140918   3.573   1.163   6.982 -0.8744 -0.6276  0.3310
13159SOL    HW240919   3.711   1.213   7.019 -0.9751 -0.2132  0.1578
13160SOL     OW40920   5.298   2.906   8.108  0.3313 -0.2762 -0.0229
13160SOL    HW140921   5.215   2.945   8.134  0.8195 -0.1492  1.4338
13160SOL    HW240922   5.294   2.903   8.013 -0.6117  1.3630 -0.0766
13161SOL     OW40923   6.133   1.122   9.066  0.3569 -0.5052 -0.3906
13161SOL    HW140924   6.117   1.166   8.982 -2.1417  1.1754  0.8324
13161SOL    HW240925   6.190   1.182   9.113 -0.4989 -0.0491  0.0983
13162SOL     OW40926   5.578   0.867   8.383 -0.3408 -0.5634  0.3469
13162SOL    HW140927   5.583   0.936   8.316  1.7595 -1.2475 -0.2835
13162SOL    HW240928   5.640   0.801   8.354  0.1288 -1.2210  2.6213
13163SOL     OW40929   3.152   1.172   5.661 -0.2445  0.3559 -0.6464
13163SOL    HW140930   3.074   1.116   5.659  0.7418 -1.0658 -0.9677
13163SOL    HW240931   3.147   1.217   5.746  0.4866 -2.6307  1.1532
13164SOL     OW40932   5.685   1.811   7.136  0.1502  0.1580 -0.4749
13164SOL    HW140933   5.618   1.838   7.198  0.3120 -1.5565  0.5257
13164SOL    HW240934   5.735   1.890   7.118 -1.3845  1.2143 -0.3153
13165SOL     OW40935   5.446   0.836   7.417 -0.0663 -0.1676  0.7715
13165SOL    HW140936   5.421   0.885   7.338  0.0024  0.9168  1.4065
13165SOL    HW240937   5.466   0.748   7.385  0.4347  0.3858 -0.4927
13166SOL     OW40938   3.870   0.994   6.549 -0.0866  0.2565 -0.1413
13166SOL    HW140939   3.934   0.928   6.574 -0.7043 -0.1942  0.2958
13166SOL    HW240940   3.882   1.005   6.454  0.1348 -0.3617 -0.1894
13167SOL     OW40941   3.459   2.465   7.155 -0.3089  0.1563 -0.4036
13167SOL    HW140942   3.374   2.508   7.162 -0.0461  0.7849 -0.9793
13167SOL    HW240943   3.521   2.529   7.189  0.1704  0.5320 -1.9407
13168SOL     OW40944   6.143   2.311   8.289  0.1751  0.0768 -0.2002
13168SOL    HW140945   6.220   2.258   8.308  0.4487 -0.2029 -1.8979
13168SOL    HW240946   6.146   2.323   8.194 -0.8522  1.6500 -0.0628
13169SOL     OW40947   4.586   2.462   7.296  0.2807  0.0955  0.0674
13169SOL    HW140948   4.583   2.557   7.307  0.5331 -0.0748  1.9809
13169SOL    HW240949   4.507   2.430   7.340 -0.0779 -0.5580 -1.0252
13170SOL     OW40950   4.340   7.844   8.089  0.1713  0.0042 -0.5141
13170SOL    HW140951   4.301   7.915   8.141 -0.1162 -0.2173 -0.4284
13170SOL    HW240952   4.352   7.881   8.002  0.4412  0.3054 -0.3519
13171SOL     OW40953   3.287   0.674   7.196 -0.1067  0.5444  0.1612
13171SOL    HW140954   3.341   0.621   7.136 -0.2710  1.0725 -0.4659
13171SOL    HW240955   3.321   0.653   7.283  0.1527 -0.2238 -0.1135
13172SOL     OW40956   4.994   1.013   7.527  0.2740  0.2557 -0.3111
13172SOL    HW140957   5.057   1.042   7.461 -0.4784  0.7126 -0.8453
13172SOL    HW240958   5.003   0.918   7.528  0.1011  0.2192 -1.2807
13173SOL     OW40959   2.446   1.228   7.445 -0.4535 -0.4910  0.0679
13173SOL    HW140960   2.463   1.259   7.534 -0.4784 -0.4606  0.0624
13173SOL    HW240961   2.363   1.181   7.452 -0.9319  0.2909 -0.1071
13174SOL     OW40962   4.913   2.461   9.599 -0.1721 -0.0685 -0.2229
13174SOL    HW140963   5.001   2.424   9.594 -0.7578 -1.9097  1.7076
13174SOL    HW240964   4.862   2.411   9.534 -0.4318 -1.1682  0.7800
13175SOL     OW40965   5.524   7.519   8.836 -0.4926 -0.3403  0.4820
13175SOL    HW140966   5.468   7.544   8.909 -1.1110 -0.5021  0.0706
13175SOL    HW240967   5.608   7.499   8.876 -0.6514  0.1577  1.0770
13176SOL     OW40968   3.723   0.478   8.241 -0.3699  1.1084  0.7104
13176SOL    HW140969   3.762   0.391   8.246 -0.2807  0.8778 -2.2551
13176SOL    HW240970   3.644   0.466   8.188  0.0005  2.9055 -0.3218
13177SOL     OW40971   6.585   1.927   9.094  0.5486 -0.0330 -0.4377
13177SOL    HW140972   6.614   1.838   9.074  0.0783 -0.9221  2.2898
13177SOL    HW240973   6.506   1.939   9.042  1.1313 -0.8212 -1.5467
13178SOL     OW40974   2.947   7.557   5.461  0.4279 -0.4084  0.1915
13178SOL    HW140975   2.901   7.548   5.544  0.1850 -1.7807 -0.0789
13178SOL    HW240976   3.018   7.619   5.480  0.4043 -0.7392  1.4353
13179SOL     OW40977   6.060   2.192   6.175  0.7465  0.0571 -0.2868
13179SOL    HW140978   5.969   2.183   6.206  0.7649 -2.2297 -0.6753
13179SOL    HW240979   6.053   2.237   6.091  0.2023  1.7405  0.6238
13180SOL     OW40980   4.779   0.383   8.890 -0.0237  0.4520 -0.1339
13180SOL    HW140981   4.701   0.345   8.850 -0.7019  1.7631 -0.1009
13180SOL    HW240982   4.798   0.325   8.964 -1.7067  0.7726  0.5998
13181SOL     OW40983   6.235   3.730   7.377  0.0960 -0.4910 -0.1250
13181SOL    HW140984   6.155   3.678   7.373 -0.8971  1.0027 -0.2300
13181SOL    HW240985   6.241   3.771   7.291  0.8994 -0.4575 -0.0623
13182SOL     OW40986   5.714   7.678  10.257 -0.1226  0.5527 -0.1317
13182SOL    HW140987   5.780   7.633  10.309  1.5641  1.3664 -1.4638
13182SOL    HW240988   5.690   7.616  10.189  0.9814  1.0518 -0.9928
13183SOL     OW40989   4.809   0.312   8.494 -0.0266 -0.0794  0.0760
13183SOL    HW140990   4.828   0.240   8.434  0.0467 -0.5272  0.6361
13183SOL    HW240991   4.804   0.389   8.437  1.8543 -0.1827 -0.2878
13184SOL     OW40992   4.349   1.610   7.776 -0.1925 -0.3734  0.1610
13184SOL    HW140993   4.403   1.667   7.720 -1.3451  0.6791  0.0816
13184SOL    HW240994   4.388   1.523   7.765  1.3482  0.3019 -0.0630
13185SOL     OW40995   6.010   1.054   7.892 -0.5881  0.2702  0.5993
13185SOL    HW140996   5.963   1.085   7.815  0.2817  1.5672  0.5661
13185SOL    HW240997   6.045   1.133   7.933  0.9270 -0.5873  1.0456
13186SOL     OW40998   3.284   1.038   8.118  0.0961  0.1004  0.4379
13186SOL    HW140999   3.359   1.089   8.146 -0.1269  0.1004  1.0531
13186SOL    HW241000   3.224   1.040   8.193 -2.3759  3.5566 -1.3215
13187SOL     OW41001   4.399   0.454   9.790 -0.5256 -0.3356 -0.1199
13187SOL    HW141002   4.386   0.366   9.827 -2.1290  0.0241  0.2799
13187SOL    HW241003   4.409   0.511   9.866 -0.6566 -0.0163 -0.3385
13188SOL     OW41004   4.535   2.357   8.868  0.5576 -0.4218  0.1087
13188SOL    HW141005   4.570   2.352   8.780  0.1665 -0.3897 -0.0508
13188SOL    HW241006   4.441   2.371   8.856 -0.0290 -3.3785  0.4966
13189SOL     OW41007   7.727   0.097   8.579 -0.0129  0.4774  0.0019
13189SOL    HW141008   7.733   0.076   8.486  1.1450  1.9335 -0.2991
13189SOL    HW241009   7.818   0.107   8.608 -0.3810  1.3267  0.9598
13190SOL     OW41010   5.514   0.178   6.515  0.6384  0.8719 -0.0415
13190SOL    HW141011   5.593   0.125   6.523  0.0219  0.1691  1.7765
13190SOL    HW241012   5.461   0.155   6.591 -1.5105  1.0345 -1.3861
13191SOL     OW41013   5.692   1.478   9.373  0.0080 -0.0661 -0.1411
13191SOL    HW141014   5.621   1.515   9.426  0.8328  1.0907  0.2067
13191SOL    HW241015   5.769   1.482   9.429  0.7368  0.4671 -1.1303
13192SOL     OW41016   5.678   1.078   8.714 -0.1397 -0.2865  0.0930
13192SOL    HW141017   5.650   1.132   8.788 -1.7188  0.6520 -1.1545
13192SOL    HW241018   5.647   0.990   8.737 -0.7326  0.0165  0.4883
13193SOL     OW41019   4.422   1.199   8.003 -0.1914 -0.0931 -0.4191
13193SOL    HW141020   4.495   1.261   8.002  0.7330 -1.1547 -0.6980
13193SOL    HW241021   4.406   1.181   8.095  0.4416 -0.4755 -0.3824
13194SOL     OW41022   6.408   1.514   8.135  0.3200  0.5389 -0.0470
13194SOL    HW141023   6.409   1.607   8.159 -0.7548  0.9400 -1.4115
13194SOL    HW241024   6.318   1.498   8.108  0.7412 -0.6435 -0.8089
13195SOL     OW41025   5.144   7.668   8.194 -0.3082  0.0049 -0.1863
13195SOL    HW141026   5.168   7.641   8.106  2.4756 -0.1847  0.5510
13195SOL    HW241027   5.226   7.668   8.243 -1.7756 -0.0731  2.4768
13196SOL     OW41028   4.780   2.109   6.719 -1.0164  0.6943 -0.0693
13196SOL    HW141029   4.700   2.061   6.741 -1.1839  1.3430  0.8247
13196SOL    HW241030   4.758   2.201   6.737  0.0773  0.8343  0.6751
13197SOL     OW41031   2.987   0.002  10.303 -0.6998  0.0379 -0.3913
13197SOL    HW141032   2.962  -0.082  10.264 -2.3447  0.9344 -1.3753
13197SOL    HW241033   2.952   0.067  10.242 -1.4721  1.4661  1.5051
13198SOL     OW41034   6.794   0.728   8.194 -0.3351  0.4791  0.0985
13198SOL    HW141035   6.864   0.785   8.162 -0.0555 -0.3151 -0.7625
13198SOL    HW241036   6.719   0.749   8.138 -0.1343 -0.2149 -0.4464
13199SOL     OW41037   6.180   1.479   9.283  0.3536 -0.3543  0.2940
13199SOL    HW141038   6.107   1.484   9.344  1.1730 -1.2878  1.3897
13199SOL    HW241039   6.214   1.390   9.293  2.7652  0.5790  1.1914
13200SOL     OW41040   4.633   2.233   7.663 -0.5037  0.2659  0.0111
13200SOL    HW141041   4.609   2.170   7.731 -1.0628 -2.3139 -2.3400
13200SOL    HW241042   4.555   2.287   7.652 -0.3493  0.8223  1.4808
13201SOL     OW41043   4.275   2.426   8.799 -0.0532  0.2211 -0.3116
13201SOL    HW141044   4.208   2.475   8.751 -1.6495 -0.0163  1.5352
13201SOL    HW241045   4.254   2.334   8.783  0.2002  0.1403 -0.1873
13202SOL     OW41046   5.059   0.004   6.680  0.2198 -0.8398  0.0992
13202SOL    HW141047   5.037   0.083   6.728 -0.7472 -0.8715 -0.2683
13202SOL    HW241048   5.037  -0.068   6.741 -0.3963 -0.8605 -0.1369
13203SOL     OW41049   5.950   1.779   9.293  0.3429  0.0518  0.1916
13203SOL    HW141050   6.023   1.735   9.336  0.3602 -0.3852 -0.2803
13203SOL    HW241051   5.964   1.765   9.200 -0.8779 -0.9168  0.1280
13204SOL     OW41052   3.707   1.190   9.386 -0.4790 -0.1589 -0.2232
13204SOL    HW141053   3.649   1.123   9.351 -0.2892  0.1615 -1.1668
13204SOL    HW241054   3.649   1.262   9.412 -0.4734  0.3890 -1.6801
13205SOL     OW41055   3.640   1.441   6.750 -0.3283 -0.1654 -0.2743
13205SOL    HW141056   3.611   1.519   6.703  0.3782 -1.1046 -2.3576
13205SOL    HW241057   3.569   1.378   6.738  0.5967 -0.9977 -1.6616
13206SOL     OW41058   5.345   0.879   8.532  0.5662  0.3910 -1.0192
13206SOL    HW141059   5.433   0.878   8.493  0.9636  1.5881 -0.2216
13206SOL    HW241060   5.342   0.801   8.587 -0.2873 -1.7969 -3.9048
13207SOL     OW41061   4.777   0.295   6.300  0.1378  0.5875  0.4481
13207SOL    HW141062   4.819   0.233   6.359  1.8011  1.2461 -0.0065
13207SOL    HW241063   4.764   0.374   6.354 -0.2469  0.4979  0.4931
13208SOL     OW41064   5.917   0.906   9.426 -0.5272 -0.4096  0.2367
13208SOL    HW141065   5.951   0.899   9.336 -1.5035  0.5349 -0.2282
13208SOL    HW241066   5.979   0.856   9.479  1.2199  0.6992 -0.6692
13209SOL     OW41067   4.857   7.739   7.886 -0.3455 -0.6221 -0.3322
13209SOL    HW141068   4.907   7.657   7.879 -0.3840 -0.8120  1.3247
13209SOL    HW241069   4.795   7.723   7.957 -1.9480  0.0548 -1.5276
13210SOL     OW41070   4.877   2.361   9.250 -0.8115 -0.1461 -0.1519
13210SOL    HW141071   4.942   2.302   9.213 -0.2902 -1.0265  1.9916
13210SOL    HW241072   4.901   2.448   9.217  0.7503 -0.6205 -0.3374
13211SOL     OW41073   4.867   1.447   8.082 -0.2140 -0.2685  0.4222
13211SOL    HW141074   4.825   1.495   8.153  0.0424 -0.1661  0.5067
13211SOL    HW241075   4.957   1.437   8.111  0.1816  0.7637 -0.3809
13212SOL     OW41076   3.384   6.741  10.167  0.2010 -0.5633  0.2109
13212SOL    HW141077   3.410   6.688  10.242  1.4409  0.5093  0.5769
13212SOL    HW241078   3.436   6.706  10.094  1.3871  0.4122  0.5555
13213SOL     OW41079   2.924   7.356   9.245  0.0642 -0.1674  0.2187
13213SOL    HW141080   2.856   7.414   9.281 -0.0344 -0.7698  1.0486
13213SOL    HW241081   2.876   7.281   9.210  0.2950 -0.8268  1.2445
13214SOL     OW41082   4.927   1.364   7.156  0.2583  0.0968 -0.1480
13214SOL    HW141083   4.848   1.403   7.119  0.7618  1.6162  0.2949
13214SOL    HW241084   4.902   1.339   7.245  0.4747  1.3211  0.2712
13215SOL     OW41085   4.602   2.264   8.143 -0.1357 -0.2586 -0.1658
13215SOL    HW141086   4.508   2.272   8.130 -0.0094 -0.2212 -1.1157
13215SOL    HW241087   4.639   2.340   8.098  0.2013  1.3388  2.6119
13216SOL     OW41088   6.870   1.790  11.016  0.2468  0.0461 -0.3056
13216SOL    HW141089   6.799   1.748  11.065  0.3610 -0.3373 -0.4707
13216SOL    HW241090   6.834   1.876  10.992  0.2353  0.2908  0.5536
13217SOL     OW41091   5.059   7.987  11.201  0.3478 -0.2380  0.3214
13217SOL    HW141092   5.098   7.904  11.171  1.1060 -0.1896  1.1468
13217SOL    HW241093   5.115   8.016  11.272 -0.5676  0.4195  0.8014
13218SOL     OW41094   5.418   2.070   7.867 -0.1142 -0.2809  0.5635
13218SOL    HW141095   5.355   2.080   7.795 -0.8442  0.7690  1.3249
13218SOL    HW241096   5.427   2.158   7.904  1.7643 -0.4182  0.5314
13219SOL     OW41097   5.109   0.650  10.682 -0.0435  0.2461  0.0181
13219SOL    HW141098   5.075   0.640  10.593  0.6620 -2.9132 -0.0217
13219SOL    HW241099   5.031   0.652  10.737 -0.4620  1.2105 -0.5879
13220SOL     OW41100   5.161   0.985  10.194 -0.2038 -0.1461  0.3067
13220SOL    HW141101   5.215   0.963  10.118 -1.6688 -1.8659 -0.2887
13220SOL    HW241102   5.213   0.956  10.269  1.9056  2.8408  0.2116
13221SOL     OW41103   3.113   2.604   9.612  0.4282  0.5667 -0.2461
13221SOL    HW141104   3.046   2.539   9.629  1.1934 -0.0685  0.4556
13221SOL    HW241105   3.071   2.688   9.630 -0.3033  0.2087 -0.2774
13222SOL     OW41106   4.141   1.820  10.086 -0.2102 -0.1519  0.0927
13222SOL    HW141107   4.178   1.891  10.138  0.2054  0.0594 -0.4780
13222SOL    HW241108   4.052   1.849  10.067 -0.6073 -0.5527  1.2638
13223SOL     OW41109   4.544   2.701   9.756  0.3998  0.2354  0.4915
13223SOL    HW141110   4.556   2.615   9.714  0.9534  0.0202  1.0773
13223SOL    HW241111   4.449   2.713   9.758  0.2682 -0.7592  1.1736
13224SOL     OW41112   2.582   1.977  11.442 -0.2355  0.1330  0.0823
13224SOL    HW141113   2.614   1.896  11.403  0.4885  0.1765  0.5709
13224SOL    HW241114   2.653   2.006  11.499 -1.6338 -0.4891  2.2786
13225SOL     OW41115   3.540   2.408   9.169  0.7479  0.1772  0.1103
13225SOL    HW141116   3.555   2.436   9.260  0.1106 -1.2355  0.6751
13225SOL    HW241117   3.588   2.472   9.116  3.2812 -0.4114  1.5347
13226SOL     OW41118   6.487   7.537  11.501  0.4333 -0.1286 -0.1844
13226SOL    HW141119   6.453   7.482  11.431  2.0631 -0.0250 -1.1072
13226SOL    HW241120   6.555   7.589  11.460  0.1376  1.3326  1.0678
13227SOL     OW41121   3.236   2.129   8.053  0.2948 -0.5723 -0.4600
13227SOL    HW141122   3.252   2.171   7.969 -1.2905 -0.4025 -0.7045
13227SOL    HW241123   3.174   2.186   8.098 -0.0806 -1.4489  0.1816
13228SOL     OW41124   6.367   7.768   0.049 -0.3714 -0.2710  0.5447
13228SOL    HW141125   6.282   7.800   0.080  0.4092  1.8991  0.5608
13228SOL    HW241126   6.383   7.815  -0.033  1.1827 -0.0058  0.9682
13229SOL     OW41127   3.444   1.372   9.045  0.7635 -0.3014  0.2700
13229SOL    HW141128   3.531   1.362   9.082  1.3225  0.8185 -0.6775
13229SOL    HW241129   3.389   1.399   9.118  1.6662  1.0442  0.4843
13230SOL     OW41130   5.112   1.430   8.201 -0.1668 -0.3582 -0.2183
13230SOL    HW141131   5.159   1.423   8.118  1.1998 -2.4065  0.6437
13230SOL    HW241132   5.174   1.396   8.266 -1.4067  0.6587  1.5647
13231SOL     OW41133   4.672   2.203  10.378  0.0388  0.4396  0.5783
13231SOL    HW141134   4.583   2.195  10.412 -0.1140  0.2825  0.1415
13231SOL    HW241135   4.707   2.281  10.421  0.2817 -0.4370  2.0660
13232SOL     OW41136   5.552   1.342   9.154  0.2366 -0.3247 -0.1188
13232SOL    HW141137   5.607   1.368   9.228 -0.1424 -0.4250  0.1950
13232SOL    HW241138   5.475   1.303   9.193 -0.2761  0.2265 -0.5522
13233SOL     OW41139   5.377   1.021  11.871  0.2208  0.2530  0.1581
13233SOL    HW141140   5.339   0.968  11.801  0.0134 -0.9005  1.1014
13233SOL    HW241141   5.349   0.977  11.952 -1.7342  2.9583  1.1190
13234SOL     OW41142   4.429   0.719  10.443  0.0383  0.0280 -0.2884
13234SOL    HW141143   4.343   0.739  10.409 -0.2972  0.5669  0.8241
13234SOL    HW241144   4.451   0.633  10.406 -0.0179  0.8603 -2.3162
13235SOL     OW41145   5.483   1.924   8.273 -0.4225 -0.2227  0.6319
13235SOL    HW141146   5.480   1.904   8.367 -0.4902  0.2344  0.7289
13235SOL    HW241147   5.484   2.020   8.269  0.0486 -0.2466  0.1771
13236SOL     OW41148   5.251   3.426   9.122  0.0129  0.2249  0.3946
13236SOL    HW141149   5.346   3.417   9.125  0.0235  0.3997  0.5862
13236SOL    HW241150   5.232   3.441   9.029  0.2293  0.8059  0.4366
13237SOL     OW41151   5.635   1.518  10.289  0.2057 -0.0062 -0.0994
13237SOL    HW141152   5.556   1.469  10.269  0.3007 -1.2071  2.1784
13237SOL    HW241153   5.632   1.594  10.231 -2.4633 -0.1663 -0.2609
13238SOL     OW41154   5.918   0.914  10.191  0.0075  0.5456 -0.6420
13238SOL    HW141155   5.869   0.832  10.188  0.6101  0.1467  0.1354
13238SOL    HW241156   5.958   0.915  10.277  1.6533  0.6820 -1.3642
13239SOL     OW41157   4.371   2.179   9.472  0.3425  0.5181 -0.2339
13239SOL    HW141158   4.371   2.116   9.400 -0.6171 -0.1552  0.3413
13239SOL    HW241159   4.331   2.258   9.435  1.5756  0.8302 -0.9627
13240SOL     OW41160   4.025   1.034  10.776 -0.2712  0.1429 -0.0249
13240SOL    HW141161   4.048   1.073  10.861 -0.9969 -0.5296  0.5019
13240SOL    HW241162   4.109   1.024  10.731  0.0989  0.7526  0.5014
13241SOL     OW41163   5.071   1.377  10.644 -0.1770 -0.0807 -0.1161
13241SOL    HW141164   4.984   1.389  10.605 -0.2277  1.2991  0.3585
13241SOL    HW241165   5.106   1.466  10.651  0.4902 -0.4422  1.4798
13242SOL     OW41166   6.092   1.833   9.662  0.4999 -0.0008  0.2518
13242SOL    HW141167   6.054   1.745   9.667  0.3051 -0.0852 -1.9389
13242SOL    HW241168   6.030   1.889   9.710 -0.5114 -0.7222 -0.1767
13243SOL     OW41169   1.730   1.370  10.251 -0.1243  0.0322 -0.0230
13243SOL    HW141170   1.728   1.300  10.185  0.7308  0.4720 -0.5226
13243SOL    HW241171   1.680   1.441  10.211 -1.8288 -0.6097  0.8806
13244SOL     OW41172   4.864   3.053  11.040 -0.1452 -0.2533  0.1799
13244SOL    HW141173   4.791   2.992  11.031 -0.9256  0.3986  1.7758
13244SOL    HW241174   4.941   2.996  11.047 -0.7391 -1.0248  0.5741
13245SOL     OW41175   5.055   1.553   8.916  0.0702 -0.0397 -0.5780
13245SOL    HW141176   4.991   1.569   8.986  0.9953 -0.5372  0.4060
13245SOL    HW241177   5.125   1.616   8.932  1.1455 -1.3360  0.0699
13246SOL     OW41178   3.860   0.558  11.078 -0.1671  0.3501  0.4513
13246SOL    HW141179   3.800   0.510  11.021  0.8767 -1.6531  0.9353
13246SOL    HW241180   3.870   0.501  11.154  1.2249  1.3096  1.0186
13247SOL     OW41181   7.428   1.914  12.357  0.2888 -0.1189 -0.1306
13247SOL    HW141182   7.518   1.890  12.337  1.2901  0.9727  2.5972
13247SOL    HW241183   7.394   1.842  12.410 -0.3470 -0.3417 -0.8127
13248SOL     OW41184   5.488   4.144  11.619  0.1009 -0.2527  0.0695
13248SOL    HW141185   5.443   4.063  11.640  0.4941 -0.6394 -0.5546
13248SOL    HW241186   5.418   4.206  11.600 -0.1882 -1.1134 -1.8753
13249SOL     OW41187   5.022   0.934   9.620  0.0027 -0.2684 -0.3526
13249SOL    HW141188   5.021   0.941   9.525  0.7956  0.2189 -0.3313
13249SOL    HW241189   5.067   0.852   9.638  3.0326  1.2609 -0.3654
13250SOL     OW41190   5.212   1.154  10.583  0.3108  0.0623  0.1953
13250SOL    HW141191   5.149   1.221  10.609 -2.1188 -1.4505 -1.3434
13250SOL    HW241192   5.269   1.196  10.520  0.1990  1.2297  0.8581
13251SOL     OW41193   5.761   2.150   8.979 -0.1846  0.4828 -0.0134
13251SOL    HW141194   5.780   2.228   8.926  0.0837  0.4712  0.0610
13251SOL    HW241195   5.835   2.092   8.963  0.5463  0.9903  1.3406
13252SOL     OW41196   4.044   7.114   0.346  0.0495 -0.6388  0.2567
13252SOL    HW141197   4.125   7.074   0.317  2.0344  2.1818  1.4355
13252SOL    HW241198   4.038   7.092   0.439 -0.2372 -0.4008  0.2979
13253SOL     OW41199   4.941   0.551   0.336 -0.0603 -0.0521 -0.0010
13253SOL    HW141200   5.032   0.542   0.308  0.2701  0.7723  0.7188
13253SOL    HW241201   4.911   0.631   0.294 -0.9479 -1.0989 -1.4225
13254SOL     OW41202   6.348   0.678  11.933  0.3465  0.9023  0.2854
13254SOL    HW141203   6.292   0.652  12.006  0.4922 -0.5385 -0.0832
13254SOL    HW241204   6.380   0.595  11.896 -1.9992  1.3107 -3.2262
13255SOL     OW41205   4.043   1.833   9.371  0.1526  0.0778 -0.1185
13255SOL    HW141206   4.046   1.877   9.285 -0.2164  0.4873  0.0757
13255SOL    HW241207   3.950   1.817   9.386  0.3274 -1.7809 -0.6816
13256SOL     OW41208   5.651   2.572  10.778  0.3269 -0.2217 -0.1113
13256SOL    HW141209   5.697   2.489  10.782  0.9633  0.0975 -0.6932
13256SOL    HW241210   5.706   2.633  10.828 -0.2018 -0.1734  0.4288
13257SOL     OW41211   5.296   0.695  10.348 -0.0712 -0.1589 -0.4179
13257SOL    HW141212   5.326   0.714  10.259  2.0067  0.9967  0.4656
13257SOL    HW241213   5.320   0.773  10.398 -0.4380 -1.1329  1.3368
13258SOL     OW41214   3.746   2.212  10.832 -0.2862 -0.9658 -0.0318
13258SOL    HW141215   3.813   2.238  10.769 -0.0056  0.2351  0.7326
13258SOL    HW241216   3.747   2.116  10.830  0.9482 -0.9562 -0.5564
13259SOL     OW41217   4.107   1.018   9.898  0.0152  0.3187 -0.3315
13259SOL    HW141218   4.066   1.059   9.823 -0.2255  0.3598 -0.1791
13259SOL    HW241219   4.132   1.091   9.955 -1.6547  0.2124  0.5859
13260SOL     OW41220   7.318   0.412   0.385  0.3751  0.3974 -0.2726
13260SOL    HW141221   7.341   0.326   0.419 -0.0909 -0.2232 -1.4496
13260SOL    HW241222   7.222   0.412   0.381  0.3743  0.9159 -0.3971
13261SOL     OW41223   5.905   3.503   9.436 -0.3048  0.5017 -0.0863
13261SOL    HW141224   5.883   3.584   9.483  0.7691  0.3629  0.7091
13261SOL    HW241225   5.997   3.487   9.459 -0.6336 -1.2029  0.1609
13262SOL     OW41226   3.918   7.616   8.715  0.5584  0.5100  0.1417
13262SOL    HW141227   3.831   7.642   8.685  0.0186 -0.5738  0.6887
13262SOL    HW241228   3.948   7.690   8.768  0.3416  1.2509 -0.7561
13263SOL     OW41229   4.852   1.186   9.768  0.3515  0.0641 -0.0366
13263SOL    HW141230   4.829   1.140   9.688 -1.4432 -0.6043  0.8171
13263SOL    HW241231   4.769   1.219   9.802  0.9920 -0.0721  1.7778
13264SOL     OW41232   5.595   2.637  11.147  0.5197  0.5738  0.3381
13264SOL    HW141233   5.668   2.673  11.096  0.1506 -0.5391 -1.0297
13264SOL    HW241234   5.518   2.684  11.116  0.1281 -0.8876 -0.9997
13265SOL     OW41235   3.711   2.216   8.602 -0.3288 -0.1358  0.2488
13265SOL    HW141236   3.673   2.199   8.687 -0.3034 -3.0464 -0.2225
13265SOL    HW241237   3.643   2.190   8.539  0.1193  0.7116 -0.6156
13266SOL     OW41238   5.558   0.981  10.769  0.0441 -0.1134 -0.0121
13266SOL    HW141239   5.471   0.999  10.732  0.5726  0.7453 -0.8972
13266SOL    HW241240   5.547   0.901  10.819 -1.0410 -0.5541 -0.9244
13267SOL     OW41241   3.122   2.336   9.188  0.0872 -0.2594 -0.1193
13267SOL    HW141242   3.128   2.418   9.238 -1.7809  1.4237 -2.3930
13267SOL    HW241243   3.177   2.351   9.112 -1.4057 -0.4665 -1.2852
13268SOL     OW41244   5.337   0.979  10.000 -0.2156 -0.2116  0.4089
13268SOL    HW141245   5.259   1.018   9.962 -0.0320  1.3035  1.5169
13268SOL    HW241246   5.410   1.017   9.950 -0.1094 -0.5109  0.3318
13269SOL     OW41247   4.798   2.792  10.013 -0.2589 -0.9388  0.2626
13269SOL    HW141248   4.710   2.754  10.016 -0.4965 -0.5814 -1.5144
13269SOL    HW241249   4.850   2.730   9.962  0.2377 -0.5801  0.3280
13270SOL     OW41250   4.194   1.598  10.298  0.1367 -0.2759 -0.2519
13270SOL    HW141251   4.187   1.693  10.304  0.8090 -0.0989 -1.6835
13270SOL    HW241252   4.131   1.574  10.230 -0.7876 -0.9943  0.8329
13271SOL     OW41253   3.069   1.055   9.626 -0.1011  0.3950  0.0987
13271SOL    HW141254   3.094   1.103   9.705 -3.7218  1.1123  1.0105
13271SOL    HW241255   2.973   1.052   9.629 -0.3159 -1.3517 -3.2608
13272SOL     OW41256   4.696   2.359   9.443 -0.2762 -0.7604  0.4204
13272SOL    HW141257   4.741   2.380   9.361 -3.5977 -1.1235 -1.6962
13272SOL    HW241258   4.658   2.273   9.428 -0.4784 -1.1126  2.6374
13273SOL     OW41259   4.271   0.799   8.864  0.1063  0.4233 -0.0470
13273SOL    HW141260   4.325   0.848   8.802 -0.9605  0.1244 -1.2614
13273SOL    HW241261   4.181   0.827   8.844 -0.7051 -2.7997 -1.5942
13274SOL     OW41262   6.559   7.739  10.328 -0.2084  0.1021 -0.0771
13274SOL    HW141263   6.569   7.674  10.397 -0.1651 -0.5712 -0.6934
13274SOL    HW241264   6.475   7.780  10.344  0.6859  1.3957  1.5436
13275SOL     OW41265   2.292   3.308   9.327  0.0064  0.0625  0.3448
13275SOL    HW141266   2.298   3.219   9.291 -0.0325  0.1886  0.0161
13275SOL    HW241267   2.362   3.356   9.283 -1.8408  0.9678 -1.8399
13276SOL     OW41268   2.922   1.743   8.626 -0.0193  0.0199 -0.1866
13276SOL    HW141269   2.899   1.793   8.704 -0.3413  0.8283 -0.7837
13276SOL    HW241270   2.890   1.655   8.644 -1.1265  0.4706  0.1315
13277SOL     OW41271   4.450   0.581   8.874 -0.0498 -0.4091 -0.2541
13277SOL    HW141272   4.388   0.646   8.841 -0.0031  1.1022  2.3235
13277SOL    HW241273   4.395   0.515   8.916 -0.0128  0.3682  1.0770
13278SOL     OW41274   4.185   0.574  11.124 -0.3960  0.0451 -0.0779
13278SOL    HW141275   4.181   0.623  11.206  1.2936  1.7078 -0.9284
13278SOL    HW241276   4.232   0.494  11.146 -0.0216  0.4415  0.6061
13279SOL     OW41277   5.495   2.818  10.773  0.9612 -0.0470  0.0972
13279SOL    HW141278   5.562   2.887  10.774 -0.3515  1.2674 -0.0238
13279SOL    HW241279   5.545   2.737  10.760  2.3669  1.0805 -2.2788
13280SOL     OW41280   4.303   6.492  11.907  0.0479 -0.1309  0.2475
13280SOL    HW141281   4.320   6.531  11.821 -1.7655  1.3785  0.5153
13280SOL    HW241282   4.294   6.398  11.890 -0.9815  0.2135 -1.3437
13281SOL     OW41283   4.433   1.974   8.547 -0.2724  0.3717 -0.1020
13281SOL    HW141284   4.356   1.924   8.574 -1.2529  1.1945 -1.2402
13281SOL    HW241285   4.397   2.044   8.492  1.4521 -0.3908 -2.3117
13282SOL     OW41286   4.609   1.631  11.844 -0.1629  0.1841  0.0938
13282SOL    HW141287   4.575   1.558  11.895 -0.0609  0.2564  0.2674
13282SOL    HW241288   4.561   1.707  11.875  0.9496  0.4836  1.1697
13283SOL     OW41289   4.667   0.213   9.691  0.0892 -0.0587 -0.3424
13283SOL    HW141290   4.627   0.223   9.605  0.1064 -1.0118 -0.4751
13283SOL    HW241291   4.592   0.201   9.750  0.1147 -0.3385 -0.3663
13284SOL     OW41292   3.673   1.415   9.976 -0.0360 -0.4725 -0.5876
13284SOL    HW141293   3.586   1.449   9.994  0.2589  1.0554 -1.8265
13284SOL    HW241294   3.724   1.437  10.054 -0.4589 -0.2933 -0.3581
13285SOL     OW41295   5.746   0.935   7.928  0.0429 -0.1343 -0.3516
13285SOL    HW141296   5.723   0.846   7.956 -0.7653  0.2058  0.1110
13285SOL    HW241297   5.802   0.923   7.852  1.3900 -1.0867  0.7516
13286SOL     OW41298   4.842   1.296   9.445  0.1785  0.4060  0.5335
13286SOL    HW141299   4.789   1.216   9.441 -0.6601  0.9940 -1.1078
13286SOL    HW241300   4.778   1.367   9.447  0.8365  1.1364 -1.6057
13287SOL     OW41301   4.763   2.502  10.258 -0.4232 -0.7540  0.2565
13287SOL    HW141302   4.755   2.477  10.351 -0.4156 -1.4624  0.0743
13287SOL    HW241303   4.811   2.585  10.260 -2.0655  0.2331  0.9888
13288SOL     OW41304   4.610   1.275   9.175  0.4068 -0.2015  0.1637
13288SOL    HW141305   4.600   1.328   9.254 -1.5146 -0.9056  0.4294
13288SOL    HW241306   4.622   1.339   9.104 -0.9041  0.5783  0.6140
13289SOL     OW41307   4.333   2.030  11.542  0.2020 -0.4058  0.4073
13289SOL    HW141308   4.279   1.965  11.587 -1.2347  1.3739  1.3901
13289SOL    HW241309   4.285   2.112  11.551  0.4291  0.3223 -3.4197
13290SOL     OW41310   3.365   1.099  11.669 -0.4463  0.0754 -0.4047
13290SOL    HW141311   3.394   1.081  11.758 -1.2747 -0.9438 -0.3145
13290SOL    HW241312   3.311   1.177  11.676 -0.1319  0.2666 -0.0936
13291SOL     OW41313   3.032   1.247  10.424  0.5827 -0.2385 -0.4566
13291SOL    HW141314   3.008   1.280  10.338  0.2948 -1.4097 -0.8424
13291SOL    HW241315   3.019   1.322  10.483  1.1164  0.6620 -1.4685
13292SOL     OW41316   5.195   1.867  11.748 -0.5006 -0.0573 -0.0278
13292SOL    HW141317   5.106   1.832  11.740 -0.1561 -0.7020 -1.4522
13292SOL    HW241318   5.235   1.849  11.663  1.7751 -1.8954  1.3252
13293SOL     OW41319   4.211   0.254  11.554 -0.1754 -0.5579 -0.1505
13293SOL    HW141320   4.190   0.243  11.647 -1.5328  0.5299 -0.2969
13293SOL    HW241321   4.127   0.272  11.512  0.5160 -0.2749 -1.4743
13294SOL     OW41322   3.003   1.966  11.432  0.0051  0.2986  0.1055
13294SOL    HW141323   3.001   1.871  11.429 -0.1182  0.1170  3.0758
13294SOL    HW241324   2.934   1.990  11.494  1.6412  2.1306  1.3614
13295SOL     OW41325   4.577   0.038  10.501 -0.1414 -0.3702 -0.0329
13295SOL    HW141326   4.503   0.050  10.442  0.6769 -0.5672 -1.1372
13295SOL    HW241327   4.621   0.123  10.504 -1.0600  0.0962  1.5838
13296SOL     OW41328   5.300   1.627   9.126  0.3151 -0.0290 -0.2000
13296SOL    HW141329   5.339   1.612   9.039  1.3089 -0.6575  0.3290
13296SOL    HW241330   5.292   1.722   9.133 -0.1035  0.0164 -1.1164
13297SOL     OW41331   6.912   2.028  11.824 -0.1795  0.6746  0.3522
13297SOL    HW141332   6.879   1.998  11.909 -0.9262 -0.4616 -0.3031
13297SOL    HW241333   6.999   2.064  11.843 -0.0721 -0.1373  1.4997
13298SOL     OW41334   7.452   1.569   9.947  0.0338  0.3685  0.1475
13298SOL    HW141335   7.515   1.546   9.879  0.6728  0.3952  0.7204
13298SOL    HW241336   7.489   1.646   9.989 -1.3932  1.6303 -0.8194
13299SOL     OW41337   5.067   2.029  11.484 -0.2330  0.2402  0.9442
13299SOL    HW141338   5.154   1.989  11.486 -0.1389  0.4727  2.1756
13299SOL    HW241339   5.010   1.964  11.525 -0.6344  0.1289  0.2265
13300SOL     OW41340   7.590   0.537   9.803 -0.0030 -0.2495 -0.1603
13300SOL    HW141341   7.516   0.481   9.780  0.2086  0.3339 -2.5176
13300SOL    HW241342   7.659   0.514   9.740  0.2712  2.2070 -0.8579
13301SOL     OW41343   5.093   1.378   9.550 -0.1010  0.0993  0.2882
13301SOL    HW141344   5.015   1.342   9.508  0.0227  0.1343  0.0282
13301SOL    HW241345   5.125   1.444   9.489  1.4167 -1.4462 -0.6634
13302SOL     OW41346   4.641   1.548   9.982  0.2436 -0.2834  0.1166
13302SOL    HW141347   4.606   1.540   9.893  0.7192  2.1152 -0.3536
13302SOL    HW241348   4.614   1.467  10.025 -1.0055 -1.0070 -1.8597
13303SOL     OW41349   6.200   7.926   9.319 -0.1916  0.4793 -0.0263
13303SOL    HW141350   6.221   7.928   9.412  0.7883  0.6142 -0.2390
13303SOL    HW241351   6.173   8.015   9.298  3.1098  1.4884 -0.6092
13304SOL     OW41352   2.090   2.163  10.550  0.2580  0.2576 -0.3512
13304SOL    HW141353   2.141   2.082  10.540  0.7719  0.5146  0.1753
13304SOL    HW241354   2.154   2.228  10.578 -0.4618  0.4307  0.9471
13305SOL     OW41355   5.944   1.376  10.213  0.4321 -0.2910 -0.0463
13305SOL    HW141356   5.937   1.407  10.123 -0.4318 -1.0877 -0.2725
13305SOL    HW241357   5.903   1.289  10.212  1.5189 -0.8468  0.8545
13306SOL     OW41358   4.448   1.059   9.665 -0.3812 -0.0645  0.0964
13306SOL    HW141359   4.406   1.133   9.621  1.7861  0.6128 -0.9417
13306SOL    HW241360   4.465   1.090   9.754  0.7836  0.8421 -0.4155
13307SOL     OW41361   6.663   0.594  11.063 -0.3663 -0.0711  0.0706
13307SOL    HW141362   6.594   0.553  11.116 -0.5034 -1.0504 -0.8254
13307SOL    HW241363   6.741   0.543  11.081  0.2482  1.2284  1.3197
13308SOL     OW41364   3.853   0.530  10.657  0.5138 -0.6036  0.3432
13308SOL    HW141365   3.882   0.507  10.569  0.6268  0.4167  0.1041
13308SOL    HW241366   3.930   0.516  10.712  0.6918 -0.4031  0.1419
13309SOL     OW41367   4.455   0.323  11.502  0.0943 -0.1941  0.4593
13309SOL    HW141368   4.362   0.311  11.522 -0.2388 -0.0468 -0.9508
13309SOL    HW241369   4.463   0.415  11.478  0.2292 -0.6275 -1.2687
13310SOL     OW41370   3.500   0.919  11.239  0.2575  0.6909  0.5930
13310SOL    HW141371   3.517   1.014  11.239 -0.8123  0.9883 -2.2544
13310SOL    HW241372   3.405   0.912  11.242  0.2749 -0.2169 -0.4603
13311SOL     OW41373   4.251   2.837   8.972 -0.4885  0.1962 -0.2664
13311SOL    HW141374   4.166   2.874   8.950 -2.2914 -3.3326  0.0917
13311SOL    HW241375   4.250   2.833   9.068  0.0269 -0.0304 -0.2709
13312SOL     OW41376   5.347   1.303   9.301 -0.5402  0.7254 -0.7606
13312SOL    HW141377   5.332   1.373   9.364 -0.3052 -0.2615  0.4392
13312SOL    HW241378   5.274   1.310   9.240 -0.3312  2.2163 -0.8839
13313SOL     OW41379   3.961   0.654  11.481  0.4398  0.6860  0.0327
13313SOL    HW141380   3.868   0.649  11.500  0.1744 -1.3188 -1.4361
13313SOL    HW241381   3.976   0.745  11.455 -1.5367  0.6342 -1.5254
13314SOL     OW41382   5.062   7.056  10.058  0.8545 -0.1850  0.1066
13314SOL    HW141383   4.974   7.045  10.022  0.3611  0.8615  0.9579
13314SOL    HW241384   5.098   7.131  10.012  0.3548  0.9356  1.4666
13315SOL     OW41385   4.459   3.323  11.256 -0.1568  0.6471  0.6454
13315SOL    HW141386   4.402   3.247  11.261  0.5339  0.0980  0.3027
13315SOL    HW241387   4.546   3.290  11.274  0.1619  1.3447  0.4454
13316SOL     OW41388   3.850   2.725   8.661  0.3953 -0.0992 -0.7350
13316SOL    HW141389   3.868   2.745   8.569  2.1851 -1.2675 -0.6953
13316SOL    HW241390   3.833   2.631   8.661  0.1503 -0.0554  0.0967
13317SOL     OW41391   6.307   7.723  10.467 -0.0190  0.5141  0.1449
13317SOL    HW141392   6.314   7.721  10.562 -1.9098 -2.5952  0.3624
13317SOL    HW241393   6.229   7.775  10.449 -0.4122  0.0158  0.3945
13318SOL     OW41394   5.011   2.253   8.315  0.1214  0.0391  0.4103
13318SOL    HW141395   5.055   2.239   8.399  0.5011 -1.5199 -0.0247
13318SOL    HW241396   5.070   2.215   8.250 -0.7040  0.1884 -0.4472
13319SOL     OW41397   5.639   1.472  11.248  0.0518  0.0226 -0.1599
13319SOL    HW141398   5.678   1.404  11.304 -3.5285 -0.3489  2.2824
13319SOL    HW241399   5.678   1.554  11.279  3.3505 -0.6244 -2.1557
13320SOL     OW41400   4.042   0.770  10.079 -0.0753 -0.0446  0.1844
13320SOL    HW141401   4.105   0.794  10.011  0.9771 -1.3036  0.6798
13320SOL    HW241402   3.978   0.714  10.035 -0.2368  0.3360 -0.0726
13321SOL     OW41403   2.121   0.283  11.939 -0.2274 -0.1881 -0.0480
13321SOL    HW141404   2.042   0.265  11.990 -0.1922  0.7651  0.3612
13321SOL    HW241405   2.166   0.199  11.935 -0.7848 -0.5243  0.5381
13322SOL     OW41406   4.001   1.933  11.029 -0.2977  0.2454  0.2380
13322SOL    HW141407   4.052   1.984  10.966  1.0135 -0.3311  0.7963
13322SOL    HW241408   4.045   1.947  11.113 -0.3229 -1.2387  0.5248
13323SOL     OW41409   5.751   7.971  11.122 -0.3529 -0.2371  0.4607
13323SOL    HW141410   5.717   7.885  11.145  0.7697 -0.4729  1.3345
13323SOL    HW241411   5.846   7.962  11.128 -0.2297  1.3042  1.5278
13324SOL     OW41412   5.318   2.517   9.610  0.4049 -0.3338 -0.0658
13324SOL    HW141413   5.356   2.464   9.681  2.3832  0.6355 -0.3222
13324SOL    HW241414   5.325   2.607   9.642  0.3255  0.0329 -1.0575
13325SOL     OW41415   3.770   1.494  10.986 -0.1652  0.0641  0.4401
13325SOL    HW141416   3.712   1.449  11.047 -0.2194  0.6399  0.8228
13325SOL    HW241417   3.755   1.587  11.002 -0.1577  0.2272 -0.4376
13326SOL     OW41418   2.907   7.936  10.604 -0.0984 -0.0801  0.1464
13326SOL    HW141419   2.828   7.908  10.558 -0.2895  0.2906  0.2454
13326SOL    HW241420   2.881   8.015  10.651  0.1504 -0.3308  0.7201
13327SOL     OW41421   6.623   1.132  10.654 -0.2719 -0.5247 -0.1634
13327SOL    HW141422   6.605   1.213  10.701 -1.1878 -1.0689  0.4446
13327SOL    HW241423   6.586   1.063  10.709  0.9835 -1.4146 -0.4008
13328SOL     OW41424   5.821   7.286  10.972  0.3274 -0.5247 -0.0765
13328SOL    HW141425   5.747   7.310  10.917 -0.0696 -0.3278  0.5410
13328SOL    HW241426   5.830   7.192  10.959  0.7633 -0.3514 -1.1171
13329SOL     OW41427   5.686   2.058  10.598  0.3853  0.1623 -0.2725
13329SOL    HW141428   5.771   2.025  10.570  1.3040  1.4774  0.8092
13329SOL    HW241429   5.622   1.999  10.559  1.8027 -0.8903 -1.0534
13330SOL     OW41430   4.613   2.260  10.961  0.3462  0.0763  0.3923
13330SOL    HW141431   4.564   2.177  10.961  1.3507 -0.5442  1.3608
13330SOL    HW241432   4.547   2.327  10.979 -0.2736 -0.6596  0.9380
13331SOL     OW41433   4.407   1.533   0.524 -0.1620  0.1249  0.6940
13331SOL    HW141434   4.486   1.576   0.559 -0.4787  0.9849  0.3771
13331SOL    HW241435   4.431   1.508   0.435 -0.9736  2.5588 -0.2940
13332SOL     OW41436   5.046   0.871   0.444  0.6122  0.2344 -0.3015
13332SOL    HW141437   4.968   0.905   0.488 -2.3153 -1.5743 -3.5340
13332SOL    HW241438   5.070   0.793   0.494 -1.4129 -0.6923 -0.6476
13333SOL     OW41439   4.883   0.580  10.207 -0.2852 -0.3346 -0.4233
13333SOL    HW141440   4.805   0.598  10.260  0.7110 -0.9510  1.3440
13333SOL    HW241441   4.953   0.566  10.271  0.3500 -4.3647 -1.7341
13334SOL     OW41442   4.917   1.954  10.557 -0.7352  0.2955 -0.5001
13334SOL    HW141443   4.903   1.859  10.562 -0.2551  0.1802 -1.1270
13334SOL    HW241444   4.922   1.982  10.648  0.2037 -0.4581 -0.3017
13335SOL     OW41445   6.164   1.273  11.923 -0.1636 -0.1693  0.4623
13335SOL    HW141446   6.143   1.366  11.919  0.3059 -0.0079  1.5331
13335SOL    HW241447   6.078   1.230  11.931 -0.3930  0.1440 -0.2112
13336SOL     OW41448   5.209   1.824  10.857 -0.1125  0.0669 -0.3129
13336SOL    HW141449   5.129   1.863  10.893 -0.7570 -0.0686 -1.5489
13336SOL    HW241450   5.264   1.899  10.835  0.7169  0.1428  1.7996
13337SOL     OW41451   6.977   1.234  10.550  0.4812  0.1030 -0.0312
13337SOL    HW141452   7.006   1.194  10.468  0.8235 -0.2024  0.2420
13337SOL    HW241453   6.903   1.290  10.523  0.3980 -0.2236 -0.5027
13338SOL     OW41454   2.530   0.649  11.028 -0.5153  0.1466 -0.1732
13338SOL    HW141455   2.581   0.725  11.057  2.2461 -1.3403 -0.8138
13338SOL    HW241456   2.574   0.574  11.068 -2.5795 -1.2300 -0.3523
13339SOL     OW41457   5.845   6.849  11.088  0.5789  0.2989  0.4086
13339SOL    HW141458   5.816   6.757  11.087 -1.1802  0.8055  1.2828
13339SOL    HW241459   5.923   6.850  11.032 -0.2518 -1.4369 -0.8814
13340SOL     OW41460   5.873   3.091  10.105  0.0944 -0.0436  0.4772
13340SOL    HW141461   5.915   3.067  10.022  0.0313  0.9095  0.1636
13340SOL    HW241462   5.944   3.129  10.157 -0.5129  2.4710 -0.4134
13341SOL     OW41463   4.506   0.312  10.319 -0.3094 -0.0587  0.2552
13341SOL    HW141464   4.544   0.296  10.233 -0.6348  1.9911 -0.3238
13341SOL    HW241465   4.428   0.256  10.321 -1.8062  1.7236 -1.9267
13342SOL     OW41466   5.154   1.649  10.650  0.2605  0.3053  0.3542
13342SOL    HW141467   5.184   1.710  10.717  0.2557  1.1632 -0.3971
13342SOL    HW241468   5.090   1.699  10.599  0.1822 -0.3605 -0.2139
13343SOL     OW41469   3.641   1.946   8.012 -0.3070  0.1333 -0.3394
13343SOL    HW141470   3.572   2.004   7.979  1.2030  1.3697 -1.4556
13343SOL    HW241471   3.695   1.926   7.935  0.4480 -1.0349  0.4521
13344SOL     OW41472   4.855   0.506  11.946  0.1924  0.1756 -0.4354
13344SOL    HW141473   4.851   0.447  12.021 -0.0194  1.4641  0.6008
13344SOL    HW241474   4.856   0.448  11.870  0.5785 -1.1682  0.5545
13345SOL     OW41475   2.931   1.163  11.901  0.1431 -0.5314  0.4555
13345SOL    HW141476   2.933   1.083  11.848 -1.9155 -1.6761  1.9598
13345SOL    HW241477   3.010   1.158  11.954  1.2799 -0.2974 -1.1360
13346SOL     OW41478   5.467   0.737  10.121  0.2543 -0.0761 -0.2607
13346SOL    HW141479   5.412   0.675  10.073  0.1242 -1.1051  1.1704
13346SOL    HW241480   5.450   0.821  10.079  0.2225 -0.9354 -2.0628
13347SOL     OW41481   3.318   1.966  10.238 -1.1853 -0.9724 -0.1323
13347SOL    HW141482   3.329   1.946  10.331 -1.9708 -0.8210  0.0021
13347SOL    HW241483   3.247   1.908  10.211 -0.1997 -1.8548 -0.9257
13348SOL     OW41484   3.822   1.965  11.292  0.1360  0.0697 -0.4585
13348SOL    HW141485   3.843   1.980  11.384 -0.0083 -1.0948 -0.2218
13348SOL    HW241486   3.750   2.025  11.274 -0.5943 -0.5060  0.5046
13349SOL     OW41487   3.913   1.202   9.806  0.2827  0.2752  0.3322
13349SOL    HW141488   3.896   1.234   9.717  2.4231 -0.5803 -0.4592
13349SOL    HW241489   3.827   1.174   9.839 -0.5285  0.4388 -1.5268
13350SOL     OW41490   3.579   0.629   8.847 -0.1524 -0.1378  0.0885
13350SOL    HW141491   3.664   0.626   8.892 -0.3760 -0.2848  0.5124
13350SOL    HW241492   3.578   0.713   8.801  0.2024 -0.1162  0.1206
13351SOL     OW41493   5.135   0.312  11.743 -0.1328  0.2098 -0.5789
13351SOL    HW141494   5.152   0.322  11.649  0.7381  0.8369 -0.3639
13351SOL    HW241495   5.142   0.401  11.778 -1.6757  0.1742 -0.0983
13352SOL     OW41496   3.505   2.917  11.179 -0.2081  0.1659  0.2519
13352SOL    HW141497   3.536   2.832  11.211 -0.1306 -0.0899 -0.4853
13352SOL    HW241498   3.503   2.907  11.084 -1.3407  0.5963  0.2177
13353SOL     OW41499   6.009   0.408  10.435  0.2425  0.3426 -0.2472
13353SOL    HW141500   5.982   0.450  10.353  0.9539  0.7177 -0.2969
13353SOL    HW241501   6.005   0.478  10.500  2.0778  0.7049 -0.4577
13354SOL     OW41502   4.484   1.307  10.737 -0.0877 -0.4650  0.0541
13354SOL    HW141503   4.551   1.239  10.742 -0.2721 -0.8277 -1.7403
13354SOL    HW241504   4.418   1.271  10.677 -0.9883  0.6327  0.3544
13355SOL     OW41505   5.317   1.926  11.495  0.4919  0.2785 -0.1747
13355SOL    HW141506   5.389   1.925  11.559  0.0648 -0.2119  0.3026
13355SOL    HW241507   5.331   1.848  11.442  0.4070  0.2783 -0.1958
13356SOL     OW41508   4.087   7.613  11.622 -0.1839  0.4117 -0.2696
13356SOL    HW141509   4.095   7.548  11.552 -3.1975  0.4576 -0.7841
13356SOL    HW241510   4.036   7.684  11.584 -0.4065  1.2452  1.4765
13357SOL     OW41511   4.295   3.045   9.779 -0.0537 -0.0765 -0.2242
13357SOL    HW141512   4.287   3.049   9.683  0.3286  0.0627 -0.2536
13357SOL    HW241513   4.387   3.069   9.796  0.0207 -0.6044  0.1426
13358SOL     OW41514   4.679   2.214   9.054 -0.4477 -0.2905  0.0943
13358SOL    HW141515   4.639   2.281   8.999 -0.9065  0.7668  1.6188
13358SOL    HW241516   4.738   2.263   9.112 -1.1433 -1.1179  1.5704
13359SOL     OW41517   4.596   2.150  11.728  0.1995  0.3237 -0.1694
13359SOL    HW141518   4.562   2.224  11.778  3.4368  1.4257  0.6257
13359SOL    HW241519   4.592   2.178  11.636  0.2016  0.9406  0.0195
13360SOL     OW41520   4.600   0.300  10.979 -0.1906 -0.0054 -0.1211
13360SOL    HW141521   4.601   0.205  10.972 -2.0337  0.0365 -2.1559
13360SOL    HW241522   4.629   0.331  10.893  0.4907  1.2730  0.5514
13361SOL     OW41523   6.728   7.234   8.466 -0.7430  0.0512 -0.4262
13361SOL    HW141524   6.818   7.252   8.495 -0.3798  0.0111 -1.4917
13361SOL    HW241525   6.681   7.315   8.484 -0.0998  0.6480 -1.3551
13362SOL     OW41526   5.339   2.341  10.811 -0.3828 -0.1409  0.7263
13362SOL    HW141527   5.291   2.259  10.817 -1.5818  0.5703  1.3183
13362SOL    HW241528   5.352   2.368  10.902 -0.2567  0.4600  0.5380
13363SOL     OW41529   4.085   2.515  11.943  0.3889 -0.1607 -0.1777
13363SOL    HW141530   4.166   2.527  11.993  0.3563 -0.6959  0.0090
13363SOL    HW241531   4.114   2.513  11.852  0.4909  0.4447 -0.1657
13364SOL     OW41532   5.740   0.587   9.893 -0.2608  0.3689 -0.5122
13364SOL    HW141533   5.712   0.628   9.975 -2.3430  1.6553 -1.7753
13364SOL    HW241534   5.803   0.521   9.920  0.1858  1.6843  1.9973
13365SOL     OW41535   4.621   1.558  10.253  0.5762 -0.4527 -0.1586
13365SOL    HW141536   4.657   1.472  10.233 -1.3910 -1.0853 -1.2217
13365SOL    HW241537   4.618   1.603  10.169 -0.0164  0.0050  0.0962
13366SOL     OW41538   6.610   0.508   9.867  0.2154  0.4578 -0.9676
13366SOL    HW141539   6.641   0.420   9.890 -0.4515  1.0062  2.7076
13366SOL    HW241540   6.523   0.513   9.908 -0.6119  2.2280 -2.7823
13367SOL     OW41541   6.338   1.873  10.428 -0.3475  0.2328  0.1934
13367SOL    HW141542   6.430   1.881  10.454 -0.7479 -0.1552  1.8220
13367SOL    HW241543   6.315   1.961  10.397  0.1021  0.7898  1.4064
13368SOL     OW41544   4.097   2.299  10.357 -0.4125  0.7433  0.6436
13368SOL    HW141545   4.125   2.329  10.444  0.0822  1.3035  0.2933
13368SOL    HW241546   4.038   2.368  10.326 -1.3878  0.0680  0.9414
13369SOL     OW41547   5.517   1.177   9.872  0.1182 -0.4281  0.2259
13369SOL    HW141548   5.524   1.215   9.784  0.6953 -2.0179 -0.4611
13369SOL    HW241549   5.604   1.190   9.911  0.2010 -0.6883  0.1325
13370SOL     OW41550   6.649   2.333  11.678  0.5777 -1.0155  0.8742
13370SOL    HW141551   6.744   2.317  11.676  0.6029 -0.8963  1.0974
13370SOL    HW241552   6.641   2.428  11.677  0.4355 -1.0250 -0.1910
13371SOL     OW41553   5.273   2.077  10.935  0.0611  0.1337  0.2868
13371SOL    HW141554   5.181   2.105  10.938 -0.1442 -0.4965 -0.1079
13371SOL    HW241555   5.295   2.058  11.026 -0.6661 -1.1898  0.2069
13372SOL     OW41556   4.935   2.566  11.415 -0.2084  0.3727 -0.2877
13372SOL    HW141557   4.914   2.595  11.326  0.3114  0.1237 -0.4903
13372SOL    HW241558   4.855   2.523  11.445 -0.4387  0.5957 -0.5730
13373SOL     OW41559   5.226   0.442   9.756 -0.3479  0.0528 -0.6838
13373SOL    HW141560   5.275   0.434   9.674  0.9771  0.1333  0.0704
13373SOL    HW241561   5.252   0.365   9.807 -1.4004 -0.1607 -0.4419
13374SOL     OW41562   3.148   0.751   9.950  0.4701 -0.0380 -0.1806
13374SOL    HW141563   3.223   0.783  10.000 -0.9536  0.5663  1.7115
13374SOL    HW241564   3.129   0.665   9.987 -1.3864  0.9486  1.3430
13375SOL     OW41565   5.149   2.289   9.723 -0.0855  0.0060  0.4514
13375SOL    HW141566   5.211   2.291   9.796 -0.6927  0.2550  0.9663
13375SOL    HW241567   5.064   2.273   9.764 -0.1755 -2.0302 -0.3764
13376SOL     OW41568   4.461   1.431  10.997 -0.0015 -0.4095  0.8103
13376SOL    HW141569   4.493   1.395  10.914  0.7544 -1.3365  1.4798
13376SOL    HW241570   4.518   1.505  11.014  0.0860 -0.4510  0.6999
13377SOL     OW41571   4.326   2.230  12.012 -0.2229  0.7313  0.6682
13377SOL    HW141572   4.262   2.187  12.069  0.5662  0.0211  1.0426
13377SOL    HW241573   4.393   2.163  11.997 -0.1111  1.1048 -0.6082
13378SOL     OW41574   5.786   2.353   9.545  0.5475  0.2807 -0.9233
13378SOL    HW141575   5.855   2.416   9.524  1.0723  0.0577  0.0756
13378SOL    HW241576   5.829   2.288   9.601 -0.6699  0.6430  0.4870
13379SOL     OW41577   5.171   1.534  11.100 -0.4306  0.0390  0.3380
13379SOL    HW141578   5.178   1.503  11.009 -0.7675 -1.0669  0.6704
13379SOL    HW241579   5.105   1.476  11.139 -0.5140  0.7116  1.2053
13380SOL     OW41580   6.020   0.192  11.225 -0.6497 -0.1858  0.4149
13380SOL    HW141581   6.004   0.100  11.208  0.1287 -0.2510 -0.0270
13380SOL    HW241582   5.982   0.238  11.150 -1.4229 -0.1008  0.8432
13381SOL     OW41583   4.983   1.219  10.054 -0.3259  0.4623  0.3680
13381SOL    HW141584   5.015   1.246   9.969 -0.4178 -0.4514  0.0289
13381SOL    HW241585   5.041   1.148  10.081 -0.3805  0.6485  1.0038
13382SOL     OW41586   5.004   6.650  10.846  0.2579  0.4206  0.4427
13382SOL    HW141587   5.046   6.736  10.840  1.0307 -0.0070 -0.5031
13382SOL    HW241588   4.981   6.629  10.755  1.3594 -0.9890  0.4679
13383SOL     OW41589   3.460   1.743   9.336 -0.7347 -0.3867 -0.1166
13383SOL    HW141590   3.503   1.754   9.420 -0.1723 -0.1094 -0.4303
13383SOL    HW241591   3.386   1.804   9.338  1.3410  2.3893 -1.1704
13384SOL     OW41592   4.745   0.599  10.888 -0.2331  0.5363 -0.6365
13384SOL    HW141593   4.649   0.596  10.882 -0.2579 -0.0765 -0.0648
13384SOL    HW241594   4.774   0.621  10.800 -0.8485 -0.6328 -1.1523
13385SOL     OW41595   5.640   2.413   9.304 -0.4726 -0.1774 -0.0813
13385SOL    HW141596   5.703   2.410   9.375  0.4849  2.3801 -0.7238
13385SOL    HW241597   5.575   2.346   9.326  1.1665 -1.2291  1.8160
13386SOL     OW41598   2.730   0.775  10.617  0.1162 -0.1109 -0.5144
13386SOL    HW141599   2.675   0.852  10.632  0.9217  0.3638  0.1530
13386SOL    HW241600   2.776   0.762  10.701  0.8206 -0.6373 -0.9659
13387SOL     OW41601   4.589   7.447  11.282 -0.5125  0.4619  0.1773
13387SOL    HW141602   4.556   7.406  11.202  0.1264 -0.6797  0.4802
13387SOL    HW241603   4.516   7.443  11.343 -0.2212 -0.9615  0.4543
13388SOL     OW41604   4.270   0.413   9.554 -0.2428 -0.3669  0.3521
13388SOL    HW141605   4.233   0.501   9.542  0.2365 -0.0909  0.8373
13388SOL    HW241606   4.325   0.421   9.632 -0.2025 -1.1039  0.3991
13389SOL     OW41607   3.217   0.059  10.098  1.3991  0.2190  0.5103
13389SOL    HW141608   3.262   0.130  10.144  1.9494 -0.6144  1.2773
13389SOL    HW241609   3.287   0.011  10.054  0.9138  0.8521 -1.0372
13390SOL     OW41610   5.889   1.327   0.150  0.1528  0.3250 -0.3657
13390SOL    HW141611   5.860   1.372   0.230  1.6528  2.3972 -0.9073
13390SOL    HW241612   5.975   1.291   0.173 -1.1500 -2.8524  0.1847
13391SOL     OW41613   5.937   1.187  11.174  0.5586 -0.3694 -0.0510
13391SOL    HW141614   5.883   1.111  11.155 -0.7020  0.6899 -0.8969
13391SOL    HW241615   6.024   1.152  11.189  0.1694 -1.9141 -1.1854
13392SOL     OW41616   4.389   0.909  11.610 -0.0656 -0.0424 -0.1281
13392SOL    HW141617   4.334   0.978  11.572 -1.3582 -0.6272  0.5785
13392SOL    HW241618   4.476   0.924  11.575 -1.2147 -0.8077 -3.6834
13393SOL     OW41619   6.178   2.631   8.628  0.0847 -0.2270  0.2211
13393SOL    HW141620   6.223   2.641   8.712  0.4597 -0.4646  0.0567
13393SOL    HW241621   6.102   2.688   8.634 -0.0244 -0.4207  0.8148
13394SOL     OW41622   4.439   1.018  12.432  0.6152  0.1784 -0.1259
13394SOL    HW141623   4.367   1.063  12.476  1.0279  0.0814  0.6606
13394SOL    HW241624   4.403   0.933  12.407  0.6003 -0.0576  0.6964
13395SOL     OW41625   5.598   2.019  12.228  0.9581 -0.0622  0.0531
13395SOL    HW141626   5.548   2.014  12.309  1.3152  0.2132  0.2936
13395SOL    HW241627   5.575   2.103  12.189  2.0971  0.5921  0.7450
13396SOL     OW41628   5.501   1.844   8.969 -0.1497 -0.3044 -0.3929
13396SOL    HW141629   5.569   1.809   9.026 -0.4414  1.4429  1.1379
13396SOL    HW241630   5.545   1.859   8.886  1.3694  0.7543  0.5550
13397SOL     OW41631   5.458   6.930  11.584 -0.6631 -0.0035  0.1546
13397SOL    HW141632   5.442   6.858  11.645 -0.4864 -2.1456 -2.1320
13397SOL    HW241633   5.516   6.990  11.631 -0.6569 -1.4617  2.1078
13398SOL     OW41634   4.078   0.113   8.611  0.6395  0.3138  0.2744
13398SOL    HW141635   4.074   0.106   8.707 -0.3522  1.2786  0.3126
13398SOL    HW241636   4.069   0.206   8.593 -3.0427 -0.0958 -0.8843
13399SOL     OW41637   4.464   2.336  10.558  0.0521  0.2912  0.4294
13399SOL    HW141638   4.441   2.367  10.646 -0.0598 -0.8105  0.7973
13399SOL    HW241639   4.555   2.363  10.546  0.9753 -1.8927  1.9858
13400SOL     OW41640   4.632   2.323  12.026 -0.0132  0.5222 -0.7669
13400SOL    HW141641   4.557   2.332  11.968  0.5242  0.6523 -1.4425
13400SOL    HW241642   4.600   2.355  12.111 -1.3512 -1.3072 -0.5143
13401SOL     OW41643   4.763   1.804   8.803  0.7995 -0.1362 -0.0526
13401SOL    HW141644   4.762   1.766   8.715 -1.0938 -0.5802  0.1284
13401SOL    HW241645   4.815   1.884   8.794  1.2990 -0.5794 -1.3785
13402SOL     OW41646   5.001   1.718   9.437  0.0150 -0.0964  0.2443
13402SOL    HW141647   5.012   1.717   9.341  0.8864 -2.1772  0.2987
13402SOL    HW241648   4.906   1.712   9.450 -0.3561  3.0347 -0.4133
13403SOL     OW41649   4.095   0.450  10.848  0.0056 -0.1171 -0.5198
13403SOL    HW141650   4.172   0.492  10.886  0.0128  0.3532 -1.0387
13403SOL    HW241651   4.091   0.364  10.890 -0.0595  0.4178  0.6422
13404SOL     OW41652   3.572   2.567   8.476 -0.2583 -0.5202  0.1261
13404SOL    HW141653   3.575   2.604   8.388 -0.2929 -0.4658  0.1476
13404SOL    HW241654   3.632   2.493   8.473 -0.3582 -0.5972  0.0187
13405SOL     OW41655   4.826   1.976   9.666  0.2778  0.0965 -0.6675
13405SOL    HW141656   4.898   1.942   9.718 -0.2287 -0.9262 -0.6104
13405SOL    HW241657   4.799   2.056   9.711  1.6088  0.7017 -0.9043
13406SOL     OW41658   7.076   1.690   8.994  0.2728  0.0765  0.3519
13406SOL    HW141659   7.012   1.636   8.948  0.8995 -1.1185  0.8384
13406SOL    HW241660   7.027   1.733   9.064  0.0001 -0.9081  0.7832
13407SOL     OW41661   3.996   2.337  10.896 -0.3213  0.0567  0.6024
13407SOL    HW141662   3.945   2.416  10.874 -1.2220 -0.4471  0.8421
13407SOL    HW241663   3.983   2.326  10.990  2.7653  1.6726  1.3590
13408SOL     OW41664   2.872   2.330   9.080  0.2036  0.8000 -0.3604
13408SOL    HW141665   2.811   2.345   9.152  0.2473  0.0458 -0.1600
13408SOL    HW241666   2.958   2.333   9.121  0.3496  2.3773 -0.7267
13409SOL     OW41667   5.763   1.851  10.078 -0.6941 -0.5500 -0.8231
13409SOL    HW141668   5.745   1.924  10.137 -1.4652 -0.8535 -0.6772
13409SOL    HW241669   5.689   1.792  10.089  0.7520 -2.2497  0.4311
13410SOL     OW41670   7.207   1.144  11.331 -0.2153  0.6861 -0.7353
13410SOL    HW141671   7.267   1.160  11.404  0.5274  1.9314 -1.5790
13410SOL    HW241672   7.177   1.231  11.305 -0.5639  0.2571 -1.8304
13411SOL     OW41673   6.402   0.171   9.123  0.5087  0.3386 -0.5569
13411SOL    HW141674   6.464   0.104   9.094  0.3379  0.1509 -0.4866
13411SOL    HW241675   6.454   0.252   9.124  0.6858  0.2303 -0.7511
13412SOL     OW41676   6.110   2.256   9.929  0.1673  0.1021 -0.2740
13412SOL    HW141677   6.162   2.332   9.902  1.1808 -0.7349 -0.7521
13412SOL    HW241678   6.160   2.181   9.897 -1.3478 -0.7408 -0.7271
13413SOL     OW41679   2.667   2.809  11.507  0.2725 -0.7086 -0.1418
13413SOL    HW141680   2.621   2.893  11.513 -0.3907 -1.1313  0.8297
13413SOL    HW241681   2.696   2.805  11.416  0.7639  0.8076 -0.0942
13414SOL     OW41682   2.655   2.400   8.842 -0.3421  0.3949 -0.0077
13414SOL    HW141683   2.574   2.448   8.862 -0.9696 -0.0857 -1.3383
13414SOL    HW241684   2.681   2.431   8.756 -0.5824 -1.3986 -0.7659
13415SOL     OW41685   4.400   1.388  10.004  0.4871 -0.0274 -0.1499
13415SOL    HW141686   4.313   1.358   9.978  1.0883 -0.9575 -1.1704
13415SOL    HW241687   4.387   1.480  10.029 -0.4337  0.5127 -2.3730
13416SOL     OW41688   5.809   0.043  10.265  0.1835 -0.0903  0.1721
13416SOL    HW141689   5.865   0.080  10.333  1.1883  1.3051 -1.3309
13416SOL    HW241690   5.746   0.112  10.246 -1.6302 -1.3603  1.2941
13417SOL     OW41691   3.800   1.909   9.006 -0.1827  0.3717 -0.0834
13417SOL    HW141692   3.803   1.831   8.951  1.1506  0.0445  0.4066
13417SOL    HW241693   3.772   1.979   8.947 -2.0531 -0.5746 -0.3746
13418SOL     OW41694   5.141   0.018   9.754 -0.0919  0.3196 -0.0424
13418SOL    HW141695   5.103   0.030   9.666 -0.4665  0.9104  0.1904
13418SOL    HW241696   5.066  -0.008   9.808  0.0872  0.2235  0.1579
13419SOL     OW41697   3.840   0.590   9.998  0.2785  0.3653  0.2956
13419SOL    HW141698   3.898   0.549   9.935 -1.1488  0.6467 -1.2638
13419SOL    HW241699   3.755   0.548   9.983 -0.8859  2.8290 -0.3554
13420SOL     OW41700   5.697   0.331  11.480 -0.2979  0.0616  0.4171
13420SOL    HW141701   5.648   0.375  11.411  0.5787  0.1332 -0.1854
13420SOL    HW241702   5.666   0.371  11.561 -1.2634  0.0574  0.0674
13421SOL     OW41703   5.562   0.687  10.475  0.4757  0.6137 -0.0325
13421SOL    HW141704   5.498   0.618  10.459  1.0486 -0.1824  1.0042
13421SOL    HW241705   5.513   0.768  10.462 -1.0004  0.0421  1.5618
13422SOL     OW41706   4.642   0.354  10.076  0.3495 -0.0239 -0.3884
13422SOL    HW141707   4.688   0.428  10.037  0.6780 -0.6030 -1.1052
13422SOL    HW241708   4.593   0.315  10.004 -2.8786  1.6824  0.6532
13423SOL     OW41709   6.799   0.482  11.582 -0.3328 -0.0353 -0.2966
13423SOL    HW141710   6.799   0.559  11.639  1.4882 -1.6732  2.1484
13423SOL    HW241711   6.707   0.469  11.561 -1.1612  0.6585  2.4132
13424SOL     OW41712   3.235   1.635  11.692 -0.7025 -0.1048 -0.5771
13424SOL    HW141713   3.262   1.721  11.723  1.1584 -0.7064 -0.3993
13424SOL    HW241714   3.190   1.652  11.609  0.4718  0.9829 -1.0208
13425SOL     OW41715   3.549   0.340   0.742 -0.2240  0.8866 -0.3314
13425SOL    HW141716   3.567   0.427   0.777 -1.1336  0.9459  0.0113
13425SOL    HW241717   3.509   0.292   0.815  2.3967 -0.6203  0.2797
13426SOL     OW41718   5.709   0.806   0.389 -0.2616 -0.5026  0.4812
13426SOL    HW141719   5.730   0.880   0.333  2.9820 -1.6274 -0.0524
13426SOL    HW241720   5.691   0.734   0.328  1.0618 -1.1761  0.8319
13427SOL     OW41721   5.376   7.489   0.318  0.0714  0.2326  0.2607
13427SOL    HW141722   5.331   7.423   0.371 -0.3234  0.3281  0.0454
13427SOL    HW241723   5.322   7.567   0.327  1.0679  0.8323  1.3301
13428SOL     OW41724   5.204   0.945  11.668  0.0232  0.0994  0.7074
13428SOL    HW141725   5.156   0.885  11.725 -1.5242  0.7190  0.1331
13428SOL    HW241726   5.161   0.936  11.583  2.5392 -1.1017 -0.5239
13429SOL     OW41727   4.616   7.506   1.526  0.3559  0.2634 -0.0148
13429SOL    HW141728   4.668   7.580   1.496 -0.1118  0.4177 -0.4758
13429SOL    HW241729   4.643   7.492   1.617  0.6437  0.8251 -0.0090
13430SOL     OW41730   4.777   1.795  10.775  0.2479  0.2611  0.2904
13430SOL    HW141731   4.836   1.822  10.845  1.8439  0.0609 -0.9126
13430SOL    HW241732   4.835   1.760  10.707 -1.3412 -0.9165 -0.5368
13431SOL     OW41733   4.666   0.038  12.340  0.2917  0.1742 -0.2146
13431SOL    HW141734   4.715   0.034  12.257  0.7679 -0.7546  0.1007
13431SOL    HW241735   4.577   0.013  12.315  0.7994 -1.8151 -0.1907
13432SOL     OW41736   4.095   0.555  11.917  0.3726  0.1548 -0.6171
13432SOL    HW141737   4.142   0.625  11.873 -0.3791  0.6171 -0.6895
13432SOL    HW241738   4.003   0.582  11.915 -0.0409 -1.2384 -1.4135
13433SOL     OW41739   3.502   0.404  11.824 -0.2366 -0.6562 -0.2874
13433SOL    HW141740   3.457   0.454  11.892  1.0838 -0.2513  0.3265
13433SOL    HW241741   3.466   0.316  11.831 -0.6617 -0.4343  0.4313
13434SOL     OW41742   5.003   0.628   0.595 -0.6995  0.2092  0.2719
13434SOL    HW141743   4.949   0.616   0.517  0.8085  0.2895 -0.8196
13434SOL    HW241744   5.052   0.546   0.604  0.9135  1.0567 -0.3222
13435SOL     OW41745   3.738   1.416  10.459 -0.0140 -0.5028 -0.3986
13435SOL    HW141746   3.688   1.351  10.509  0.5512 -0.6937 -0.0716
13435SOL    HW241747   3.719   1.499  10.502  2.0835 -0.9052  1.5063
13436SOL     OW41748   3.244   2.799  11.581 -0.2972 -0.9187 -0.4774
13436SOL    HW141749   3.247   2.872  11.520  1.2434 -1.0031 -0.5416
13436SOL    HW241750   3.193   2.732  11.536  0.1825 -0.7056 -1.3658
13437SOL     OW41751   3.718   1.368   0.136 -0.1811 -0.2115 -0.5960
13437SOL    HW141752   3.724   1.285   0.089  2.5639 -0.1031 -0.5962
13437SOL    HW241753   3.669   1.347   0.216  0.7850 -1.9525 -0.4080
13438SOL     OW41754   4.906   1.287  10.890 -0.3379  0.3601  0.0789
13438SOL    HW141755   4.918   1.338  10.810  0.4771  1.6682  1.0004
13438SOL    HW241756   4.811   1.284  10.901 -0.4787 -0.1433 -1.1090
13439SOL     OW41757   4.547   0.488  11.772  0.4256  0.6772  0.7647
13439SOL    HW141758   4.555   0.450  11.859 -0.6811 -3.2764 -0.6371
13439SOL    HW241759   4.632   0.471  11.730  0.0716  0.1691  0.2460
13440SOL     OW41760   5.946   2.032  11.058 -0.0862 -0.0091  0.1964
13440SOL    HW141761   5.918   2.019  10.967  1.7818  1.1619 -0.6073
13440SOL    HW241762   5.883   2.094  11.094  0.8482  1.9391 -1.3135
13441SOL     OW41763   4.311   1.301   9.717  0.1868  0.0238 -0.6193
13441SOL    HW141764   4.264   1.362   9.661  0.0720  1.1636  0.6751
13441SOL    HW241765   4.250   1.281   9.788  1.2176  0.6576  0.4830
13442SOL     OW41766   5.301   1.600  11.577 -0.3251 -0.1144  0.5459
13442SOL    HW141767   5.306   1.547  11.497 -0.5075 -0.0834  0.5126
13442SOL    HW241768   5.373   1.663  11.569  0.0125 -0.4846  0.6783
13443SOL     OW41769   6.704   1.355  12.163  0.5228  0.3588 -0.0159
13443SOL    HW141770   6.772   1.356  12.095  0.9887 -0.8321  0.4058
13443SOL    HW241771   6.660   1.271  12.152 -0.5039  0.8625  0.1065
13444SOL     OW41772   2.418   0.163  12.171 -0.0852  0.1761 -0.4192
13444SOL    HW141773   2.383   0.075  12.159 -1.0733  0.5144 -0.2085
13444SOL    HW241774   2.359   0.203  12.236 -0.1164  1.2300 -1.0656
13445SOL     OW41775   4.378   7.966   0.589  0.0457 -0.5329 -0.0576
13445SOL    HW141776   4.352   8.049   0.548 -0.1023 -1.0682 -1.0917
13445SOL    HW241777   4.367   7.980   0.682  0.2210  0.6834 -0.2096
13446SOL     OW41778   4.060   1.327  10.377  0.0938  0.8229 -0.4644
13446SOL    HW141779   4.040   1.272  10.302 -0.6981  0.6085 -0.1038
13446SOL    HW241780   4.132   1.383  10.347 -1.0553  1.6376 -1.7945
13447SOL     OW41781   4.960   7.334  12.284  0.0166  0.2088  0.8726
13447SOL    HW141782   4.938   7.348  12.192  2.2268  0.0943  0.2568
13447SOL    HW241783   4.951   7.420  12.324 -2.7885 -0.0693  1.0644
13448SOL     OW41784   6.137   0.554  12.114 -0.1145 -0.0895  0.1244
13448SOL    HW141785   6.128   0.459  12.111  2.5653 -0.3920 -0.4433
13448SOL    HW241786   6.151   0.574  12.207 -0.5041 -0.2618  0.2214
13449SOL     OW41787   4.675   1.710   0.232 -0.1009 -0.8730 -0.6167
13449SOL    HW141788   4.721   1.734   0.312 -2.4066  0.5662  0.3636
13449SOL    HW241789   4.716   1.627   0.205  4.5184  1.2908 -1.1438
13450SOL     OW41790   4.012   0.313  10.510  0.2151 -0.7299 -0.2277
13450SOL    HW141791   4.060   0.317  10.593  0.1972  0.9454 -0.2797
13450SOL    HW241792   4.062   0.368  10.450 -2.1817  1.8607 -0.0397
13451SOL     OW41793   4.400   7.883  11.895 -0.0514  0.3264  0.2658
13451SOL    HW141794   4.470   7.883  11.960  0.4861  1.6122 -0.2652
13451SOL    HW241795   4.418   7.960  11.840 -1.5921  0.3999 -0.2016
13452SOL     OW41796   6.426   1.215  11.966  0.0065 -0.9000 -0.1891
13452SOL    HW141797   6.331   1.224  11.973 -0.0007 -0.1234 -1.1277
13452SOL    HW241798   6.453   1.289  11.912  1.2409 -0.6808  0.6770
13453SOL     OW41799   5.201   2.666  11.413  0.3057 -0.1457  0.2211
13453SOL    HW141800   5.204   2.571  11.408  0.0895 -0.2433  1.7354
13453SOL    HW241801   5.109   2.688  11.399  0.4899 -0.0843 -0.9959
13454SOL     OW41802   4.355   1.265   0.841  0.2078 -0.2176  0.2471
13454SOL    HW141803   4.429   1.248   0.783 -0.3367  1.3829 -1.0096
13454SOL    HW241804   4.371   1.211   0.918  1.8429 -1.1147 -0.6730
13455SOL     OW41805   3.013   0.836  11.512  0.4790 -0.7395 -0.1220
13455SOL    HW141806   3.102   0.862  11.535  0.4236 -0.1593 -0.5543
13455SOL    HW241807   3.005   0.858  11.419  1.0299 -3.8578 -1.0584
13456SOL     OW41808   4.571   0.374  12.047  0.5933 -0.4706 -0.1950
13456SOL    HW141809   4.645   0.315  12.033  1.4103  0.1551  1.2651
13456SOL    HW241810   4.606   0.442  12.104 -0.5280  1.0442 -1.2596
13457SOL     OW41811   4.346   7.415   0.248  0.5858  0.5786  0.1676
13457SOL    HW141812   4.382   7.496   0.211  0.0664  0.8130  0.1628
13457SOL    HW241813   4.255   7.437   0.269 -0.0115 -0.4179 -1.2073
13458SOL     OW41814   6.090   1.047   0.673  0.0059 -0.0287  0.4559
13458SOL    HW141815   6.089   1.052   0.769  0.6930  1.2926  0.4025
13458SOL    HW241816   5.997   1.039   0.649 -0.1991  0.0407  1.2025
13459SOL     OW41817   4.294   7.949  10.992  0.2658  0.1895 -0.9189
13459SOL    HW141818   4.238   7.872  11.001  0.6496 -0.0942 -0.9224
13459SOL    HW241819   4.301   7.984  11.080 -1.1931  1.1456 -1.1586
13460SOL     OW41820   3.464   0.672  12.369 -0.6587 -0.5786  0.3698
13460SOL    HW141821   3.389   0.664  12.310 -0.3527  1.9691 -0.5320
13460SOL    HW241822   3.431   0.725  12.442 -0.0561 -0.4645  0.5624
13461SOL     OW41823   3.557   2.064   0.259  0.1300  0.1473  0.0948
13461SOL    HW141824   3.593   2.083   0.172  2.1042 -0.7715  0.6745
13461SOL    HW241825   3.465   2.044   0.242  0.6632 -0.9031 -1.9297
13462SOL     OW41826   6.503   2.957  12.324  0.0950 -0.1254  0.0204
13462SOL    HW141827   6.478   3.001  12.243 -0.4189  0.4197  0.4633
13462SOL    HW241828   6.506   2.864  12.302 -0.6826 -0.0408 -0.4605
13463SOL     OW41829   4.530   7.837   0.374  0.2931  0.0626  0.2781
13463SOL    HW141830   4.475   7.770   0.332  0.2715  1.1779 -1.5960
13463SOL    HW241831   4.470   7.884   0.432 -0.6973  0.9462 -1.3720
13464SOL     OW41832   4.556   2.141   0.867 -0.0848  0.1995  0.0976
13464SOL    HW141833   4.618   2.122   0.937 -2.6910 -1.1207  2.2303
13464SOL    HW241834   4.564   2.235   0.853  1.7993  0.1891  0.8601
13465SOL     OW41835   3.836   2.175   0.489  0.2336 -0.4344 -0.6801
13465SOL    HW141836   3.797   2.263   0.490  1.6669  0.2659 -2.2379
13465SOL    HW241837   3.877   2.166   0.575 -1.2662 -0.2597  0.0983
13466SOL     OW41838   5.546   1.654   1.302  0.0128  0.5479 -0.4026
13466SOL    HW141839   5.583   1.578   1.256  1.4170  0.5715  0.6248
13466SOL    HW241840   5.481   1.616   1.361  0.9772  0.0603  0.3852
13467SOL     OW41841   3.690   0.705  11.534 -0.2411  0.0338  0.2087
13467SOL    HW141842   3.603   0.664  11.537  0.1901 -0.8524  1.3429
13467SOL    HW241843   3.672   0.799  11.528 -1.2889 -0.1283  0.5676
13468SOL     OW41844   4.047   7.795  10.929  0.6178 -0.3139 -0.5259
13468SOL    HW141845   4.083   7.853  10.862  3.2145 -2.8626 -1.5595
13468SOL    HW241846   4.026   7.714  10.882 -0.4289 -1.1260  1.2484
13469SOL     OW41847   3.545   0.794  11.924 -0.4357 -0.0074 -0.4957
13469SOL    HW141848   3.455   0.764  11.928 -1.0109  1.7265  0.2913
13469SOL    HW241849   3.580   0.776  12.011  0.4219 -1.8130 -1.1454
13470SOL     OW41850   3.542   7.813   0.237  0.2068  0.1409  0.2251
13470SOL    HW141851   3.487   7.843   0.165 -0.0754 -1.6452 -0.3392
13470SOL    HW241852   3.491   7.744   0.280  1.2213 -0.2445  0.8467
13471SOL     OW41853   2.023   1.415   9.928  0.1638  0.1008  0.1902
13471SOL    HW141854   2.070   1.380   9.852  2.1228 -0.0544  1.4073
13471SOL    HW241855   1.937   1.372   9.925  1.2465 -2.1889 -0.3039
13472SOL     OW41856   5.565   5.480   0.434 -0.1602 -0.5263  0.1672
13472SOL    HW141857   5.567   5.466   0.340 -0.1717  0.5382 -0.0016
13472SOL    HW241858   5.473   5.498   0.454  0.0572  0.6822  0.1467
13473SOL     OW41859   6.128   7.899   0.088  0.2640  0.1030 -0.0979
13473SOL    HW141860   6.149   7.975   0.035 -1.7193 -0.0738 -1.2601
13473SOL    HW241861   6.032   7.897   0.091  0.2783 -1.3229  1.4298
13474SOL     OW41862   2.141   1.081  10.042 -0.1094 -0.0753 -0.0782
13474SOL    HW141863   2.144   1.086   9.947 -0.7383 -0.1406 -0.1044
13474SOL    HW241864   2.107   0.993  10.060  1.9689 -0.8745  0.2387
13475SOL     OW41865   2.947   0.414  12.488 -0.1411 -0.3511  0.5030
13475SOL    HW141866   2.855   0.395  12.473  0.0598 -0.1942 -1.2046
13475SOL    HW241867   2.989   0.328  12.492 -0.2568 -0.4099  0.4584
13476SOL     OW41868   6.569   1.961  11.420  0.2222 -0.2581 -0.0637
13476SOL    HW141869   6.542   2.053  11.423  1.6845  0.2378 -0.6676
13476SOL    HW241870   6.510   1.921  11.356 -0.0278  0.4197 -0.2704
13477SOL     OW41871   4.691   1.539   9.037 -0.0557 -0.2179  0.5416
13477SOL    HW141872   4.646   1.621   9.018 -1.5123 -1.0741  0.1384
13477SOL    HW241873   4.722   1.509   8.952 -0.1376 -0.4225  0.5826
13478SOL     OW41874   3.694   1.309   0.396  0.3314  0.3058  0.5429
13478SOL    HW141875   3.633   1.291   0.468 -1.1100  0.4299 -0.6055
13478SOL    HW241876   3.773   1.259   0.419 -1.0772 -1.9343  0.8711
13479SOL     OW41877   3.245   1.111  11.381 -0.2481  0.7161  0.2710
13479SOL    HW141878   3.248   1.019  11.355  2.2840  0.5757  0.8109
13479SOL    HW241879   3.299   1.116  11.459  1.4926  2.9982 -0.9525
13480SOL     OW41880   4.558   0.287  12.409 -0.4133 -0.5724 -0.2421
13480SOL    HW141881   4.614   0.225  12.362  0.7072 -0.4955  0.9075
13480SOL    HW241882   4.522   0.236  12.481  1.4509  0.2949  1.4207
13481SOL     OW41883   6.305   2.693  12.049 -0.9050 -0.2912  0.8296
13481SOL    HW141884   6.370   2.718  12.114  0.4282 -1.0020 -0.1830
13481SOL    HW241885   6.342   2.617  12.005 -2.2990 -0.5549  0.0238
13482SOL     OW41886   3.859   1.261  11.172  0.1489 -0.2913  0.2161
13482SOL    HW141887   3.841   1.324  11.103  0.3504 -0.6801 -0.1936
13482SOL    HW241888   3.938   1.294  11.215  0.2793 -0.2900 -0.0253
13483SOL     OW41889   4.776   7.704   1.439  0.6273 -0.5629 -0.5085
13483SOL    HW141890   4.747   7.721   1.349 -0.6260 -2.8671 -0.6394
13483SOL    HW241891   4.862   7.664   1.430  0.0552 -1.7707 -0.8037
13484SOL     OW41892   5.337   2.012  11.193  0.8259 -0.8404 -0.2646
13484SOL    HW141893   5.290   1.940  11.235 -0.5083 -0.5718 -1.2350
13484SOL    HW241894   5.307   2.090  11.239  1.0720 -0.7522 -0.2504
13485SOL     OW41895   3.904   5.791   3.026  0.2685  0.1625  0.1106
13485SOL    HW141896   3.826   5.802   2.972  0.1047  0.3167  0.3804
13485SOL    HW241897   3.940   5.707   2.999 -0.2406 -0.1227  0.3075
13486SOL     OW41898   6.293   3.244  11.071 -0.5216 -0.4380 -0.0037
13486SOL    HW141899   6.281   3.337  11.052 -0.2613 -0.0963  1.4180
13486SOL    HW241900   6.329   3.208  10.990  0.8388  1.0080 -0.1042
13487SOL     OW41901   3.850   0.575  12.258  0.2462 -0.4801  0.5255
13487SOL    HW141902   3.790   0.583  12.332  0.6007 -0.5725  0.8307
13487SOL    HW241903   3.806   0.517  12.196  0.2919 -1.0711  1.0316
13488SOL     OW41904   4.893   1.395  11.213  0.1666 -0.8889  0.3660
13488SOL    HW141905   4.803   1.372  11.234 -0.1778  0.3271  0.2734
13488SOL    HW241906   4.897   1.490  11.223  1.7866 -1.0455  1.6885
13489SOL     OW41907   5.131   2.501  12.188 -0.5773 -0.6446 -0.6153
13489SOL    HW141908   5.143   2.596  12.195  0.0583 -0.6025 -1.9574
13489SOL    HW241909   5.139   2.470  12.278  2.6450  0.2156 -0.4758
13490SOL     OW41910   4.208   0.683  11.372 -0.5285 -0.0207 -0.1812
13490SOL    HW141911   4.262   0.662  11.448  0.7200  0.2499 -0.9605
13490SOL    HW241912   4.120   0.658  11.397  0.1944 -2.0020  0.5615
13491SOL     OW41913   5.252   1.207  12.278  0.0868  0.1493 -0.0274
13491SOL    HW141914   5.342   1.190  12.304  0.0912  0.5936  0.2325
13491SOL    HW241915   5.206   1.125  12.299  0.7170 -0.6537 -1.5478
13492SOL     OW41916   3.423   2.155  10.634 -0.1119 -0.0136  0.1548
13492SOL    HW141917   3.455   2.130  10.721  0.3876 -0.5906 -0.1813
13492SOL    HW241918   3.443   2.079  10.579 -0.0030  0.5272 -0.5615
13493SOL     OW41919   6.047   0.128   1.187 -0.4368  0.0206  0.0003
13493SOL    HW141920   5.980   0.156   1.124  1.1998  2.9251 -0.6273
13493SOL    HW241921   6.130   0.148   1.144  0.7938 -0.2396  2.1218
13494SOL     OW41922   6.333   7.377   1.114 -0.1171 -0.6488 -0.0958
13494SOL    HW141923   6.295   7.465   1.117  0.5755 -0.3556  0.6751
13494SOL    HW241924   6.427   7.392   1.113  0.0898 -1.3660  2.0177
13495SOL     OW41925   4.377   0.360  11.184  1.2475 -0.2347 -0.2000
13495SOL    HW141926   4.435   0.400  11.249 -0.0610 -0.1373  0.9289
13495SOL    HW241927   4.437   0.325  11.118  2.7577 -2.3864  2.1463
13496SOL     OW41928   3.987   7.552   0.572 -0.0189  0.3705  0.3891
13496SOL    HW141929   3.939   7.470   0.560  1.0146 -0.2096  0.0971
13496SOL    HW241930   4.072   7.525   0.607  0.0325  1.3912  1.0893
13497SOL     OW41931   5.818   0.074   0.913  0.1486 -0.3376  0.0784
13497SOL    HW141932   5.860   0.159   0.904 -0.1118 -0.1491  0.5893
13497SOL    HW241933   5.889   0.011   0.905  0.1117 -0.1675 -2.0901
13498SOL     OW41934   3.205   1.467  10.798 -0.0799  0.0004  0.0470
13498SOL    HW141935   3.250   1.384  10.810  1.1179  0.5725 -0.3171
13498SOL    HW241936   3.274   1.533  10.806 -0.7323  0.8804 -1.2005
13499SOL     OW41937   4.211   0.072   9.172 -0.0489 -0.8561  0.2145
13499SOL    HW141938   4.216   0.088   9.077 -0.6569  0.1600  0.3327
13499SOL    HW241939   4.210   0.160   9.210 -0.4633 -1.2473  1.1270
13500SOL     OW41940   5.652   0.233  11.075 -0.1439  0.0325 -0.6867
13500SOL    HW141941   5.671   0.139  11.074  4.4277  0.7528 -0.3406
13500SOL    HW241942   5.613   0.248  11.161 -0.5218 -1.4722 -0.5676
13501SOL     OW41943   4.178   2.067   0.805  0.3433  0.1295  0.0616
13501SOL    HW141944   4.235   1.992   0.784 -0.5069 -0.3234 -0.7121
13501SOL    HW241945   4.229   2.120   0.866  1.3437 -0.5884 -0.1307
13502SOL     OW41946   4.342   0.867  11.231  0.0664  0.4324 -0.1221
13502SOL    HW141947   4.282   0.801  11.265 -0.1078  0.1893 -0.8749
13502SOL    HW241948   4.398   0.819  11.170 -0.3731  1.0587 -1.0405
13503SOL     OW41949   3.691   0.984  10.583  0.4849 -0.0809 -0.3997
13503SOL    HW141950   3.750   0.912  10.563  1.4256  0.2079  1.1414
13503SOL    HW241951   3.740   1.063  10.562 -0.8846  0.1678 -2.9802
13504SOL     OW41952   5.874   0.180   1.860  0.2703  0.2784 -0.1135
13504SOL    HW141953   5.834   0.181   1.947 -0.2062  0.5193 -0.3281
13504SOL    HW241954   5.859   0.269   1.827  2.0742  0.7626  0.2805
13505SOL     OW41955   4.257   1.197   0.062  0.5381  0.1664 -0.3670
13505SOL    HW141956   4.243   1.291   0.077  0.5462  0.1342 -0.1478
13505SOL    HW241957   4.183   1.154   0.105  0.2717  0.0949 -0.8913
13506SOL     OW41958   5.239   7.988   1.079 -0.6657  0.2374 -0.0342
13506SOL    HW141959   5.158   8.038   1.072 -0.4382  0.4303 -1.6478
13506SOL    HW241960   5.301   8.035   1.024  0.8349  0.5854  1.8217
13507SOL     OW41961   3.903   2.672   0.720 -0.0812  0.1077  0.1265
13507SOL    HW141962   3.831   2.687   0.658  1.1542  0.1950 -1.3567
13507SOL    HW241963   3.982   2.692   0.670  0.9501  1.0599  2.0417
13508SOL     OW41964   2.787   7.908  12.157 -0.2269  0.6408 -0.8403
13508SOL    HW141965   2.731   7.935  12.084 -0.2879  1.7386 -0.3953
13508SOL    HW241966   2.744   7.943  12.235 -0.7594 -1.4351 -0.1174
13509SOL     OW41967   5.901   0.936  11.332  0.6942  0.1734 -0.2919
13509SOL    HW141968   5.877   0.977  11.415 -0.7218 -2.3489  0.6428
13509SOL    HW241969   5.997   0.929  11.337  0.6520  0.1299  1.1324
13510SOL     OW41970   4.246   1.744   0.603  0.0919 -0.2580 -0.1829
13510SOL    HW141971   4.271   1.797   0.679 -0.1343  0.5502 -0.6535
13510SOL    HW241972   4.289   1.660   0.617 -0.1219 -0.2022  0.9496
13511SOL     OW41973   4.284   1.294  11.181  0.3652  0.1000  0.1660
13511SOL    HW141974   4.350   1.248  11.234 -1.1337 -2.6011 -0.0842
13511SOL    HW241975   4.326   1.309  11.097  0.7378 -1.5545  0.0176
13512SOL     OW41976   2.982   5.700  12.386  0.4690 -0.1457  0.2046
13512SOL    HW141977   3.068   5.741  12.396  1.3194 -2.0104  0.9608
13512SOL    HW241978   2.998   5.624  12.331 -0.9726  0.2019 -0.7528
13513SOL     OW41979   4.195   7.446  10.583  0.2001 -0.1800 -0.3204
13513SOL    HW141980   4.244   7.483  10.510  0.7787 -0.5191 -0.1145
13513SOL    HW241981   4.239   7.363  10.602  1.8270  1.1140  2.1608
13514SOL     OW41982   5.104   7.546  11.267  0.1815  0.5099 -0.2082
13514SOL    HW141983   5.126   7.491  11.342 -0.8498  0.7473  0.2823
13514SOL    HW241984   5.029   7.503  11.226 -0.8433  1.6827  0.3668
13515SOL     OW41985   4.243   1.366  11.477  0.0496 -0.1672  0.6242
13515SOL    HW141986   4.297   1.415  11.415  0.2173 -1.6660 -0.4712
13515SOL    HW241987   4.157   1.361  11.435  0.1477 -1.1485  0.5115
13516SOL     OW41988   3.755   2.165  10.524  0.5784 -0.3364 -0.2886
13516SOL    HW141989   3.751   2.215  10.443  2.8655  0.1586 -0.1515
13516SOL    HW241990   3.671   2.182  10.567  0.5276  1.8279 -1.1415
13517SOL     OW41991   2.390   7.010  10.448  0.8103 -0.1030  0.1525
13517SOL    HW141992   2.463   6.948  10.454 -0.1923 -1.5770 -1.7890
13517SOL    HW241993   2.396   7.044  10.358 -0.6278  0.0852  0.1191
13518SOL     OW41994   4.390   0.338   0.945 -0.1982 -0.0509  0.2851
13518SOL    HW141995   4.346   0.417   0.915  0.7477  0.8531  1.1690
13518SOL    HW241996   4.343   0.312   1.024  0.8630  0.9990  1.3129
13519SOL     OW41997   3.634   1.744  11.284 -0.4963  0.1525  0.4170
13519SOL    HW141998   3.683   1.825  11.297  1.1156 -0.9465  1.6980
13519SOL    HW241999   3.686   1.678  11.329 -2.5243 -1.3465  0.6859
13520SOL     OW42000   4.952   7.502   1.150  0.1810  0.2409 -0.4129
13520SOL    HW142001   4.861   7.522   1.175  0.2206  1.3515 -1.1019
13520SOL    HW242002   4.988   7.457   1.226 -0.7663  0.3462  0.1135
13521SOL     OW42003   2.438   1.444  11.696 -0.1983  0.1353  0.7359
13521SOL    HW142004   2.495   1.496  11.752  2.1662  2.2231 -3.2188
13521SOL    HW242005   2.406   1.506  11.630  0.7717 -2.7904 -2.7966
13522SOL     OW42006   3.749   1.444  12.035  0.5402  0.1032  0.0457
13522SOL    HW142007   3.711   1.494  12.107 -0.5663 -0.6607  0.0245
13522SOL    HW242008   3.739   1.501  11.959  1.7509  0.9316  0.4715
13523SOL     OW42009   5.411   7.631   0.706  0.7985  0.5880  0.2410
13523SOL    HW142010   5.454   7.566   0.761  1.4189  1.1802  0.4625
13523SOL    HW242011   5.344   7.669   0.762 -1.0257 -1.3005 -0.5136
13524SOL     OW42012   3.698   1.335   1.279 -0.2462 -0.0354  0.0796
13524SOL    HW142013   3.783   1.290   1.283  1.1003  2.3282  0.0851
13524SOL    HW242014   3.653   1.292   1.206  0.9841 -1.2929 -0.0066
13525SOL     OW42015   6.100   0.926  11.939  0.3214 -0.1340  0.0782
13525SOL    HW142016   6.177   0.930  11.882 -0.0464  0.7363 -0.3655
13525SOL    HW242017   6.064   0.838  11.923  0.8776 -0.3288 -0.1562
13526SOL     OW42018   4.563   6.832   1.657  0.3764 -0.0155 -0.6152
13526SOL    HW142019   4.616   6.753   1.645 -0.3223 -0.6096  0.0295
13526SOL    HW242020   4.492   6.822   1.593 -1.2124 -1.2792  1.2448
13527SOL     OW42021   5.433   1.269   0.661  0.2889 -0.2657  0.2316
13527SOL    HW142022   5.453   1.178   0.640 -1.2678 -0.3745 -0.9687
13527SOL    HW242023   5.374   1.265   0.736  0.6224 -0.2063  0.5013
13528SOL     OW42024   3.328   0.188  11.801 -0.1012  0.4602  0.3804
13528SOL    HW142025   3.353   0.097  11.788 -0.6537  0.4042 -0.3203
13528SOL    HW242026   3.339   0.229  11.715 -0.4438  0.9134  0.5444
13529SOL     OW42027   4.231   1.217  12.288 -0.4662  0.0045  0.0005
13529SOL    HW142028   4.142   1.215  12.253 -0.3187 -1.4168 -0.3367
13529SOL    HW242029   4.219   1.203  12.382 -0.6248  0.2299  0.0158
13530SOL     OW42030   3.863   1.192  11.492 -0.0676  0.3569 -0.3608
13530SOL    HW142031   3.838   1.161  11.579 -0.4097 -0.0244 -0.5958
13530SOL    HW242032   3.853   1.287  11.496 -0.5041  0.2990 -0.1202
13531SOL     OW42033   5.267   3.120   0.651 -0.2207  0.2624 -0.6074
13531SOL    HW142034   5.319   3.073   0.715  1.3861  1.4225 -0.9999
13531SOL    HW242035   5.231   3.195   0.698  1.2924  1.3419 -1.0960
13532SOL     OW42036   5.237   2.824  11.998  0.1941 -0.3873  0.4998
13532SOL    HW142037   5.215   2.778  12.079 -0.4378 -1.0950 -0.0597
13532SOL    HW242038   5.333   2.829  11.999  0.1763  2.1894  2.6727
13533SOL     OW42039   4.215   7.846  10.570 -0.4922  0.0587  0.1139
13533SOL    HW142040   4.307   7.821  10.585 -0.5785 -0.3687 -0.0658
13533SOL    HW242041   4.199   7.826  10.478 -0.8686 -0.1990  0.2309
13534SOL     OW42042   5.000   6.285  12.406 -0.2211  0.6419 -0.8080
13534SOL    HW142043   5.015   6.191  12.419 -0.5258  0.7805  0.6772
13534SOL    HW242044   5.087   6.320  12.385  0.3380  0.3561  0.8464
13535SOL     OW42045   4.579   0.745   0.551  0.3623 -0.1345  0.1223
13535SOL    HW142046   4.615   0.676   0.605 -0.2889 -0.6774 -0.1172
13535SOL    HW242047   4.576   0.822   0.608 -4.3255 -1.6445  2.4906
13536SOL     OW42048   3.876   1.173  11.772  0.1678 -0.0209 -0.3723
13536SOL    HW142049   3.951   1.219  11.812 -1.2821  1.2309  1.0758
13536SOL    HW242050   3.840   1.120  11.843 -2.1824  1.8633 -0.0077
13537SOL     OW42051   5.012   1.558  11.622 -0.4409 -0.5142  0.0634
13537SOL    HW142052   5.008   1.485  11.683 -1.6475  1.0844  2.0183
13537SOL    HW242053   5.099   1.596  11.636 -1.2417  0.7203  1.9338
13538SOL     OW42054   4.957   1.114  11.888  0.1023 -0.4997  0.2161
13538SOL    HW142055   5.022   1.058  11.932  0.0271 -0.0771  0.8875
13538SOL    HW242056   4.885   1.120  11.951  0.4523  1.0086  0.5120
13539SOL     OW42057   4.663   7.499  12.369 -0.0713  0.1734 -0.5332
13539SOL    HW142058   4.616   7.582  12.376 -1.3863 -0.4252 -1.8104
13539SOL    HW242059   4.673   7.485  12.274 -0.1128 -1.2490 -0.3537
13540SOL     OW42060   4.103   0.101  10.219 -0.3244 -0.2584  0.1008
13540SOL    HW142061   4.012   0.073  10.219 -0.2692 -0.4411  0.0987
13540SOL    HW242062   4.127   0.110  10.127 -0.3836 -0.0647  0.1031
13541SOL     OW42063   5.258   0.138   0.357  0.0104  0.6018  0.5399
13541SOL    HW142064   5.177   0.087   0.369 -0.3188  1.0100  0.0412
13541SOL    HW242065   5.282   0.165   0.446 -0.4121  0.4994  0.6871
13542SOL     OW42066   4.639   6.923  10.503 -0.1324  0.0587  0.2805
13542SOL    HW142067   4.569   6.877  10.456 -0.8593  0.8775  0.5219
13542SOL    HW242068   4.679   6.855  10.558 -1.4825 -0.2249  0.9773
13543SOL     OW42069   4.259   0.108  11.240 -0.4620  0.0732  0.1760
13543SOL    HW142070   4.302   0.052  11.304 -0.3179 -0.1600 -0.1221
13543SOL    HW242071   4.290   0.196  11.261  1.4130 -0.2461 -0.9865
13544SOL     OW42072   5.158   3.106  10.273 -0.0713  0.0056 -0.4840
13544SOL    HW142073   5.191   3.036  10.329 -1.1811 -1.5026 -1.6437
13544SOL    HW242074   5.112   3.061  10.202 -0.9300  1.9188 -1.2105
13545SOL     OW42075   5.132   0.024  12.176  0.4739  0.1146  0.1221
13545SOL    HW142076   5.172   0.104  12.210  1.1412 -0.2284  0.1603
13545SOL    HW242077   5.188  -0.002  12.103  0.4190 -0.4724  0.2882
13546SOL     OW42078   4.005   7.302   0.116 -0.0612  0.6662 -0.1166
13546SOL    HW142079   3.972   7.222   0.157  0.8531  0.3281 -0.0166
13546SOL    HW242080   4.039   7.273   0.031 -0.7335  1.1388 -0.5491
13547SOL     OW42081   4.732   1.152  12.068 -0.4508 -0.4649 -0.0449
13547SOL    HW142082   4.658   1.127  12.013 -0.5337 -1.1981  0.3800
13547SOL    HW242083   4.719   1.103  12.149 -0.4088  0.7150  0.6936
13548SOL     OW42084   6.209   0.134   0.706  0.3965  0.4094  1.0571
13548SOL    HW142085   6.271   0.072   0.668 -1.0793 -0.6964  0.3727
13548SOL    HW242086   6.241   0.149   0.795 -0.4276 -3.2085  2.1117
13549SOL     OW42087   3.592   1.957  10.569 -0.0731  0.8676 -0.1184
13549SOL    HW142088   3.664   1.985  10.513 -0.6128 -1.1426 -1.9544
13549SOL    HW242089   3.634   1.907  10.639  0.4167  0.8913 -0.3899
13550SOL     OW42090   4.790   7.507  10.723  0.0481 -0.0126 -0.2061
13550SOL    HW142091   4.753   7.421  10.701  0.8269 -0.1747 -0.9113
13550SOL    HW242092   4.770   7.562  10.648  2.7516 -0.5837 -1.4691
13551SOL     OW42093   2.760   1.484  10.580 -0.2302  0.3571 -0.4782
13551SOL    HW142094   2.855   1.483  10.588 -0.2006 -0.4117 -0.8252
13551SOL    HW242095   2.728   1.443  10.661 -0.2409  0.1462 -0.5875
13552SOL     OW42096   5.229   2.847  10.800 -0.1945 -0.0078  0.1962
13552SOL    HW142097   5.200   2.934  10.772 -0.2852  0.2975  1.1995
13552SOL    HW242098   5.321   2.844  10.775  0.4537  1.2910  2.1581
13553SOL     OW42099   3.850   1.381  10.758 -0.3658 -0.5677 -0.1748
13553SOL    HW142100   3.767   1.338  10.737 -0.4319 -0.5233 -0.0118
13553SOL    HW242101   3.830   1.434  10.835 -0.3632  0.0014 -0.5637
13554SOL     OW42102   4.130   1.061  11.679  0.0944  0.0150  0.4101
13554SOL    HW142103   4.101   0.990  11.737 -0.1628  1.0664  1.6209
13554SOL    HW242104   4.053   1.118  11.672  0.9128  1.2205  1.1109
13555SOL     OW42105   3.953   1.471   0.227  0.4919  0.0723  0.3573
13555SOL    HW142106   3.862   1.446   0.214  0.7203 -0.1971 -0.8681
13555SOL    HW242107   3.952   1.566   0.234  0.0338  0.0141  1.2583
13556SOL     OW42108   3.466   7.549  11.778  0.0253  0.0801  0.0947
13556SOL    HW142109   3.523   7.606  11.726 -1.8151  0.8719 -1.1762
13556SOL    HW242110   3.387   7.601  11.792 -1.4924 -1.9024 -0.5680
13557SOL     OW42111   5.987   1.711  11.738  0.3580 -0.3856 -0.0490
13557SOL    HW142112   5.903   1.734  11.698  0.1954  0.2281  0.6194
13557SOL    HW242113   5.973   1.624  11.775 -0.7576  0.5928  2.0534
13558SOL     OW42114   6.053   0.663  11.858 -0.6589  0.0338  0.1924
13558SOL    HW142115   6.001   0.605  11.803  0.1940 -0.5824  0.0075
13558SOL    HW242116   6.065   0.614  11.939  0.2750 -0.1630 -0.0548
13559SOL     OW42117   3.706   1.966   2.439  0.2939 -0.0753 -0.1614
13559SOL    HW142118   3.718   1.871   2.446  0.5113 -0.0148  0.3423
13559SOL    HW242119   3.698   1.995   2.530  1.1872  0.5105 -0.2546
13560SOL     OW42120   5.925   1.208   0.514  0.3396 -0.4549  0.1038
13560SOL    HW142121   6.015   1.179   0.498  1.0758  1.2020  0.9185
13560SOL    HW242122   5.870   1.135   0.486  1.8395 -0.7982 -2.2190
13561SOL     OW42123   6.661   1.747  12.312 -0.1698 -0.1526 -0.0302
13561SOL    HW142124   6.572   1.756  12.276  0.3178 -1.6475 -1.7866
13561SOL    HW242125   6.714   1.722  12.237  1.7104  0.4144  1.0567
13562SOL     OW42126   5.746   2.996  10.771 -0.2633  0.0814 -0.1834
13562SOL    HW142127   5.820   3.051  10.797 -0.4865  0.9796 -1.3865
13562SOL    HW242128   5.784   2.930  10.713 -0.5183  1.0704 -1.5039
13563SOL     OW42129   3.470   0.234  11.189  0.5487 -0.6415 -0.0238
13563SOL    HW142130   3.411   0.188  11.249 -0.3074  0.8217  0.2852
13563SOL    HW242131   3.426   0.232  11.105  0.4734 -0.3054  0.0086
13564SOL     OW42132   6.415   0.776   0.370  0.1140  0.0550  0.4867
13564SOL    HW142133   6.366   0.803   0.449  0.8068  0.3244  0.8291
13564SOL    HW242134   6.507   0.788   0.394  0.3143  1.2243 -0.7498
13565SOL     OW42135   4.125   1.241   1.233 -0.2518 -0.1808  0.1350
13565SOL    HW142136   4.032   1.249   1.255 -0.1072 -1.3670  1.3227
13565SOL    HW242137   4.164   1.201   1.310  0.8747 -1.6414 -1.1203
13566SOL     OW42138   6.366   2.432  11.922 -0.1733  0.4078 -0.0461
13566SOL    HW142139   6.282   2.411  11.882 -1.0830  1.7199  1.0531
13566SOL    HW242140   6.419   2.467  11.851 -1.6061  2.3210 -0.2631
13567SOL     OW42141   4.306   1.779  11.001 -0.2783  0.3086 -0.1686
13567SOL    HW142142   4.234   1.717  10.990 -1.0005  1.1635 -0.3330
13567SOL    HW242143   4.368   1.756  10.932  1.4713 -2.8800  2.1867
13568SOL     OW42144   4.345   7.397  12.182 -0.2194  0.0145 -0.0462
13568SOL    HW142145   4.287   7.428  12.252 -0.9529  0.3421 -0.7877
13568SOL    HW242146   4.302   7.424  12.101  0.3822 -0.7734 -0.6441
13569SOL     OW42147   4.492   0.771  11.976  0.5153 -0.0474  0.0621
13569SOL    HW142148   4.475   0.855  12.019 -0.4283 -0.6710  0.9357
13569SOL    HW242149   4.414   0.754  11.924 -0.3049 -1.4344  1.6535
13570SOL     OW42150   2.909   0.886  11.242 -0.1261 -0.5730 -0.2229
13570SOL    HW142151   2.835   0.940  11.271  1.2216  1.8590 -1.0724
13570SOL    HW242152   2.879   0.847  11.159 -0.9198 -0.7453  0.1321
13571SOL     OW42153   3.825   1.096  10.299 -0.1781  0.1695 -0.0671
13571SOL    HW142154   3.833   1.187  10.329 -2.1612  0.0990  0.8392
13571SOL    HW242155   3.891   1.048  10.349 -0.7901  0.7199  1.3334
13572SOL     OW42156   4.852   0.530  11.199  0.2629  0.0755 -0.4750
13572SOL    HW142157   4.883   0.465  11.136 -0.9420  0.2048 -1.2363
13572SOL    HW242158   4.873   0.615  11.159  0.6353  0.1683 -0.0990
13573SOL     OW42159   6.222   1.614   0.389 -0.0586  0.0482 -0.0326
13573SOL    HW142160   6.282   1.540   0.379 -0.4440 -0.4717  1.2127
13573SOL    HW242161   6.171   1.592   0.467  1.0043  2.4388  1.4727
13574SOL     OW42162   4.212   0.734  10.816 -0.1408 -0.3128  0.0755
13574SOL    HW142163   4.237   0.817  10.857  1.2185 -1.1391  1.0036
13574SOL    HW242164   4.184   0.759  10.728  0.3597  1.1253  0.2945
13575SOL     OW42165   5.120   1.020  11.424  0.3545  0.0116 -0.1020
13575SOL    HW142166   5.104   1.114  11.425  0.6926  0.0677  0.1440
13575SOL    HW242167   5.149   1.001  11.335  0.0702  0.1011 -0.2157
13576SOL     OW42168   3.221   2.401  11.687  0.1913  0.1651 -0.1108
13576SOL    HW142169   3.256   2.489  11.701  0.3549 -0.0538  0.9515
13576SOL    HW242170   3.157   2.390  11.757 -1.1136  0.0817 -1.2755
13577SOL     OW42171   3.559   1.541   3.372 -0.0828  0.6873 -0.8187
13577SOL    HW142172   3.651   1.568   3.381 -0.4416  1.1886  2.4006
13577SOL    HW242173   3.564   1.451   3.340  1.7495 -0.3306  1.9087
13578SOL     OW42174   3.540   2.365   1.221  0.1005 -0.1604  0.0805
13578SOL    HW142175   3.468   2.407   1.269 -1.0146  0.8503 -2.2661
13578SOL    HW242176   3.613   2.364   1.283 -1.2437  0.9522  1.7951
13579SOL     OW42177   4.936   3.034   2.254 -0.0025 -0.0495  0.3446
13579SOL    HW142178   4.848   3.002   2.274  0.7644 -2.1227  0.6378
13579SOL    HW242179   4.953   3.101   2.320 -1.7817  1.2839 -0.4636
13580SOL     OW42180   4.348   3.396  12.213  0.2052  0.0103  0.0996
13580SOL    HW142181   4.340   3.468  12.276  3.3507 -0.2906  1.0211
13580SOL    HW242182   4.381   3.439  12.133 -1.9272  0.1039 -0.8023
13581SOL     OW42183   6.209   2.559   0.792  0.0550 -0.1927  0.5899
13581SOL    HW142184   6.138   2.607   0.747 -1.6302 -2.2189  0.9185
13581SOL    HW242185   6.281   2.622   0.797 -1.1359  1.4490 -1.2375
13582SOL     OW42186   5.316   3.779   1.358 -0.2689  0.4210  0.8526
13582SOL    HW142187   5.326   3.707   1.295 -0.4510  1.1618 -0.0439
13582SOL    HW242188   5.222   3.782   1.376 -0.1439 -0.2300  1.7189
13583SOL     OW42189   5.461   1.394   0.429 -0.0022  0.0524  0.1162
13583SOL    HW142190   5.455   1.373   0.522 -1.4754  3.6038  1.0138
13583SOL    HW242191   5.555   1.397   0.411  0.2926 -1.7150  1.1641
13584SOL     OW42192   5.387   2.000   1.011  0.3413  0.4784  0.2534
13584SOL    HW142193   5.468   1.950   1.008  0.2364  0.3217 -0.0673
13584SOL    HW242194   5.322   1.939   1.046  0.0586  0.1521 -0.7801
13585SOL     OW42195   2.743   2.151   0.080  0.4672  0.0486  0.4580
13585SOL    HW142196   2.759   2.244   0.097  0.6867  0.0993 -0.0142
13585SOL    HW242197   2.797   2.105   0.144  0.3215  0.2434  0.7241
13586SOL     OW42198   6.593   2.055   1.086  0.2583 -0.1322 -0.3092
13586SOL    HW142199   6.504   2.089   1.079 -0.2383 -1.2666  0.1052
13586SOL    HW242200   6.629   2.061   0.998 -0.1346  0.5761 -0.4256
13587SOL     OW42201   4.335   3.926   2.557  0.2661  0.3673 -0.2241
13587SOL    HW142202   4.364   3.861   2.622 -0.2856  0.6307  0.2938
13587SOL    HW242203   4.310   4.002   2.610 -1.1958  0.2136 -0.6625
13588SOL     OW42204   6.666   3.651   1.216 -0.3239 -0.1237 -0.3542
13588SOL    HW142205   6.688   3.608   1.299  0.4213  1.0361  0.0801
13588SOL    HW242206   6.699   3.592   1.149  2.0421  0.3896  0.2509
13589SOL     OW42207   3.496   2.224   2.536 -0.4621 -0.3097 -0.2748
13589SOL    HW142208   3.548   2.175   2.472  0.8379  0.3222  0.2573
13589SOL    HW242209   3.558   2.241   2.608 -1.4093  0.5097  0.3617
13590SOL     OW42210   3.798   2.139   1.894  0.0003 -0.0429 -0.0101
13590SOL    HW142211   3.837   2.224   1.874 -1.7114  0.8544  0.2973
13590SOL    HW242212   3.770   2.105   1.809 -0.4874  0.3219 -0.0029
13591SOL     OW42213   3.537   2.574   1.037  0.5714 -0.9157 -0.5900
13591SOL    HW142214   3.450   2.586   0.999  0.4463  0.8274  0.1632
13591SOL    HW242215   3.537   2.484   1.070 -1.2363 -0.6996  0.1028
13592SOL     OW42216   6.156   3.527   4.247  0.2210  0.0913  0.2792
13592SOL    HW142217   6.189   3.508   4.335  2.0214 -1.3242 -0.6262
13592SOL    HW242218   6.077   3.473   4.240  0.6930 -0.6835  0.6663
13593SOL     OW42219   2.264   3.797   3.128  0.3820  0.0934  0.0328
13593SOL    HW142220   2.190   3.805   3.067 -1.2682 -0.4529  1.8736
13593SOL    HW242221   2.237   3.728   3.189  2.0781  0.4540  1.2457
13594SOL     OW42222   1.816   4.152   1.200 -0.0564 -0.2062 -0.2733
13594SOL    HW142223   1.759   4.103   1.259  0.1346  1.9134  1.8314
13594SOL    HW242224   1.902   4.112   1.212 -0.4232 -1.2166 -0.8580
13595SOL     OW42225   6.394   3.461   1.715 -0.5218  0.6723 -0.1102
13595SOL    HW142226   6.419   3.469   1.807  0.7186  2.3835 -0.5572
13595SOL    HW242227   6.300   3.442   1.718 -0.3658 -0.0261  1.5064
13596SOL     OW42228   5.913   4.155   3.209  0.2772  0.5319 -0.6560
13596SOL    HW142229   5.936   4.240   3.247 -0.3147  0.3889  0.0550
13596SOL    HW242230   5.870   4.177   3.126 -1.2789  1.0312  0.2375
13597SOL     OW42231   5.416   7.643   1.182 -0.3683 -0.2208 -0.1315
13597SOL    HW142232   5.420   7.602   1.268 -0.2788 -0.6209 -0.3232
13597SOL    HW242233   5.469   7.586   1.126  1.0229  0.9621 -0.0774
13598SOL     OW42234   3.862   2.904  12.371 -0.0555 -0.2675  0.5029
13598SOL    HW142235   3.848   2.992  12.405  0.2972  0.0322 -0.1199
13598SOL    HW242236   3.818   2.903  12.286 -0.9549 -1.0237  0.9526
13599SOL     OW42237   6.017   2.507   1.001  0.4295  0.2341 -0.2106
13599SOL    HW142238   5.923   2.498   0.986  0.3314 -0.4250  0.6426
13599SOL    HW242239   6.035   2.600   0.988 -0.1961  0.2383 -1.1211
13600SOL     OW42240   3.649   3.498   0.547  0.2636 -0.0698  0.0262
13600SOL    HW142241   3.623   3.563   0.612  1.9564 -0.2759  0.9825
13600SOL    HW242242   3.721   3.539   0.499  0.6969 -0.8622 -0.0149
13601SOL     OW42243   4.519   2.705   0.946  0.2079 -0.4521 -0.7395
13601SOL    HW142244   4.526   2.617   0.909 -0.5112 -0.8001 -0.0523
13601SOL    HW242245   4.427   2.715   0.968  0.3885  0.2591 -0.2776
13602SOL     OW42246   5.315   2.836   0.835  0.6185 -0.1472 -0.2462
13602SOL    HW142247   5.401   2.793   0.841  1.0813  0.5826 -1.2977
13602SOL    HW242248   5.265   2.799   0.907  1.7132 -0.8340  0.1953
13603SOL     OW42249   2.167   1.109   1.584  0.1945  0.4194  0.3358
13603SOL    HW142250   2.143   1.155   1.504 -1.1848  1.6624  1.3879
13603SOL    HW242251   2.176   1.017   1.559 -1.0451  0.6573 -1.0810
13604SOL     OW42252   5.050   3.128   0.449  0.1479  0.1181  0.1454
13604SOL    HW142253   5.097   3.148   0.529 -0.2899  0.7187  0.2558
13604SOL    HW242254   5.067   3.035   0.434  0.6561  0.1263  0.6483
13605SOL     OW42255   5.992   4.097   1.899 -0.0057  0.2798 -0.1648
13605SOL    HW142256   5.924   4.124   1.961 -0.0353  1.0739 -0.5259
13605SOL    HW242257   5.956   4.121   1.813  1.8397  3.3994 -0.2320
13606SOL     OW42258   5.441   0.356  10.905 -0.2013 -0.2903 -0.2887
13606SOL    HW142259   5.517   0.332  10.959 -0.0765  2.1857  0.7587
13606SOL    HW242260   5.378   0.285  10.920  1.1220 -1.3569  0.4411
13607SOL     OW42261   4.529   4.087   2.366  1.0074  0.2699 -0.4275
13607SOL    HW142262   4.479   4.007   2.383  1.2273  0.2748  0.2628
13607SOL    HW242263   4.595   4.090   2.435  0.7660  1.2398 -0.2122
13608SOL     OW42264   3.051   2.615  11.513 -0.4959  0.0408  0.3838
13608SOL    HW142265   2.995   2.617  11.590 -1.3141  0.5936 -0.2029
13608SOL    HW242266   2.992   2.589  11.442  0.0097  0.5311 -0.2231
13609SOL     OW42267   4.778   3.116   3.485 -0.8051  0.5866  0.0373
13609SOL    HW142268   4.748   3.074   3.565  0.4785  0.0470  0.2600
13609SOL    HW242269   4.702   3.166   3.454 -1.1427  1.3182  1.9156
13610SOL     OW42270   5.015   3.189   2.458 -0.7660  0.0669 -0.0509
13610SOL    HW142271   5.055   3.259   2.509 -0.9897  0.7457 -0.7929
13610SOL    HW242272   4.959   3.143   2.520  2.6144 -2.2370  1.6329
13611SOL     OW42273   5.823   3.827  11.603  0.0803  0.1103 -0.9706
13611SOL    HW142274   5.919   3.828  11.595 -0.0501 -0.8272 -3.4371
13611SOL    HW242275   5.802   3.736  11.623 -0.2714  0.6176  1.2749
13612SOL     OW42276   2.597   1.528   0.070 -0.1325 -0.2695 -0.1356
13612SOL    HW142277   2.618   1.620   0.085  1.0425 -0.5515  0.0453
13612SOL    HW242278   2.542   1.503   0.144  0.2343  0.0589  0.2488
13613SOL     OW42279   4.579   3.222   2.602  0.4741  0.1182 -0.4815
13613SOL    HW142280   4.591   3.142   2.653  2.0896  1.0122  0.6236
13613SOL    HW242281   4.503   3.264   2.641  2.5600  1.5428  2.3813
13614SOL     OW42282   4.766   0.309   1.225  0.3172  0.1340 -0.0277
13614SOL    HW142283   4.769   0.235   1.163 -0.8899  1.2860 -1.5671
13614SOL    HW242284   4.794   0.384   1.173  0.1383  0.9999  1.1039
13615SOL     OW42285   4.020   1.498   2.087  0.1793  0.2535 -0.1558
13615SOL    HW142286   3.957   1.555   2.044 -2.7084 -2.6145 -0.0800
13615SOL    HW242287   4.017   1.416   2.037  1.5803 -1.0255  1.6751
13616SOL     OW42288   4.629   1.668  11.576  0.2399 -0.0747  0.4575
13616SOL    HW142289   4.627   1.763  11.562  1.1613 -0.0179  0.6595
13616SOL    HW242290   4.616   1.658  11.670 -1.7396 -0.2590  0.2097
13617SOL     OW42291   3.221   3.647   1.846  0.6213 -0.5112  0.7494
13617SOL    HW142292   3.212   3.641   1.941  0.1504 -1.1588  0.6743
13617SOL    HW242293   3.210   3.556   1.816  2.1107 -0.5379  0.1874
13618SOL     OW42294   5.586   1.466   1.781  0.4844  0.0501 -0.6102
13618SOL    HW142295   5.568   1.378   1.751  1.0550 -0.5945  0.8392
13618SOL    HW242296   5.529   1.477   1.857 -0.0794  1.1940 -1.1684
13619SOL     OW42297   4.927   1.815   0.680 -0.5399  0.0122  0.4786
13619SOL    HW142298   4.912   1.841   0.771 -0.0279  1.0265  0.2902
13619SOL    HW242299   4.953   1.897   0.636 -0.0140 -0.6115 -0.3994
13620SOL     OW42300   3.224   2.456   1.162  0.1169 -0.3282  0.0728
13620SOL    HW142301   3.257   2.541   1.189  0.6179 -0.4018 -0.2846
13620SOL    HW242302   3.259   2.444   1.073 -1.8962  0.1412 -0.8187
13621SOL     OW42303   4.394   2.904   2.697 -0.2215  0.3135  0.1487
13621SOL    HW142304   4.484   2.912   2.666 -0.2141 -0.0368  0.0733
13621SOL    HW242305   4.351   2.983   2.666  0.1124  0.5887  0.3718
13622SOL     OW42306   2.731   1.696   1.340 -0.2274  0.4855 -0.1056
13622SOL    HW142307   2.800   1.734   1.286 -0.8867  2.5969  0.4659
13622SOL    HW242308   2.754   1.718   1.430 -0.1710 -1.3141  0.3729
13623SOL     OW42309   6.740   3.046   1.366  0.1745 -0.0057  0.6334
13623SOL    HW142310   6.711   2.959   1.395  0.9501  0.3077  2.4782
13623SOL    HW242311   6.836   3.041   1.369  0.2815  0.3810 -1.0161
13624SOL     OW42312   3.964   1.976  12.273 -0.6054 -0.0318 -0.0406
13624SOL    HW142313   4.030   1.948  12.209 -1.6259 -2.1203 -0.2685
13624SOL    HW242314   3.882   1.977  12.223 -1.5010 -2.1228  1.2381
13625SOL     OW42315   3.428   2.947   0.866  0.1759  0.4389 -0.1034
13625SOL    HW142316   3.508   2.916   0.824 -0.2081 -1.9769  0.7497
13625SOL    HW242317   3.413   3.034   0.829  1.1833 -0.5253 -3.0726
13626SOL     OW42318   4.952   2.516   1.252  0.0839 -0.5324 -0.1428
13626SOL    HW142319   4.875   2.474   1.213  0.5362 -0.1750 -1.4685
13626SOL    HW242320   5.011   2.444   1.271 -0.3506 -0.7588  0.3743
13627SOL     OW42321   4.580   2.216   1.735 -0.2084 -0.0907 -0.0592
13627SOL    HW142322   4.661   2.222   1.786 -0.4293  0.4652  0.2377
13627SOL    HW242323   4.533   2.297   1.756  0.1015  0.5900 -1.8396
13628SOL     OW42324   5.037   2.056   0.504 -0.2220 -0.5722  0.1819
13628SOL    HW142325   5.125   2.023   0.521  0.7276 -1.2561 -4.4838
13628SOL    HW242326   5.047   2.151   0.500  0.3563 -0.6459 -0.3083
13629SOL     OW42327   5.588   2.687   3.510 -0.5390 -0.0649 -0.4550
13629SOL    HW142328   5.647   2.676   3.584 -0.7361  0.5068 -0.2085
13629SOL    HW242329   5.559   2.778   3.516 -2.1278 -0.5625 -0.0448
13630SOL     OW42330   2.846   2.619   1.215 -0.0749 -0.4356  0.2560
13630SOL    HW142331   2.851   2.630   1.120  1.8337 -2.7676 -0.0002
13630SOL    HW242332   2.752   2.613   1.233 -0.4699 -0.2111 -1.5151
13631SOL     OW42333   4.894   2.629   0.836 -0.4246 -0.3599 -0.2367
13631SOL    HW142334   4.862   2.589   0.755  2.4801 -1.9705 -0.7499
13631SOL    HW242335   4.990   2.629   0.825  0.0130  0.0910  2.8723
13632SOL     OW42336   4.564   3.628   1.813 -0.1162 -0.1483  0.0777
13632SOL    HW142337   4.536   3.548   1.857  1.0648 -1.1462 -0.9031
13632SOL    HW242338   4.656   3.639   1.838 -0.1406  0.6679 -0.1358
13633SOL     OW42339   4.890   3.474  11.889  0.1849 -0.3314 -0.3264
13633SOL    HW142340   4.985   3.476  11.882  0.1131 -0.2339 -1.3993
13633SOL    HW242341   4.861   3.558  11.853 -0.3106 -0.3775 -0.0481
13634SOL     OW42342   5.633   2.302   2.041 -0.3679  0.0116 -0.5453
13634SOL    HW142343   5.624   2.392   2.072 -1.3697  0.2433 -1.4497
13634SOL    HW242344   5.569   2.253   2.093 -0.4405 -0.0242 -0.6700
13635SOL     OW42345   3.886   3.825   1.777  0.0612  0.4822 -0.2632
13635SOL    HW142346   3.939   3.773   1.838  0.0845 -0.2137 -0.8717
13635SOL    HW242347   3.938   3.905   1.763 -0.3469  1.0722  1.3022
13636SOL     OW42348   2.152   3.730   2.365 -0.3283 -0.3325  0.3925
13636SOL    HW142349   2.231   3.761   2.411  1.0213 -2.9247 -0.0139
13636SOL    HW242350   2.082   3.743   2.429  0.4850  1.5353  0.9787
13637SOL     OW42351   5.413   1.704  11.916  0.3292 -0.2755 -0.4325
13637SOL    HW142352   5.333   1.747  11.886 -1.0413 -1.8663  0.7980
13637SOL    HW242353   5.414   1.620  11.871 -1.7048 -2.6783  3.4815
13638SOL     OW42354   2.441   2.893   0.059 -0.1208  0.2990 -0.5542
13638SOL    HW142355   2.411   2.901   0.150  0.2892  1.3171 -0.4977
13638SOL    HW242356   2.445   2.983   0.028  0.8508  0.0322 -1.2235
13639SOL     OW42357   5.106   3.356   0.759 -0.7825 -0.0597 -0.1341
13639SOL    HW142358   5.191   3.378   0.799 -0.2042 -2.8974  0.4270
13639SOL    HW242359   5.081   3.435   0.711  1.7639  1.1644  0.3702
13640SOL     OW42360   4.159   1.523   1.098  0.2383 -0.4059 -0.3341
13640SOL    HW142361   4.251   1.519   1.122  0.0356 -1.2134  0.3348
13640SOL    HW242362   4.111   1.504   1.179 -0.5939  2.1458 -0.1212
13641SOL     OW42363   5.177   1.847   1.946 -0.0951  0.6074  0.5615
13641SOL    HW142364   5.095   1.839   1.897  0.2728 -0.1922  0.0606
13641SOL    HW242365   5.229   1.910   1.897  0.4146 -0.4577 -0.2999
13642SOL     OW42366   5.402   2.618  11.740 -0.4164  0.0296 -0.0782
13642SOL    HW142367   5.331   2.600  11.800 -1.0292 -0.2441 -0.8645
13642SOL    HW242368   5.395   2.712  11.721  0.5405  0.3883  1.2114
13643SOL     OW42369   4.244   1.259   2.417  0.1537 -0.7437  0.4568
13643SOL    HW142370   4.261   1.259   2.511 -0.3386  1.7788  0.6187
13643SOL    HW242371   4.328   1.279   2.377  0.1861 -0.9737  0.4076
13644SOL     OW42372   4.779   2.964   1.867  0.2073  0.1258 -0.2332
13644SOL    HW142373   4.851   2.984   1.927 -0.4927  2.0644  0.0183
13644SOL    HW242374   4.807   2.885   1.821  0.8969 -1.2721  2.4172
13645SOL     OW42375   3.935   1.816   1.756 -0.1089  0.0299 -0.6384
13645SOL    HW142376   3.954   1.840   1.847 -0.4836 -1.8469 -0.0157
13645SOL    HW242377   4.015   1.838   1.708  0.7599 -0.5688  0.4818
13646SOL     OW42378   3.503   1.980  12.368  0.3293 -0.4072 -0.2158
13646SOL    HW142379   3.510   2.038  12.444 -0.5217 -2.7132  1.7337
13646SOL    HW242380   3.583   1.997  12.318  3.0103 -1.5430  3.2554
13647SOL     OW42381   5.117   1.151   0.579 -0.3095  0.0882  0.7029
13647SOL    HW142382   5.133   1.177   0.489 -1.2566  2.0856  1.0509
13647SOL    HW242383   5.113   1.234   0.628  0.1647 -0.9346  2.5785
13648SOL     OW42384   4.884   1.601  11.979 -0.4856 -0.4728 -0.3137
13648SOL    HW142385   4.903   1.521  11.930 -0.6626  0.3006 -1.6913
13648SOL    HW242386   4.807   1.638  11.936  0.8628  1.5765 -1.1831
13649SOL     OW42387   4.193   3.418   0.116  0.4662 -1.0122 -0.0723
13649SOL    HW142388   4.136   3.443   0.044  1.3495  0.6985 -0.2234
13649SOL    HW242389   4.263   3.367   0.075  1.9211  1.3997 -0.7969
13650SOL     OW42390   4.496   7.874   0.933  0.3848  0.3901  0.4317
13650SOL    HW142391   4.534   7.830   0.857  0.3487 -0.3822  0.8532
13650SOL    HW242392   4.414   7.912   0.900  0.4797  0.2544  0.0309
13651SOL     OW42393   2.900   1.153   0.537 -0.3635 -0.1137 -0.3993
13651SOL    HW142394   2.876   1.198   0.618 -1.2410 -1.0869 -0.0964
13651SOL    HW242395   2.818   1.148   0.488 -0.1781 -0.9507 -0.6392
13652SOL     OW42396   5.159   1.290   1.582  0.5051  0.1025 -0.3220
13652SOL    HW142397   5.155   1.197   1.602  1.5589 -0.1067 -1.0082
13652SOL    HW242398   5.120   1.333   1.658  0.8607 -0.8473  0.4166
13653SOL     OW42399   4.266   3.694   1.815 -0.2837 -0.2990 -0.6930
13653SOL    HW142400   4.358   3.713   1.835  0.6011 -2.9587 -1.7690
13653SOL    HW242401   4.219   3.719   1.894  1.9232 -2.4653  1.5011
13654SOL     OW42402   3.036   2.024   0.697 -0.0710 -0.0588 -0.0467
13654SOL    HW142403   3.098   1.994   0.631 -0.4828  0.4261 -0.6731
13654SOL    HW242404   2.951   1.991   0.667 -0.2053 -0.1822  0.4602
13655SOL     OW42405   4.006   4.086   1.790  0.3258 -0.2847 -0.0761
13655SOL    HW142406   3.994   4.159   1.850 -0.7838  0.7113 -1.4432
13655SOL    HW242407   4.095   4.096   1.757 -0.1957  1.1878 -1.1332
13656SOL     OW42408   5.289   1.243  12.016 -0.2307 -0.5394 -0.3787
13656SOL    HW142409   5.269   1.162  11.970  0.0580 -0.2415 -1.0379
13656SOL    HW242410   5.290   1.219  12.109 -1.6867 -0.9607 -0.4580
13657SOL     OW42411   6.288   2.166   2.460  0.3414 -0.4743 -0.3790
13657SOL    HW142412   6.262   2.255   2.484  0.5417 -0.6685  0.6126
13657SOL    HW242413   6.358   2.178   2.395  1.2969  0.1391  0.7120
13658SOL     OW42414   4.100   0.921   2.973  0.1208  0.8891  0.4066
13658SOL    HW142415   4.035   0.852   2.963  0.4055  0.6563  0.1508
13658SOL    HW242416   4.157   0.890   3.043  2.0480 -0.5819 -1.6554
13659SOL     OW42417   5.361   1.564   2.087 -0.9933  0.0633  0.6561
13659SOL    HW142418   5.326   1.648   2.118 -0.1320  0.4248  0.6575
13659SOL    HW242419   5.453   1.581   2.067 -0.5312 -1.1221  1.6156
13660SOL     OW42420   5.285   0.933   0.667  0.2363  0.7594 -0.0534
13660SOL    HW142421   5.235   1.009   0.637  1.1501  2.2570  1.9746
13660SOL    HW242422   5.247   0.859   0.620 -1.7594  2.2520 -0.9207
13661SOL     OW42423   4.531   2.096   1.479  0.8821 -0.0517  0.5608
13661SOL    HW142424   4.542   2.114   1.572 -0.3113 -1.1803  0.9459
13661SOL    HW242425   4.444   2.130   1.459  1.2164  0.3746 -0.2016
13662SOL     OW42426   5.555   7.819   0.592  0.1692  0.7629 -0.1799
13662SOL    HW142427   5.503   7.745   0.624 -1.4863  0.7177 -2.6957
13662SOL    HW242428   5.620   7.779   0.535  0.4916  1.1266 -0.0720
13663SOL     OW42429   5.540   3.549   0.237  0.3448  0.4086  0.2311
13663SOL    HW142430   5.487   3.549   0.157  0.0585 -0.8232  0.4097
13663SOL    HW242431   5.625   3.584   0.209 -0.3741  1.9494 -0.1573
13664SOL     OW42432   3.960   3.258   1.038 -0.4204 -0.5923 -0.0495
13664SOL    HW142433   3.956   3.190   1.105  2.1101  0.4925  1.3449
13664SOL    HW242434   3.907   3.330   1.073  2.0216  0.5267  1.6266
13665SOL     OW42435   7.491   2.360  12.124  0.4543 -0.3483 -0.6062
13665SOL    HW142436   7.511   2.452  12.109 -1.9752  0.2977 -0.2712
13665SOL    HW242437   7.403   2.360  12.160  0.5542 -2.7965 -0.1848
13666SOL     OW42438   4.081   2.456   1.244  0.2015 -0.0074  0.7218
13666SOL    HW142439   4.031   2.523   1.289  0.8654  1.1185 -0.1517
13666SOL    HW242440   4.173   2.482   1.255  0.4265 -0.2675 -0.3469
13667SOL     OW42441   5.927   0.029   0.620  0.0578  0.7050  0.3356
13667SOL    HW142442   5.940  -0.066   0.613  1.0897  0.9122 -1.1238
13667SOL    HW242443   6.013   0.064   0.642 -0.1977  1.3514  0.3337
13668SOL     OW42444   4.373   0.535   1.272 -0.0350 -0.4090 -0.2100
13668SOL    HW142445   4.321   0.555   1.194  1.1229  2.1726 -0.4490
13668SOL    HW242446   4.443   0.601   1.270  1.7743 -2.1784  1.4131
13669SOL     OW42447   4.736   2.568   2.330  0.3485 -0.5860  0.3620
13669SOL    HW142448   4.807   2.630   2.343  2.5436 -2.7854 -0.3988
13669SOL    HW242449   4.681   2.608   2.263 -0.4501  2.1202  2.4498
13670SOL     OW42450   5.390   2.415   1.599 -0.1031 -0.4474  0.2477
13670SOL    HW142451   5.435   2.483   1.549 -0.5077  0.6116  1.2868
13670SOL    HW242452   5.401   2.336   1.546  1.8615  0.0352 -0.1596
13671SOL     OW42453   5.451   2.774   1.991 -0.1108  0.5200  0.3669
13671SOL    HW142454   5.512   2.828   1.942  0.4946 -0.4619  0.0104
13671SOL    HW242455   5.422   2.830   2.064  0.3742  1.3562 -0.0730
13672SOL     OW42456   4.395   4.547   1.485  0.6397  0.0840  0.3583
13672SOL    HW142457   4.415   4.560   1.577  0.0861  0.0133  0.4933
13672SOL    HW242458   4.333   4.616   1.464 -0.7449 -1.0484  0.5537
13673SOL     OW42459   5.062   2.266   0.843  0.6624 -0.5866  0.4741
13673SOL    HW142460   5.129   2.198   0.836  2.0150  0.8285 -1.6488
13673SOL    HW242461   5.025   2.272   0.755 -1.0508 -0.1213  1.1929
13674SOL     OW42462   5.078   3.001   0.905 -0.4328 -0.1361 -0.2970
13674SOL    HW142463   5.157   2.950   0.890 -0.8574 -0.8463 -0.1618
13674SOL    HW242464   5.027   2.992   0.825 -1.5491 -1.8491  0.5432
13675SOL     OW42465   4.778   1.436   2.520 -0.5078 -0.0637  0.1259
13675SOL    HW142466   4.730   1.461   2.441  2.1007  1.2904 -1.1377
13675SOL    HW242467   4.861   1.482   2.514  1.0039 -2.2579  2.2051
13676SOL     OW42468   3.921   0.351   0.897  0.0041  0.0654 -0.9300
13676SOL    HW142469   3.887   0.419   0.840 -1.6046  0.0043 -0.0989
13676SOL    HW242470   3.883   0.370   0.983  1.7478 -0.2827 -0.0162
13677SOL     OW42471   5.335   7.706   1.949 -0.9918 -0.0291 -0.0232
13677SOL    HW142472   5.256   7.759   1.962 -1.4743 -1.2027  2.3962
13677SOL    HW242473   5.405   7.770   1.936 -1.8870  1.1231  0.6571
13678SOL     OW42474   2.483   2.164   1.824 -0.2884 -0.3150  0.3613
13678SOL    HW142475   2.397   2.165   1.865  0.2662 -0.0263  1.5532
13678SOL    HW242476   2.465   2.179   1.731 -1.3591  2.5625  0.9224
13679SOL     OW42477   4.328   2.568   2.066  0.1924  0.0440 -0.2204
13679SOL    HW142478   4.335   2.663   2.053  0.8841  0.0721  0.2896
13679SOL    HW242479   4.384   2.550   2.141  1.0447 -0.9389 -1.0624
13680SOL     OW42480   3.896   0.786   2.722  0.3693  0.3425  0.1794
13680SOL    HW142481   3.935   0.724   2.783  0.3510 -0.7394 -0.8814
13680SOL    HW242482   3.802   0.771   2.728  0.2234  1.4575  1.1430
13681SOL     OW42483   4.131   3.261   1.709 -0.3469 -0.2254 -0.4331
13681SOL    HW142484   4.163   3.351   1.699 -2.1325  0.3977 -0.7792
13681SOL    HW242485   4.177   3.211   1.641 -0.0084  0.6020 -0.8206
13682SOL     OW42486   5.868   1.715   3.878 -0.0971  0.1599  0.5186
13682SOL    HW142487   5.953   1.725   3.920  0.5340 -1.3784 -0.3398
13682SOL    HW242488   5.888   1.703   3.785 -1.2376 -0.4106  0.3291
13683SOL     OW42489   4.308   3.075   1.572  0.3611 -0.2004  0.1138
13683SOL    HW142490   4.256   3.003   1.535 -1.4471  1.2678 -0.3556
13683SOL    HW242491   4.360   3.033   1.640 -0.1323 -2.0726 -0.5698
13684SOL     OW42492   2.176   3.718   1.141  0.3112 -0.3873  0.1541
13684SOL    HW142493   2.218   3.742   1.223 -1.0421 -0.8431  1.0087
13684SOL    HW242494   2.084   3.703   1.164 -0.4317  0.8738 -1.6771
13685SOL     OW42495   2.705   3.088   0.843 -0.2765  0.1670  0.1999
13685SOL    HW142496   2.779   3.064   0.786 -0.0874 -1.1371  0.9451
13685SOL    HW242497   2.707   3.022   0.913 -2.7648 -0.5361 -0.3098
13686SOL     OW42498   4.840   1.388   1.797 -0.2536  0.0044  0.1869
13686SOL    HW142499   4.924   1.430   1.775 -0.3747  0.5088  0.6490
13686SOL    HW242500   4.865   1.310   1.846 -0.0487  0.0567  0.1682
13687SOL     OW42501   5.065   1.612   1.504 -0.1140 -0.0382 -0.3086
13687SOL    HW142502   5.011   1.641   1.578  0.4207 -2.5189  1.1352
13687SOL    HW242503   5.002   1.597   1.433 -1.0200 -0.5680  0.5906
13688SOL     OW42504   4.823   0.374   2.018 -0.0247 -0.2225  0.5215
13688SOL    HW142505   4.828   0.437   2.091  0.6216  1.3805 -0.8292
13688SOL    HW242506   4.765   0.416   1.955  0.5462 -0.9069 -0.4841
13689SOL     OW42507   4.502   2.140   2.017  0.5709 -0.1766  0.2021
13689SOL    HW142508   4.449   2.061   2.004 -0.8997  0.7282  0.4892
13689SOL    HW242509   4.513   2.176   1.929  0.1035  0.0074  0.2174
13690SOL     OW42510   6.308   3.134   1.066 -0.1528 -0.0620  0.2355
13690SOL    HW142511   6.371   3.106   0.999 -1.3686 -1.2012 -0.4820
13690SOL    HW242512   6.341   3.094   1.147 -0.4539 -1.4960 -0.3114
13691SOL     OW42513   2.752   3.717   1.979 -0.4558  0.1856  0.2170
13691SOL    HW142514   2.806   3.767   1.918 -0.8414  0.2332 -0.0829
13691SOL    HW242515   2.807   3.708   2.057  0.0976 -0.0108 -0.1877
13692SOL     OW42516   3.373   1.942   1.092 -0.1069  0.0514 -0.4259
13692SOL    HW142517   3.447   2.003   1.090  0.1778 -0.2995 -1.8221
13692SOL    HW242518   3.412   1.856   1.105 -0.5618  0.1733  2.2720
13693SOL     OW42519   2.961   1.860   1.667  0.2285  0.0955 -0.0372
13693SOL    HW142520   2.905   1.783   1.655 -0.0511  0.3000 -0.0533
13693SOL    HW242521   3.021   1.835   1.737  0.2456 -0.1966 -0.1546
13694SOL     OW42522   2.766   1.913   0.765  0.3634 -0.3244 -0.6408
13694SOL    HW142523   2.774   1.876   0.854  0.6619  1.3379  0.0656
13694SOL    HW242524   2.683   1.960   0.766  0.3932 -0.2550 -1.2315
13695SOL     OW42525   6.147   0.984   1.333  0.6427 -0.1482  0.0151
13695SOL    HW142526   6.114   1.059   1.283 -0.5829 -0.8659 -0.2871
13695SOL    HW242527   6.105   0.908   1.293  2.5854 -1.1233 -0.2949
13696SOL     OW42528   5.466   1.474   0.178 -0.3404  0.0414  0.1157
13696SOL    HW142529   5.404   1.547   0.176  0.3993  0.7758  1.8616
13696SOL    HW242530   5.454   1.436   0.265  0.5631 -0.7980 -0.1187
13697SOL     OW42531   4.835   1.046   0.107  0.0428 -0.3375  0.4608
13697SOL    HW142532   4.761   1.021   0.163  0.6265 -1.0306  0.9394
13697SOL    HW242533   4.903   1.074   0.169 -0.6128  2.7005 -0.0234
13698SOL     OW42534   3.024   2.768   2.122  0.7437 -0.2193  0.0366
13698SOL    HW142535   3.070   2.775   2.038  2.5914 -0.0677  0.9936
13698SOL    HW242536   3.040   2.678   2.150 -0.3517 -0.4389 -0.0222
13699SOL     OW42537   5.844   3.335   2.314 -0.4171  0.9225 -0.2061
13699SOL    HW142538   5.832   3.430   2.307 -2.7290  0.6909 -0.2122
13699SOL    HW242539   5.808   3.300   2.233  0.6554  0.0146 -0.3208
13700SOL     OW42540   6.542   3.525   1.482  0.5877  0.1966 -0.3870
13700SOL    HW142541   6.607   3.593   1.500  1.3393 -0.6793  0.3374
13700SOL    HW242542   6.504   3.505   1.568 -1.0902  1.1086 -0.8719
13701SOL     OW42543   4.093   1.149   0.942  0.4675  0.0523  0.7038
13701SOL    HW142544   4.038   1.120   1.015  0.1701 -2.0142 -0.2569
13701SOL    HW242545   4.172   1.182   0.984  2.0505 -4.6923  2.0650
13702SOL     OW42546   5.511   0.842  12.288  0.2985 -0.2674 -0.0506
13702SOL    HW142547   5.545   0.789  12.360  1.6186 -0.3285 -0.6940
13702SOL    HW242548   5.537   0.931  12.308  1.5223 -0.4093 -0.9019
13703SOL     OW42549   3.336   0.456  12.036  0.2622 -0.6420 -0.2369
13703SOL    HW142550   3.246   0.439  12.066  0.0720 -0.3855 -0.6504
13703SOL    HW242551   3.386   0.467  12.116 -0.2311 -0.0108 -0.0099
13704SOL     OW42552   4.204   3.574   1.348  0.0477  0.3230 -0.6802
13704SOL    HW142553   4.231   3.664   1.332  0.4548  0.3683  0.1946
13704SOL    HW242554   4.286   3.524   1.347 -0.0316  0.1620  0.0767
13705SOL     OW42555   5.328   2.038   3.351 -0.1040 -0.4116 -0.0058
13705SOL    HW142556   5.243   2.080   3.360 -0.7413 -1.2285 -1.6291
13705SOL    HW242557   5.340   1.988   3.432 -0.4587  0.9066  0.8746
13706SOL     OW42558   4.996   1.606   2.537  0.4384  0.1966 -0.3376
13706SOL    HW142559   5.088   1.633   2.543  0.3474  0.5282 -0.4122
13706SOL    HW242560   4.948   1.675   2.582  0.2370 -0.0630 -0.1467
13707SOL     OW42561   4.787   1.682   0.464  0.1559 -0.1926 -0.2370
13707SOL    HW142562   4.729   1.661   0.537 -0.9142 -2.0385 -1.5184
13707SOL    HW242563   4.859   1.731   0.504 -1.4010  0.6575  1.6860
13708SOL     OW42564   2.458   2.820   1.669  0.2879 -0.4451  0.0307
13708SOL    HW142565   2.390   2.753   1.675 -2.5672  2.2254  0.1463
13708SOL    HW242566   2.503   2.816   1.753 -2.0658 -0.1135  1.3993
13709SOL     OW42567   3.577   2.472   0.189 -0.0924  0.3213  0.2161
13709SOL    HW142568   3.571   2.491   0.283  2.9851 -0.3608  0.6368
13709SOL    HW242569   3.552   2.554   0.146 -0.9402  0.8276  1.5981
13710SOL     OW42570   3.780   4.549   2.748 -0.3496 -0.0440 -0.2663
13710SOL    HW142571   3.750   4.571   2.836  2.0101  2.2293  0.0985
13710SOL    HW242572   3.819   4.462   2.756  1.2922  0.7735  1.4087
13711SOL     OW42573   4.714   2.178   1.133  0.0801  0.0698 -0.1117
13711SOL    HW142574   4.723   2.260   1.085 -0.5895  0.5728  0.5936
13711SOL    HW242575   4.672   2.203   1.215 -1.6509 -1.1979 -0.5584
13712SOL     OW42576   3.327   0.432   2.852  0.1305 -0.1228 -0.1997
13712SOL    HW142577   3.348   0.415   2.944 -1.6669 -0.0772  0.2497
13712SOL    HW242578   3.322   0.528   2.846 -0.7237 -0.1566 -0.1017
13713SOL     OW42579   3.248   1.955   2.779 -0.5449  0.7464 -0.3791
13713SOL    HW142580   3.215   1.944   2.868  1.8070  0.8622  0.5662
13713SOL    HW242581   3.283   1.870   2.756 -2.1107  0.3990 -1.6911
13714SOL     OW42582   5.814   2.965   1.551  0.0899 -0.3498 -0.1723
13714SOL    HW142583   5.756   2.897   1.586 -1.8378  0.7339 -1.0564
13714SOL    HW242584   5.795   2.966   1.457  0.6030  0.9165 -0.2862
13715SOL     OW42585   4.613   0.979   0.261 -0.5618  0.0734 -0.1955
13715SOL    HW142586   4.624   1.017   0.348 -0.1240  1.1951 -0.7208
13715SOL    HW242587   4.611   0.884   0.276  0.4276  0.2063  0.9429
13716SOL     OW42588   5.988   0.952   2.142 -0.3610  0.0348 -0.4049
13716SOL    HW142589   5.895   0.943   2.121 -0.0769 -0.1054 -1.6316
13716SOL    HW242590   6.032   0.886   2.089  0.4429  0.0057  0.2631
13717SOL     OW42591   5.740   4.717   2.922 -0.1837 -0.1100  0.0343
13717SOL    HW142592   5.807   4.768   2.876 -0.0416 -1.1811 -1.0186
13717SOL    HW242593   5.708   4.775   2.991  2.9334 -0.0570  1.6297
13718SOL     OW42594   3.924   1.463   0.965  0.3842  0.5907 -0.4452
13718SOL    HW142595   3.924   1.390   0.903 -0.4435 -0.0855  0.3281
13718SOL    HW242596   4.016   1.473   0.990  0.2206 -2.5835  2.1176
13719SOL     OW42597   4.783   2.757   1.039  0.0895  0.0859  0.0397
13719SOL    HW142598   4.693   2.766   1.009 -0.4295 -0.4763  1.3347
13719SOL    HW242599   4.828   2.713   0.967 -0.9565 -0.6673 -0.1803
13720SOL     OW42600   2.865   3.374   1.225 -0.3705  0.5045  0.0207
13720SOL    HW142601   2.808   3.342   1.295 -1.3901 -0.7490 -1.3015
13720SOL    HW242602   2.820   3.452   1.192 -1.0509 -0.1343 -0.6169
13721SOL     OW42603   3.395   2.711  12.364 -0.4547 -0.3252  0.3142
13721SOL    HW142604   3.402   2.702  12.459 -0.4030  2.2880  0.6205
13721SOL    HW242605   3.416   2.624  12.331 -0.4880 -1.3233  2.6789
13722SOL     OW42606   5.057   4.084   0.896  0.2824  0.2236  0.2095
13722SOL    HW142607   5.003   4.054   0.822  0.9449 -0.4272 -0.0236
13722SOL    HW242608   5.112   4.153   0.859 -0.2446  0.7595  0.4036
13723SOL     OW42609   5.562   1.670   2.524 -0.1868 -0.0454 -0.2021
13723SOL    HW142610   5.638   1.723   2.546 -1.3866  1.7508 -0.1997
13723SOL    HW242611   5.567   1.660   2.428  0.2375 -0.2414 -0.1618
13724SOL     OW42612   5.235   1.662   0.181  0.3987  0.1236  0.0198
13724SOL    HW142613   5.279   1.738   0.144 -1.9717  0.7423 -1.7829
13724SOL    HW242614   5.164   1.698   0.235  1.9254 -0.8327  2.8769
13725SOL     OW42615   6.665   2.047  12.242  0.6011 -0.3244  0.2694
13725SOL    HW142616   6.711   2.126  12.214  1.6703 -0.8221  0.5448
13725SOL    HW242617   6.578   2.055  12.203 -0.0129  1.9296  1.9093
13726SOL     OW42618   2.421   1.210   1.226 -0.0084 -0.3585  0.0133
13726SOL    HW142619   2.430   1.274   1.156  0.4233 -0.6206 -0.1742
13726SOL    HW242620   2.497   1.226   1.283  0.0070 -0.5873  0.0577
13727SOL     OW42621   4.348   4.694   3.004 -0.2726 -0.3530  0.1280
13727SOL    HW142622   4.364   4.603   2.980 -2.2305 -0.8075  0.3952
13727SOL    HW242623   4.423   4.718   3.059 -0.3856 -2.2615  1.2028
13728SOL     OW42624   3.267   7.808   1.867  0.7468 -0.1202 -1.1080
13728SOL    HW142625   3.278   7.788   1.960 -0.4574 -0.2828 -0.9929
13728SOL    HW242626   3.208   7.740   1.834  2.2851 -0.9242 -2.3326
13729SOL     OW42627   4.576   1.757   1.987 -0.0041 -0.0245  0.1698
13729SOL    HW142628   4.626   1.814   2.045 -0.5615  2.0749 -1.2599
13729SOL    HW242629   4.523   1.818   1.935 -2.8300 -2.0062  0.4718
13730SOL     OW42630   4.957   2.568   0.073  0.9557 -0.6765  0.2778
13730SOL    HW142631   4.863   2.587   0.084  0.5193 -1.3073 -1.8896
13730SOL    HW242632   4.997   2.654   0.062  0.3968 -0.4720 -0.2237
13731SOL     OW42633   2.979   3.112   2.882 -0.0048 -0.3242 -0.0925
13731SOL    HW142634   2.953   3.069   2.800  3.5730 -2.2312 -0.3968
13731SOL    HW242635   3.024   3.191   2.854 -1.5604  0.7486  0.2710
13732SOL     OW42636   4.793   2.846   1.533  0.7007  0.5139 -0.3155
13732SOL    HW142637   4.777   2.938   1.512  0.0222  0.8301  1.4018
13732SOL    HW242638   4.772   2.799   1.452 -1.5154  1.6383 -0.4866
13733SOL     OW42639   6.008   2.359   2.781 -0.0695 -0.4831  0.3222
13733SOL    HW142640   6.028   2.453   2.788  0.3493 -0.3726 -1.6506
13733SOL    HW242641   6.083   2.316   2.823  1.8927  0.0505 -2.3701
13734SOL     OW42642   5.637   4.116   1.299  0.1113 -0.2655 -0.5323
13734SOL    HW142643   5.569   4.061   1.259 -0.6639 -0.7352  1.3295
13734SOL    HW242644   5.606   4.206   1.285 -0.2051 -0.4218 -0.8573
13735SOL     OW42645   6.406   2.700   2.626  0.0569 -0.3664  0.3682
13735SOL    HW142646   6.365   2.766   2.681  1.3209 -0.0487  0.9390
13735SOL    HW242647   6.497   2.696   2.655  0.2340 -1.6993 -0.2767
13736SOL     OW42648   6.083   0.581   2.443  0.0983 -0.1418  0.3387
13736SOL    HW142649   6.037   0.656   2.481 -0.5228 -0.4151  0.1320
13736SOL    HW242650   6.016   0.514   2.433  0.8050 -0.9938  1.2040
13737SOL     OW42651   4.744   7.993   1.362 -0.1642  0.5578  0.0817
13737SOL    HW142652   4.696   8.065   1.402  1.8460  2.0072  0.0545
13737SOL    HW242653   4.687   7.961   1.292 -1.6320  1.2542  0.9278
13738SOL     OW42654   2.494   3.710   0.181 -0.0754  1.0657  0.1198
13738SOL    HW142655   2.466   3.798   0.208 -0.5947  0.7294  0.7170
13738SOL    HW242656   2.568   3.725   0.122  0.3422  1.8791  0.8306
13739SOL     OW42657   6.057   3.199   2.255 -0.3158 -0.1041 -0.1025
13739SOL    HW142658   6.038   3.119   2.305 -2.6347 -0.3439 -1.2576
13739SOL    HW242659   5.991   3.262   2.285 -0.0372  0.6022 -0.9364
13740SOL     OW42660   3.807   2.692   1.505  0.4807  0.0277  0.3795
13740SOL    HW142661   3.783   2.772   1.457  0.8825  0.6826  1.2251
13740SOL    HW242662   3.764   2.702   1.590 -0.0622 -1.0217  0.2373
13741SOL     OW42663   5.076   3.186  12.048 -0.1262 -0.0033  0.1198
13741SOL    HW142664   5.172   3.186  12.047 -0.1005 -0.6328 -2.1156
13741SOL    HW242665   5.053   3.228  12.131  2.0782  2.0003 -0.1728
13742SOL     OW42666   2.765   2.976   0.432 -0.0006 -0.4357  0.6126
13742SOL    HW142667   2.712   2.896   0.430 -0.4558 -0.1252 -0.3252
13742SOL    HW242668   2.805   2.980   0.345 -0.6448  0.7767  0.3427
13743SOL     OW42669   7.936   1.757   2.236 -0.4283  0.4488 -1.0678
13743SOL    HW142670   7.962   1.837   2.191 -0.7936  0.0828 -1.9381
13743SOL    HW242671   7.842   1.770   2.254 -1.0030 -0.6322 -3.0681
13744SOL     OW42672   5.713   2.998   2.480  1.0249  0.2584  0.5184
13744SOL    HW142673   5.660   3.041   2.412  0.8962 -0.1319  0.3678
13744SOL    HW242674   5.802   3.029   2.465  1.6866 -2.4398 -2.0525
13745SOL     OW42675   2.652   1.885   1.623 -0.6090 -0.0079 -0.0831
13745SOL    HW142676   2.698   1.849   1.699  2.1883 -0.2639 -1.7509
13745SOL    HW242677   2.668   1.979   1.628  0.6579 -0.1541 -0.9504
13746SOL     OW42678   4.384   3.207   1.031  0.1091  0.1144  0.2020
13746SOL    HW142679   4.320   3.173   1.093  0.5919  1.0023  1.2113
13746SOL    HW242680   4.443   3.261   1.084  1.0550  0.1878 -0.8817
13747SOL     OW42681   6.485   2.888   2.098 -0.3642  0.4070 -0.0341
13747SOL    HW142682   6.428   2.964   2.110  1.3998  1.9436 -0.7612
13747SOL    HW242683   6.559   2.905   2.156 -0.1750 -1.0422  0.1759
13748SOL     OW42684   1.881   0.556   1.254  0.0786  0.1361  0.6833
13748SOL    HW142685   1.894   0.467   1.287  1.9898 -0.5600 -1.6771
13748SOL    HW242686   1.826   0.546   1.177  1.8192  0.6695 -0.7101
13749SOL     OW42687   2.313   2.774   3.162 -0.3876 -0.6199 -0.3608
13749SOL    HW142688   2.398   2.783   3.119 -1.0316  0.4474 -1.4534
13749SOL    HW242689   2.265   2.854   3.139 -2.2252 -1.8305 -0.9588
13750SOL     OW42690   3.843   0.911   1.542 -0.1971 -0.7132  0.0379
13750SOL    HW142691   3.876   0.822   1.550 -1.5838 -1.3683 -0.9898
13750SOL    HW242692   3.773   0.917   1.607 -2.2994 -1.5256 -2.0035
13751SOL     OW42693   4.676   4.682   1.668  0.0206  0.1236 -0.2663
13751SOL    HW142694   4.607   4.623   1.699  1.3875 -1.2025  0.3594
13751SOL    HW242695   4.676   4.754   1.730  0.8945 -1.1652  1.3181
13752SOL     OW42696   5.080   1.416   0.688 -0.1072 -0.1883  0.0386
13752SOL    HW142697   5.099   1.488   0.629  1.9926 -1.4493 -0.9389
13752SOL    HW242698   5.078   1.457   0.775 -1.3694  1.3848 -0.6774
13753SOL     OW42699   5.483   3.246  11.575  0.2357 -0.1592  0.6121
13753SOL    HW142700   5.540   3.178  11.539  1.0039  0.0157  1.4661
13753SOL    HW242701   5.464   3.216  11.664  1.0913  1.0297  1.2195
13754SOL     OW42702   3.489   1.477   0.700 -0.4237  0.5419 -0.4172
13754SOL    HW142703   3.574   1.499   0.661 -0.5023  1.2600 -0.2137
13754SOL    HW242704   3.459   1.560   0.739 -0.5312 -0.0427  0.7996
13755SOL     OW42705   4.087   4.424   1.900  0.4883 -0.0426  0.0918
13755SOL    HW142706   4.102   4.506   1.854 -0.6197  0.7820  1.1446
13755SOL    HW242707   3.995   4.403   1.883  1.0965 -1.8636 -1.3541
13756SOL     OW42708   5.463   2.459   3.075  0.7541 -0.3103 -0.2555
13756SOL    HW142709   5.393   2.411   3.120  1.4073  0.1490  1.2905
13756SOL    HW242710   5.460   2.547   3.113  0.5819  0.4498 -1.9475
13757SOL     OW42711   5.361   2.190   1.398 -0.3351  0.2356 -0.3032
13757SOL    HW142712   5.277   2.198   1.353  0.3715 -0.1556 -1.7671
13757SOL    HW242713   5.423   2.236   1.341  0.4048  0.7636  0.8955
13758SOL     OW42714   4.994   1.624   2.007  0.1854  0.6387 -0.5334
13758SOL    HW142715   4.991   1.559   2.077  0.5266  2.2903  1.1049
13758SOL    HW242716   5.037   1.700   2.047  1.9326  1.0874 -3.0368
13759SOL     OW42717   5.740   2.736   1.739  0.2231  0.4960  0.0602
13759SOL    HW142718   5.801   2.671   1.776  0.0425  0.3619  0.1224
13759SOL    HW242719   5.719   2.793   1.813 -3.6145 -2.3103  1.4730
13760SOL     OW42720   3.825   1.920  11.853  0.0837  0.3579  0.5593
13760SOL    HW142721   3.738   1.898  11.821  0.2670 -0.0015  0.3135
13760SOL    HW242722   3.885   1.869  11.799  0.4372  0.4314  0.8768
13761SOL     OW42723   3.049   3.574   0.958 -0.0350  0.5052  0.3163
13761SOL    HW142724   3.042   3.510   0.887 -0.7390 -1.1394  1.7962
13761SOL    HW242725   2.961   3.581   0.994  0.6016 -0.0425  2.1169
13762SOL     OW42726   4.853   0.863   2.006  0.5323 -0.2299 -0.2385
13762SOL    HW142727   4.881   0.843   2.096  1.4187 -0.8865 -0.6477
13762SOL    HW242728   4.793   0.793   1.983  1.2733 -0.7519 -0.5951
13763SOL     OW42729   4.703   1.211   1.174  0.0754 -0.1435 -0.5273
13763SOL    HW142730   4.731   1.296   1.142  0.8342  1.3019  3.4679
13763SOL    HW242731   4.613   1.224   1.203  0.1870 -0.6820  0.1050
13764SOL     OW42732   3.962   1.804  11.603 -0.2206  0.3702 -0.1685
13764SOL    HW142733   3.969   1.790  11.508  2.5346  0.3326 -0.0238
13764SOL    HW242734   3.938   1.718  11.638 -0.3496  0.1664 -0.7466
13765SOL     OW42735   4.919   3.129   1.692  0.3942  0.6815  0.5103
13765SOL    HW142736   4.998   3.183   1.699  0.6335  0.3032  0.7284
13765SOL    HW242737   4.909   3.090   1.779 -0.8017  1.7900  0.9021
13766SOL     OW42738   6.064   1.331   2.194 -0.1817 -0.0912  0.8943
13766SOL    HW142739   5.984   1.361   2.238  0.2171  0.5075  1.2295
13766SOL    HW242740   6.123   1.407   2.197  0.4141 -0.5365  0.6834
13767SOL     OW42741   7.411   2.413   1.527 -0.0135  0.2193 -0.1198
13767SOL    HW142742   7.419   2.508   1.536  0.1223  0.2136 -0.1731
13767SOL    HW242743   7.490   2.379   1.569  0.2636  0.1585 -0.6753
13768SOL     OW42744   6.312   1.624  12.486  0.0260 -0.0059  0.8467
13768SOL    HW142745   6.375   1.573  12.537  0.9716 -0.2064 -0.4510
13768SOL    HW242746   6.343   1.616  12.395 -1.1687  0.9275  0.3247
13769SOL     OW42747   4.669   4.422   2.797  0.1454  0.3284  0.4169
13769SOL    HW142748   4.658   4.478   2.874 -1.2021  1.0830 -0.2979
13769SOL    HW242749   4.636   4.474   2.724 -0.3642 -1.0939 -0.4031
13770SOL     OW42750   5.042   2.367   1.996 -0.2988  0.2752  0.2616
13770SOL    HW142751   5.071   2.445   2.042  0.0784  0.3627 -0.1103
13770SOL    HW242752   5.101   2.361   1.920 -1.5914  0.7476 -0.8056
13771SOL     OW42753   4.748   2.729   4.393 -0.4443 -0.5179  0.1145
13771SOL    HW142754   4.775   2.818   4.414  0.6133 -1.0368  1.0686
13771SOL    HW242755   4.799   2.674   4.452 -1.4301 -1.7342 -0.1274
13772SOL     OW42756   6.274   1.097   0.467  0.4681  0.3271  0.1011
13772SOL    HW142757   6.215   1.083   0.542  0.3156 -0.7158 -0.2058
13772SOL    HW242758   6.358   1.117   0.508 -0.3880  3.6463  0.5853
13773SOL     OW42759   4.445   0.965   3.311 -0.0553 -0.0397  0.5206
13773SOL    HW142760   4.432   1.047   3.263  0.3739  0.3084  0.9935
13773SOL    HW242761   4.469   0.992   3.399  0.6572 -0.6660  0.5324
13774SOL     OW42762   6.446   2.508   4.148  0.1170 -0.7910  0.4624
13774SOL    HW142763   6.449   2.501   4.053 -1.0419 -2.4419  0.5178
13774SOL    HW242764   6.506   2.441   4.179  0.6073 -0.1541  0.9113
13775SOL     OW42765   5.773   2.232   3.233  0.1180  0.5358  0.2880
13775SOL    HW142766   5.765   2.302   3.169 -0.4662 -0.5962 -0.9341
13775SOL    HW242767   5.710   2.166   3.204  0.8652 -0.6257  1.2210
13776SOL     OW42768   4.148   4.678   1.022  0.5143  0.2617  0.0515
13776SOL    HW142769   4.159   4.735   1.098  0.6964  0.2828  0.0094
13776SOL    HW242770   4.053   4.672   1.010  0.4914  0.4509  0.1348
13777SOL     OW42771   3.973   2.223  11.182 -0.4852  0.4468  0.3092
13777SOL    HW142772   4.000   2.179  11.263  1.1627 -1.4011 -1.1462
13777SOL    HW242773   3.922   2.157  11.136  1.7013  0.0488 -1.7456
13778SOL     OW42774   4.129   1.491   3.154  0.1250  0.2026 -0.0800
13778SOL    HW142775   4.045   1.467   3.115  0.3100 -0.5731 -0.0053
13778SOL    HW242776   4.164   1.558   3.094 -1.3296  1.8633  0.8284
13779SOL     OW42777   3.802   3.199  12.349  0.0794 -0.0981 -0.6207
13779SOL    HW142778   3.897   3.200  12.344  0.0196 -0.8096 -2.8448
13779SOL    HW242779   3.773   3.249  12.273 -1.3242 -0.7473 -0.5527
13780SOL     OW42780   5.893   1.502   1.505 -0.0791 -0.7796  0.1462
13780SOL    HW142781   5.868   1.562   1.575 -0.1443  0.0225 -0.5497
13780SOL    HW242782   5.893   1.415   1.546  0.9290 -0.2097  1.4188
13781SOL     OW42783   5.608   1.432   1.147  0.0276  0.0586 -0.3069
13781SOL    HW142784   5.631   1.417   1.056 -1.2973 -1.0887 -0.4739
13781SOL    HW242785   5.515   1.412   1.153 -0.0506  0.6798  1.1826
13782SOL     OW42786   7.119   3.216   0.213  0.5951 -0.1143 -0.0112
13782SOL    HW142787   7.192   3.189   0.268  1.4224  0.8482 -0.6099
13782SOL    HW242788   7.062   3.139   0.208  2.1967 -1.2996 -0.5769
13783SOL     OW42789   6.508   1.838   2.841  0.1533  0.4661 -0.3389
13783SOL    HW142790   6.478   1.781   2.912  1.3851 -0.8591 -0.8207
13783SOL    HW242791   6.540   1.917   2.885  0.7485 -0.2716  0.5847
13784SOL     OW42792   3.307   2.279  12.091  0.0133 -0.0126  0.3453
13784SOL    HW142793   3.360   2.269  12.012 -0.0136 -0.4827  0.3823
13784SOL    HW242794   3.368   2.309  12.158 -0.1537  1.3414 -0.0876
13785SOL     OW42795   3.205   2.774   1.215  0.4630  0.0842 -0.0894
13785SOL    HW142796   3.274   2.836   1.190  0.2777 -0.6496 -2.6851
13785SOL    HW242797   3.133   2.793   1.155 -0.6421 -0.8524  0.8996
13786SOL     OW42798   2.258   0.977   1.867 -0.9727 -0.3943 -0.0579
13786SOL    HW142799   2.212   1.053   1.904  0.9167  1.2431 -0.9053
13786SOL    HW242800   2.218   0.965   1.780 -0.8667  0.0556 -0.1735
13787SOL     OW42801   5.573   1.705   1.965  0.1342  0.2824  0.0923
13787SOL    HW142802   5.663   1.671   1.963  0.3553  0.8925 -0.9081
13787SOL    HW242803   5.564   1.754   1.884 -0.3965  2.0242  1.1424
13788SOL     OW42804   4.398   1.209   3.166  0.2754  0.2984  0.3989
13788SOL    HW142805   4.346   1.244   3.239 -1.1569  0.7594 -0.7980
13788SOL    HW242806   4.344   1.224   3.089  1.2432 -1.2396 -0.6268
13789SOL     OW42807   6.826   2.434   2.182  0.2324 -0.5801  0.1717
13789SOL    HW142808   6.796   2.512   2.228  0.3484 -1.0949  1.1318
13789SOL    HW242809   6.781   2.362   2.225  0.7458 -1.1222 -0.1838
13790SOL     OW42810   4.887   3.306   3.122  0.5394  0.0442  0.0732
13790SOL    HW142811   4.918   3.347   3.041  1.3459 -0.0619  0.3238
13790SOL    HW242812   4.955   3.325   3.187 -0.7097  1.2563  1.0749
13791SOL     OW42813   5.844   4.994   2.268  0.6420  0.2614 -0.0285
13791SOL    HW142814   5.783   5.063   2.294  1.1496  0.9238 -0.5411
13791SOL    HW242815   5.860   5.011   2.175  0.1508 -1.0400 -0.3625
13792SOL     OW42816   5.617   2.602   2.137  0.8893 -0.2193  0.0910
13792SOL    HW142817   5.670   2.679   2.156  0.9574 -0.0817 -0.6101
13792SOL    HW242818   5.571   2.624   2.056  0.7210 -0.8210  0.0177
13793SOL     OW42819   4.951   2.154   5.350 -0.3310  0.0222 -0.5082
13793SOL    HW142820   4.972   2.142   5.442  3.4631  0.5007 -1.1427
13793SOL    HW242821   4.907   2.239   5.346  0.5856  0.5787  0.7613
13794SOL     OW42822   6.592   3.775   2.136 -0.0949 -0.0962 -0.3031
13794SOL    HW142823   6.536   3.707   2.173  0.6256  0.6503  2.3561
13794SOL    HW242824   6.531   3.844   2.109 -0.6081 -0.2024  0.5428
13795SOL     OW42825   4.326   2.680   3.349 -0.5588 -0.0326 -0.0961
13795SOL    HW142826   4.398   2.616   3.355 -1.4417 -0.9982  0.4836
13795SOL    HW242827   4.365   2.763   3.376 -0.5286 -1.2318  4.3301
13796SOL     OW42828   4.839   3.685   3.683 -0.4139 -0.5859  0.2851
13796SOL    HW142829   4.848   3.601   3.639 -3.0264 -0.7242 -0.1539
13796SOL    HW242830   4.803   3.744   3.617  1.6950  1.0509  0.4771
13797SOL     OW42831   3.387   2.026   3.883 -0.1456 -0.0558 -0.0569
13797SOL    HW142832   3.318   1.991   3.938 -0.7172  0.2341 -0.5728
13797SOL    HW242833   3.395   2.118   3.908 -0.5610  0.1349 -0.5915
13798SOL     OW42834   4.668   1.886   2.218 -0.4410 -0.1708 -0.0379
13798SOL    HW142835   4.575   1.886   2.239 -0.5969  0.8913 -0.6657
13798SOL    HW242836   4.707   1.949   2.280 -0.2664 -0.0590 -0.2579
13799SOL     OW42837   4.099   3.277   2.342 -0.2255  0.7201  0.2864
13799SOL    HW142838   4.117   3.248   2.432 -0.6008 -0.7603 -0.0820
13799SOL    HW242839   4.110   3.198   2.289 -0.3813  1.4874 -0.9292
13800SOL     OW42840   4.954   3.625   2.640 -0.4151  0.2179 -0.3130
13800SOL    HW142841   4.874   3.625   2.691 -0.1477 -0.6731  0.1229
13800SOL    HW242842   5.011   3.688   2.685 -0.2534 -0.4127  0.3808
13801SOL     OW42843   2.086   2.622   3.215  0.1958 -0.8011  0.1347
13801SOL    HW142844   2.002   2.669   3.214  0.1624 -0.8716 -0.6163
13801SOL    HW242845   2.151   2.690   3.196  0.4704 -0.4721  2.0435
13802SOL     OW42846   5.445   2.270   1.846 -0.2522  0.4854  0.2024
13802SOL    HW142847   5.436   2.327   1.770  1.9748 -0.0403 -0.5370
13802SOL    HW242848   5.533   2.288   1.879  0.0252 -1.5791  0.7087
13803SOL     OW42849   5.638   1.085   3.276  0.0738  0.5128 -0.2377
13803SOL    HW142850   5.662   1.004   3.231  1.9323  1.4193 -1.0315
13803SOL    HW242851   5.696   1.151   3.237 -1.3734  2.2291  0.3809
13804SOL     OW42852   4.255   0.626   2.093  0.8336  0.1458  0.2277
13804SOL    HW142853   4.283   0.711   2.059 -0.6873  0.3503 -0.5604
13804SOL    HW242854   4.209   0.647   2.174  1.1251 -0.0061  0.4353
13805SOL     OW42855   5.370   2.315   2.868  0.2143 -0.4395  0.0064
13805SOL    HW142856   5.308   2.276   2.930  1.7266 -0.5035  1.5624
13805SOL    HW242857   5.413   2.384   2.918  1.6831 -0.6785 -0.8733
13806SOL     OW42858   4.135   3.939   2.104  0.4191 -0.3463 -0.1156
13806SOL    HW142859   4.183   3.885   2.167 -0.3477 -1.1097 -0.1618
13806SOL    HW242860   4.196   3.951   2.031  0.5056 -1.4414 -0.2483
13807SOL     OW42861   4.461   3.498   2.615 -0.1537  0.4045 -0.4549
13807SOL    HW142862   4.390   3.434   2.613  0.5594 -0.5483  1.5667
13807SOL    HW242863   4.435   3.560   2.683  0.1940  1.0126 -0.8701
13808SOL     OW42864   6.158   5.616   1.856 -0.2679 -0.2223 -0.5366
13808SOL    HW142865   6.090   5.592   1.919  0.5760 -1.5163 -0.0976
13808SOL    HW242866   6.124   5.695   1.814 -1.7414 -0.4660  0.1380
13809SOL     OW42867   4.694   1.378   2.788 -0.4918 -0.0303 -0.2286
13809SOL    HW142868   4.737   1.392   2.704  2.8401 -1.0744  1.1625
13809SOL    HW242869   4.704   1.461   2.835 -1.9981  0.4219 -0.6459
13810SOL     OW42870   5.706   3.562   4.173  0.6461 -0.3840 -0.1233
13810SOL    HW142871   5.640   3.509   4.218 -1.4163  1.8873 -0.2914
13810SOL    HW242872   5.734   3.508   4.100 -1.0114 -1.4521 -0.0221
13811SOL     OW42873   6.258   0.771   3.804  0.1275 -0.3543  0.3206
13811SOL    HW142874   6.222   0.691   3.766 -0.3931  0.2421 -0.4758
13811SOL    HW242875   6.309   0.811   3.733  1.5351 -0.6563  1.1123
13812SOL     OW42876   3.568   3.127   3.231  0.2929  0.0035 -0.0183
13812SOL    HW142877   3.579   3.086   3.316 -0.2356 -2.2565 -0.9565
13812SOL    HW242878   3.632   3.084   3.174  0.0178  0.8080 -0.9844
13813SOL     OW42879   7.137   2.431   1.792 -0.8644  0.2160  0.0316
13813SOL    HW142880   7.088   2.506   1.759  0.8343  1.9073  1.1255
13813SOL    HW242881   7.071   2.374   1.831 -2.0673  1.9811  0.6996
13814SOL     OW42882   5.097   2.682   4.716 -0.5163  0.3733  0.4353
13814SOL    HW142883   5.127   2.592   4.702  0.2468  0.4095  1.6365
13814SOL    HW242884   5.024   2.673   4.777  1.4900  0.6785  3.1121
13815SOL     OW42885   3.616   2.728   4.079  0.4832 -0.8923 -0.1645
13815SOL    HW142886   3.612   2.819   4.109 -1.6367 -0.4828 -1.4552
13815SOL    HW242887   3.699   2.695   4.113  1.9500  1.8906 -0.7407
13816SOL     OW42888   5.155   3.670   3.433  0.0467  0.3159  0.1678
13816SOL    HW142889   5.175   3.653   3.525 -0.9733  2.8234  0.9279
13816SOL    HW242890   5.217   3.738   3.407 -0.2497  0.2503 -0.7395
13817SOL     OW42891   6.053   5.194   1.984  0.3679 -0.6793  0.2280
13817SOL    HW142892   6.081   5.224   1.898 -0.4475  1.6947  0.7199
13817SOL    HW242893   5.978   5.137   1.966  0.7484 -0.9134 -0.6687
13818SOL     OW42894   4.318   1.277   2.077  0.0594 -0.1712 -0.5930
13818SOL    HW142895   4.412   1.295   2.083 -0.1800  1.3102 -0.9029
13818SOL    HW242896   4.279   1.361   2.053 -1.6849 -0.0423  2.3193
13819SOL     OW42897   5.355   3.180   2.873  0.0998  0.1886 -1.0207
13819SOL    HW142898   5.263   3.155   2.886 -0.5329  1.8514 -1.9780
13819SOL    HW242899   5.403   3.125   2.934 -1.8678  1.9099  2.4562
13820SOL     OW42900   6.220   3.736   3.137  0.1370 -0.0908 -0.2246
13820SOL    HW142901   6.312   3.709   3.142  0.1788  0.1423  0.3988
13820SOL    HW242902   6.188   3.697   3.056  0.8275 -0.0444 -0.5280
13821SOL     OW42903   4.789   3.857   3.931 -0.0178 -0.2776 -0.3295
13821SOL    HW142904   4.701   3.835   3.962  0.1706 -1.3811 -0.5303
13821SOL    HW242905   4.793   3.819   3.843  0.3416  0.5796 -0.6926
13822SOL     OW42906   3.795   2.621   3.829 -0.0495 -0.4018  0.3824
13822SOL    HW142907   3.719   2.568   3.805  0.2641 -0.8130  0.2897
13822SOL    HW242908   3.759   2.708   3.847 -0.4427 -0.3619 -0.5152
13823SOL     OW42909   6.030   3.025   2.954  0.2382 -0.6346 -0.4039
13823SOL    HW142910   6.000   2.935   2.937  0.4690 -1.0922  1.4612
13823SOL    HW242911   5.949   3.075   2.966  0.1063 -0.5382 -1.5316
13824SOL     OW42912   2.233   1.910   3.467 -0.2067  0.2000 -0.2741
13824SOL    HW142913   2.274   1.983   3.421 -0.0633  0.8048  0.7920
13824SOL    HW242914   2.216   1.943   3.555  1.3259 -1.5318  0.7582
13825SOL     OW42915   6.148   1.532   1.432  0.0912  0.4387  0.2022
13825SOL    HW142916   6.056   1.508   1.446  0.3130 -0.2221  0.6135
13825SOL    HW242917   6.145   1.606   1.372 -0.5875 -1.7277 -2.6460
13826SOL     OW42918   2.583   3.110   2.358  1.0586 -0.3649  0.1715
13826SOL    HW142919   2.634   3.184   2.327  0.9978  0.2271  1.4363
13826SOL    HW242920   2.616   3.035   2.308  1.9007  0.3163 -0.3064
13827SOL     OW42921   3.806   1.845   3.364  0.0830  0.1014  0.2388
13827SOL    HW142922   3.793   1.760   3.406  0.4713 -0.7068 -1.2199
13827SOL    HW242923   3.897   1.845   3.336  0.6137  1.7629  1.8052
13828SOL     OW42924   4.574   1.838   3.353  0.4499 -0.4445 -0.6578
13828SOL    HW142925   4.617   1.832   3.438  0.0506  0.8658 -0.3392
13828SOL    HW242926   4.518   1.915   3.359 -0.6701 -1.1239 -1.6339
13829SOL     OW42927   5.533   2.853   2.841 -0.5552 -0.3733 -0.4012
13829SOL    HW142928   5.509   2.873   2.932 -1.2814  0.0161 -0.6722
13829SOL    HW242929   5.603   2.914   2.820 -1.0641  0.2105 -0.4183
13830SOL     OW42930   5.832   2.995   4.785 -0.1058  0.1040 -0.6112
13830SOL    HW142931   5.902   3.026   4.842 -1.5875 -1.1982  2.0917
13830SOL    HW242932   5.761   3.057   4.799 -0.5165 -0.2672 -1.0418
13831SOL     OW42933   4.645   4.609   3.000  0.4131  0.0127  0.2678
13831SOL    HW142934   4.697   4.556   3.060  2.6843  1.4699 -0.3011
13831SOL    HW242935   4.617   4.684   3.053 -1.8710 -1.0938  0.7744
13832SOL     OW42936   4.795   4.175   2.148 -0.5549  0.2694 -0.4380
13832SOL    HW142937   4.816   4.238   2.217 -2.6398 -0.5092  1.0325
13832SOL    HW242938   4.706   4.199   2.122 -1.1822 -1.6776 -0.2307
13833SOL     OW42939   4.397   1.956   0.720 -0.2529 -0.0458  0.0350
13833SOL    HW142940   4.450   2.017   0.772  0.3544 -1.1356  0.7402
13833SOL    HW242941   4.451   1.935   0.645  0.0346 -0.6297  0.4032
13834SOL     OW42942   5.462   4.200   3.991  0.1999 -0.7352 -0.3418
13834SOL    HW142943   5.409   4.277   3.971 -0.4177 -1.2407 -0.6824
13834SOL    HW242944   5.547   4.218   3.952  0.3564  0.1778  0.3882
13835SOL     OW42945   2.534   2.601   2.111  0.3582  0.1091  0.4185
13835SOL    HW142946   2.549   2.537   2.181 -0.5954 -0.0537  0.4882
13835SOL    HW242947   2.616   2.601   2.061 -0.4906 -3.2587 -1.2815
13836SOL     OW42948   5.737   2.430   3.045  0.6688  0.1133 -0.1411
13836SOL    HW142949   5.649   2.445   3.078  0.0312 -0.9753 -1.2461
13836SOL    HW242950   5.748   2.496   2.976  1.8931  2.2011  1.9106
13837SOL     OW42951   5.581   3.319   5.548 -0.3488  0.0894  0.0044
13837SOL    HW142952   5.497   3.304   5.590 -1.0219  0.0661 -1.2966
13837SOL    HW242953   5.567   3.296   5.456  1.9548 -3.2514  0.2974
13838SOL     OW42954   6.459   2.243   2.699 -0.0602 -0.3854 -0.1752
13838SOL    HW142955   6.402   2.261   2.774  0.7356  0.8661  0.1560
13838SOL    HW242956   6.435   2.154   2.672 -0.5593 -0.7561  1.3844
13839SOL     OW42957   4.214   2.939   4.703 -1.0661  0.3490  0.4786
13839SOL    HW142958   4.130   2.983   4.692 -1.1544  0.0893  0.0845
13839SOL    HW242959   4.248   2.930   4.614 -1.3717 -0.9926  0.4732
13840SOL     OW42960   5.510   2.142   2.229  0.1158 -0.4547 -0.2813
13840SOL    HW142961   5.423   2.109   2.206  0.1812 -1.2787  0.5403
13840SOL    HW242962   5.498   2.182   2.315  0.2007  1.0554 -0.9447
13841SOL     OW42963   3.502   3.116   2.341 -0.4876  0.0858 -0.1822
13841SOL    HW142964   3.488   3.154   2.428  1.1815  0.3924 -0.0087
13841SOL    HW242965   3.485   3.187   2.280 -0.7948  0.1190 -0.0596
13842SOL     OW42966   5.557   2.001   1.750  0.0398 -0.6851  0.4077
13842SOL    HW142967   5.629   2.062   1.737 -0.5276 -0.2893 -1.1300
13842SOL    HW242968   5.488   2.053   1.790  0.0970 -0.7110  0.5414
13843SOL     OW42969   5.024   3.373   2.264  0.3238  0.9373  0.2583
13843SOL    HW142970   5.011   3.297   2.321 -0.3425  0.8636  0.0223
13843SOL    HW242971   5.006   3.340   2.176  3.5404  0.4655 -0.3366
13844SOL     OW42972   3.533   1.257   3.945 -0.0598  0.1104  0.7049
13844SOL    HW142973   3.608   1.199   3.952 -0.3427 -0.3885 -0.1733
13844SOL    HW242974   3.564   1.341   3.978  1.4458  0.3998 -1.2314
13845SOL     OW42975   1.832   2.372   1.499 -0.3488 -0.3344  0.1201
13845SOL    HW142976   1.864   2.459   1.524  1.1563 -0.5087 -1.0479
13845SOL    HW242977   1.817   2.379   1.405  2.8567 -2.1504 -0.6612
13846SOL     OW42978   3.366   2.564   1.761 -0.6422  0.2076  0.2254
13846SOL    HW142979   3.383   2.478   1.722 -1.4671  0.5098 -0.8270
13846SOL    HW242980   3.335   2.618   1.689  1.9442  2.0751  0.3696
13847SOL     OW42981   5.935   2.179   3.457 -0.3964  0.1730  0.2073
13847SOL    HW142982   5.920   2.251   3.518 -1.1697 -0.2361  0.5230
13847SOL    HW242983   5.871   2.194   3.386 -2.7778 -1.8250  1.7699
13848SOL     OW42984   6.819   1.705   3.029  0.5298  0.0291  0.5823
13848SOL    HW142985   6.790   1.678   2.942  1.2129  0.4305  0.2144
13848SOL    HW242986   6.755   1.769   3.058  0.3929  0.0180  0.3005
13849SOL     OW42987   3.525   2.560   1.459  0.1686 -0.1771 -0.1926
13849SOL    HW142988   3.587   2.613   1.410 -0.2331 -0.1452 -0.6720
13849SOL    HW242989   3.457   2.621   1.487 -0.1738 -0.3962 -0.5466
13850SOL     OW42990   5.193   2.604   2.012 -0.5522 -0.4824 -0.4176
13850SOL    HW142991   5.151   2.593   1.927 -0.3691  0.9068 -0.7084
13850SOL    HW242992   5.282   2.635   1.991 -0.1019 -1.2814  0.2508
13851SOL     OW42993   2.602   1.364   2.720  0.4135 -0.6785 -0.2734
13851SOL    HW142994   2.542   1.437   2.704 -1.1160 -1.9420 -0.5778
13851SOL    HW242995   2.659   1.394   2.790 -1.0451  0.3438  0.5239
13852SOL     OW42996   5.357   0.776   1.802 -0.0383 -0.0724  0.6479
13852SOL    HW142997   5.264   0.760   1.821 -0.1293 -1.0402 -0.5089
13852SOL    HW242998   5.396   0.795   1.888 -1.1717 -0.3318  1.2407
13853SOL     OW42999   5.241   2.458   4.309 -0.2639 -0.1416 -0.4848
13853SOL    HW143000   5.229   2.367   4.283 -1.0299 -0.4356  0.8450
13853SOL    HW243001   5.153   2.490   4.329  0.2073  0.1914  1.2526
13854SOL     OW43002   3.873   3.018   2.339 -0.3517 -0.4442 -0.1484
13854SOL    HW143003   3.857   2.924   2.347 -1.9975 -0.2042 -0.1955
13854SOL    HW243004   3.833   3.056   2.418  0.2266  0.2317 -0.1691
13855SOL     OW43005   6.283   6.087   3.528  0.2368  0.5128  0.1307
13855SOL    HW143006   6.324   6.068   3.612  1.4572 -2.5734 -1.0229
13855SOL    HW243007   6.218   6.018   3.517 -1.9577  2.5232 -0.2659
13856SOL     OW43008   4.430   2.697   1.739 -0.5445  0.1620  0.1802
13856SOL    HW143009   4.518   2.660   1.749 -1.2086 -1.6136 -0.1718
13856SOL    HW243010   4.444   2.792   1.739  1.2072 -0.0378  1.5281
13857SOL     OW43011   3.310   3.213   1.497 -0.1595 -0.0444 -0.0071
13857SOL    HW143012   3.221   3.187   1.473  0.1490 -2.0636  0.8010
13857SOL    HW243013   3.329   3.288   1.442 -2.3804  0.4785 -0.1562
13858SOL     OW43014   4.857   2.326   2.364  0.5843 -0.0921  0.2739
13858SOL    HW143015   4.799   2.402   2.361  0.8118  0.1036  0.9080
13858SOL    HW243016   4.833   2.276   2.286 -1.5623 -0.8406  1.3367
13859SOL     OW43017   5.795   1.126   4.145 -0.4796  0.6442 -0.4109
13859SOL    HW143018   5.832   1.196   4.198 -0.8639  0.5686 -0.0302
13859SOL    HW243019   5.822   1.045   4.190 -2.7699  0.6017  1.0963
13860SOL     OW43020   4.459   1.559   2.940  0.4947 -0.7104 -0.2542
13860SOL    HW143021   4.456   1.507   3.020 -0.0389  0.7165  0.6962
13860SOL    HW243022   4.368   1.582   2.923  0.4903 -1.7127 -1.7990
13861SOL     OW43023   6.037   3.440   3.545 -0.2510  0.0596  0.5413
13861SOL    HW143024   6.059   3.468   3.456 -0.0849 -0.8444  0.2834
13861SOL    HW243025   6.098   3.488   3.601  0.3038 -0.0953  0.0834
13862SOL     OW43026   5.124   2.390   2.364 -0.6567 -0.8598 -0.3783
13862SOL    HW143027   5.122   2.391   2.460 -1.7279  2.6568 -0.3140
13862SOL    HW243028   5.036   2.360   2.339 -0.6025 -1.1093 -0.2780
13863SOL     OW43029   6.526   1.829   4.416  0.8878  0.2978 -0.2611
13863SOL    HW143030   6.586   1.902   4.404 -0.1321  1.0275 -1.0555
13863SOL    HW243031   6.465   1.858   4.484  1.9793 -0.8284  1.2856
13864SOL     OW43032   4.954   2.916   3.669  0.0076 -0.2122  0.4094
13864SOL    HW143033   4.969   2.841   3.612 -1.1659 -0.0766 -0.1034
13864SOL    HW243034   4.861   2.912   3.690  0.1358  0.5414  1.1891
13865SOL     OW43035   5.274   3.912   3.290  0.1942  0.2118  0.3995
13865SOL    HW143036   5.248   3.951   3.207  1.5852 -0.0810 -0.2039
13865SOL    HW243037   5.256   3.980   3.355 -2.0948 -0.0248  0.0642
13866SOL     OW43038   6.093   1.773   2.905 -0.2046 -0.4049 -0.2747
13866SOL    HW143039   6.048   1.852   2.936  1.3198  0.3594  0.1251
13866SOL    HW243040   6.039   1.701   2.936  0.3915  0.3417  2.9602
13867SOL     OW43041   2.858   2.572  12.359 -0.4556  0.0510 -0.3316
13867SOL    HW143042   2.875   2.648  12.303  1.0161 -0.6338 -0.8749
13867SOL    HW243043   2.875   2.497  12.302 -0.7576 -0.6833  0.5251
13868SOL     OW43044   4.484   2.983   4.557  0.0774  0.3662  0.1194
13868SOL    HW143045   4.441   3.036   4.625 -1.7242  0.7209 -1.2368
13868SOL    HW243046   4.426   2.989   4.482  0.4302 -2.5811 -0.4946
13869SOL     OW43047   5.031   4.370   2.770  0.1544  0.1363 -0.2781
13869SOL    HW143048   5.026   4.366   2.865 -2.2721  1.9867 -0.2487
13869SOL    HW243049   5.124   4.385   2.752  0.5406  0.6033  1.8302
13870SOL     OW43050   4.783   3.244   3.788 -0.0957 -0.0111 -0.2670
13870SOL    HW143051   4.710   3.301   3.813 -0.8864 -0.5544 -1.2819
13870SOL    HW243052   4.808   3.201   3.870 -0.5071  0.6290  0.2118
13871SOL     OW43053   5.182   3.166   4.025 -0.4042 -1.0048  0.1792
13871SOL    HW143054   5.169   3.194   3.935 -2.3005 -0.4705  0.5696
13871SOL    HW243055   5.276   3.176   4.041 -0.5030  2.4712 -0.6007
13872SOL     OW43056   5.665   3.805   4.091  0.9799 -0.1088 -0.3117
13872SOL    HW143057   5.701   3.723   4.124 -0.9762 -0.9797 -0.1791
13872SOL    HW243058   5.574   3.784   4.070  0.9754  1.5153 -2.2313
13873SOL     OW43059   2.664   1.455   4.446 -0.1026 -0.9394  0.4983
13873SOL    HW143060   2.726   1.480   4.515  0.3668  3.0773 -1.0862
13873SOL    HW243061   2.718   1.425   4.374 -0.3042 -1.1333  0.4260
13874SOL     OW43062   5.337   4.721   3.174  0.5329 -0.0791 -0.4798
13874SOL    HW143063   5.273   4.708   3.105  0.7402 -3.1157 -0.2163
13874SOL    HW243064   5.337   4.639   3.223  1.4870  1.3984  2.2326
13875SOL     OW43065   3.381   3.384   2.310  0.5040 -0.6968  0.0297
13875SOL    HW143066   3.377   3.353   2.401 -0.1202  0.7750  0.5243
13875SOL    HW243067   3.295   3.364   2.274  0.7466 -1.2670 -0.2615
13876SOL     OW43068   3.037   1.734   1.909 -0.1492  0.6219  0.0577
13876SOL    HW143069   3.069   1.644   1.910 -0.1415  0.6210 -0.2148
13876SOL    HW243070   3.061   1.769   1.994  0.2926  0.5234 -0.0247
13877SOL     OW43071   7.723   1.657   5.066  0.6129  0.4635  0.4081
13877SOL    HW143072   7.736   1.743   5.026 -0.2418 -0.0165 -0.9615
13877SOL    HW243073   7.629   1.654   5.086  0.6175 -0.1883  0.3503
13878SOL     OW43074   4.587   1.356   2.136  0.5275  0.5640  0.4970
13878SOL    HW143075   4.536   1.384   2.213 -0.2799  0.0236  0.1748
13878SOL    HW243076   4.651   1.426   2.123 -0.8849  1.8458  0.2120
13879SOL     OW43077   3.432   1.077   3.129 -0.0078 -0.2217 -0.0249
13879SOL    HW143078   3.422   1.015   3.056  1.0740 -2.3629  1.5266
13879SOL    HW243079   3.502   1.136   3.101 -0.6438 -0.0367 -1.3067
13880SOL     OW43080   6.958   4.416   3.108  0.2861 -0.1793  0.2456
13880SOL    HW143081   6.913   4.465   3.039 -0.5270  0.0460  0.9265
13880SOL    HW243082   6.892   4.404   3.176  1.5330  1.0633  1.7299
13881SOL     OW43083   5.509   2.508   4.219  0.7727  0.0298  0.1769
13881SOL    HW143084   5.436   2.463   4.262 -0.1758  0.9325 -0.4363
13881SOL    HW243085   5.580   2.444   4.219 -0.3303 -1.2423 -0.1100
13882SOL     OW43086   4.697   2.640   1.725 -0.3536  0.6069  0.2526
13882SOL    HW143087   4.727   2.703   1.659  0.5778  0.4424  0.4939
13882SOL    HW243088   4.773   2.629   1.782 -1.5078  1.6856  2.0829
13883SOL     OW43089   6.540   4.180   4.316 -0.0212 -0.2462 -0.3454
13883SOL    HW143090   6.445   4.173   4.308  0.0652 -2.2713 -0.0047
13883SOL    HW243091   6.572   4.090   4.308  1.7612  0.2307  0.8192
13884SOL     OW43092   7.330   2.579   5.262  0.4449  0.0511  0.1959
13884SOL    HW143093   7.401   2.515   5.263 -0.3843 -0.8949  0.0154
13884SOL    HW243094   7.256   2.533   5.302  0.1939  1.3458  1.2968
13885SOL     OW43095   4.788   1.821   2.635 -0.1768  0.0278  0.3248
13885SOL    HW143096   4.728   1.818   2.710 -1.0471 -2.6709 -0.3400
13885SOL    HW243097   4.785   1.911   2.605 -1.0788  0.7917  2.5317
13886SOL     OW43098   5.745   2.463   5.259 -0.3901 -0.1073  0.1736
13886SOL    HW143099   5.688   2.426   5.326  0.9508 -1.6364  0.5294
13886SOL    HW243100   5.734   2.405   5.183  0.2939 -0.1135  0.0735
13887SOL     OW43101   4.671   2.661   1.300 -0.5069 -0.2462  0.1522
13887SOL    HW143102   4.740   2.651   1.235 -1.2028 -2.9374 -0.2886
13887SOL    HW243103   4.614   2.729   1.263 -1.0665 -1.8987 -2.3434
13888SOL     OW43104   4.951   1.281   3.687 -0.3145 -0.2987 -0.1058
13888SOL    HW143105   4.933   1.346   3.620 -0.0787 -1.5116 -1.3995
13888SOL    HW243106   5.025   1.317   3.736  1.3351 -0.5332 -2.2363
13889SOL     OW43107   2.857   2.115   1.944 -0.3896  0.4565 -0.0585
13889SOL    HW143108   2.946   2.106   1.978  0.3455  0.0140 -1.9352
13889SOL    HW243109   2.870   2.134   1.851 -2.2610  0.4480 -0.3458
13890SOL     OW43110   4.849   6.870   4.656 -0.2915  0.2811 -0.3436
13890SOL    HW143111   4.823   6.906   4.741  2.4978 -0.9058  1.1347
13890SOL    HW243112   4.895   6.942   4.613 -2.8715  1.3358 -1.5856
13891SOL     OW43113   3.609   2.002   4.481 -0.4210 -0.3480  0.4657
13891SOL    HW143114   3.690   1.975   4.524 -0.1724  0.6905  0.6857
13891SOL    HW243115   3.624   1.985   4.388  0.8347  1.6251  0.2591
13892SOL     OW43116   5.163   1.815   2.198 -0.4086 -0.1031 -0.8196
13892SOL    HW143117   5.202   1.887   2.247  2.4420 -2.4394  0.6744
13892SOL    HW243118   5.187   1.832   2.107  2.2634 -0.2032 -0.2314
13893SOL     OW43119   4.692   3.662   5.160  0.3202 -0.5494  0.5645
13893SOL    HW143120   4.637   3.653   5.083  0.3272 -1.5304  0.6584
13893SOL    HW243121   4.728   3.750   5.154  0.6414 -0.7510 -0.7691
13894SOL     OW43122   4.952   1.496   2.252 -0.0527  0.4167 -0.3863
13894SOL    HW143123   4.986   1.536   2.333 -0.6379  0.2674 -0.0600
13894SOL    HW243124   4.857   1.493   2.265 -0.0590 -0.6464 -0.6073
13895SOL     OW43125   5.735   3.832   2.900 -0.1516 -0.0626  0.2639
13895SOL    HW143126   5.707   3.922   2.882  1.9907  0.6375  0.0315
13895SOL    HW243127   5.766   3.835   2.990 -0.8627 -0.8015  0.5377
13896SOL     OW43128   3.506   2.726   1.938  0.3679 -0.2359  0.0601
13896SOL    HW143129   3.436   2.724   2.003 -1.8012  0.4945 -2.0838
13896SOL    HW243130   3.485   2.655   1.878  1.7136 -0.2541 -0.4232
13897SOL     OW43131   4.627   2.420   4.228 -0.1649  0.4097  0.6164
13897SOL    HW143132   4.580   2.503   4.231 -0.5012  0.2789 -0.4725
13897SOL    HW243133   4.645   2.407   4.135  2.2063  0.5447  1.0174
13898SOL     OW43134   4.805   1.880   5.348  0.4845  0.0860  0.2265
13898SOL    HW143135   4.737   1.853   5.286 -0.2611  1.6129  0.3418
13898SOL    HW243136   4.838   1.963   5.314  1.7207 -0.2052  0.6426
13899SOL     OW43137   4.358   3.351   3.619  0.4307 -0.3327 -0.0036
13899SOL    HW143138   4.321   3.409   3.687  0.8144  0.0840 -0.1444
13899SOL    HW243139   4.369   3.408   3.543 -0.2592 -0.8680 -0.5095
13900SOL     OW43140   5.108   0.716   1.893 -0.3411 -0.5581  0.1576
13900SOL    HW143141   5.101   0.657   1.968 -0.7931  0.8645  1.2646
13900SOL    HW243142   5.038   0.779   1.905  1.8153  1.9182  0.5796
13901SOL     OW43143   5.548   2.238   3.522 -0.3628  0.4732 -0.2545
13901SOL    HW143144   5.540   2.331   3.502  2.9198  0.8645 -0.3833
13901SOL    HW243145   5.531   2.194   3.439 -1.3199  0.9993 -0.3424
13902SOL     OW43146   4.352   2.935   2.960  0.5205  0.5865  0.4690
13902SOL    HW143147   4.394   2.915   2.877  0.8541 -0.9626  0.9885
13902SOL    HW243148   4.424   2.944   3.022  0.1857 -0.3331  1.0035
13903SOL     OW43149   3.863   2.784   3.146  0.1403  0.1000 -0.1336
13903SOL    HW143150   3.788   2.843   3.140  1.0541  1.6872  2.3061
13903SOL    HW243151   3.936   2.840   3.172  1.6849 -1.7355 -0.2522
13904SOL     OW43152   2.876   2.834   2.322  0.1223 -0.2559  0.4645
13904SOL    HW143153   2.788   2.840   2.286  0.9302  1.6445 -1.4561
13904SOL    HW243154   2.933   2.825   2.245  1.7097  0.1811  1.5298
13905SOL     OW43155   3.135   2.775   1.848 -0.5555  0.1443  0.6901
13905SOL    HW143156   3.190   2.710   1.892 -0.6039 -1.3971 -1.3833
13905SOL    HW243157   3.182   2.858   1.859  1.4680 -0.8854  0.2008
13906SOL     OW43158   4.725   2.079   2.440  1.1592 -0.0385 -0.2544
13906SOL    HW143159   4.655   2.067   2.505  1.1693 -2.2267 -0.5642
13906SOL    HW243160   4.720   2.172   2.417 -0.8091  0.1528  0.6717
13907SOL     OW43161   3.113   1.768   1.447 -0.0554 -0.2696  0.5624
13907SOL    HW143162   3.062   1.822   1.508 -0.4359 -1.1255  1.0141
13907SOL    HW243163   3.186   1.825   1.421 -0.2812  0.3642  1.2501
13908SOL     OW43164   4.631   1.580   1.783  0.2493 -0.1813  0.2956
13908SOL    HW143165   4.650   1.635   1.858  1.5819 -0.6809  0.3531
13908SOL    HW243166   4.707   1.522   1.775  0.8999  0.8843 -2.3738
13909SOL     OW43167   3.823   1.131   3.741 -0.2233 -0.0319  0.2226
13909SOL    HW143168   3.736   1.161   3.718 -0.1529 -1.5123 -2.3954
13909SOL    HW243169   3.815   1.035   3.744  1.2156 -0.1726  0.2103
13910SOL     OW43170   4.031   3.158   3.565  0.3642 -0.6584  0.0850
13910SOL    HW143171   3.989   3.244   3.566 -0.3691 -1.0082 -0.1422
13910SOL    HW243172   3.965   3.099   3.529  0.3070 -1.6113  1.6325
13911SOL     OW43173   5.123   1.881   4.160 -0.0757 -1.4471  0.2233
13911SOL    HW143174   5.050   1.931   4.197 -0.6993 -1.6819 -0.6503
13911SOL    HW243175   5.176   1.947   4.116 -1.1792 -1.5664 -1.3803
13912SOL     OW43176   3.384   3.237   0.896 -0.2525 -0.5029  0.1553
13912SOL    HW143177   3.462   3.285   0.869 -0.3449  1.5291  3.0179
13912SOL    HW243178   3.317   3.261   0.833  0.7320 -0.0360 -0.7363
13913SOL     OW43179   5.799   3.862   3.546 -0.5392 -0.1314  0.0986
13913SOL    HW143180   5.718   3.889   3.591 -0.2867 -0.5988  0.8589
13913SOL    HW243181   5.795   3.766   3.546  0.2932 -0.1732  0.6783
13914SOL     OW43182   4.670   2.922   2.617  0.0099 -0.0012 -0.0269
13914SOL    HW143183   4.680   2.900   2.525 -1.0405  0.8099 -0.3501
13914SOL    HW243184   4.747   2.976   2.637  0.6329 -0.7946 -0.2095
13915SOL     OW43185   1.926   1.729   0.452 -0.0030  0.0729 -0.0375
13915SOL    HW143186   2.013   1.721   0.412 -0.6080  0.3046 -1.4443
13915SOL    HW243187   1.916   1.649   0.503  1.3102  0.3541  0.7095
13916SOL     OW43188   3.914   3.126   3.231 -0.0307  0.0882 -0.0383
13916SOL    HW143189   3.920   3.221   3.224 -1.0445  0.1133 -0.9016
13916SOL    HW243190   3.980   3.093   3.170  1.4409  0.1933  1.4259
13917SOL     OW43191   4.336   0.485   3.204 -0.4056  0.3956  0.5306
13917SOL    HW143192   4.269   0.417   3.208  0.7508 -0.8227  0.2186
13917SOL    HW243193   4.377   0.484   3.290  0.6889 -0.5028  0.0411
13918SOL     OW43194   5.968   3.922   2.581  0.2112 -0.0074  0.0091
13918SOL    HW143195   6.029   3.968   2.522 -0.1350  0.3942 -0.0472
13918SOL    HW243196   6.020   3.852   2.619  1.2406  1.3978  1.3420
13919SOL     OW43197   7.786   3.205   3.440  0.8829  0.0691  0.1939
13919SOL    HW143198   7.794   3.109   3.439 -0.9334 -0.1385  0.9099
13919SOL    HW243199   7.874   3.237   3.421  1.4428 -1.7415 -0.4688
13920SOL     OW43200   4.333   4.283   2.492  0.0336  0.1259 -0.6037
13920SOL    HW143201   4.299   4.335   2.565 -2.9029 -0.8253 -1.1724
13920SOL    HW243202   4.390   4.218   2.533  1.2719  1.7653  0.4145
13921SOL     OW43203   5.657   7.925   2.768  0.0347 -0.7587  0.6425
13921SOL    HW143204   5.670   7.862   2.697  0.1087 -0.3671  0.3053
13921SOL    HW243205   5.746   7.948   2.796  0.0684  0.5198 -0.4215
13922SOL     OW43206   5.405   3.144   3.165  0.5537 -0.0944 -0.2836
13922SOL    HW143207   5.380   3.213   3.227 -0.1073 -0.4643 -0.1283
13922SOL    HW243208   5.322   3.101   3.143  0.8492 -0.2921 -1.0361
13923SOL     OW43209   6.071   5.131   2.720 -0.1144  0.4574  0.0921
13923SOL    HW143210   6.015   5.207   2.703  1.6263  1.4569 -1.6009
13923SOL    HW243211   6.147   5.144   2.663  0.8680 -1.9047  0.7359
13924SOL     OW43212   4.275   3.155   3.436  0.0207 -0.4527 -0.5776
13924SOL    HW143213   4.190   3.110   3.440  0.2776 -0.9511 -0.6274
13924SOL    HW243214   4.280   3.203   3.518 -0.2113 -0.6072 -0.4692
13925SOL     OW43215   3.677   2.367   1.702  0.0141  0.0117  0.4048
13925SOL    HW143216   3.721   2.414   1.773  0.6093  1.0231 -0.5978
13925SOL    HW243217   3.662   2.433   1.635 -2.3168 -0.4778  0.3492
13926SOL     OW43218   5.737   4.016   2.425 -0.4997  0.3885 -0.1389
13926SOL    HW143219   5.782   3.960   2.488 -0.1323 -0.4831 -1.1495
13926SOL    HW243220   5.804   4.077   2.394 -0.4007  0.0856 -0.5178
13927SOL     OW43221   6.683   3.253   2.104  0.2825  0.4022 -0.4169
13927SOL    HW143222   6.636   3.246   2.187  0.1609 -2.2175 -0.6101
13927SOL    HW243223   6.727   3.338   2.108 -0.8323  0.9506  1.7068
13928SOL     OW43224   2.501   1.883   2.180  0.2076 -0.1271  0.3914
13928SOL    HW143225   2.464   1.819   2.119 -2.1008  1.9927 -0.6280
13928SOL    HW243226   2.535   1.953   2.124 -3.2461  2.5606  1.3232
13929SOL     OW43227   6.970   3.921   1.157  0.2917 -0.4901 -0.0974
13929SOL    HW143228   6.894   3.869   1.132 -1.2410  0.9437  1.3366
13929SOL    HW243229   7.042   3.885   1.104 -1.1913 -2.3729 -0.9619
13930SOL     OW43230   5.952   1.756   3.620 -0.5476  0.1765 -0.4935
13930SOL    HW143231   5.889   1.771   3.550 -0.6384 -0.5475 -0.5762
13930SOL    HW243232   6.037   1.779   3.582 -0.5971 -0.2053 -0.8363
13931SOL     OW43233   3.239   1.867   2.413 -0.7906  0.3306  0.1899
13931SOL    HW143234   3.244   1.961   2.399 -1.9344  0.4011  0.1604
13931SOL    HW243235   3.160   1.855   2.466  0.2864 -0.4540  1.7185
13932SOL     OW43236   7.798   2.745   3.913  0.0929  0.0645  0.1212
13932SOL    HW143237   7.861   2.676   3.889  1.3307  1.5193 -1.0062
13932SOL    HW243238   7.714   2.713   3.880  0.2883 -1.7115  1.2304
13933SOL     OW43239   4.464   2.764   3.695 -0.1660 -0.6702 -0.6441
13933SOL    HW143240   4.378   2.735   3.667 -0.1791 -1.7645  0.4307
13933SOL    HW243241   4.485   2.709   3.771  1.7046 -0.8079 -1.1985
13934SOL     OW43242   6.090   4.627   1.847 -0.2179 -0.3151 -0.2064
13934SOL    HW143243   6.035   4.571   1.792  0.7643  1.0984 -2.8101
13934SOL    HW243244   6.177   4.587   1.841 -0.3608 -1.0302  1.7082
13935SOL     OW43245   6.461   2.181   3.078  0.1009 -0.4743  0.4138
13935SOL    HW143246   6.449   2.275   3.066  1.2129 -0.0848  2.0016
13935SOL    HW243247   6.519   2.156   3.006 -0.4600 -0.0151 -0.2074
13936SOL     OW43248   5.401   3.616   3.095  0.2629  0.6442 -0.0891
13936SOL    HW143249   5.387   3.554   3.023 -0.9638  1.4928 -0.6163
13936SOL    HW243250   5.494   3.606   3.116  0.5608  0.0575 -1.4987
13937SOL     OW43251   5.136   2.862   2.736  0.0298 -0.3562  0.7002
13937SOL    HW143252   5.197   2.860   2.662  0.4731 -1.0460  1.0749
13937SOL    HW243253   5.193   2.866   2.813 -0.4013 -0.7786  1.0462
13938SOL     OW43254   4.616   3.228   2.340  0.5283  0.0570  0.3152
13938SOL    HW143255   4.604   3.204   2.432 -0.6940  0.3671  0.2533
13938SOL    HW243256   4.588   3.319   2.335 -0.7074 -0.3480 -0.6020
13939SOL     OW43257   2.774   3.303   2.325 -0.8721  0.6825 -0.2268
13939SOL    HW143258   2.751   3.383   2.371 -0.8027  0.1533  0.7394
13939SOL    HW243259   2.860   3.279   2.359 -1.9466 -1.1471  1.3677
13940SOL     OW43260   3.153   2.481   3.514  0.1577 -0.0999  0.0209
13940SOL    HW143261   3.124   2.391   3.524  0.8904 -0.2149  1.3295
13940SOL    HW243262   3.146   2.519   3.602  2.2889  0.3581  0.0344
13941SOL     OW43263   4.839   2.493   3.572  0.5599  0.3070  0.3229
13941SOL    HW143264   4.927   2.524   3.551  1.0614 -0.5374  1.0847
13941SOL    HW243265   4.826   2.519   3.663  0.3257 -0.2313  0.4473
13942SOL     OW43266   4.016   0.655   3.005  0.3445  0.5912 -0.5764
13942SOL    HW143267   4.003   0.560   3.011 -0.2320  0.7379  0.8990
13942SOL    HW243268   4.083   0.666   2.937 -0.1547 -0.8112 -1.3388
13943SOL     OW43269   6.709   2.257   3.511 -0.2671  0.8378 -0.2286
13943SOL    HW143270   6.775   2.281   3.446 -0.6301  1.0950 -0.5039
13943SOL    HW243271   6.643   2.208   3.461 -1.8174  3.1329 -0.5904
13944SOL     OW43272   0.846   0.650   2.550 -0.2249 -0.2087 -0.0683
13944SOL    HW143273   0.902   0.612   2.618 -0.2579 -1.8372 -0.9049
13944SOL    HW243274   0.907   0.693   2.490  0.0566 -1.0407 -0.3941
13945SOL     OW43275   5.811   2.686   0.513  0.0748  0.2263  0.2394
13945SOL    HW143276   5.749   2.614   0.523  0.9560 -0.6443 -0.4660
13945SOL    HW243277   5.758   2.759   0.479 -0.9449  0.1362  1.5583
13946SOL     OW43278   5.479   1.029   2.978  0.1769  0.4743  0.4445
13946SOL    HW143279   5.565   1.071   2.971  1.0574 -1.3708 -0.7043
13946SOL    HW243280   5.497   0.947   3.025 -1.2105  0.6356  1.3186
13947SOL     OW43281   4.451   5.096   2.253  0.1258 -0.2153  0.1742
13947SOL    HW143282   4.388   5.138   2.311  0.0161 -0.8492  0.5101
13947SOL    HW243283   4.467   5.011   2.292 -0.7972 -1.1090 -1.3132
13948SOL     OW43284   3.149   3.176   3.505  0.2554 -0.5422  0.3559
13948SOL    HW143285   3.096   3.167   3.425  0.2296 -0.6640  0.3866
13948SOL    HW243286   3.234   3.208   3.474  0.6710 -1.8069  0.1321
13949SOL     OW43287   5.307   1.306   2.021 -0.2034 -0.5498  0.1896
13949SOL    HW143288   5.348   1.387   2.053 -0.8341  0.0860 -0.5590
13949SOL    HW243289   5.224   1.300   2.068 -0.1935 -0.7178  0.1870
13950SOL     OW43290   4.218   3.504   1.637 -0.9306 -0.4462  0.0365
13950SOL    HW143291   4.203   3.572   1.702 -0.1759 -0.6094  0.3964
13950SOL    HW243292   4.179   3.538   1.557 -1.2721  0.0520  0.4072
13951SOL     OW43293   4.743   0.835   3.096 -0.0337  0.1235  0.7693
13951SOL    HW143294   4.683   0.783   3.151 -0.7812  0.6285  0.4467
13951SOL    HW243295   4.689   0.907   3.064  0.8461  0.7752  0.7383
13952SOL     OW43296   5.685   2.979   4.074 -0.3075  0.1511 -0.5928
13952SOL    HW143297   5.742   3.033   4.129 -0.0859 -0.1275 -0.5461
13952SOL    HW243298   5.617   2.948   4.133 -0.7598  0.8374 -0.7424
13953SOL     OW43299   6.002   2.753   2.969 -0.4597 -0.5402  0.1606
13953SOL    HW143300   5.908   2.737   2.955 -0.5681  0.4654 -0.2905
13953SOL    HW243301   6.018   2.721   3.058 -1.6581  1.0096  0.9847
13954SOL     OW43302   7.349   4.339   4.715 -0.5918 -0.3803  0.7892
13954SOL    HW143303   7.326   4.346   4.807  1.5330 -0.6768  1.4007
13954SOL    HW243304   7.329   4.248   4.692 -1.0919 -0.3155  0.9577
13955SOL     OW43305   5.152   2.492   1.772  0.2011 -0.1856 -0.0712
13955SOL    HW143306   5.078   2.457   1.722  0.1979 -0.0323 -0.1731
13955SOL    HW243307   5.228   2.480   1.716 -0.1775  2.5182 -1.3414
13956SOL     OW43308   4.337   2.342   2.803  0.9810 -0.5683  0.6617
13956SOL    HW143309   4.313   2.266   2.855  2.1599 -1.0617  0.5174
13956SOL    HW243310   4.363   2.306   2.718  0.1334  0.1325  0.0864
13957SOL     OW43311   7.408   3.868   2.651  0.3242 -0.2401  0.6054
13957SOL    HW143312   7.473   3.801   2.630  1.4296  1.3510 -1.3931
13957SOL    HW243313   7.451   3.951   2.630 -2.0501  0.9354  0.0270
13958SOL     OW43314   5.448   4.183   3.497 -0.6222 -0.9235  0.0351
13958SOL    HW143315   5.475   4.209   3.409 -1.0065 -1.3006 -0.1970
13958SOL    HW243316   5.481   4.253   3.554  0.8247 -1.3509 -0.2347
13959SOL     OW43317   4.869   3.433   3.611 -0.7749 -0.6398 -0.1462
13959SOL    HW143318   4.950   3.404   3.569 -0.3647  0.6247 -0.2836
13959SOL    HW243319   4.831   3.354   3.648 -0.1485 -1.4607 -1.2225
13960SOL     OW43320   4.603   1.760   2.831 -0.1534 -0.8449 -0.3344
13960SOL    HW143321   4.540   1.705   2.877  0.8815  0.0656  2.3504
13960SOL    HW243322   4.555   1.841   2.813 -0.0333 -0.4797  0.9270
13961SOL     OW43323   4.499   1.696   2.511  0.0372  0.2385 -0.2900
13961SOL    HW143324   4.550   1.687   2.592 -1.1207 -1.8704  0.2688
13961SOL    HW243325   4.408   1.699   2.540 -0.4023 -0.5234 -1.5046
13962SOL     OW43326   5.581   2.679   4.410  0.4996 -0.1015 -0.1826
13962SOL    HW143327   5.663   2.647   4.448  0.7470  2.0011  1.1988
13962SOL    HW243328   5.564   2.619   4.337  2.3070 -1.6624  0.5813
13963SOL     OW43329   5.382   2.690   4.041 -0.1197 -0.9024 -0.1577
13963SOL    HW143330   5.340   2.757   4.095 -0.0819 -1.0844  0.0959
13963SOL    HW243331   5.425   2.631   4.103  0.6403 -0.6377 -0.4140
13964SOL     OW43332   4.229   1.713   2.185 -0.2820  0.1874  0.0647
13964SOL    HW143333   4.160   1.652   2.157  0.7937 -1.3724  0.6809
13964SOL    HW243334   4.266   1.746   2.103  0.5214 -1.6737 -0.3865
13965SOL     OW43335   4.410   1.886   2.303 -0.1162  0.1843  0.4571
13965SOL    HW143336   4.345   1.822   2.276  0.3635 -0.0323 -0.1950
13965SOL    HW243337   4.428   1.865   2.395 -1.0444  0.3234  0.6818
13966SOL     OW43338   3.736   2.288   3.710 -0.2068 -0.3565 -0.2289
13966SOL    HW143339   3.788   2.211   3.734  0.0241 -0.2642 -0.4249
13966SOL    HW243340   3.714   2.329   3.794  0.1794 -0.3065 -0.1493
13967SOL     OW43341   3.954   3.153   1.310  0.8670  0.2110  0.1627
13967SOL    HW143342   3.954   3.243   1.343 -0.2398  0.2124  0.1989
13967SOL    HW243343   3.862   3.127   1.313  1.3435 -1.5019  1.7172
13968SOL     OW43344   3.077   1.706   0.918 -0.4127 -0.0987 -0.9072
13968SOL    HW143345   3.059   1.667   1.004  2.3471  1.6214  0.6350
13968SOL    HW243346   3.066   1.801   0.932 -0.2605  0.2013 -2.5750
13969SOL     OW43347   5.908   1.725   2.198  0.4224  0.7303 -0.5213
13969SOL    HW143348   5.923   1.704   2.291  0.1167  0.1033 -0.6068
13969SOL    HW243349   5.972   1.793   2.178  1.2409  0.0929 -0.1361
13970SOL     OW43350   5.521   3.070   3.768 -0.1876 -0.3173  0.7530
13970SOL    HW143351   5.515   3.142   3.831 -0.3207  0.8048 -0.5176
13970SOL    HW243352   5.611   3.072   3.737 -0.7163  0.7168 -0.8619
13971SOL     OW43353   2.755   1.798   1.924  0.0032  0.2037  0.1879
13971SOL    HW143354   2.848   1.777   1.926  0.3142  1.2726 -1.2162
13971SOL    HW243355   2.748   1.879   1.976  0.3279  1.5657 -1.7862
13972SOL     OW43356   5.559   3.499   2.569 -0.6701  0.2855  0.1051
13972SOL    HW143357   5.599   3.418   2.602 -1.0409 -0.0583 -0.2718
13972SOL    HW243358   5.557   3.557   2.644  1.4456  0.6895 -0.0878
13973SOL     OW43359   2.815   2.640   5.139 -0.2172  0.0023 -0.3274
13973SOL    HW143360   2.792   2.586   5.064  0.0892 -0.0468 -0.3860
13973SOL    HW243361   2.848   2.722   5.101 -2.0454  0.8378 -0.2503
13974SOL     OW43362   2.689   1.761   4.454  0.0422  0.1123  0.3329
13974SOL    HW143363   2.728   1.701   4.519 -1.1517 -0.1427  0.8470
13974SOL    HW243364   2.668   1.840   4.504  2.5007  1.4155 -0.5380
13975SOL     OW43365   4.048   1.645   4.782  0.8134  0.1276  0.1328
13975SOL    HW143366   4.071   1.594   4.860  0.2045  0.0505  0.2675
13975SOL    HW243367   3.980   1.705   4.812  2.3413  1.8808  0.2693
13976SOL     OW43368   3.676   2.811   5.337 -0.1568 -0.4077  0.0447
13976SOL    HW143369   3.739   2.876   5.303 -0.4936 -0.1616 -0.1167
13976SOL    HW243370   3.686   2.815   5.432  1.2891 -1.5917 -0.0217
13977SOL     OW43371   5.396   4.275   5.066  0.0990  0.1859 -0.2339
13977SOL    HW143372   5.320   4.217   5.063  0.4565 -0.2691 -0.8060
13977SOL    HW243373   5.373   4.347   5.007  0.3036 -0.1985 -0.7884
13978SOL     OW43374   5.470   2.365   5.004 -0.2804  0.4840 -0.2933
13978SOL    HW143375   5.417   2.287   4.985 -1.0064  1.1634 -1.1993
13978SOL    HW243376   5.407   2.437   4.997  0.9502  1.4483 -2.6084
13979SOL     OW43377   5.771   1.070   2.636  0.1476  0.1210  0.3638
13979SOL    HW143378   5.809   1.028   2.713  1.3932  2.2217  0.9650
13979SOL    HW243379   5.766   1.000   2.571  2.9245 -0.8042  1.0156
13980SOL     OW43380   4.728   2.595   3.855 -0.1598 -0.2030 -0.3756
13980SOL    HW143381   4.784   2.646   3.914  0.2380  0.5359 -1.3791
13980SOL    HW243382   4.639   2.612   3.885 -0.0720  1.4972 -1.0037
13981SOL     OW43383   3.829   3.009   5.018  0.1279 -0.1347  0.0935
13981SOL    HW143384   3.895   3.067   4.979  0.5046 -0.5313  0.1335
13981SOL    HW243385   3.854   3.005   5.110 -1.0070  1.1438  0.4915
13982SOL     OW43386   4.216   3.366   4.861  0.3697 -0.2443  0.2121
13982SOL    HW143387   4.186   3.381   4.772  1.7632  1.1526 -0.0629
13982SOL    HW243388   4.249   3.451   4.891  0.3491 -0.7801  1.8936
13983SOL     OW43389   4.876   3.062   5.019  0.0092  0.3882 -0.3008
13983SOL    HW143390   4.888   3.146   4.974 -0.8623 -0.2596 -1.8243
13983SOL    HW243391   4.803   3.077   5.078 -1.1852  0.3196 -1.6995
13984SOL     OW43392   4.108   3.627   5.120  0.7048 -0.1924  0.3387
13984SOL    HW143393   4.140   3.582   5.199  0.8904 -2.7335 -1.0644
13984SOL    HW243394   4.015   3.605   5.115  0.4899  0.6947  0.3035
13985SOL     OW43395   3.140   2.036   5.751 -0.1736  0.4087  0.0267
13985SOL    HW143396   3.218   2.035   5.695 -0.0068 -0.9947  0.2526
13985SOL    HW243397   3.086   2.107   5.716  0.2967  0.0921 -1.3912
13986SOL     OW43398   6.699   2.399   5.186  0.1694 -0.0477  0.3352
13986SOL    HW143399   6.770   2.359   5.234 -0.8140  0.2065  2.0811
13986SOL    HW243400   6.665   2.329   5.130  0.8902 -0.5434  0.5066
13987SOL     OW43401   4.690   4.102   5.930 -0.6218  0.1515  0.8935
13987SOL    HW143402   4.625   4.171   5.915  0.0930  0.7322  0.3477
13987SOL    HW243403   4.733   4.127   6.011 -1.0196 -0.1989  1.2208
13988SOL     OW43404   3.465   2.981   4.367  0.4956 -0.2068 -1.0467
13988SOL    HW143405   3.500   2.975   4.278  1.4847  0.1427 -0.6949
13988SOL    HW243406   3.501   3.063   4.401 -1.4549  0.6669 -0.9897
13989SOL     OW43407   2.828   3.646   4.597 -0.1494 -0.3181  0.5696
13989SOL    HW143408   2.904   3.669   4.543 -2.1596  0.8018 -2.0208
13989SOL    HW243409   2.837   3.700   4.675  0.3867  1.8813 -0.9187
13990SOL     OW43410   4.683   1.622   2.320  0.4542  0.1240 -0.0337
13990SOL    HW143411   4.684   1.703   2.269  1.5877  0.9214  1.1912
13990SOL    HW243412   4.647   1.647   2.405  0.0199 -0.8476  0.0868
13991SOL     OW43413   5.048   2.552   4.452  0.1170  0.0177 -0.2082
13991SOL    HW143414   5.075   2.637   4.485 -0.0013  0.5354 -1.3969
13991SOL    HW243415   4.981   2.522   4.514  0.7301  0.4046  0.6697
13992SOL     OW43416   3.294   2.133   3.623 -0.1897 -0.8559  0.2304
13992SOL    HW143417   3.352   2.201   3.656  0.5331 -1.2527 -0.2092
13992SOL    HW243418   3.311   2.057   3.679  0.4981 -1.2998 -0.5537
13993SOL     OW43419   6.934   2.369   3.708 -0.4644  0.0919  0.1513
13993SOL    HW143420   6.859   2.423   3.732  1.4901  3.2884 -0.1630
13993SOL    HW243421   6.987   2.365   3.787 -0.6330 -1.6182  0.2133
13994SOL     OW43422   6.124   4.050   2.914 -0.3516  0.4457  0.0430
13994SOL    HW143423   6.056   4.093   2.864 -2.0150  1.5516  2.9894
13994SOL    HW243424   6.198   4.111   2.913 -1.5486  2.0089  1.5318
13995SOL     OW43425   4.802   1.948   5.872 -0.3998 -0.0487 -0.4380
13995SOL    HW143426   4.707   1.950   5.888 -0.5338 -1.9092 -0.7684
13995SOL    HW243427   4.810   1.949   5.776  0.0191  1.8188 -0.4190
13996SOL     OW43428   3.626   0.856   5.219 -0.1236  0.3047 -0.0569
13996SOL    HW143429   3.708   0.867   5.172 -0.6560 -0.4026 -1.1986
13996SOL    HW243430   3.558   0.861   5.151 -1.0001  0.4985  0.8061
13997SOL     OW43431   4.166   2.922   4.987 -0.3123  0.1766  0.1009
13997SOL    HW143432   4.197   2.927   4.897 -0.7495  0.6634 -0.0270
13997SOL    HW243433   4.130   3.009   5.005 -1.2808 -0.2645  0.3579
13998SOL     OW43434   4.035   2.297   3.990 -0.4221 -0.3347  0.1122
13998SOL    HW143435   4.088   2.219   4.007  0.4048 -0.1144 -1.2529
13998SOL    HW243436   4.028   2.341   4.075  0.0004 -1.3468  0.6850
13999SOL     OW43437   3.415   3.165   5.836 -0.3887  0.5013 -0.4552
13999SOL    HW143438   3.408   3.070   5.828  1.0244  0.4867 -1.8253
13999SOL    HW243439   3.385   3.199   5.752  0.4804  1.1792 -0.5087
14000SOL     OW43440   5.235   3.989   4.788  0.4718  0.5076 -0.1887
14000SOL    HW143441   5.195   3.979   4.875  2.4248  2.4581  1.0541
14000SOL    HW243442   5.165   3.969   4.727 -0.6949 -2.0677  1.7833
14001SOL     OW43443   6.237   3.632   5.748 -0.9237 -0.3066 -0.7062
14001SOL    HW143444   6.154   3.628   5.796 -2.1633  0.9484 -2.6146
14001SOL    HW243445   6.213   3.661   5.660  1.4730 -0.6578 -1.5538
14002SOL     OW43446   3.381   1.719   3.970 -0.1641 -0.0846  0.7374
14002SOL    HW143447   3.447   1.657   3.939  0.2083  0.5987  0.1102
14002SOL    HW243448   3.356   1.769   3.891 -1.3747 -0.2734  0.9762
14003SOL     OW43449   4.953   2.006   5.117  0.3253  0.3732 -0.4721
14003SOL    HW143450   4.987   2.047   5.197 -1.0532 -2.3501  1.6814
14003SOL    HW243451   5.023   1.947   5.089  0.0742 -0.0650 -0.1726
14004SOL     OW43452   5.674   4.655   4.946  0.5540  0.1573  0.7043
14004SOL    HW143453   5.736   4.655   4.873 -0.6577 -1.6813 -0.4226
14004SOL    HW243454   5.693   4.574   4.994  0.3672  0.6081  1.5605
14005SOL     OW43455   3.750   2.731   2.884  0.2180 -0.6099 -0.0876
14005SOL    HW143456   3.784   2.738   2.973  0.0915 -1.0853  0.0022
14005SOL    HW243457   3.751   2.637   2.865 -1.5303 -0.7079  0.1270
14006SOL     OW43458   5.235   2.852   4.255 -0.2502  0.4718 -0.3349
14006SOL    HW143459   5.178   2.825   4.327 -0.8927  0.3269 -0.8789
14006SOL    HW243460   5.175   2.865   4.182  0.4518  0.0146 -1.0087
14007SOL     OW43461   4.208   2.632   3.646  0.3664  0.6435  0.3913
14007SOL    HW143462   4.251   2.571   3.586 -0.2648 -1.4396  1.9532
14007SOL    HW243463   4.162   2.693   3.589 -0.0512 -1.1360 -1.2581
14008SOL     OW43464   4.019   1.760   5.856 -0.4911 -0.5198  0.1214
14008SOL    HW143465   4.035   1.852   5.840  0.5610 -0.9132 -1.1911
14008SOL    HW243466   3.986   1.726   5.773  1.1066 -1.7424 -0.0533
14009SOL     OW43467   4.238   1.180   3.563  0.4954  0.3258 -0.5055
14009SOL    HW143468   4.326   1.144   3.565  0.7400  0.9289  0.7718
14009SOL    HW243469   4.202   1.162   3.650 -0.0293  1.5134 -0.4463
14010SOL     OW43470   6.258   2.845   4.560  0.1042 -0.2649  0.1424
14010SOL    HW143471   6.169   2.857   4.592  0.7413 -2.1030  2.9505
14010SOL    HW243472   6.247   2.806   4.473 -1.7753  0.5327 -0.0391
14011SOL     OW43473   4.927   2.016   4.309 -0.5179  0.0504  0.0894
14011SOL    HW143474   4.895   2.103   4.330  0.7823  0.8292 -0.9730
14011SOL    HW243475   4.854   1.973   4.264 -1.3196  0.4148  1.0185
14012SOL     OW43476   4.379   2.683   4.535  0.2639 -0.2429 -0.5644
14012SOL    HW143477   4.344   2.698   4.622  0.1492  1.4473 -0.8635
14012SOL    HW243478   4.447   2.749   4.524 -0.2954  0.1420 -2.0492
14013SOL     OW43479   3.828   2.633   4.192  0.5107  0.0477  0.0849
14013SOL    HW143480   3.841   2.619   4.286  1.7017 -0.0972 -0.0830
14013SOL    HW243481   3.915   2.652   4.158  0.4691 -1.9035 -1.3236
14014SOL     OW43482   6.807   3.053   5.565  0.1233 -0.0138  0.0874
14014SOL    HW143483   6.762   3.132   5.535  0.6182  0.7348  1.2660
14014SOL    HW243484   6.759   3.027   5.643  1.6982  0.8103  1.3758
14015SOL     OW43485   6.715   1.390   4.901  0.0854  0.2484 -0.0505
14015SOL    HW143486   6.764   1.325   4.851  0.9045  1.2218 -0.5453
14015SOL    HW243487   6.710   1.354   4.990  4.2614  1.3588  0.8242
14016SOL     OW43488   6.378   2.197   4.168  0.2157 -0.3522 -0.3635
14016SOL    HW143489   6.310   2.227   4.228 -1.2543 -1.4097 -1.4294
14016SOL    HW243490   6.365   2.250   4.089  0.1203 -1.0764 -0.8457
14017SOL     OW43491   5.707   3.499   6.372  0.2673  0.5898 -0.0507
14017SOL    HW143492   5.792   3.537   6.352  0.2843  0.3476 -0.4667
14017SOL    HW243493   5.707   3.415   6.326  0.8903 -0.7149  2.1880
14018SOL     OW43494   2.775   1.321   4.236  0.0112  0.0019  0.7320
14018SOL    HW143495   2.723   1.258   4.185 -0.4418  0.8129  0.1678
14018SOL    HW243496   2.862   1.315   4.198 -0.4335  0.9468 -0.5010
14019SOL     OW43497   3.979   3.089   4.663 -0.2638  0.3427 -0.4070
14019SOL    HW143498   4.027   3.126   4.589 -0.8579 -0.7871 -1.3913
14019SOL    HW243499   3.940   3.165   4.706  1.6571  1.1992 -0.0761
14020SOL     OW43500   6.500   2.837   4.723  0.4693 -0.5131 -0.4923
14020SOL    HW143501   6.431   2.797   4.776  2.1771  0.0192  2.3387
14020SOL    HW243502   6.455   2.870   4.645 -2.0755 -1.9762  0.2592
14021SOL     OW43503   5.051   2.636   5.517 -0.0052  0.1339 -0.2433
14021SOL    HW143504   5.062   2.717   5.568 -2.3148  0.2903  0.1204
14021SOL    HW243505   5.075   2.661   5.427  0.9018  0.7414  0.1493
14022SOL     OW43506   2.851   2.222   5.211 -0.2959 -0.0729  0.3428
14022SOL    HW143507   2.761   2.248   5.191  0.1106  1.5509  0.5078
14022SOL    HW243508   2.903   2.254   5.137  0.1674 -0.9633  0.2624
14023SOL     OW43509   5.581   1.071   5.474 -0.2957  0.1616 -0.7545
14023SOL    HW143510   5.585   1.063   5.570  1.0958  2.0879 -0.5975
14023SOL    HW243511   5.658   1.022   5.443 -0.4048  0.0443 -0.8387
14024SOL     OW43512   4.375   3.889   5.318 -0.1966  0.0713  0.4016
14024SOL    HW143513   4.411   3.879   5.406  0.2650  2.2256  0.5315
14024SOL    HW243514   4.452   3.896   5.261 -0.4571  0.5860  0.1041
14025SOL     OW43515   4.967   3.521   3.935  0.0814 -0.6682  0.0942
14025SOL    HW143516   4.940   3.578   4.007 -0.3583 -0.2263 -0.4061
14025SOL    HW243517   4.929   3.562   3.857  1.1822 -0.7257 -0.4855
14026SOL     OW43518   3.115   2.342   4.624 -0.0589 -0.2352  0.4961
14026SOL    HW143519   3.151   2.411   4.679  0.0959  0.0982 -0.0109
14026SOL    HW243520   3.125   2.375   4.535 -2.8182  0.4492  0.3567
14027SOL     OW43521   5.051   3.451   3.301 -0.2540  0.0281  0.4493
14027SOL    HW143522   5.124   3.391   3.317 -1.4416 -1.4305  0.5821
14027SOL    HW243523   5.084   3.536   3.331  1.3780 -0.5809  0.5137
14028SOL     OW43524   4.932   1.516   3.843  0.5830 -0.3263 -0.0326
14028SOL    HW143525   4.897   1.506   3.755  0.5014 -0.2298 -0.0113
14028SOL    HW243526   4.882   1.588   3.881  2.5006  1.5442 -0.8715
14029SOL     OW43527   3.600   4.092   3.480  0.6000 -0.1076 -0.3045
14029SOL    HW143528   3.593   4.019   3.418 -0.0301 -0.7926  0.5365
14029SOL    HW243529   3.577   4.054   3.565  2.6499  0.5149  0.5985
14030SOL     OW43530   1.941   2.807   4.009 -0.3648 -0.0464  0.2070
14030SOL    HW143531   1.954   2.885   3.955 -1.8068  0.4945  0.5896
14030SOL    HW243532   2.026   2.792   4.049 -0.1306  1.5919  0.4183
14031SOL     OW43533   5.017   1.893   6.037  0.4963  0.1335 -0.3017
14031SOL    HW143534   5.069   1.825   5.994  0.8861  0.9042 -1.0956
14031SOL    HW243535   4.954   1.920   5.969  0.2858  0.5049  0.0398
14032SOL     OW43536   4.306   2.845   4.192 -0.3186 -0.0903  0.1856
14032SOL    HW143537   4.292   2.920   4.251 -1.5668  0.1614 -0.4070
14032SOL    HW243538   4.382   2.871   4.139  0.0792  0.1849  0.8752
14033SOL     OW43539   3.245   2.858   4.609 -0.1237  0.7233 -0.2439
14033SOL    HW143540   3.290   2.868   4.525 -0.1755  0.8155 -0.2619
14033SOL    HW243541   3.301   2.904   4.672 -1.0434  2.3783 -0.5587
14034SOL     OW43542   3.110   3.138   5.359  0.0703  0.3615  0.0651
14034SOL    HW143543   3.176   3.077   5.391  0.9118  1.4288  0.4467
14034SOL    HW243544   3.115   3.132   5.263  1.2728  0.9702  0.0724
14035SOL     OW43545   4.739   1.604   7.031  0.1997  0.3590  0.2608
14035SOL    HW143546   4.672   1.670   7.014  0.3824  0.3312 -0.6060
14035SOL    HW243547   4.822   1.650   7.018  0.3598 -0.6144 -2.9685
14036SOL     OW43548   3.454   3.915   4.461 -0.1713  0.2872 -0.4233
14036SOL    HW143549   3.466   4.009   4.446  2.5242  0.2324  0.7990
14036SOL    HW243550   3.513   3.894   4.533 -0.8626 -2.3312 -0.5052
14037SOL     OW43551   4.870   2.180   4.682 -0.2160 -0.1108 -0.0770
14037SOL    HW143552   4.784   2.148   4.656 -0.9629  1.3271  0.5218
14037SOL    HW243553   4.873   2.168   4.777 -1.3788  3.3289  0.5282
14038SOL     OW43554   3.776   2.874   5.931  1.1779 -0.5232 -0.2605
14038SOL    HW143555   3.703   2.889   5.990  0.2841 -1.7484 -1.0075
14038SOL    HW243556   3.783   2.955   5.879 -0.3701 -0.7807 -0.9222
14039SOL     OW43557   6.078   3.838   5.234  0.3555 -0.2556 -0.4846
14039SOL    HW143558   6.042   3.780   5.167  0.5518  0.8251 -1.5691
14039SOL    HW243559   6.009   3.902   5.250  1.6861  1.8787 -2.6314
14040SOL     OW43560   3.015   1.499   3.232 -0.7476 -0.0575 -0.1785
14040SOL    HW143561   3.045   1.430   3.291 -1.3191 -1.3224 -1.3205
14040SOL    HW243562   3.092   1.553   3.216 -0.2152 -0.6093  0.4640
14041SOL     OW43563   6.249   1.768   3.418 -0.2853  0.1368 -0.0176
14041SOL    HW143564   6.228   1.675   3.410  5.2969 -1.5555  1.0393
14041SOL    HW243565   6.236   1.803   3.330  0.1302 -2.3364 -1.1580
14042SOL     OW43566   3.997   2.258   6.225 -0.2257 -0.1154  0.7637
14042SOL    HW143567   4.037   2.308   6.296 -0.6868  3.4317 -1.2348
14042SOL    HW243568   3.903   2.266   6.239 -0.3355 -1.6181  1.0894
14043SOL     OW43569   4.992   2.287   4.105  0.1174 -0.1818  0.8310
14043SOL    HW143570   4.914   2.267   4.053  0.3031 -0.4544  0.6557
14043SOL    HW243571   4.989   2.382   4.116  1.0473  0.1441 -1.2642
14044SOL     OW43572   5.458   1.948   5.703 -0.2107 -1.3351  0.4001
14044SOL    HW143573   5.427   1.987   5.785  0.1721 -1.1385  0.4551
14044SOL    HW243574   5.383   1.900   5.669 -0.9793  0.1281 -0.0901
14045SOL     OW43575   4.530   3.352   3.864 -0.3315 -0.3643 -0.6081
14045SOL    HW143576   4.458   3.364   3.801 -0.8143 -0.5465 -0.1054
14045SOL    HW243577   4.490   3.372   3.949  0.7499  1.6867 -0.5001
14046SOL     OW43578   3.185   2.944   3.805  0.0163 -0.2632  0.3647
14046SOL    HW143579   3.125   3.017   3.824 -1.2475 -1.1082 -0.2422
14046SOL    HW243580   3.214   2.914   3.891 -0.7731 -0.0990  0.7020
14047SOL     OW43581   2.995   1.835   4.514 -0.0895 -0.2552  0.0036
14047SOL    HW143582   2.993   1.879   4.429 -1.3246 -0.0814  0.1036
14047SOL    HW243583   3.008   1.906   4.577  0.7697 -0.3776 -0.0261
14048SOL     OW43584   7.160   2.979   3.582 -0.2396 -0.1570 -0.0534
14048SOL    HW143585   7.230   3.026   3.539  0.7555 -1.1355  0.4507
14048SOL    HW243586   7.195   2.956   3.668 -1.7394  0.6877  0.8261
14049SOL     OW43587   5.694   0.769   5.724 -0.0617 -0.2882 -0.1431
14049SOL    HW143588   5.667   0.860   5.734 -0.6191 -0.6466  2.0148
14049SOL    HW243589   5.739   0.747   5.805  0.9670 -1.6686 -1.0236
14050SOL     OW43590   5.519   2.315   4.634  0.2159  0.5255 -0.1679
14050SOL    HW143591   5.454   2.375   4.596  0.4842  0.7720 -0.2450
14050SOL    HW243592   5.575   2.371   4.688  0.7185  0.4162 -0.5651
14051SOL     OW43593   4.264   2.461   5.898  0.5740  0.0417 -0.1767
14051SOL    HW143594   4.230   2.520   5.965  1.3792 -0.8446  1.0533
14051SOL    HW243595   4.215   2.484   5.819 -0.8640  0.6770  0.8536
14052SOL     OW43596   5.555   3.360   3.747  0.4272  0.1455 -0.4493
14052SOL    HW143597   5.640   3.384   3.710  0.9952  0.9074  1.2515
14052SOL    HW243598   5.493   3.420   3.705  0.8690  0.2434 -0.9807
14053SOL     OW43599   5.461   3.549   5.048  0.5026 -0.0857  0.2247
14053SOL    HW143600   5.388   3.488   5.064 -0.1119  0.9012  1.3849
14053SOL    HW243601   5.418   3.630   5.022  1.2684  0.1310 -0.3732
14054SOL     OW43602   5.128   3.093   3.190  0.0080  0.0333 -0.6257
14054SOL    HW143603   5.059   3.026   3.191 -1.0928  1.1208  0.1199
14054SOL    HW243604   5.142   3.114   3.283  1.7342 -0.5210 -0.7271
14055SOL     OW43605   4.038   1.680   3.998 -0.1175  0.2036 -0.6098
14055SOL    HW143606   4.116   1.717   3.957  0.5161  0.3277  0.6766
14055SOL    HW243607   3.965   1.728   3.959  0.5273  0.9872 -0.8650
14056SOL     OW43608   5.843   2.521   5.876  0.0918  0.2422 -0.1378
14056SOL    HW143609   5.747   2.512   5.876  0.2347 -1.7781 -0.6509
14056SOL    HW243610   5.864   2.559   5.791 -0.2649  1.1031  0.1469
14057SOL     OW43611   5.280   3.474   4.787  0.0671 -0.1558  0.5149
14057SOL    HW143612   5.245   3.554   4.826 -1.4180  0.2418 -1.4792
14057SOL    HW243613   5.217   3.406   4.813  0.1829 -0.2786  0.4772
14058SOL     OW43614   3.748   2.612   6.334  0.3725 -0.0302  0.4316
14058SOL    HW143615   3.826   2.657   6.300  0.4830 -1.1725 -0.9252
14058SOL    HW243616   3.721   2.554   6.262 -0.5683 -1.1106  1.6170
14059SOL     OW43617   4.769   2.526   6.267  0.2799 -0.1850  0.2120
14059SOL    HW143618   4.687   2.574   6.282 -0.9223 -2.5452  1.7369
14059SOL    HW243619   4.767   2.505   6.173 -0.4319  0.5082  0.0576
14060SOL     OW43620   5.703   5.079   5.903  0.6918  0.1726 -0.2809
14060SOL    HW143621   5.684   5.075   5.810 -0.0870  0.7464 -0.1642
14060SOL    HW243622   5.616   5.081   5.945  1.0274 -0.5232  0.4768
14061SOL     OW43623   6.004   1.722   4.849 -0.3369  0.0328  0.6868
14061SOL    HW143624   5.977   1.637   4.883  0.0002 -0.2392  0.3009
14061SOL    HW243625   5.926   1.757   4.806  0.1550 -1.2489 -1.4125
14062SOL     OW43626   4.468   3.349   5.158  0.0349 -0.2237 -0.6633
14062SOL    HW143627   4.412   3.387   5.226  0.5490 -0.1837 -0.2531
14062SOL    HW243628   4.486   3.421   5.098  0.3566 -0.0154 -0.3208
14063SOL     OW43629   4.794   1.464   4.333  0.5999  0.7491  0.0083
14063SOL    HW143630   4.883   1.464   4.368 -0.3127 -0.0549  2.5940
14063SOL    HW243631   4.739   1.482   4.409 -1.5835 -1.2708 -0.9663
14064SOL     OW43632   3.244   2.283   5.498  0.4309 -0.4214  0.3350
14064SOL    HW143633   3.280   2.367   5.523 -0.6577  0.0087  0.5290
14064SOL    HW243634   3.233   2.289   5.403 -0.7022  0.1067  0.4825
14065SOL     OW43635   4.866   0.863   6.261  0.1903 -0.2824 -0.7576
14065SOL    HW143636   4.948   0.834   6.301  0.6677  1.1091 -0.6718
14065SOL    HW243637   4.815   0.783   6.250  0.8688 -0.9557  0.7624
14066SOL     OW43638   2.332   4.019   5.171  1.1834  0.1417 -0.1236
14066SOL    HW143639   2.281   3.940   5.153 -3.5162  2.0985  2.8025
14066SOL    HW243640   2.346   4.058   5.085 -3.0741 -0.2685 -1.2077
14067SOL     OW43641   4.278   1.588   5.261  0.1503 -0.0996 -0.5425
14067SOL    HW143642   4.237   1.508   5.293  1.7221 -0.5033  0.5871
14067SOL    HW243643   4.238   1.658   5.312  0.1774 -0.3742 -0.1458
14068SOL     OW43644   4.756   1.978   5.598 -0.0695  0.1267  0.2312
14068SOL    HW143645   4.688   2.045   5.585  0.4660  0.3059 -2.0127
14068SOL    HW243646   4.777   1.947   5.510  2.0787 -0.6239  0.9377
14069SOL     OW43647   5.848   3.864   4.861 -0.0594  0.9140 -0.4913
14069SOL    HW143648   5.769   3.917   4.873 -0.5486  0.1920 -0.5267
14069SOL    HW243649   5.841   3.830   4.772 -0.1037  0.1952 -0.2159
14070SOL     OW43650   5.227   2.417   5.330 -0.9586 -0.2494  0.0351
14070SOL    HW143651   5.256   2.505   5.308  0.1836 -0.4025  0.8096
14070SOL    HW243652   5.166   2.392   5.260 -1.1007  1.0464 -0.3184
14071SOL     OW43653   3.833   3.575   5.152  0.0134  0.0441 -0.2986
14071SOL    HW143654   3.829   3.669   5.173  0.0858 -0.4054  1.9709
14071SOL    HW243655   3.756   3.560   5.098  0.1625  1.4582 -0.9670
14072SOL     OW43656   5.563   3.251   4.483  0.2102 -0.2932  0.3250
14072SOL    HW143657   5.517   3.268   4.565  0.4278 -1.1225  0.6310
14072SOL    HW243658   5.642   3.304   4.488 -0.8788  1.4922 -0.3983
14073SOL     OW43659   6.025   1.742   5.440  0.6585  0.1161  0.1901
14073SOL    HW143660   6.006   1.718   5.349  0.1182  0.6522  0.1547
14073SOL    HW243661   6.016   1.661   5.489 -0.9399  0.1750  0.0430
14074SOL     OW43662   3.870   2.424   5.071  0.2716 -0.1839  0.0865
14074SOL    HW143663   3.875   2.485   4.997  2.1097 -0.6906 -0.2702
14074SOL    HW243664   3.862   2.481   5.148  3.4583  0.7330 -0.0883
14075SOL     OW43665   5.464   1.111   4.922  0.2240  0.2080  0.6218
14075SOL    HW143666   5.390   1.084   4.976 -0.6443 -0.9809 -1.0700
14075SOL    HW243667   5.503   1.184   4.969 -1.8639  0.6885  1.7076
14076SOL     OW43668   4.874   2.786   4.015  0.0046 -0.0147  0.6117
14076SOL    HW143669   4.834   2.852   4.072 -1.0240 -1.1171  1.2265
14076SOL    HW243670   4.957   2.825   3.987  0.2491  0.8342  2.3528
14077SOL     OW43671   4.557   3.232   3.381  0.0644  0.0602 -0.7360
14077SOL    HW143672   4.593   3.314   3.347 -1.7922  0.4536 -1.8514
14077SOL    HW243673   4.463   3.241   3.371 -0.3097 -1.4319  0.9754
14078SOL     OW43674   5.156   3.290   5.476 -0.0387 -0.5217 -0.2186
14078SOL    HW143675   5.095   3.333   5.536  0.3494 -2.6295  1.8565
14078SOL    HW243676   5.101   3.238   5.418 -0.3237 -0.4651  0.0016
14079SOL     OW43677   4.052   1.874   2.851  0.3751 -0.3519  0.2003
14079SOL    HW143678   3.960   1.857   2.830  0.7369 -1.6673 -0.4269
14079SOL    HW243679   4.069   1.961   2.816 -0.9060  0.3639  1.2789
14080SOL     OW43680   3.912   2.590   5.304  0.5961  0.1434  0.5968
14080SOL    HW143681   3.955   2.675   5.314 -0.9821  0.7934  2.5711
14080SOL    HW243682   3.819   2.611   5.294  0.0652 -1.3250  1.8850
14081SOL     OW43683   4.060   0.340   4.590 -0.6764 -0.6193  0.1103
14081SOL    HW143684   4.083   0.367   4.502 -1.5578  0.2902  0.1383
14081SOL    HW243685   4.140   0.301   4.625  0.3867  1.0655 -0.3027
14082SOL     OW43686   5.561   4.274   6.612  0.6812 -0.0794  0.6000
14082SOL    HW143687   5.547   4.187   6.576  0.4413  0.6161 -1.0763
14082SOL    HW243688   5.475   4.302   6.643  0.4653  0.0956 -0.1401
14083SOL     OW43689   3.879   2.576   3.504  0.2613  0.0383 -0.0344
14083SOL    HW143690   3.933   2.654   3.507 -0.7602  0.8358 -1.2715
14083SOL    HW243691   3.790   2.607   3.524 -0.8539 -0.0283 -3.9985
14084SOL     OW43692   5.710   2.843   3.855  0.4084 -0.4684  0.0409
14084SOL    HW143693   5.683   2.877   3.941  1.6355 -0.5468  0.4712
14084SOL    HW243694   5.783   2.900   3.829 -0.4529  0.0604 -1.3335
14085SOL     OW43695   5.025   3.537   5.239  0.0602  0.2354 -0.3832
14085SOL    HW143696   4.943   3.495   5.266 -0.1819  0.5677 -0.5891
14085SOL    HW243697   5.001   3.629   5.224  0.6440  0.5174  0.3572
14086SOL     OW43698   4.524   2.691   4.228  0.2901  0.1042  0.1268
14086SOL    HW143699   4.445   2.724   4.270 -0.3917  0.4894 -1.3807
14086SOL    HW243700   4.595   2.739   4.269 -0.6963  4.8008 -2.8763
14087SOL     OW43701   4.914   4.334   4.423  0.4122 -0.1098 -0.2281
14087SOL    HW143702   4.876   4.288   4.498  2.2672 -1.2103  0.0956
14087SOL    HW243703   4.840   4.352   4.366 -0.6377 -1.9756  0.4596
14088SOL     OW43704   3.631   1.883   6.207 -0.0693  0.0124 -0.1192
14088SOL    HW143705   3.723   1.908   6.192 -0.4561  0.2167 -2.5795
14088SOL    HW243706   3.591   1.961   6.246  0.4522  0.5033 -0.5462
14089SOL     OW43707   6.412   3.383   4.719  0.1184  0.5006 -0.6670
14089SOL    HW143708   6.364   3.345   4.793 -0.1642 -0.9643 -1.5793
14089SOL    HW243709   6.500   3.346   4.725  0.5429  1.5299 -0.2386
14090SOL     OW43710   5.183   4.115   5.103  0.1319  0.1811  0.0020
14090SOL    HW143711   5.208   4.069   5.183 -2.0655  0.2003  0.7744
14090SOL    HW243712   5.126   4.053   5.057 -0.4531  1.0157 -0.4179
14091SOL     OW43713   0.344   2.124   4.641  0.2404 -0.0547 -0.7079
14091SOL    HW143714   0.433   2.108   4.609  1.4357  1.1066  1.8047
14091SOL    HW243715   0.325   2.049   4.698  1.4356  1.6667  2.1836
14092SOL     OW43716   3.212   1.698   5.503  0.0806 -0.3674  0.0953
14092SOL    HW143717   3.143   1.727   5.563 -1.0082 -1.5501 -0.5184
14092SOL    HW243718   3.209   1.761   5.431 -0.2938 -0.3556  0.1188
14093SOL     OW43719   6.178   2.506   3.642  0.3061 -0.1201 -0.2413
14093SOL    HW143720   6.083   2.492   3.645 -0.1974  2.7967  0.1843
14093SOL    HW243721   6.210   2.461   3.721 -1.1386  1.1584  1.1641
14094SOL     OW43722   5.521   2.956   3.524  0.1835 -0.7423  0.1426
14094SOL    HW143723   5.540   3.025   3.460 -1.5777 -1.1057 -0.8297
14094SOL    HW243724   5.505   3.003   3.605 -2.0360  0.1555 -0.7340
14095SOL     OW43725   4.804   2.747   5.675 -0.0923 -0.1494 -0.3854
14095SOL    HW143726   4.821   2.832   5.714  1.1935 -0.8388  0.6508
14095SOL    HW243727   4.709   2.745   5.660 -0.1223  1.4844 -0.5525
14096SOL     OW43728   4.020   3.488   5.341 -0.1488  0.7414 -0.2861
14096SOL    HW143729   3.994   3.396   5.339 -0.0502  0.7250 -1.0682
14096SOL    HW243730   3.941   3.536   5.313 -0.2815  0.9208  0.3703
14097SOL     OW43731   4.517   3.557   4.960 -0.0540 -0.0626 -0.2458
14097SOL    HW143732   4.572   3.525   4.888 -0.3403  1.1411 -1.0265
14097SOL    HW243733   4.444   3.601   4.917 -0.5382  0.1779  0.7868
14098SOL     OW43734   4.136   3.408   4.593 -0.8741 -0.0579  0.4782
14098SOL    HW143735   4.141   3.331   4.536 -1.5634 -0.0513  0.3959
14098SOL    HW243736   4.050   3.446   4.574 -1.3756 -0.4093  1.9690
14099SOL     OW43737   3.430   2.350   4.687  0.3807 -0.0311  0.2192
14099SOL    HW143738   3.506   2.403   4.710  0.5837  0.6529 -1.8261
14099SOL    HW243739   3.364   2.413   4.661 -0.4717 -0.6806  0.7457
14100SOL     OW43740   3.575   2.580   4.796  0.3430 -0.1688 -0.2260
14100SOL    HW143741   3.585   2.633   4.717  1.1521  0.3413  0.1959
14100SOL    HW243742   3.590   2.642   4.868  1.7836 -1.0402  0.2773
14101SOL     OW43743   5.392   3.682   5.407  0.1690  0.3744 -0.4375
14101SOL    HW143744   5.311   3.729   5.429 -0.1319  0.9978 -2.6638
14101SOL    HW243745   5.364   3.612   5.348  0.8912 -1.4350  1.2342
14102SOL     OW43746   2.904   1.965   5.172 -0.3166 -0.3729  0.1462
14102SOL    HW143747   2.942   1.961   5.085 -2.0935 -0.2811 -0.6789
14102SOL    HW243748   2.875   2.056   5.181 -1.0277 -0.6176  0.4225
14103SOL     OW43749   4.231   3.170   5.336 -0.4670 -0.0037 -0.0789
14103SOL    HW143750   4.275   3.248   5.370  1.2950 -0.2862 -1.5650
14103SOL    HW243751   4.138   3.189   5.345 -0.0883  2.3625 -0.6215
14104SOL     OW43752   5.168   2.113   4.048  0.2439 -0.3988  0.4076
14104SOL    HW143753   5.110   2.188   4.064  0.9669  0.2700 -0.0044
14104SOL    HW243754   5.256   2.150   4.052  0.5809 -0.9771 -1.0038
14105SOL     OW43755   6.384   3.405   5.778 -0.5664  0.6128 -0.3973
14105SOL    HW143756   6.339   3.476   5.732  1.7729  2.2977 -0.2736
14105SOL    HW243757   6.442   3.367   5.713  0.0789  0.5597  0.1906
14106SOL     OW43758   5.017   1.776   3.409 -0.2661 -0.0343 -0.3509
14106SOL    HW143759   5.050   1.864   3.393 -1.9080  0.5493 -0.6600
14106SOL    HW243760   5.028   1.731   3.325  0.2419 -0.0261 -0.2922
14107SOL     OW43761   5.440   3.284   4.714  0.1723 -0.1961  0.0792
14107SOL    HW143762   5.392   3.362   4.742 -2.5280 -0.7861 -2.4001
14107SOL    HW243763   5.396   3.212   4.759  0.1493 -0.5740 -0.5356
14108SOL     OW43764   6.576   1.672   5.052  0.2370 -0.7877 -0.2801
14108SOL    HW143765   6.524   1.644   4.976  1.0612  1.0701 -1.6191
14108SOL    HW243766   6.539   1.757   5.077  1.2175 -0.4616  0.1295
14109SOL     OW43767   6.788   6.060   7.827  0.1551  0.1239  0.2522
14109SOL    HW143768   6.704   6.026   7.856 -0.4343 -0.0128 -1.4646
14109SOL    HW243769   6.838   5.982   7.804  0.2042  0.2578 -0.1030
14110SOL     OW43770   4.129   3.786   4.784 -0.4910 -0.1242 -0.3679
14110SOL    HW143771   4.157   3.802   4.874  1.5039  0.9559 -1.1189
14110SOL    HW243772   4.201   3.736   4.745 -2.1020 -2.1517 -0.9304
14111SOL     OW43773   4.293   2.118   2.964 -0.3224 -0.2740  0.1939
14111SOL    HW143774   4.341   2.076   3.035 -1.7861 -2.2564  0.0927
14111SOL    HW243775   4.219   2.162   3.007  0.4789  1.1673  0.1624
14112SOL     OW43776   4.399   4.754   6.195 -0.1899  0.2551 -0.4950
14112SOL    HW143777   4.435   4.757   6.284 -2.2710  2.7486  0.3941
14112SOL    HW243778   4.370   4.664   6.184  0.1087 -0.1210  1.3404
14113SOL     OW43779   4.994   2.211   3.002  0.5735  0.1161  0.5054
14113SOL    HW143780   4.939   2.222   2.924  1.0980  0.4218  0.1700
14113SOL    HW243781   4.933   2.212   3.075  0.1675  0.8218  0.1680
14114SOL     OW43782   5.199   4.066   3.087 -0.0201 -0.2091  0.5066
14114SOL    HW143783   5.233   4.103   3.005  0.4910 -0.9171  0.3888
14114SOL    HW243784   5.109   4.100   3.093  0.1597  0.3736 -0.0104
14115SOL     OW43785   4.725   2.819   3.417 -0.3883 -0.0018 -0.2667
14115SOL    HW143786   4.647   2.874   3.417  0.3494  1.0864 -0.1263
14115SOL    HW243787   4.794   2.875   3.453  0.4121 -1.0048 -0.1828
14116SOL     OW43788   3.905   2.343   5.449  0.0762  0.0866  0.0564
14116SOL    HW143789   3.956   2.414   5.410  0.6682 -1.4064 -2.1093
14116SOL    HW243790   3.818   2.352   5.410  0.5126 -1.0755 -1.2840
14117SOL     OW43791   5.878   4.533   4.211  0.5284  0.1157 -0.3372
14117SOL    HW143792   5.882   4.592   4.286  1.7185 -2.3753  1.7029
14117SOL    HW243793   5.944   4.466   4.230 -0.6296 -1.7943 -2.5968
14118SOL     OW43794   4.612   1.735   5.615  0.3819  0.2433 -0.7548
14118SOL    HW143795   4.518   1.741   5.631  0.7580  0.1954  1.8233
14118SOL    HW243796   4.642   1.826   5.612  0.3821  0.2465 -0.6595
14119SOL     OW43797   4.694   2.921   3.694 -0.0888 -0.4561  0.5677
14119SOL    HW143798   4.657   2.833   3.699  0.3081 -0.5585  1.8837
14119SOL    HW243799   4.651   2.970   3.764 -0.3064  0.4106 -0.1524
14120SOL     OW43800   5.176   2.405   2.654  0.7670  0.0046  0.2591
14120SOL    HW143801   5.180   2.482   2.711  3.4268  1.4540 -1.6766
14120SOL    HW243802   5.220   2.336   2.704 -2.1932 -0.6015  2.2757
14121SOL     OW43803   3.887   3.852   5.185  0.1671 -0.1432 -0.6617
14121SOL    HW143804   3.905   3.893   5.101 -2.2154  0.5831 -0.8806
14121SOL    HW243805   3.950   3.893   5.245  0.9367  0.3874 -1.7947
14122SOL     OW43806   6.124   3.533   3.300  1.0225 -0.7068  0.2471
14122SOL    HW143807   6.146   3.623   3.276  2.7477 -0.8884  1.0220
14122SOL    HW243808   6.039   3.517   3.258  0.3732  1.4755  0.6268
14123SOL     OW43809   5.271   3.310   3.371 -0.1619 -0.2308 -0.2488
14123SOL    HW143810   5.341   3.344   3.427 -0.3168 -0.2125 -0.0646
14123SOL    HW243811   5.230   3.241   3.424 -0.2891 -0.2343 -0.3518
14124SOL     OW43812   4.632   2.322   5.061 -0.0765 -0.0911  0.4406
14124SOL    HW143813   4.580   2.320   5.141 -0.8843 -0.3699 -0.0784
14124SOL    HW243814   4.675   2.408   5.062  1.9108 -0.9919  2.3719
14125SOL     OW43815   6.958   4.728   5.182 -0.4451 -0.2233 -0.3921
14125SOL    HW143816   6.893   4.659   5.190 -0.5284 -0.0776  0.2328
14125SOL    HW243817   7.020   4.696   5.116 -0.9653 -0.5010 -0.7492
14126SOL     OW43818   3.565   2.642   3.654  0.1023 -0.5611 -0.4440
14126SOL    HW143819   3.586   2.669   3.564 -0.3265  0.4053 -0.2689
14126SOL    HW243820   3.579   2.722   3.706  0.1604 -1.0629  0.3203
14127SOL     OW43821   5.619   4.865   3.129  0.2267 -0.1650  0.4719
14127SOL    HW143822   5.602   4.957   3.112  2.0864 -0.1986 -2.0897
14127SOL    HW243823   5.536   4.831   3.164 -1.2535  1.9640 -0.7451
14128SOL     OW43824   4.620   2.110   2.693  0.3939  0.3680 -0.0180
14128SOL    HW143825   4.579   2.173   2.634 -0.2742  0.7826  0.8650
14128SOL    HW243826   4.547   2.077   2.746  0.8709 -0.5164  0.1090
14129SOL     OW43827   3.253   1.994   6.217 -0.1879 -0.1802 -0.0434
14129SOL    HW143828   3.298   2.061   6.166 -1.5879  0.8286 -0.0172
14129SOL    HW243829   3.196   1.949   6.155 -0.2997 -0.3961  0.2093
14130SOL     OW43830   3.836   2.842   6.518  0.5220 -0.3397 -0.2275
14130SOL    HW143831   3.854   2.879   6.431 -1.6010  2.0294  0.2278
14130SOL    HW243832   3.910   2.872   6.572  0.5212  0.4526 -0.6445
14131SOL     OW43833   3.572   2.402   2.221  0.2617 -0.5656 -0.4877
14131SOL    HW143834   3.615   2.434   2.142 -0.4687 -0.9108 -1.0368
14131SOL    HW243835   3.617   2.320   2.241 -0.6328 -1.3497 -1.5326
14132SOL     OW43836   4.474   2.636   3.940  0.2473  0.0991 -0.0925
14132SOL    HW143837   4.389   2.591   3.937 -1.2607  2.7098 -0.0685
14132SOL    HW243838   4.489   2.651   4.033  1.5597 -1.6751  0.0237
14133SOL     OW43839   4.756   7.971   6.079  0.1348  0.0528  0.0716
14133SOL    HW143840   4.757   8.021   5.997 -2.7829 -0.5898 -0.4446
14133SOL    HW243841   4.670   7.988   6.117 -0.4742 -3.4314  0.5894
14134SOL     OW43842   5.585   2.101   6.309  0.0047  0.4066 -0.4085
14134SOL    HW143843   5.612   2.152   6.232 -0.1332  0.3481 -0.4972
14134SOL    HW243844   5.655   2.114   6.372 -0.4625  1.4406 -0.0848
14135SOL     OW43845   3.880   2.793   7.337 -0.3570 -0.0335  0.5423
14135SOL    HW143846   3.928   2.867   7.373 -0.4372 -0.3427  1.3217
14135SOL    HW243847   3.826   2.830   7.267  0.3615  0.4556  0.2428
14136SOL     OW43848   4.922   3.131   5.352 -0.2838 -1.0546  0.1290
14136SOL    HW143849   4.838   3.128   5.399 -0.1333 -1.1148  0.3935
14136SOL    HW243850   4.897   3.148   5.261 -0.5674 -0.8238  0.2490
14137SOL     OW43851   5.553   2.926   3.155 -0.5237 -0.4475  0.5772
14137SOL    HW143852   5.486   2.991   3.132 -0.0442 -0.6279 -1.4784
14137SOL    HW243853   5.626   2.978   3.188 -0.3874  0.0365 -0.4522
14138SOL     OW43854   4.120   3.878   5.380  0.0960  0.3474  0.0463
14138SOL    HW143855   4.208   3.882   5.343 -0.2249  0.9646 -0.6947
14138SOL    HW243856   4.129   3.914   5.468  0.5965  0.3506 -0.0058
14139SOL     OW43857   4.313   3.765   4.993 -0.0945 -0.6107  1.0237
14139SOL    HW143858   4.246   3.726   5.050  0.8038 -0.4628  2.2029
14139SOL    HW243859   4.349   3.838   5.044 -0.8893  1.0593 -0.6588
14140SOL     OW43860   5.111   1.934   3.833  0.6222 -0.1024 -0.2427
14140SOL    HW143861   5.124   1.989   3.910  0.0478  0.6029 -0.6359
14140SOL    HW243862   5.060   1.859   3.865  0.2941  0.2435  0.0468
14141SOL     OW43863   6.240   0.678   5.658  0.5081  0.0701 -0.3716
14141SOL    HW143864   6.157   0.675   5.706  0.1764  1.2449 -0.8266
14141SOL    HW243865   6.280   0.761   5.683  0.4834  0.5635 -1.8403
14142SOL     OW43866   4.753   1.809   3.536  0.0359  0.2722 -0.2139
14142SOL    HW143867   4.780   1.843   3.621 -0.8052 -1.8264  0.9745
14142SOL    HW243868   4.828   1.825   3.478  1.3292  0.1814  1.3646
14143SOL     OW43869   6.845   1.644   4.918 -0.5433 -0.0535  0.1624
14143SOL    HW143870   6.756   1.677   4.928 -1.0725 -0.9532 -1.2930
14143SOL    HW243871   6.835   1.551   4.897  0.7033 -0.0339 -0.6689
14144SOL     OW43872   7.507   1.883   4.649 -0.1678  0.1156 -0.4797
14144SOL    HW143873   7.434   1.919   4.700  0.5570  0.7778  0.1277
14144SOL    HW243874   7.480   1.794   4.627 -0.6022 -0.1306  0.9253
14145SOL     OW43875   5.283   2.788   2.514  0.5292 -0.1167  0.2104
14145SOL    HW143876   5.257   2.729   2.443 -2.3767  0.1443  0.9226
14145SOL    HW243877   5.379   2.789   2.511  0.5464 -0.9331 -2.9957
14146SOL     OW43878   4.704   2.787   4.985 -0.0429 -0.6095  0.4522
14146SOL    HW143879   4.714   2.829   5.070  1.3183  0.3142 -0.1277
14146SOL    HW243880   4.650   2.847   4.934 -0.4693 -0.9404  0.5080
14147SOL     OW43881   4.938   3.304   4.928 -0.4665 -0.0432 -0.4397
14147SOL    HW143882   4.873   3.309   4.858  0.8537 -0.5467 -1.7514
14147SOL    HW243883   4.951   3.395   4.954 -1.6089  0.0752 -0.2084
14148SOL     OW43884   5.117   2.182   4.397 -0.1291 -0.4516  0.3745
14148SOL    HW143885   5.045   2.246   4.393  0.0184 -0.1656  1.7923
14148SOL    HW243886   5.073   2.097   4.393 -0.3636 -0.2905 -0.9993
14149SOL     OW43887   6.334   3.134   5.332 -0.2476 -0.3231  0.3172
14149SOL    HW143888   6.325   3.219   5.375  0.9859 -1.0420  2.1211
14149SOL    HW243889   6.244   3.106   5.317 -0.6863  0.8736  0.5788
14150SOL     OW43890   3.658   1.664   4.631 -0.3850  0.3908 -0.1987
14150SOL    HW143891   3.724   1.721   4.593  0.1546  0.9041  1.4115
14150SOL    HW243892   3.612   1.719   4.695 -0.7736 -0.5873  0.3932
14151SOL     OW43893   4.389   3.532   5.580 -0.4329 -0.0389 -0.6907
14151SOL    HW143894   4.417   3.573   5.661  0.4618  0.6193 -1.3112
14151SOL    HW243895   4.424   3.443   5.585 -0.6957 -0.1225 -0.2128
14152SOL     OW43896   6.414   2.420   3.873  0.0879  0.0304 -0.0843
14152SOL    HW143897   6.493   2.436   3.822  0.7115 -2.3151  0.0475
14152SOL    HW243898   6.393   2.328   3.858 -1.9463  0.2724  0.8427
14153SOL     OW43899   5.564   2.070   3.172  0.2911  0.1286  0.5568
14153SOL    HW143900   5.566   1.975   3.158  0.5176  0.2061  0.0315
14153SOL    HW243901   5.481   2.086   3.217  0.8266 -0.4661  1.7970
14154SOL     OW43902   5.559   1.791   5.047  0.0792 -0.0767  0.4697
14154SOL    HW143903   5.502   1.862   5.019 -0.1304 -0.4624 -0.1137
14154SOL    HW243904   5.505   1.740   5.108 -0.2810 -0.5573 -0.2395
14155SOL     OW43905   3.637   2.348   4.928 -0.3114 -0.5134  0.1401
14155SOL    HW143906   3.633   2.425   4.871  0.8993 -1.0733 -0.7576
14155SOL    HW243907   3.689   2.376   5.003 -2.1800  0.3261  1.2115
14156SOL     OW43908   5.004   2.653   6.036  0.2450  0.0674  0.3879
14156SOL    HW143909   4.936   2.588   6.017  0.2623 -0.1396  1.0186
14156SOL    HW243910   4.957   2.724   6.081  0.6492 -0.6569  2.0102
14157SOL     OW43911   5.090   2.918   3.994 -0.8490 -0.0761 -0.6269
14157SOL    HW143912   5.120   2.896   3.906  0.2018 -1.1169 -0.0370
14157SOL    HW243913   5.123   3.007   4.009  0.0268 -0.3600 -0.8271
14158SOL     OW43914   5.082   2.889   4.502  0.0589  0.3508 -0.0069
14158SOL    HW143915   5.046   2.828   4.568 -0.3855 -0.8059 -1.2688
14158SOL    HW243916   5.010   2.948   4.482  1.3611  3.6480  3.6273
14159SOL     OW43917   3.838   2.991   4.388  0.0654 -0.3026  0.3422
14159SOL    HW143918   3.843   3.073   4.438  0.0068 -0.5509  0.7620
14159SOL    HW243919   3.814   3.018   4.299  3.4876  0.4944 -0.4830
14160SOL     OW43920   5.660   0.968   4.600 -0.0360 -0.1531 -0.2350
14160SOL    HW143921   5.568   0.986   4.579  0.7916  2.4937 -2.2166
14160SOL    HW243922   5.698   0.934   4.519  1.2704  1.4451 -0.3653
14161SOL     OW43923   5.840   0.976   5.051  0.1982  0.1832 -0.0014
14161SOL    HW143924   5.763   1.024   5.080  0.2069  0.0396  0.2580
14161SOL    HW243925   5.913   1.038   5.065 -0.0577  0.9867 -1.8736
14162SOL     OW43926   6.190   0.532   5.023 -0.3104 -0.6090  0.1731
14162SOL    HW143927   6.099   0.552   5.041 -0.2935 -1.0022  0.7441
14162SOL    HW243928   6.218   0.480   5.099 -0.1227 -2.0115 -0.8258
14163SOL     OW43929   3.191   2.396   4.359  0.1339  0.6516  0.0054
14163SOL    HW143930   3.131   2.337   4.315 -0.8148 -0.2539  2.3271
14163SOL    HW243931   3.234   2.445   4.289 -0.1554 -1.7077 -1.9409
14164SOL     OW43932   3.680   0.728   4.917  0.2499  0.5672  0.0916
14164SOL    HW143933   3.770   0.757   4.933  0.3467  0.2669  0.1003
14164SOL    HW243934   3.626   0.798   4.953  0.4569  2.0341 -2.2328
14165SOL     OW43935   4.395   3.177   6.407  0.1776 -0.3426 -0.1151
14165SOL    HW143936   4.451   3.104   6.435  2.5966  0.9179 -1.3425
14165SOL    HW243937   4.439   3.255   6.441 -1.9045  0.6369  0.4454
14166SOL     OW43938   4.617   2.518   6.605 -0.4389 -0.2079  0.0120
14166SOL    HW143939   4.670   2.598   6.609 -0.3410 -0.2741  0.0812
14166SOL    HW243940   4.527   2.549   6.603 -0.4058 -0.0968  0.1565
14167SOL     OW43941   6.834   2.181   6.179  0.5306 -0.6554 -0.0823
14167SOL    HW143942   6.770   2.234   6.227  0.9572  0.8667 -1.1375
14167SOL    HW243943   6.912   2.182   6.234  0.3099 -0.8059  0.2396
14168SOL     OW43944   2.962   1.416   5.923 -0.0732 -0.0597  0.2779
14168SOL    HW143945   2.893   1.393   5.860  0.4561  0.3541 -0.4654
14168SOL    HW243946   2.931   1.380   6.006 -0.3715 -1.3975 -0.3851
14169SOL     OW43947   3.767   1.572   5.372 -0.1768  0.1290  0.4927
14169SOL    HW143948   3.747   1.524   5.292  0.6845  1.0422 -0.2817
14169SOL    HW243949   3.705   1.645   5.373  0.0911  0.3566  0.4488
14170SOL     OW43950   2.973   3.064   7.481  0.0848 -0.3287  0.0693
14170SOL    HW143951   3.010   3.141   7.437 -0.7839 -0.4821 -0.9876
14170SOL    HW243952   3.034   2.993   7.461  0.7910  0.0194  0.8926
14171SOL     OW43953   5.220   2.746   5.880  0.1392  0.3833 -0.3475
14171SOL    HW143954   5.197   2.824   5.930  0.2185 -0.3068  0.8071
14171SOL    HW243955   5.152   2.682   5.903  3.0607 -1.7931  3.3213
14172SOL     OW43956   5.901   3.938   7.145 -0.1487  0.2315  1.0863
14172SOL    HW143957   5.874   3.873   7.081 -0.5042  1.1128  0.3178
14172SOL    HW243958   5.820   3.979   7.174  0.2108  2.0955 -0.3667
14173SOL     OW43959   4.239   2.795   6.835 -0.0973 -0.2497  0.4855
14173SOL    HW143960   4.195   2.741   6.900  1.0151 -0.6874  0.9058
14173SOL    HW243961   4.309   2.839   6.883 -1.0035  1.6247  0.1545
14174SOL     OW43962   6.266   2.749   6.493  0.0539 -0.0950  0.4601
14174SOL    HW143963   6.265   2.658   6.523 -2.6449 -0.3403 -0.1595
14174SOL    HW243964   6.198   2.792   6.545 -0.9671  0.7583 -1.4772
14175SOL     OW43965   3.494   2.530   6.413 -0.1402  0.4316  0.4310
14175SOL    HW143966   3.569   2.585   6.392  0.1940 -0.1052  0.1643
14175SOL    HW243967   3.429   2.589   6.450  0.6950  0.7834  1.3626
14176SOL     OW43968   3.976   3.209   6.337  0.0959 -0.5576 -0.2420
14176SOL    HW143969   3.979   3.280   6.401  0.7154 -0.0881 -0.7704
14176SOL    HW243970   4.015   3.246   6.258  0.3273 -1.4509 -0.5648
14177SOL     OW43971   3.530   1.850   4.786  0.1543  0.1507  0.5436
14177SOL    HW143972   3.516   1.940   4.816  0.7598  0.3360  0.2883
14177SOL    HW243973   3.451   1.803   4.812 -0.7482  1.0484 -0.4970
14178SOL     OW43974   5.443   1.394   7.919 -0.4361  0.4734 -0.8347
14178SOL    HW143975   5.467   1.473   7.968 -0.5928  0.8311 -1.3241
14178SOL    HW243976   5.428   1.328   7.986  1.0185  0.4832 -0.4640
14179SOL     OW43977   4.925   3.342   6.918  0.0301  0.1923 -0.4485
14179SOL    HW143978   4.832   3.327   6.934  0.3649 -0.7559  0.7361
14179SOL    HW243979   4.929   3.431   6.883 -1.3343  0.1926 -0.6477
14180SOL     OW43980   4.491   2.949   4.898  0.1900  0.3165 -0.2876
14180SOL    HW143981   4.468   3.015   4.832  0.2810 -0.6580 -1.3472
14180SOL    HW243982   4.472   2.990   4.982 -0.2456  1.4917 -0.9404
14181SOL     OW43983   5.274   4.283   5.972  0.2779  0.1300 -0.6120
14181SOL    HW143984   5.220   4.354   5.937  0.5116 -0.9369 -3.4521
14181SOL    HW243985   5.213   4.226   6.018 -0.4843  0.5190 -1.1156
14182SOL     OW43986   5.276   2.191   4.864 -0.4049  0.3851  0.1978
14182SOL    HW143987   5.209   2.225   4.923 -0.1076 -1.1371  1.4622
14182SOL    HW243988   5.269   2.246   4.786 -1.4216  1.8665  1.2761
14183SOL     OW43989   3.219   2.602   6.452 -0.3489  0.3248  0.0488
14183SOL    HW143990   3.197   2.548   6.528 -0.9307 -2.2080 -1.7932
14183SOL    HW243991   3.135   2.627   6.415 -0.0766  0.6972 -0.3295
14184SOL     OW43992   4.317   2.331   7.464  0.1336 -0.1172 -0.1717
14184SOL    HW143993   4.236   2.321   7.414 -1.2905  1.1937  1.7242
14184SOL    HW243994   4.323   2.253   7.518 -1.5270  1.0094  1.8030
14185SOL     OW43995   5.105   0.536   5.351 -0.2304 -0.0005  0.1492
14185SOL    HW143996   5.143   0.615   5.312  1.8939  0.5403  3.0289
14185SOL    HW243997   5.164   0.465   5.323 -0.5211 -0.1340 -0.1360
14186SOL     OW43998   2.459   3.573   5.176  0.7526 -0.1261  0.0297
14186SOL    HW143999   2.527   3.512   5.204 -1.4468 -2.0957  1.4181
14186SOL    HW244000   2.403   3.584   5.252 -1.6665 -0.2741 -1.6050
14187SOL     OW44001   3.973   2.310   5.937  0.2438  0.5782 -0.1622
14187SOL    HW144002   4.033   2.371   5.982 -1.0522  1.2051  0.7650
14187SOL    HW244003   3.921   2.271   6.007 -0.0182 -0.4300 -0.9032
14188SOL     OW44004   3.934   3.461   7.740 -0.1788  0.2382  0.1493
14188SOL    HW144005   4.008   3.433   7.686 -1.6745 -1.1535 -1.2640
14188SOL    HW244006   3.895   3.380   7.773 -0.8008  0.9644  1.2562
14189SOL     OW44007   6.652   4.145   7.366 -0.1957 -0.5518  0.0577
14189SOL    HW144008   6.588   4.092   7.318  0.4269 -1.1337 -0.1364
14189SOL    HW244009   6.629   4.134   7.458 -2.1308  1.4832 -0.1008
14190SOL     OW44010   4.110   3.974   5.634  0.0874 -0.7955 -0.2731
14190SOL    HW144011   4.149   3.958   5.720  0.0765 -2.4911 -0.5430
14190SOL    HW244012   4.049   4.046   5.648  0.6000 -0.5826  0.9796
14191SOL     OW44013   3.456   1.993   5.898 -0.1162  0.8660 -0.2746
14191SOL    HW144014   3.434   2.042   5.819 -0.2842 -0.3825 -1.0306
14191SOL    HW244015   3.435   2.052   5.970 -1.2848  1.5278 -1.1260
14192SOL     OW44016   5.861   1.951   5.562  0.0128  0.1401  0.1498
14192SOL    HW144017   5.798   1.885   5.591 -0.0270  0.7266  1.4548
14192SOL    HW244018   5.919   1.904   5.502 -1.0713 -0.6400 -0.3167
14193SOL     OW44019   4.815   2.169   4.945 -0.1658 -0.1028  0.0792
14193SOL    HW144020   4.733   2.207   4.977 -0.6407 -0.0281 -1.1566
14193SOL    HW244021   4.853   2.125   5.021 -0.7430  0.8967  0.9646
14194SOL     OW44022   6.439   2.611   7.721  0.3215 -0.3333 -0.0683
14194SOL    HW144023   6.489   2.692   7.732 -0.7396  0.5087 -1.1443
14194SOL    HW244024   6.348   2.636   7.740  0.0710 -1.4260  0.2261
14195SOL     OW44025   5.819   2.532   7.405 -0.8114  0.6319  0.0048
14195SOL    HW144026   5.768   2.526   7.324  0.5797  0.5211 -0.9198
14195SOL    HW244027   5.760   2.570   7.469 -1.1355  3.6261 -1.8522
14196SOL     OW44028   4.802   2.711   7.504  0.0335 -0.1069 -0.5491
14196SOL    HW144029   4.831   2.793   7.544  0.1750 -0.0777 -0.7114
14196SOL    HW244030   4.741   2.673   7.568  1.0910 -0.5971  0.1903
14197SOL     OW44031   4.382   2.706   6.607 -0.0567 -0.0972  0.0249
14197SOL    HW144032   4.340   2.750   6.532  0.5635  1.7475  0.6937
14197SOL    HW244033   4.325   2.728   6.681 -1.2713 -2.8091  0.0060
14198SOL     OW44034   5.298   3.085   5.875 -0.1239  0.2783 -0.4861
14198SOL    HW144035   5.249   3.167   5.881  0.3599  0.7315 -2.0252
14198SOL    HW244036   5.356   3.086   5.951  0.0976  1.5469 -0.6452
14199SOL     OW44037   3.680   2.811   4.594  0.5543 -0.2020 -0.3236
14199SOL    HW144038   3.736   2.831   4.669 -0.2465 -1.8244  0.7599
14199SOL    HW244039   3.656   2.897   4.559  0.6660  0.6193  1.5068
14200SOL     OW44040   3.759   4.168   6.847  0.6135  0.0177 -0.7573
14200SOL    HW144041   3.704   4.205   6.915 -1.3667  0.5942 -2.5895
14200SOL    HW244042   3.744   4.073   6.853  0.2392  0.0876 -0.5832
14201SOL     OW44043   4.594   0.674   5.748 -0.1746 -0.3375  0.1425
14201SOL    HW144044   4.606   0.634   5.662  1.2485  1.3969 -0.5270
14201SOL    HW244045   4.612   0.604   5.810  0.7528 -1.1208 -0.9753
14202SOL     OW44046   6.873   3.610   7.244 -0.0261  0.0623 -0.7444
14202SOL    HW144047   6.841   3.682   7.298 -0.5003 -1.6443  1.3907
14202SOL    HW244048   6.843   3.631   7.156 -0.9835  1.9791 -0.0111
14203SOL     OW44049   3.337   3.475   4.442 -0.4596 -0.4950  0.6503
14203SOL    HW144050   3.340   3.531   4.365  2.8382 -0.2891  0.8040
14203SOL    HW244051   3.389   3.522   4.508  0.7307 -2.7538  1.4252
14204SOL     OW44052   3.900   2.624   4.881  0.1969 -0.2379  0.2676
14204SOL    HW144053   3.991   2.652   4.878  0.5511 -1.1551  1.6319
14204SOL    HW244054   3.850   2.706   4.878  1.0096  0.2571 -1.0092
14205SOL     OW44055   5.847   4.901   6.887  0.2740 -0.0671 -0.4735
14205SOL    HW144056   5.774   4.963   6.883  0.7686  0.6944  1.4435
14205SOL    HW244057   5.826   4.836   6.820 -1.7325  0.5831 -0.5504
14206SOL     OW44058   5.719   3.591   7.688  0.2852 -0.7672 -0.6925
14206SOL    HW144059   5.671   3.674   7.688  1.7062  0.1512  1.4776
14206SOL    HW244060   5.698   3.551   7.773 -0.2332 -2.6083 -1.6223
14207SOL     OW44061   4.868   2.972   7.031  0.3714 -0.0225 -0.5954
14207SOL    HW144062   4.903   3.013   7.110 -0.5519 -1.5587  0.6821
14207SOL    HW244063   4.863   2.879   7.053 -0.0245 -0.4785 -2.4383
14208SOL     OW44064   4.975   0.878   4.442 -0.4887 -0.4704 -0.0730
14208SOL    HW144065   5.059   0.886   4.396 -1.1691 -0.6098 -1.3902
14208SOL    HW244066   4.975   0.949   4.505 -0.0081  0.4709 -1.1058
14209SOL     OW44067   3.353   1.727   6.556 -0.0364  0.5559 -0.3593
14209SOL    HW144068   3.285   1.695   6.498  1.7283  0.2564 -2.3929
14209SOL    HW244069   3.344   1.822   6.554 -0.7683  0.4934 -0.1215
14210SOL     OW44070   7.266   5.205   4.745  0.2552 -0.4006  0.2554
14210SOL    HW144071   7.174   5.186   4.729 -0.3255  1.1971  1.4275
14210SOL    HW244072   7.265   5.288   4.794  2.3102 -0.3462  0.2789
14211SOL     OW44073   4.108   2.292   7.307 -0.5770 -0.0908  0.4478
14211SOL    HW144074   4.183   2.314   7.252 -0.4543 -0.0748  0.6180
14211SOL    HW244075   4.036   2.277   7.246  0.0949 -2.3084  0.1344
14212SOL     OW44076   5.709   1.084   9.324  0.0224  0.0287 -1.0075
14212SOL    HW144077   5.757   1.002   9.334  0.5963  0.4907  0.2308
14212SOL    HW244078   5.763   1.137   9.265 -0.0185 -0.2213 -1.2746
14213SOL     OW44079   3.577   0.697   7.665 -0.1079 -0.2010 -0.1640
14213SOL    HW144080   3.643   0.700   7.596  0.1450  0.3220  0.0885
14213SOL    HW244081   3.576   0.606   7.694 -0.5616 -0.5297 -1.1740
14214SOL     OW44082   3.924   1.953   6.426  0.4716 -0.1242  0.4719
14214SOL    HW144083   3.945   1.996   6.343  1.9058 -0.5119  0.6185
14214SOL    HW244084   3.867   2.016   6.471  0.0900  0.3087 -0.5738
14215SOL     OW44085   2.474   1.536   7.630 -0.0325  0.1809 -0.0373
14215SOL    HW144086   2.455   1.587   7.551 -0.4387 -0.1663 -0.1655
14215SOL    HW244087   2.569   1.524   7.628 -0.2043 -1.3694 -1.4404
14216SOL     OW44088   3.790   2.205   7.607 -0.4050  0.1606  0.8773
14216SOL    HW144089   3.699   2.236   7.615 -0.3697  1.0106 -1.2986
14216SOL    HW244090   3.843   2.282   7.626 -0.2722  0.8630 -1.9439
14217SOL     OW44091   3.837   2.967   6.268  0.8406  0.2189  0.7084
14217SOL    HW144092   3.889   3.047   6.275 -0.1931  1.0374 -0.5327
14217SOL    HW244093   3.749   2.997   6.245  0.5788 -1.2851 -0.4471
14218SOL     OW44094   4.081   2.918   6.671 -0.0449 -0.3331  0.2118
14218SOL    HW144095   4.088   3.006   6.706  0.3359 -0.9313  1.7306
14218SOL    HW244096   4.141   2.866   6.725 -0.7767 -1.6450 -0.1958
14219SOL     OW44097   3.685   1.489   7.022 -0.3918 -0.1169  0.1251
14219SOL    HW144098   3.652   1.492   6.932 -1.0539  2.3046  0.3733
14219SOL    HW244099   3.771   1.449   7.015 -1.0095 -1.2773 -1.3690
14220SOL     OW44100   3.250   2.590   4.719 -0.5606 -0.5014 -0.3676
14220SOL    HW144101   3.289   2.648   4.784  2.7857 -1.2568 -1.5058
14220SOL    HW244102   3.226   2.648   4.647  0.6184 -0.1982 -0.5467
14221SOL     OW44103   4.171   2.767   6.450 -0.2880 -0.5823 -0.1339
14221SOL    HW144104   4.127   2.784   6.534 -2.6659  0.2869 -1.4840
14221SOL    HW244105   4.165   2.850   6.403  1.3265 -0.9569 -1.0793
14222SOL     OW44106   2.868   1.150   5.707 -0.3228 -0.3316 -0.4907
14222SOL    HW144107   2.881   1.063   5.669  1.3618  0.4479 -1.8825
14222SOL    HW244108   2.820   1.198   5.640  2.2460  0.9182 -1.5858
14223SOL     OW44109   3.152   2.380   6.030 -0.8499 -0.0852 -0.3299
14223SOL    HW144110   3.199   2.397   5.949 -0.5587  2.4865  0.2835
14223SOL    HW244111   3.060   2.386   6.007 -0.8093 -0.9075 -0.7361
14224SOL     OW44112   3.643   0.361   6.402  0.3676 -0.1170  0.5959
14224SOL    HW144113   3.558   0.400   6.420  1.2742  1.1374  2.4785
14224SOL    HW244114   3.682   0.418   6.335 -0.0313 -0.3939  0.1159
14225SOL     OW44115   5.196   1.311   7.452 -0.3657 -0.1870 -0.4458
14225SOL    HW144116   5.241   1.351   7.526 -0.6498 -0.0225 -0.3618
14225SOL    HW244117   5.223   1.363   7.377  2.4607 -2.2221 -1.0156
14226SOL     OW44118   3.164   3.434   6.059  0.0278  0.3542 -0.0634
14226SOL    HW144119   3.145   3.363   5.997  1.7019 -0.5259  0.3464
14226SOL    HW244120   3.201   3.389   6.135 -1.9998  1.4125  1.6384
14227SOL     OW44121   3.195   2.105   4.985 -0.2855  0.0183  0.5568
14227SOL    HW144122   3.183   2.012   4.968 -2.2998  0.5867 -1.6380
14227SOL    HW244123   3.280   2.125   4.948 -0.5335 -0.6635 -0.4290
14228SOL     OW44124   4.806   2.734   6.613  0.0850  0.0620 -0.7044
14228SOL    HW144125   4.870   2.692   6.556 -1.5092 -1.3055 -1.6027
14228SOL    HW244126   4.807   2.826   6.587  3.6895  0.7793  1.3369
14229SOL     OW44127   2.715   1.621   7.177 -0.6574  0.7277  0.3613
14229SOL    HW144128   2.764   1.627   7.096 -1.0446 -0.0334  0.0562
14229SOL    HW244129   2.754   1.547   7.224 -0.2429  1.3452  1.0080
14230SOL     OW44130   4.971   1.026   4.752  0.5353  0.2860 -0.1250
14230SOL    HW144131   5.004   1.112   4.776  0.0389  0.1246  1.2002
14230SOL    HW244132   4.893   1.044   4.699  1.3289  0.6461 -1.1976
14231SOL     OW44133   6.806   1.132   6.592 -0.0085 -0.2057 -0.0803
14231SOL    HW144134   6.726   1.178   6.620  0.6733  0.2593  1.1609
14231SOL    HW244135   6.784   1.097   6.505 -1.7248 -0.5043  0.4350
14232SOL     OW44136   6.000   3.365   7.575 -0.3066 -0.1036  0.2764
14232SOL    HW144137   6.041   3.344   7.659  0.0271  0.0233  0.1475
14232SOL    HW244138   5.958   3.450   7.589  0.1402  0.1367  0.1856
14233SOL     OW44139   5.372   2.792   6.789 -0.8233 -1.1890 -0.2983
14233SOL    HW144140   5.447   2.775   6.732 -1.2845 -1.9509 -0.6940
14233SOL    HW244141   5.305   2.827   6.731 -0.5469  0.1959  0.1808
14234SOL     OW44142   4.311   2.681   5.614  0.0067  0.0196  0.4043
14234SOL    HW144143   4.245   2.705   5.678  0.4679 -0.3041  1.0096
14234SOL    HW244144   4.285   2.727   5.534 -0.7227  0.2077  0.7418
14235SOL     OW44145   6.346   3.566   7.649 -0.3663 -0.0365  0.5614
14235SOL    HW144146   6.276   3.627   7.623 -1.2350 -2.1451 -2.6953
14235SOL    HW244147   6.425   3.618   7.649 -1.3110  1.4665 -0.3397
14236SOL     OW44148   7.444   2.457   4.200  0.8182  0.0017  0.5162
14236SOL    HW144149   7.509   2.518   4.235  2.2340  0.4152 -2.5356
14236SOL    HW244150   7.462   2.375   4.246  0.6517  1.1311  2.7446
14237SOL     OW44151   4.497   2.595   6.307 -0.7012 -0.2766  0.2424
14237SOL    HW144152   4.480   2.518   6.361  2.2680 -1.9825 -1.0523
14237SOL    HW244153   4.472   2.569   6.219 -0.4390  0.5662 -0.0883
14238SOL     OW44154   4.756   4.705   7.546 -0.2248 -0.2904 -0.4173
14238SOL    HW144155   4.699   4.630   7.561 -1.5410  0.3850 -1.8350
14238SOL    HW244156   4.708   4.760   7.486  1.5000  0.8269 -0.8379
14239SOL     OW44157   3.504   2.825   7.162 -0.2356 -0.0772 -0.3443
14239SOL    HW144158   3.449   2.837   7.239 -0.1943 -0.4979 -0.2491
14239SOL    HW244159   3.579   2.883   7.177 -0.6570  0.5193 -0.4860
14240SOL     OW44160   5.428   3.482   8.357 -1.0062  0.1689  0.0474
14240SOL    HW144161   5.464   3.569   8.340  0.0687 -0.2428  0.0988
14240SOL    HW244162   5.334   3.495   8.362 -0.8514  1.3423  0.1518
14241SOL     OW44163   5.738   3.569   7.054  0.8888  0.5651  0.4490
14241SOL    HW144164   5.674   3.573   7.125  1.0785 -0.8812  0.7324
14241SOL    HW244165   5.810   3.518   7.089  1.7265  1.2509 -0.2444
14242SOL     OW44166   4.661   3.337   6.820 -0.3100  0.4215  0.0217
14242SOL    HW144167   4.632   3.246   6.811  0.7575  0.1388 -0.7834
14242SOL    HW244168   4.581   3.386   6.837 -1.0690 -0.5150 -0.7423
14243SOL     OW44169   5.076   2.604   8.592 -0.0085  0.2519 -0.3660
14243SOL    HW144170   5.015   2.645   8.530  1.3860 -0.8371 -2.5998
14243SOL    HW244171   5.020   2.555   8.652 -1.4089 -0.8458 -2.4245
14244SOL     OW44172   3.783   0.513   6.213  0.0172  0.2380  0.6524
14244SOL    HW144173   3.868   0.546   6.240 -0.2773  0.3797  1.4064
14244SOL    HW244174   3.732   0.591   6.191  0.1866  0.1376 -0.1464
14245SOL     OW44175   1.454   2.462   7.072 -0.0786 -0.6548  0.3315
14245SOL    HW144176   1.511   2.507   7.135  2.9615 -2.0704 -1.2322
14245SOL    HW244177   1.421   2.386   7.120 -0.1306 -0.1799  1.0686
14246SOL     OW44178   4.583   3.336   6.536  0.3618  0.3435  0.2609
14246SOL    HW144179   4.554   3.417   6.494  2.2623  0.9048 -0.0754
14246SOL    HW244180   4.633   3.366   6.612  0.4759 -0.5410  0.5405
14247SOL     OW44181   4.093   4.303   6.666 -0.4526  0.4944 -0.2765
14247SOL    HW144182   4.020   4.361   6.687 -0.2245  0.2377  1.3324
14247SOL    HW244183   4.050   4.221   6.640 -0.7629  1.2020 -2.1781
14248SOL     OW44184   3.543   3.223   6.352 -0.2409  0.6749 -0.1212
14248SOL    HW144185   3.585   3.206   6.436  0.4243 -1.2583 -0.7964
14248SOL    HW244186   3.588   3.301   6.319  0.4463  0.6472  0.6985
14249SOL     OW44187   3.122   1.735   6.404 -0.2238 -0.0284 -0.6848
14249SOL    HW144188   3.038   1.693   6.383 -0.8076  0.5713  0.3640
14249SOL    HW244189   3.140   1.790   6.328 -0.9944  0.1469 -0.7540
14250SOL     OW44190   5.316   4.807   4.955 -0.1677  0.5399 -0.0126
14250SOL    HW144191   5.234   4.793   4.908  0.2617  0.7082 -0.8363
14250SOL    HW244192   5.298   4.779   5.045 -0.9084 -0.0902 -0.3531
14251SOL     OW44193   5.365   5.043   6.679 -0.0623 -0.1598  0.4990
14251SOL    HW144194   5.420   5.005   6.610 -0.7060 -1.9491  0.8976
14251SOL    HW244195   5.293   5.085   6.633  0.3212  0.0054  0.0489
14252SOL     OW44196   5.408   1.731   5.942 -0.5443 -0.1004  0.1933
14252SOL    HW144197   5.362   1.801   5.897  0.0218  0.0022 -0.2392
14252SOL    HW244198   5.342   1.692   6.000 -0.7696  1.0200  0.7265
14253SOL     OW44199   2.472   2.772   6.163  0.1720 -0.6844 -0.6646
14253SOL    HW144200   2.531   2.836   6.123 -0.3691  0.5073  0.3758
14253SOL    HW244201   2.499   2.770   6.255 -1.2568 -0.2753 -0.2171
14254SOL     OW44202   3.876   2.063   8.451 -0.5982 -0.1927 -0.3435
14254SOL    HW144203   3.876   2.101   8.363 -0.6674 -1.2780 -0.8237
14254SOL    HW244204   3.822   2.124   8.503 -2.9764 -0.9865 -1.7207
14255SOL     OW44205   6.059   2.771   7.931 -0.4351  0.6552  0.2409
14255SOL    HW144206   5.972   2.779   7.891 -0.4927  0.0513  0.2363
14255SOL    HW244207   6.043   2.773   8.025 -0.7051 -1.6468  0.2899
14256SOL     OW44208   3.742   2.052   6.631  0.1346  0.0877 -0.1894
14256SOL    HW144209   3.683   2.087   6.565  0.5587 -1.6386 -1.5462
14256SOL    HW244210   3.692   2.059   6.713 -1.9014 -1.0305 -1.2366
14257SOL     OW44211   2.422   2.427   5.378 -0.4492  0.5981  0.2126
14257SOL    HW144212   2.383   2.514   5.385  0.2161  1.0526 -1.2710
14257SOL    HW244213   2.512   2.444   5.348 -0.8792 -0.6562 -1.9743
14258SOL     OW44214   5.511   2.950   5.764  0.1862  0.3283 -0.5064
14258SOL    HW144215   5.572   2.976   5.696 -0.1382 -2.0898 -1.8467
14258SOL    HW244216   5.441   3.015   5.760  0.0267  0.0854 -2.7408
14259SOL     OW44217   4.827   2.642   3.260 -0.2931  0.6188  0.2531
14259SOL    HW144218   4.794   2.701   3.328 -0.3192 -0.2791  1.0321
14259SOL    HW244219   4.750   2.618   3.209 -0.4627  0.3759  0.6225
14260SOL     OW44220   3.275   2.312   6.345 -0.6857 -0.1041  0.1098
14260SOL    HW144221   3.326   2.370   6.402 -0.0006 -2.1131  1.6618
14260SOL    HW244222   3.331   2.299   6.268  0.6370 -1.2486  1.2153
14261SOL     OW44223   4.172   2.734   5.890  0.4056  0.2164 -0.2256
14261SOL    HW144224   4.258   2.773   5.905 -0.1992  1.5300 -0.0575
14261SOL    HW244225   4.121   2.758   5.967 -0.8550  1.6209 -1.4481
14262SOL     OW44226   5.906   3.241   6.786  0.5531 -0.1500 -0.1642
14262SOL    HW144227   5.848   3.242   6.862  0.2095  1.0118 -0.4293
14262SOL    HW244228   5.877   3.315   6.733  1.0298 -0.7266 -1.2488
14263SOL     OW44229   5.333   1.163   6.064  0.1219 -0.2114 -0.4566
14263SOL    HW144230   5.393   1.206   6.124 -1.0401  0.6368  0.1287
14263SOL    HW244231   5.301   1.232   6.007  0.0843 -0.7462 -1.1024
14264SOL     OW44232   5.456   2.353   7.606  0.1152  0.0301  0.2017
14264SOL    HW144233   5.386   2.417   7.620  0.9447  2.1010 -3.7106
14264SOL    HW244234   5.410   2.270   7.595 -1.4858  0.8628  0.2879
14265SOL     OW44235   3.648   1.069   6.755  0.2617  0.2268 -0.1888
14265SOL    HW144236   3.738   1.088   6.731 -0.2744  3.1462 -0.2843
14265SOL    HW244237   3.609   1.031   6.677  1.4258 -1.3425 -0.0503
14266SOL     OW44238   5.556   3.822   7.699  0.0065 -0.0584 -0.5067
14266SOL    HW144239   5.485   3.767   7.732  0.3968 -0.3254 -0.1041
14266SOL    HW244240   5.549   3.903   7.748 -0.4658  0.1980 -0.9816
14267SOL     OW44241   4.096   2.312   8.582 -0.6016  0.0043  0.3092
14267SOL    HW144242   4.179   2.308   8.533 -0.7462  0.3213  0.0320
14267SOL    HW244243   4.079   2.221   8.607 -0.4587 -0.1483 -0.1261
14268SOL     OW44244   4.859   1.234   5.926  0.5632 -0.4217  0.0008
14268SOL    HW144245   4.950   1.208   5.942  0.1051 -1.3755  1.3410
14268SOL    HW244246   4.808   1.162   5.964 -0.7495 -0.0969 -1.0955
14269SOL     OW44247   5.451   2.646   7.850 -0.6936 -0.0966 -0.4160
14269SOL    HW144248   5.427   2.729   7.890  0.2662  0.6357 -1.2908
14269SOL    HW244249   5.381   2.629   7.787 -1.1148 -0.1804  0.0682
14270SOL     OW44250   5.617   3.591   7.303  0.4834 -0.4622 -0.3209
14270SOL    HW144251   5.523   3.599   7.285  0.5879  1.9978 -0.1498
14270SOL    HW244252   5.624   3.604   7.398  0.9055 -1.9574 -0.1329
14271SOL     OW44253   2.604   1.313   6.936  0.3923  0.6802 -0.0498
14271SOL    HW144254   2.532   1.374   6.924 -1.3438 -1.3427 -0.6024
14271SOL    HW244255   2.601   1.291   7.029  1.1572  1.5638  0.1939
14272SOL     OW44256   2.945   4.670   7.058  0.0161 -0.3836  0.5160
14272SOL    HW144257   2.882   4.598   7.050  0.3233 -0.6072 -0.0184
14272SOL    HW244258   3.020   4.631   7.103  0.1818 -0.3989  0.2290
14273SOL     OW44259   5.012   3.141   7.816 -0.1106 -0.0356 -0.0027
14273SOL    HW144260   4.979   3.149   7.905  1.4269  1.7585  0.4703
14273SOL    HW244261   4.980   3.221   7.772  1.2414  0.3642 -0.3040
14274SOL     OW44262   6.042   2.115   7.816 -0.2206 -0.1645  0.4004
14274SOL    HW144263   6.066   2.180   7.749  0.5965 -1.9136 -1.0838
14274SOL    HW244264   5.949   2.130   7.831 -0.3015  0.6452 -0.7386
14275SOL     OW44265   4.979   3.065   7.263 -0.3073  0.0257 -0.3692
14275SOL    HW144266   4.934   3.021   7.335  0.3877  1.0270  0.7065
14275SOL    HW244267   5.057   3.012   7.247  1.3469  1.5658  1.9607
14276SOL     OW44268   2.112   3.583   5.914 -0.4951 -0.1119 -0.6144
14276SOL    HW144269   2.179   3.534   5.868  0.5618 -1.8825  2.4757
14276SOL    HW244270   2.161   3.649   5.964 -1.0006 -1.0284  1.2038
14277SOL     OW44271   2.906   1.637   6.843  0.5987 -0.0892  0.0230
14277SOL    HW144272   2.968   1.615   6.913 -1.4022  0.9495  2.3032
14277SOL    HW244273   2.919   1.731   6.828 -0.8609  0.3250  1.1046
14278SOL     OW44274   4.096   2.447   6.773  0.3839 -0.1155  0.0722
14278SOL    HW144275   4.047   2.477   6.696  1.0211 -0.1531 -0.3528
14278SOL    HW244276   4.082   2.515   6.839 -0.1991 -0.1015 -0.0610
14279SOL     OW44277   2.898   0.612   5.761 -0.6905 -0.2335 -0.2617
14279SOL    HW144278   2.984   0.622   5.720  0.4204 -0.4920  1.8655
14279SOL    HW244279   2.859   0.538   5.716  1.0851 -1.4697  0.1181
14280SOL     OW44280   5.917   2.628   6.804 -0.3783  0.2761  0.2372
14280SOL    HW144281   5.959   2.707   6.770  0.0587  0.6683  1.6200
14280SOL    HW244282   5.975   2.598   6.874 -1.1409 -0.5960  0.5160
14281SOL     OW44283   4.547   1.779   7.009  0.0694 -0.4987 -0.2106
14281SOL    HW144284   4.469   1.723   7.009 -0.6912  0.5340  0.0275
14281SOL    HW244285   4.513   1.867   6.993  1.1638  0.0178  0.2389
14282SOL     OW44286   5.160   1.870   7.247  0.6715  0.4933 -0.0848
14282SOL    HW144287   5.209   1.892   7.168 -0.1093  1.8443 -0.2137
14282SOL    HW244288   5.107   1.947   7.265  0.0851 -0.1775  1.1954
14283SOL     OW44289   3.688   1.096   5.699  0.1081  0.3441  0.2426
14283SOL    HW144290   3.608   1.125   5.743  0.2801  1.2272 -0.0133
14283SOL    HW244291   3.680   1.129   5.610 -0.3176 -1.5809 -0.4993
14284SOL     OW44292   4.826   2.229   5.909  0.1402  0.6147 -0.1656
14284SOL    HW144293   4.839   2.138   5.880  2.6663  1.0688 -0.6718
14284SOL    HW244294   4.758   2.262   5.851 -0.0310 -0.6337 -0.7228
14285SOL     OW44295   4.674   1.800   4.523  0.0294 -0.2828  0.3015
14285SOL    HW144296   4.665   1.893   4.545  0.2594 -0.0831 -0.4203
14285SOL    HW244297   4.594   1.759   4.557 -0.7356  0.4148 -0.6068
14286SOL     OW44298   5.170   5.560   6.020 -0.0822 -0.4656  0.2751
14286SOL    HW144299   5.214   5.624   6.076  0.3405  0.4187 -1.0184
14286SOL    HW244300   5.148   5.488   6.078 -0.0329  0.5924  1.6581
14287SOL     OW44301   5.389   3.616   6.924  0.3587 -0.8510  0.3526
14287SOL    HW144302   5.470   3.567   6.911  1.1893 -0.1922  2.5618
14287SOL    HW244303   5.349   3.577   7.002 -0.5739 -0.0641  0.2880
14288SOL     OW44304   5.303   2.325   7.932  0.1378  0.0986  0.3189
14288SOL    HW144305   5.282   2.379   8.008  0.5953  0.7946 -0.0394
14288SOL    HW244306   5.257   2.367   7.860  1.4697  0.7290 -0.1827
14289SOL     OW44307   3.170   3.028   7.755 -0.1677 -0.0221  0.2254
14289SOL    HW144308   3.132   3.105   7.712 -2.1911 -0.6689  0.7513
14289SOL    HW244309   3.255   3.017   7.714  0.1917  2.4814  0.1047
14290SOL     OW44310   3.869   2.738   7.010  0.6266 -0.6759  0.3281
14290SOL    HW144311   3.811   2.735   6.934  0.4232  0.1486  0.4403
14290SOL    HW244312   3.834   2.810   7.064  1.6519 -0.2696  0.4752
14291SOL     OW44313   3.502   2.353   5.874 -0.5365 -0.0520  0.2817
14291SOL    HW144314   3.569   2.413   5.906 -1.2680  0.0276  1.7727
14291SOL    HW244315   3.517   2.347   5.780  0.5959  1.1497  0.3640
14292SOL     OW44316   5.015   2.872   6.420  0.0136 -0.2424  0.2789
14292SOL    HW144317   5.082   2.890   6.354  1.2306 -0.7452  1.3347
14292SOL    HW244318   5.002   2.777   6.417  0.6952 -0.3804  1.3184
14293SOL     OW44319   3.767   2.309   4.459  0.1482 -0.5910  0.1128
14293SOL    HW144320   3.762   2.394   4.502 -0.0348 -0.3204 -0.4360
14293SOL    HW244321   3.677   2.284   4.443  0.2137 -0.0991 -1.2278
14294SOL     OW44322   4.626   2.616   6.973 -0.1677 -0.1576 -0.2239
14294SOL    HW144323   4.543   2.589   6.936 -0.4826 -1.3710  1.2627
14294SOL    HW244324   4.630   2.571   7.058  2.6744 -1.3755 -0.8850
14295SOL     OW44325   5.778   2.064   5.127  0.2355 -0.5496  0.4065
14295SOL    HW144326   5.782   2.081   5.221  1.2664 -0.0877  0.2871
14295SOL    HW244327   5.723   1.986   5.119 -1.1852  0.3268  1.2649
14296SOL     OW44328   3.581   2.308   5.615  0.1032 -0.1555 -0.2776
14296SOL    HW144329   3.582   2.341   5.525  1.4032 -1.0560 -0.6115
14296SOL    HW244330   3.537   2.224   5.610 -0.5722  0.1597  0.0929
14297SOL     OW44331   4.606   1.320   6.150  0.0029  0.1466 -0.2062
14297SOL    HW144332   4.632   1.228   6.148  0.5730  0.2954  0.3371
14297SOL    HW244333   4.638   1.355   6.067 -0.9026 -0.3226 -0.7673
14298SOL     OW44334   3.854   1.439   6.106  0.0407 -0.4724  0.2303
14298SOL    HW144335   3.798   1.474   6.037  1.2851 -0.0231 -0.5835
14298SOL    HW244336   3.942   1.470   6.084  0.4759 -0.3690  1.9926
14299SOL     OW44337   6.863   3.996   7.598 -0.2897  0.1258 -0.4692
14299SOL    HW144338   6.872   4.089   7.580 -0.2250  0.1618 -0.2554
14299SOL    HW244339   6.781   3.988   7.646  0.4434  0.2763  0.8639
14300SOL     OW44340   6.122   2.461   5.684  0.1769  0.1407  0.2262
14300SOL    HW144341   6.053   2.519   5.652  0.3008  0.0257 -0.2719
14300SOL    HW244342   6.125   2.391   5.618  2.9719  1.7943 -1.5917
14301SOL     OW44343   4.098   1.351   5.297 -0.0420  0.1322  0.1043
14301SOL    HW144344   4.031   1.284   5.306 -1.0406  1.0482 -0.4246
14301SOL    HW244345   4.179   1.302   5.282 -0.6643 -0.9588  0.2280
14302SOL     OW44346   6.883   4.783   7.136  0.5100 -0.3713  0.1423
14302SOL    HW144347   6.788   4.768   7.138  0.6696 -1.4744  1.8748
14302SOL    HW244348   6.921   4.695   7.136  1.5586  0.0528 -1.1364
14303SOL     OW44349   4.035   2.550   8.061  0.3625  0.0006 -0.1016
14303SOL    HW144350   4.078   2.622   8.108 -0.9740  1.5159 -1.0961
14303SOL    HW244351   3.995   2.592   7.985 -3.6300 -1.0682  1.1924
14304SOL     OW44352   4.345   1.945   8.092 -0.4804 -0.2767  0.4012
14304SOL    HW144353   4.375   1.857   8.071 -1.2548 -1.1795  2.7716
14304SOL    HW244354   4.293   1.972   8.016  0.2965 -1.5940 -0.6263
14305SOL     OW44355   2.360   3.148   4.281 -0.2256 -0.2638 -0.2880
14305SOL    HW144356   2.316   3.151   4.196  0.2530  0.2259 -0.5206
14305SOL    HW244357   2.452   3.165   4.261 -0.0185 -0.7210  0.2624
14306SOL     OW44358   6.298   3.223   8.262  0.7626  0.4094  0.9478
14306SOL    HW144359   6.366   3.168   8.224 -1.5845 -0.6573 -2.0872
14306SOL    HW244360   6.332   3.312   8.254  1.3777  0.0008 -1.5859
14307SOL     OW44361   3.492   2.334   6.595 -0.2543 -0.1387  0.0390
14307SOL    HW144362   3.460   2.372   6.676  0.0534 -0.2503  0.2147
14307SOL    HW244363   3.505   2.408   6.536 -1.5836 -0.1636 -0.3022
14308SOL     OW44364   5.772   1.517   5.736 -0.3887 -0.1193  0.2678
14308SOL    HW144365   5.754   1.445   5.676  0.6720 -1.0670  1.0294
14308SOL    HW244366   5.769   1.596   5.681 -1.2209 -0.7717 -0.6496
14309SOL     OW44367   5.586   2.622   6.601 -0.5389  0.6967 -0.7505
14309SOL    HW144368   5.677   2.597   6.584  0.2432  1.1228  2.1786
14309SOL    HW244369   5.542   2.540   6.623 -0.1820  0.7468  0.2412
14310SOL     OW44370   5.870   0.404   6.055  0.3250  0.3959  0.0255
14310SOL    HW144371   5.956   0.370   6.081  0.7888  2.3303  1.2088
14310SOL    HW244372   5.834   0.441   6.136 -1.1380  0.6315 -0.7064
14311SOL     OW44373   3.575   1.594   6.553 -0.6080 -0.2171  0.0085
14311SOL    HW144374   3.563   1.573   6.460 -0.6500 -0.7374  0.1275
14311SOL    HW244375   3.489   1.624   6.582 -0.2888  1.1998 -0.4248
14312SOL     OW44376   7.187   3.127   8.777 -0.2503  0.1902 -0.5291
14312SOL    HW144377   7.241   3.115   8.699 -0.6130 -0.2769 -0.7132
14312SOL    HW244378   7.248   3.123   8.850  0.2988  1.9314 -0.8286
14313SOL     OW44379   3.529   3.505   7.007 -0.2602 -0.2663  0.3999
14313SOL    HW144380   3.544   3.587   6.959  2.4885 -0.8042  0.1781
14313SOL    HW244381   3.451   3.467   6.966 -1.6690  2.2286  0.5737
14314SOL     OW44382   4.661   2.951   5.833  0.6296 -0.1121 -0.3649
14314SOL    HW144383   4.606   3.028   5.847 -0.4981 -1.3056  2.4740
14314SOL    HW244384   4.607   2.891   5.782  0.0810 -0.4246  0.5602
14315SOL     OW44385   5.254   1.313   4.553 -0.3981  0.4069  0.3775
14315SOL    HW144386   5.161   1.316   4.576 -0.3918  1.5053  0.3106
14315SOL    HW244387   5.256   1.329   4.458 -0.2006 -0.6827  0.1840
14316SOL     OW44388   6.276   2.331   6.262  0.8901  0.3674  0.8564
14316SOL    HW144389   6.273   2.408   6.206  0.8811 -0.4193 -0.2563
14316SOL    HW244390   6.203   2.276   6.232 -0.2531  0.7064  2.8262
14317SOL     OW44391   5.750   3.150   6.332 -0.1958 -0.4161 -0.0048
14317SOL    HW144392   5.689   3.156   6.405 -0.0221 -1.2445  0.2246
14317SOL    HW244393   5.772   3.057   6.327  0.3678 -0.2583 -0.6421
14318SOL     OW44394   4.984   2.862   7.646  0.5130 -0.1652 -0.4823
14318SOL    HW144395   4.960   2.953   7.629 -2.2165 -1.0125 -1.8326
14318SOL    HW244396   4.970   2.851   7.740 -0.7933  0.4302 -0.5834
14319SOL     OW44397   4.040   2.832   5.289 -0.7427  0.1669 -0.0968
14319SOL    HW144398   3.976   2.903   5.288 -0.2296  0.6839  1.3902
14319SOL    HW244399   4.117   2.869   5.330  0.6155 -0.4032 -1.9702
14320SOL     OW44400   2.851   2.289   5.522 -0.2960 -0.4272 -0.1914
14320SOL    HW144401   2.782   2.331   5.574 -0.5281  1.0188 -1.5744
14320SOL    HW244402   2.924   2.278   5.583  0.7442  4.4068 -0.1816
14321SOL     OW44403   6.831   3.330   7.246 -0.0513  0.2847  0.5437
14321SOL    HW144404   6.742   3.348   7.215 -1.1081 -0.1347  3.1123
14321SOL    HW244405   6.872   3.416   7.251 -1.5016  0.9245  2.5622
14322SOL     OW44406   3.590   3.230   7.622  0.0578  0.3927 -0.1188
14322SOL    HW144407   3.657   3.214   7.555 -0.7982 -1.4728 -0.5845
14322SOL    HW244408   3.529   3.290   7.580  0.1605  0.1820 -0.5812
14323SOL     OW44409   4.089   2.016   6.693  0.2351  0.0203  0.8960
14323SOL    HW144410   4.097   1.924   6.719  1.1886 -0.4402 -0.8860
14323SOL    HW244411   3.995   2.030   6.682  0.2197 -1.6434 -1.7228
14324SOL     OW44412   6.915   4.371   8.094  0.1227 -0.2860  0.7263
14324SOL    HW144413   6.948   4.455   8.061 -1.5076 -0.2733 -1.0059
14324SOL    HW244414   6.847   4.396   8.157 -0.5158 -0.2943  0.0460
14325SOL     OW44415   3.116   0.473   6.177 -0.4272 -0.1028 -0.0362
14325SOL    HW144416   3.153   0.548   6.130 -1.4670  0.5815  0.2079
14325SOL    HW244417   3.117   0.402   6.113  0.7043  0.0640 -0.2282
14326SOL     OW44418   4.363   1.932   7.422  0.3306 -0.6374  0.0759
14326SOL    HW144419   4.426   1.888   7.479 -0.1654 -0.7417  0.5504
14326SOL    HW244420   4.350   2.018   7.462  0.8262 -0.2829 -0.5059
14327SOL     OW44421   5.928   3.343   7.957 -0.2897  0.4821  0.2389
14327SOL    HW144422   5.943   3.332   8.051 -1.0911  1.5594  0.5120
14327SOL    HW244423   5.833   3.336   7.947 -0.3102  1.3709 -0.3331
14328SOL     OW44424   4.873   2.507   7.193  0.7644  0.2496 -0.4219
14328SOL    HW144425   4.819   2.586   7.185  0.1856 -0.1760 -0.7836
14328SOL    HW244426   4.831   2.456   7.262  0.6705 -0.1061 -0.7395
14329SOL     OW44427   4.048   1.752   7.020  0.3089 -0.7491 -0.1998
14329SOL    HW144428   4.046   1.775   6.927 -2.0466  0.0388  0.0033
14329SOL    HW244429   4.137   1.718   7.034  1.4281  1.0857 -2.2433
14330SOL     OW44430   4.376   1.914   6.075  0.3024 -0.0542  0.3245
14330SOL    HW144431   4.351   1.834   6.120  0.0726 -0.3276 -0.2766
14330SOL    HW244432   4.295   1.964   6.067  0.3810  0.0862  0.3986
14331SOL     OW44433   6.159   3.370   5.242 -0.5568  0.3741  0.9202
14331SOL    HW144434   6.070   3.402   5.224  0.1059  1.7382 -0.1512
14331SOL    HW244435   6.149   3.312   5.317 -2.6183 -0.9518 -0.2949
14332SOL     OW44436   4.544   2.037   6.450 -0.6367  0.1945  0.1384
14332SOL    HW144437   4.574   2.003   6.366 -1.1099  0.2797 -0.0660
14332SOL    HW244438   4.450   2.021   6.450 -1.0333  2.2570 -0.3184
14333SOL     OW44439   2.072   0.675   3.951  0.8939 -0.1297  0.2406
14333SOL    HW144440   2.006   0.619   3.911  0.0514  2.1096 -1.7290
14333SOL    HW244441   2.048   0.678   4.044 -1.7368  0.4666 -0.3729
14334SOL     OW44442   4.410   2.816   8.149 -0.1486  0.5195 -0.3279
14334SOL    HW144443   4.407   2.862   8.065  1.6400  0.4563 -0.4630
14334SOL    HW244444   4.447   2.880   8.210  0.3211 -0.0482 -0.0159
14335SOL     OW44445   2.955   1.440   8.536 -0.4660  0.5427 -0.2751
14335SOL    HW144446   2.885   1.454   8.599  0.4556  0.4052  0.8030
14335SOL    HW244447   2.953   1.345   8.520 -1.4634  0.7279 -1.3869
14336SOL     OW44448   4.891   2.058   8.002  0.4859  0.4482 -0.1168
14336SOL    HW144449   4.816   2.054   8.061  1.1888  0.8387  0.8509
14336SOL    HW244450   4.854   2.078   7.916 -0.4121  2.2720  0.6261
14337SOL     OW44451   5.461   3.024   7.593 -0.9283  0.6383  0.1100
14337SOL    HW144452   5.477   3.112   7.626 -2.7218  0.8115  0.6602
14337SOL    HW244453   5.366   3.011   7.605 -0.5760 -1.7322  0.9890
14338SOL     OW44454   4.776   2.534   7.915  0.4266 -0.0031 -0.5595
14338SOL    HW144455   4.747   2.590   7.843 -0.5515 -0.2854 -0.4029
14338SOL    HW244456   4.727   2.566   7.992  1.4459  0.2859 -0.0180
14339SOL     OW44457   6.403   2.188   8.393  0.0776 -0.7411  0.5159
14339SOL    HW144458   6.480   2.200   8.337 -2.0119  0.2794 -2.4463
14339SOL    HW244459   6.421   2.109   8.443  3.8539  0.5705  1.5450
14340SOL     OW44460   4.108   2.552   8.380  0.0599  0.2735  0.1291
14340SOL    HW144461   4.190   2.601   8.388 -1.8060  4.2409 -1.8782
14340SOL    HW244462   4.120   2.495   8.304  1.1094  0.4750  0.1415
14341SOL     OW44463   4.401   3.537   8.518  0.3950 -0.3828 -0.0499
14341SOL    HW144464   4.347   3.489   8.456  0.4714  1.2357 -1.4621
14341SOL    HW244465   4.470   3.476   8.542 -0.2766 -1.4291 -0.6945
14342SOL     OW44466   4.132   3.474   9.889  0.0925 -0.2783 -0.1050
14342SOL    HW144467   4.076   3.551   9.886  1.1912  0.5658  0.4468
14342SOL    HW244468   4.213   3.501   9.846  0.4071 -1.2128 -0.1325
14343SOL     OW44469   4.791   3.955   8.979 -0.3553  0.3638 -0.7405
14343SOL    HW144470   4.816   3.880   8.926 -0.3156 -2.3052  2.7289
14343SOL    HW244471   4.715   3.992   8.933  0.0434 -1.3443 -2.9395
14344SOL     OW44472   4.469   2.510   9.114 -0.5968 -0.0901 -0.0752
14344SOL    HW144473   4.478   2.570   9.188 -0.9592  0.5243 -0.5166
14344SOL    HW244474   4.375   2.495   9.106 -0.6266  0.4280 -0.8450
14345SOL     OW44475   6.745   1.840   7.989  0.5229 -0.0489 -0.1552
14345SOL    HW144476   6.735   1.825   8.083  0.5971  0.6782 -0.0261
14345SOL    HW244477   6.722   1.756   7.949  1.6786 -0.7400  0.5738
14346SOL     OW44478   4.169   3.578   7.919  0.0280  0.1227 -0.1039
14346SOL    HW144479   4.253   3.624   7.927  0.0717 -0.0910  0.7340
14346SOL    HW244480   4.107   3.647   7.896  0.2327  0.4711  0.3806
14347SOL     OW44481   4.092   3.902  11.059 -0.0330 -0.2620  0.3718
14347SOL    HW144482   4.121   3.864  10.977 -0.7160 -1.6266  0.7315
14347SOL    HW244483   4.166   3.892  11.118  0.9633  1.9579 -0.4012
14348SOL     OW44484   3.800   4.077   7.776 -0.4057  0.6485 -1.1942
14348SOL    HW144485   3.776   4.041   7.862 -0.5123  1.3342 -0.9312
14348SOL    HW244486   3.733   4.143   7.758  0.3897  1.4841 -1.1587
14349SOL     OW44487   5.016   3.577   6.788 -0.0006 -0.0188  0.0207
14349SOL    HW144488   4.984   3.613   6.871 -1.6556 -1.8022  0.2571
14349SOL    HW244489   4.982   3.636   6.721  1.6505  1.6398  0.5710
14350SOL     OW44490   4.828   3.160   8.314 -0.1476 -0.0507  0.4936
14350SOL    HW144491   4.828   3.128   8.405  0.5969  1.8273  1.2085
14350SOL    HW244492   4.798   3.250   8.321  0.9097  0.4414 -1.0046
14351SOL     OW44493   3.459   1.589   5.612 -0.0086  0.0798  0.2349
14351SOL    HW144494   3.495   1.525   5.551  0.7393  1.6317 -1.0189
14351SOL    HW244495   3.379   1.620   5.571  0.4767  1.0977  0.0046
14352SOL     OW44496   4.982   3.353   8.584  0.2526  0.2077  0.0521
14352SOL    HW144497   4.987   3.423   8.649  0.2155  0.3360 -0.0823
14352SOL    HW244498   4.904   3.374   8.533 -0.3050 -0.4516  0.6117
14353SOL     OW44499   3.834   3.533   8.070  0.1664 -0.5313  0.4569
14353SOL    HW144500   3.808   3.593   8.001  2.7383 -1.5207 -1.5466
14353SOL    HW244501   3.763   3.469   8.074 -0.3695 -0.0525 -0.7963
14354SOL     OW44502   5.280   3.607   8.664 -0.0759 -0.6285  0.6201
14354SOL    HW144503   5.196   3.601   8.708 -0.2734 -0.8940  0.2156
14354SOL    HW244504   5.258   3.604   8.571  0.4393 -1.5215  0.5222
14355SOL     OW44505   4.317   2.116   7.624 -0.0364 -0.0472 -0.0567
14355SOL    HW144506   4.365   2.096   7.704  0.9538  1.5738 -0.2026
14355SOL    HW244507   4.225   2.117   7.650  0.3232  1.3867  1.2999
14356SOL     OW44508   3.127   3.110   8.522  0.6740  0.4316 -0.0166
14356SOL    HW144509   3.190   3.095   8.451 -1.1274 -1.3502 -1.3743
14356SOL    HW244510   3.171   3.079   8.601  2.7674  2.5356 -0.2420
14357SOL     OW44511   4.238   3.407   8.329 -0.7347  0.3128 -0.0220
14357SOL    HW144512   4.176   3.456   8.274 -0.3329  1.3487  0.4312
14357SOL    HW244513   4.204   3.318   8.329 -0.5511  0.1649 -2.2855
14358SOL     OW44514   6.354   1.748   7.651  0.5229  0.0057  0.1540
14358SOL    HW144515   6.282   1.765   7.712  0.6911 -1.1794  0.7074
14358SOL    HW244516   6.343   1.656   7.626  0.1352  0.5941 -2.0496
14359SOL     OW44517   3.604   3.065   6.123  0.4789  0.2293 -0.0324
14359SOL    HW144518   3.579   3.133   6.186  0.5153  0.1868  0.0280
14359SOL    HW244519   3.561   3.091   6.042  0.5370  0.3542 -0.0238
14360SOL     OW44520   5.054   2.964   8.175  0.0211 -0.0122  0.6106
14360SOL    HW144521   5.004   2.994   8.099  0.6493  0.3671  0.3357
14360SOL    HW244522   5.006   2.998   8.250 -0.8850 -0.8225  0.4054
14361SOL     OW44523   5.817   3.495   8.351  0.0253  0.4106 -0.0002
14361SOL    HW144524   5.778   3.494   8.439 -0.5102 -1.2593 -0.2099
14361SOL    HW244525   5.751   3.453   8.296  0.6112  0.8964 -1.0877
14362SOL     OW44526   2.907   2.823   9.547  0.1637  0.1862  0.4612
14362SOL    HW144527   2.966   2.882   9.500  0.1733  0.4346  0.7793
14362SOL    HW244528   2.863   2.773   9.478 -0.4169  1.1148  0.1432
14363SOL     OW44529   5.906   2.745   8.628 -0.0598  0.0571  0.0629
14363SOL    HW144530   5.917   2.835   8.597  1.1226  0.3061  1.1695
14363SOL    HW244531   5.826   2.747   8.681 -1.3748 -0.0942 -1.8098
14364SOL     OW44532   4.696   2.359   6.840  0.0232  0.0656 -0.0851
14364SOL    HW144533   4.618   2.381   6.789 -0.7123 -0.9722  0.5508
14364SOL    HW244534   4.749   2.438   6.838  0.0452  0.0655 -2.4587
14365SOL     OW44535   3.966   1.875   8.167 -0.1329  0.2812 -0.3455
14365SOL    HW144536   3.905   1.804   8.187 -0.2684  0.3573 -0.4913
14365SOL    HW244537   4.026   1.876   8.241  1.0312 -1.2251 -1.2267
14366SOL     OW44538   4.590   3.065   9.521 -0.9521  0.4911 -0.0353
14366SOL    HW144539   4.606   3.004   9.593 -0.9757  1.0774  0.4731
14366SOL    HW244540   4.495   3.064   9.509 -0.8612 -0.4054 -0.7731
14367SOL     OW44541   5.523   4.500   7.549 -0.4937 -0.0421 -0.3497
14367SOL    HW144542   5.498   4.522   7.638 -0.7810 -0.3045 -0.3660
14367SOL    HW244543   5.440   4.487   7.503 -0.3333 -0.5774 -0.4891
14368SOL     OW44544   5.343   1.702   8.544  0.5314  0.5233  0.5270
14368SOL    HW144545   5.320   1.792   8.566 -0.9516 -0.3651  3.0002
14368SOL    HW244546   5.272   1.650   8.581  2.2097 -1.7973  0.6570
14369SOL     OW44547   4.729   1.230   8.316  0.0324  0.2245 -0.7214
14369SOL    HW144548   4.695   1.162   8.259 -2.2636 -0.4375  1.3102
14369SOL    HW244549   4.802   1.188   8.363 -0.5999 -0.4703 -0.3481
14370SOL     OW44550   2.254   3.672   7.370  0.4859  0.0958 -0.1330
14370SOL    HW144551   2.317   3.626   7.426 -1.8511 -1.0178  1.7815
14370SOL    HW244552   2.289   3.661   7.281  1.7600 -2.5886  0.5823
14371SOL     OW44553   7.049   1.559   7.498  0.1212 -0.2128  0.0237
14371SOL    HW144554   7.060   1.616   7.422  0.4629 -0.6481 -0.2628
14371SOL    HW244555   7.106   1.597   7.565  1.1159 -0.7578 -0.4879
14372SOL     OW44556   5.702   2.997   7.465 -0.2555 -0.4658  0.3553
14372SOL    HW144557   5.621   2.973   7.509 -0.7846  1.3025  0.4197
14372SOL    HW244558   5.707   3.092   7.474  2.6850 -0.6564  1.8675
14373SOL     OW44559   2.706   3.014   7.633 -0.3881  0.1092  0.4716
14373SOL    HW144560   2.800   3.023   7.613 -0.2808 -0.5094  0.6918
14373SOL    HW244561   2.690   2.920   7.631 -1.3777  0.2634 -1.2574
14374SOL     OW44562   5.178   3.420   7.825  0.3920 -0.1513 -0.0404
14374SOL    HW144563   5.098   3.406   7.773  0.0945 -0.4527  0.4941
14374SOL    HW244564   5.146   3.448   7.910  0.8590 -0.2579  0.1702
14375SOL     OW44565   4.165   0.638   9.396  0.3503  0.1845  0.6030
14375SOL    HW144566   4.144   0.574   9.329  4.2588 -1.9799  1.1776
14375SOL    HW244567   4.229   0.696   9.355  2.1181 -0.6260  2.0717
14376SOL     OW44568   4.012   3.805   7.860 -0.3506 -0.6657  0.0452
14376SOL    HW144569   3.965   3.851   7.929 -1.5639 -0.0210 -1.1707
14376SOL    HW244570   4.068   3.872   7.820  1.7289 -1.4319  1.5041
14377SOL     OW44571   3.540   0.904   7.857 -0.6835  0.3680  0.5639
14377SOL    HW144572   3.567   0.827   7.807 -0.7336  0.4355  0.4338
14377SOL    HW244573   3.597   0.904   7.934 -0.6126  0.2605  0.5107
14378SOL     OW44574   4.627   3.878   7.742 -0.9206  0.3631  0.5145
14378SOL    HW144575   4.580   3.798   7.720  0.7125 -0.7342  0.8192
14378SOL    HW244576   4.559   3.945   7.749 -2.1067 -0.4818 -1.9418
14379SOL     OW44577   3.417   3.992   7.261  0.0062  0.6904  0.6269
14379SOL    HW144578   3.467   3.912   7.246 -1.9065 -0.5035  0.1445
14379SOL    HW244579   3.429   4.044   7.182 -1.2034 -0.5714 -0.4360
14380SOL     OW44580   6.013   2.046   8.897 -0.4290  0.2680  0.8032
14380SOL    HW144581   6.045   2.109   8.832  0.6429 -0.2518  0.8046
14380SOL    HW244582   6.007   1.964   8.849 -2.2551  0.4276  0.6863
14381SOL     OW44583   4.553   2.741   8.492  1.2008 -0.2213  0.5667
14381SOL    HW144584   4.557   2.825   8.446  0.3486 -0.8658 -0.7766
14381SOL    HW244585   4.560   2.763   8.584  2.4286  1.1944  0.1761
14382SOL     OW44586   6.061   2.362   5.929  0.9275 -0.3558 -0.3290
14382SOL    HW144587   5.975   2.404   5.922  1.3712  0.4975 -0.8315
14382SOL    HW244588   6.110   2.394   5.853  0.9983 -2.5164 -1.2643
14383SOL     OW44589   4.044   3.330  10.103  0.2227  0.3279  0.4721
14383SOL    HW144590   4.099   3.253  10.111  2.0487  1.5757  0.3910
14383SOL    HW244591   4.046   3.351  10.010 -0.4710  0.3646  0.4550
14384SOL     OW44592   4.465   1.941   8.837  0.1043 -0.5266  0.4346
14384SOL    HW144593   4.552   1.903   8.847  2.7936  3.8649 -2.5315
14384SOL    HW244594   4.449   1.941   8.743 -2.3393  0.3441  0.7774
14385SOL     OW44595   5.664   2.523   7.656 -0.2554 -0.2056  0.6727
14385SOL    HW144596   5.608   2.600   7.657  0.2364  0.2222 -0.9717
14385SOL    HW244597   5.604   2.450   7.638 -0.2225  0.4495 -2.8765
14386SOL     OW44598   4.279   3.524   7.456  0.3164  0.5040  0.0628
14386SOL    HW144599   4.277   3.436   7.418  0.8996  0.5629 -0.1175
14386SOL    HW244600   4.191   3.559   7.439  0.7817  0.8219 -1.9678
14387SOL     OW44601   4.960   2.333   7.887  0.0168 -0.0802  0.1425
14387SOL    HW144602   4.946   2.281   7.966 -2.4713 -2.4187 -1.6237
14387SOL    HW244603   4.896   2.404   7.893 -0.2179 -0.2951  0.2147
14388SOL     OW44604   4.264   3.946   8.846 -0.3573 -0.3357 -0.7473
14388SOL    HW144605   4.217   4.022   8.813  0.3876  0.8804  0.8676
14388SOL    HW244606   4.195   3.883   8.868 -0.9846 -0.1271 -2.0416
14389SOL     OW44607   4.222   2.018   9.785 -0.1683 -0.1845  0.4089
14389SOL    HW144608   4.277   2.076   9.732  1.4308 -1.7617  0.2543
14389SOL    HW244609   4.255   2.030   9.874  0.5967 -1.2624  0.2905
14390SOL     OW44610   6.137   1.833   7.826  0.5945 -0.2531  0.0078
14390SOL    HW144611   6.161   1.925   7.838  2.6755 -0.7565  0.0554
14390SOL    HW244612   6.049   1.826   7.864  0.1494  1.8234 -0.5210
14391SOL     OW44613   5.788   2.558   8.418 -0.2061  0.2929 -0.8066
14391SOL    HW144614   5.697   2.531   8.424 -0.5346  1.4688 -0.3815
14391SOL    HW244615   5.801   2.616   8.493  1.2488 -0.8794 -0.0988
14392SOL     OW44616   4.118   2.608   8.664  0.3150  0.1849 -0.3364
14392SOL    HW144617   4.106   2.544   8.595 -2.1391 -0.9451  1.0245
14392SOL    HW244618   4.039   2.663   8.661 -0.1196 -0.2182  1.8331
14393SOL     OW44619   5.868   1.974  10.810  0.4524 -0.1788 -0.1708
14393SOL    HW144620   5.871   2.015  10.724 -0.1587 -0.9043 -0.5476
14393SOL    HW244621   5.803   1.904  10.802 -0.1556  0.2080  1.0813
14394SOL     OW44622   4.282   3.740   7.647  0.9491 -0.3066 -0.1208
14394SOL    HW144623   4.332   3.705   7.721  0.2076 -1.1268  0.0013
14394SOL    HW244624   4.261   3.664   7.594 -1.6127 -0.2760  0.7111
14395SOL     OW44625   5.229   2.510   7.704 -0.6113 -0.1115  0.2112
14395SOL    HW144626   5.180   2.525   7.623 -0.5143  0.1421  0.1967
14395SOL    HW244627   5.198   2.578   7.764 -0.7868 -0.3887  0.4360
14396SOL     OW44628   3.489   1.176   8.234 -0.2548  0.2940  0.0825
14396SOL    HW144629   3.547   1.212   8.301 -1.2134  0.5713  0.7856
14396SOL    HW244630   3.517   1.218   8.153  1.0796 -0.2285  0.2499
14397SOL     OW44631   6.083   4.137   7.097 -0.8411 -0.1820 -0.1303
14397SOL    HW144632   6.036   4.054   7.105  0.8541 -1.3468 -1.5538
14397SOL    HW244633   6.066   4.166   7.007  0.4827 -0.2202 -0.4132
14398SOL     OW44634   5.794   1.351   7.307 -0.3389  0.1333 -0.0539
14398SOL    HW144635   5.742   1.278   7.338  0.9926 -0.9078 -0.1704
14398SOL    HW244636   5.828   1.322   7.223 -1.3008  1.6526 -1.0206
14399SOL     OW44637   2.850   2.114   7.915  0.3233 -0.0183 -0.7947
14399SOL    HW144638   2.926   2.094   7.861  0.4701  0.3458 -0.7263
14399SOL    HW244639   2.853   2.049   7.986  1.9389  1.4533  0.5619
14400SOL     OW44640   5.181   3.276   8.811  0.0798  0.1924  0.0265
14400SOL    HW144641   5.140   3.362   8.802  0.6428  0.5171  0.4971
14400SOL    HW244642   5.192   3.245   8.721  0.5353  0.9334 -0.1766
14401SOL     OW44643   3.965   3.621   7.499 -0.1525  0.5569 -0.0108
14401SOL    HW144644   3.995   3.704   7.463 -0.9440  0.3241 -1.2870
14401SOL    HW244645   3.928   3.574   7.424  1.6320 -1.6064  0.3742
14402SOL     OW44646   6.912   1.478   8.167  0.0832 -0.2653 -0.3686
14402SOL    HW144647   6.831   1.507   8.125  1.1881  3.5818 -0.1894
14402SOL    HW244648   6.959   1.431   8.099 -1.3863 -0.8028 -1.0581
14403SOL     OW44649   3.269   3.165   7.438 -0.0837  0.7164 -0.2483
14403SOL    HW144650   3.246   3.246   7.485 -1.0178  1.0572 -1.2426
14403SOL    HW244651   3.309   3.195   7.357  0.2215  0.1632 -0.3031
14404SOL     OW44652   3.804   2.753   9.194 -0.7046  0.1204 -0.3852
14404SOL    HW144653   3.875   2.749   9.130 -0.1791 -1.4600  0.2420
14404SOL    HW244654   3.834   2.816   9.259  0.0672 -0.3969 -0.2224
14405SOL     OW44655   4.668   2.282   8.648 -0.2545 -0.2507 -0.2470
14405SOL    HW144656   4.690   2.202   8.696  0.7123  0.2228  0.1312
14405SOL    HW244657   4.681   2.260   8.556 -2.8995 -1.4130 -0.4189
14406SOL     OW44658   3.512   1.340   5.466  0.1091  0.3578 -0.1537
14406SOL    HW144659   3.503   1.312   5.557 -0.6147 -0.2363 -0.3968
14406SOL    HW244660   3.606   1.337   5.449  0.5130  2.7603  1.2646
14407SOL     OW44661   3.628   3.520   7.806 -0.2227 -0.4826 -0.0824
14407SOL    HW144662   3.614   3.538   7.713 -0.1740 -1.5835 -0.3179
14407SOL    HW244663   3.593   3.597   7.851 -1.7786 -0.6413 -0.9357
14408SOL     OW44664   5.118   2.396  10.260  0.1272 -0.1088 -0.6438
14408SOL    HW144665   5.078   2.411  10.174 -1.7418  0.3854  0.2832
14408SOL    HW244666   5.072   2.321  10.296  1.1683 -0.5580 -0.2028
14409SOL     OW44667   5.093   1.174   7.047  0.4612 -0.2407  0.5349
14409SOL    HW144668   5.025   1.236   7.073  1.3304  0.1876  1.9076
14409SOL    HW244669   5.149   1.222   6.986 -1.3732 -1.1290 -1.9859
14410SOL     OW44670   5.371   2.697   8.260 -0.1391  0.1573  0.1004
14410SOL    HW144671   5.339   2.767   8.202  0.9326  0.2930 -0.3504
14410SOL    HW244672   5.346   2.616   8.215  0.9599  0.2585 -0.7383
14411SOL     OW44673   2.334   2.996   9.130 -0.1536 -0.4060 -0.0749
14411SOL    HW144674   2.414   3.011   9.080 -1.6012  1.0223 -2.0766
14411SOL    HW244675   2.362   3.004   9.221  1.8389  0.8181 -0.7173
14412SOL     OW44676   5.045   2.146   6.501 -0.0278  0.4232 -0.4751
14412SOL    HW144677   5.015   2.236   6.496 -1.4129  0.0077 -0.3301
14412SOL    HW244678   5.140   2.151   6.494 -0.0743  1.8910 -0.3590
14413SOL     OW44679   5.815   4.518   9.629 -0.3601  0.3629 -0.4710
14413SOL    HW144680   5.749   4.506   9.560 -1.6187 -0.5586  0.8472
14413SOL    HW244681   5.810   4.439   9.682 -0.0558  1.3897  1.1863
14414SOL     OW44682   5.285   3.756   9.816  0.2744 -0.0115 -0.3077
14414SOL    HW144683   5.253   3.699   9.745 -0.7414  0.6100 -0.3729
14414SOL    HW244684   5.218   3.824   9.824  0.1603 -0.2898  1.5209
14415SOL     OW44685   7.137   2.586   8.888  0.2521 -0.0004 -0.5533
14415SOL    HW144686   7.112   2.522   8.954 -0.0789 -1.3060 -1.8842
14415SOL    HW244687   7.057   2.633   8.868  0.0667 -0.4486 -0.8904
14416SOL     OW44688   5.105   3.784   8.149 -0.1712  0.1013 -0.4822
14416SOL    HW144689   5.083   3.810   8.060 -0.4591  3.4357  0.4075
14416SOL    HW244690   5.046   3.836   8.204  1.3368 -0.3394  1.6863
14417SOL     OW44691   4.680   3.045   9.221 -0.6034  0.2074 -0.3091
14417SOL    HW144692   4.770   3.051   9.255 -1.3111  1.4550  1.4778
14417SOL    HW244693   4.626   3.028   9.298 -1.9276 -0.5805 -1.3641
14418SOL     OW44694   6.236   2.914   7.140 -0.4042 -1.0510 -0.4677
14418SOL    HW144695   6.163   2.899   7.200 -1.1122  2.1552 -0.3681
14418SOL    HW244696   6.312   2.880   7.187 -0.8390  1.7880  2.6898
14419SOL     OW44697   4.154   3.322   7.611 -0.2269 -0.0182  0.0456
14419SOL    HW144698   4.168   3.414   7.588  0.9030  0.3267  1.9216
14419SOL    HW244699   4.212   3.274   7.553 -0.3447  0.4836 -0.5052
14420SOL     OW44700   4.812   2.858   7.862 -0.1077 -0.3239 -0.4421
14420SOL    HW144701   4.818   2.911   7.941 -0.4058 -2.3793  1.0542
14420SOL    HW244702   4.720   2.864   7.837 -0.4309 -1.0945  0.4792
14421SOL     OW44703   5.098   1.273   8.670 -0.2625  0.0219  0.4390
14421SOL    HW144704   5.112   1.367   8.676 -0.7434  0.0129  2.0947
14421SOL    HW244705   5.183   1.234   8.690 -0.3174  0.1016  0.8404
14422SOL     OW44706   4.108   2.840   7.834 -0.0927 -0.3852  0.1785
14422SOL    HW144707   4.044   2.884   7.779  0.2974 -0.6567 -0.5030
14422SOL    HW244708   4.078   2.856   7.924 -1.9250 -1.7334 -0.1461
14423SOL     OW44709   4.185   1.091   6.434 -0.5664  0.3555  1.0972
14423SOL    HW144710   4.253   1.023   6.436  0.4249  1.2405 -0.5630
14423SOL    HW244711   4.200   1.143   6.513 -0.1668 -0.2554  1.4325
14424SOL     OW44712   4.964   3.500   8.159 -0.1351  0.0201 -0.5809
14424SOL    HW144713   4.980   3.533   8.071  1.7096 -1.2669 -0.7839
14424SOL    HW244714   4.888   3.443   8.149  0.1672 -0.2601 -1.3847
14425SOL     OW44715   3.783   3.252   7.829  0.0506 -0.0017  0.4614
14425SOL    HW144716   3.759   3.272   7.919 -0.4841 -0.7934  0.5119
14425SOL    HW244717   3.699   3.247   7.783  0.1410 -1.7464  0.4018
14426SOL     OW44718   4.948   1.331   6.810 -0.6766 -0.3266  0.2299
14426SOL    HW144719   5.000   1.390   6.864 -0.1130 -0.6187  0.0282
14426SOL    HW244720   4.917   1.385   6.738 -0.2251 -0.2519  0.0855
14427SOL     OW44721   4.089   1.607   7.533  0.4359 -0.2232 -0.3237
14427SOL    HW144722   4.080   1.571   7.621  1.1061  0.0898 -0.1195
14427SOL    HW244723   4.054   1.538   7.476 -1.2541  0.1154  0.2456
14428SOL     OW44724   6.200   3.946   7.540 -0.2833  0.6648 -0.1573
14428SOL    HW144725   6.246   3.942   7.624  2.3730  0.3408 -1.4983
14428SOL    HW244726   6.213   3.859   7.502 -0.2323  1.2238 -1.4685
14429SOL     OW44727   6.602   1.348   9.932  0.1129  0.3650  0.0167
14429SOL    HW144728   6.524   1.315   9.887 -0.2090 -2.0378  2.1311
14429SOL    HW244729   6.673   1.334   9.870 -0.6706 -0.4460 -0.7332
14430SOL     OW44730   4.071   2.359   9.602  0.2933 -0.6391 -0.2556
14430SOL    HW144731   4.051   2.273   9.565 -1.0547 -0.5368  0.1800
14430SOL    HW244732   3.991   2.385   9.648  0.5431  1.0178 -0.6795
14431SOL     OW44733   4.366   1.524   6.701 -0.1051  0.2548  0.4371
14431SOL    HW144734   4.287   1.513   6.754 -0.8400  0.4331 -0.5861
14431SOL    HW244735   4.335   1.517   6.610  0.9274  1.1205 -0.0033
14432SOL     OW44736   3.851   2.453   8.597  0.9522  0.2096  0.2581
14432SOL    HW144737   3.808   2.368   8.609  1.2036  0.2338  1.3874
14432SOL    HW244738   3.938   2.431   8.565  0.9502  0.0554  0.3588
14433SOL     OW44739   5.609   1.442   6.789 -0.6706 -0.4053  0.0032
14433SOL    HW144740   5.671   1.515   6.796 -2.0912  0.8073  0.4728
14433SOL    HW244741   5.542   1.474   6.729 -1.7660 -0.9839  0.8806
14434SOL     OW44742   5.036   3.324   9.508  0.5142 -0.2341 -0.3407
14434SOL    HW144743   4.958   3.280   9.542  0.3286 -0.8396 -1.4888
14434SOL    HW244744   5.006   3.367   9.428  1.0737  0.6293 -0.0963
14435SOL     OW44745   4.888   3.092   7.544  0.2074 -1.0227 -0.4592
14435SOL    HW144746   4.794   3.081   7.533  0.3386 -1.6194 -1.0193
14435SOL    HW244747   4.898   3.181   7.578 -0.5551 -0.9491 -0.4210
14436SOL     OW44748   5.377   1.826  10.355 -0.1289  0.3453  0.1674
14436SOL    HW144749   5.384   1.910  10.400 -2.4998 -0.2301  1.8280
14436SOL    HW244750   5.292   1.830  10.311 -0.4595 -1.2885  0.5920
14437SOL     OW44751   5.750   1.311   7.873 -0.2310  0.2435 -0.5901
14437SOL    HW144752   5.780   1.232   7.828 -1.9283  0.3182 -1.9466
14437SOL    HW244753   5.655   1.309   7.863 -0.4316  1.5946  0.8356
14438SOL     OW44754   4.882   0.471   7.734  0.5730  0.2248  0.1548
14438SOL    HW144755   4.959   0.525   7.752  1.5033  0.2983 -3.3450
14438SOL    HW244756   4.914   0.400   7.678 -1.8270  0.2560 -1.4424
14439SOL     OW44757   3.195   2.076   8.937 -0.2421  0.2096 -0.3263
14439SOL    HW144758   3.239   2.089   9.021 -0.4228 -1.4853  0.0722
14439SOL    HW244759   3.107   2.046   8.960 -0.1043 -0.8521 -1.0927
14440SOL     OW44760   5.559   2.968   9.193 -0.1712  0.7401 -0.4726
14440SOL    HW144761   5.505   2.936   9.121  0.5910 -2.0740  0.1087
14440SOL    HW244762   5.555   2.899   9.259  1.5158  1.9226  0.9538
14441SOL     OW44763   5.415   2.973   9.567 -0.3508 -0.2698  0.3434
14441SOL    HW144764   5.445   2.955   9.478  0.0273 -0.1540  0.4427
14441SOL    HW244765   5.362   3.052   9.559  0.5577  0.3561  0.3769
14442SOL     OW44766   7.499   2.971   8.021  0.6185  0.5903 -0.4612
14442SOL    HW144767   7.469   2.944   8.108  2.6458 -1.4543 -0.2922
14442SOL    HW244768   7.438   2.928   7.961 -0.0011  0.9075 -0.0672
14443SOL     OW44769   6.089   1.842   7.321  0.2567 -0.4508 -0.8107
14443SOL    HW144770   6.082   1.885   7.406  1.5463 -0.7366 -0.5356
14443SOL    HW244771   6.171   1.876   7.284  1.0331 -2.2059 -0.8078
14444SOL     OW44772   4.463   4.318   9.901  0.1077 -0.1783  0.0311
14444SOL    HW144773   4.419   4.282   9.824  1.1902 -0.6656 -0.3844
14444SOL    HW244774   4.549   4.277   9.900  0.9800  1.5476  0.1960
14445SOL     OW44775   4.920   2.850   9.106 -0.4252 -0.0235  0.6192
14445SOL    HW144776   4.869   2.858   9.025  0.4601  2.1321  0.2149
14445SOL    HW244777   4.937   2.940   9.133  1.3479 -0.6929  1.9072
14446SOL     OW44778   4.465   1.377   7.106  0.4122  0.1407 -0.0210
14446SOL    HW144779   4.458   1.287   7.138  0.8578 -0.0202 -0.3585
14446SOL    HW244780   4.525   1.371   7.032  0.2220  0.6730 -0.2240
14447SOL     OW44781   4.551   2.783   9.247  0.2442  0.2870 -0.3258
14447SOL    HW144782   4.577   2.811   9.159 -0.2920 -1.1722 -0.9804
14447SOL    HW244783   4.630   2.745   9.285 -0.3373 -2.3856 -1.5860
14448SOL     OW44784   6.308   2.892   9.570  0.1406 -0.4245  0.4326
14448SOL    HW144785   6.344   2.953   9.506 -0.4356 -0.0095  0.4961
14448SOL    HW244786   6.327   2.805   9.534  1.6446 -0.2383  0.7094
14449SOL     OW44787   4.072   3.820   7.365  0.0226  0.2789 -0.0512
14449SOL    HW144788   4.043   3.903   7.401 -1.1201 -0.1995  0.1775
14449SOL    HW244789   4.021   3.810   7.284 -1.1497 -0.9716  0.7948
14450SOL     OW44790   4.107   3.859   8.361 -0.1150  0.7429 -0.2692
14450SOL    HW144791   4.095   3.781   8.307  0.8354  1.8163 -2.1078
14450SOL    HW244792   4.174   3.834   8.425 -0.8320 -0.3632  0.0824
14451SOL     OW44793   4.650   3.660   8.253 -0.0545  0.1779 -0.1995
14451SOL    HW144794   4.678   3.586   8.198  2.6047  1.0892 -0.2472
14451SOL    HW244795   4.573   3.695   8.209 -0.4453 -1.5869 -1.0333
14452SOL     OW44796   7.114   2.219   8.553 -0.3021 -0.4703 -0.2548
14452SOL    HW144797   7.103   2.298   8.606  1.2628 -1.0552  0.9844
14452SOL    HW244798   7.132   2.252   8.465 -0.8314  0.5205 -0.0082
14453SOL     OW44799   5.349   0.631   8.666  0.4172  0.6682 -0.1611
14453SOL    HW144800   5.385   0.619   8.754 -0.1382 -0.4890 -0.0710
14453SOL    HW244801   5.275   0.571   8.661  0.8131  0.2412 -1.6356
14454SOL     OW44802   3.876   2.357   9.038  0.2488 -0.2861  0.1479
14454SOL    HW144803   3.948   2.322   8.986  0.2317  0.9220 -0.7254
14454SOL    HW244804   3.837   2.424   8.982 -0.5547  0.1766  1.2407
14455SOL     OW44805   3.196   1.460   6.357  0.1912  0.2619  0.6553
14455SOL    HW144806   3.223   1.509   6.279  0.7427  0.3663  0.9096
14455SOL    HW244807   3.143   1.522   6.407  1.4424  0.8342  1.3062
14456SOL     OW44808   4.079   1.055   7.666 -0.1940 -0.2179 -0.0207
14456SOL    HW144809   4.012   1.040   7.733 -1.2740 -0.3122 -1.0819
14456SOL    HW244810   4.160   1.069   7.715 -1.5064  3.0215  1.4790
14457SOL     OW44811   6.138   0.908   7.562 -0.5503  0.2328 -0.0363
14457SOL    HW144812   6.174   0.984   7.518 -2.5607  0.1311 -2.0610
14457SOL    HW244813   6.169   0.915   7.653 -1.1327  3.7666  0.0235
14458SOL     OW44814   4.369   2.472   6.899  0.4334  0.0149  0.1060
14458SOL    HW144815   4.325   2.470   6.814 -0.0472 -0.5282  0.3604
14458SOL    HW244816   4.306   2.510   6.959  0.3248 -0.6998  0.4571
14459SOL     OW44817   4.856   3.107   8.030 -0.3645  0.0359  0.4424
14459SOL    HW144818   4.795   3.166   7.986 -1.7779 -1.3914  0.4042
14459SOL    HW244819   4.843   3.125   8.123 -0.7345 -0.1590  0.4286
14460SOL     OW44820   3.080   1.804   7.301 -0.0341  0.1857  0.1501
14460SOL    HW144821   3.076   1.891   7.260 -0.0810  0.4108  0.6144
14460SOL    HW244822   3.163   1.767   7.271  0.9796  1.2178  1.5259
14461SOL     OW44823   5.065   3.339   7.292 -0.7307 -0.7041  0.0246
14461SOL    HW144824   4.990   3.354   7.350 -1.3280 -1.9937 -0.3805
14461SOL    HW244825   5.046   3.255   7.250  0.8930 -1.0049 -0.1614
14462SOL     OW44826   4.275   2.851   7.557 -0.1906  0.0812  0.3579
14462SOL    HW144827   4.332   2.911   7.509 -0.9311 -0.3040 -1.0391
14462SOL    HW244828   4.214   2.909   7.603 -1.4235  0.4594 -1.6270
14463SOL     OW44829   5.423   2.733   9.060  0.2077  0.4671  0.3221
14463SOL    HW144830   5.427   2.807   8.999  3.1471  0.3624  0.2533
14463SOL    HW244831   5.335   2.697   9.048 -0.1009  1.8152 -2.2311
14464SOL     OW44832   3.471   4.130  10.206  0.2255 -0.3471  0.1660
14464SOL    HW144833   3.452   4.131  10.113 -0.7664 -0.1370  0.3601
14464SOL    HW244834   3.392   4.092  10.246 -0.0181  1.0298  1.0521
14465SOL     OW44835   6.423   0.589   7.260  0.1056 -0.8040 -0.0462
14465SOL    HW144836   6.337   0.562   7.226 -0.9339  1.4219  0.6270
14465SOL    HW244837   6.403   0.659   7.322  2.4881  1.0570 -1.1895
14466SOL     OW44838   4.948   3.615   7.870 -0.7541 -0.7898  0.3251
14466SOL    HW144839   4.979   3.705   7.882 -1.5146 -0.5422  0.5083
14466SOL    HW244840   4.950   3.601   7.776  0.7817 -1.1057  0.3808
14467SOL     OW44841   6.109   2.617   7.025 -0.0125 -0.2831  0.5050
14467SOL    HW144842   6.154   2.696   6.994  0.3389 -0.8438 -0.4871
14467SOL    HW244843   6.096   2.631   7.118  0.2309  0.8535  0.3838
14468SOL     OW44844   4.137   2.328   8.162 -1.0366 -0.6205  0.4217
14468SOL    HW144845   4.098   2.395   8.107  1.0497  0.1594 -0.2160
14468SOL    HW244846   4.082   2.250   8.148 -2.1526  0.3133 -0.6023
14469SOL     OW44847   5.029   4.562   8.681  0.0248 -0.0038  0.0839
14469SOL    HW144848   4.995   4.484   8.726 -0.2817  1.3979  2.4269
14469SOL    HW244849   4.955   4.594   8.629 -0.7016  0.2354  1.2443
14470SOL     OW44850   6.097   1.286   8.840 -0.3879 -0.7228  0.4185
14470SOL    HW144851   6.066   1.265   8.752  0.4045 -1.8933  0.4036
14470SOL    HW244852   6.102   1.382   8.841  1.4478 -0.7456 -1.4671
14471SOL     OW44853   4.949   1.950   7.599 -0.4201  0.2488  0.0043
14471SOL    HW144854   4.859   1.947   7.567 -0.4704 -0.5481  0.1854
14471SOL    HW244855   4.988   2.025   7.554 -0.9093  0.0389 -0.7983
14472SOL     OW44856   5.290   3.067   8.365  0.1626 -0.7990  0.0216
14472SOL    HW144857   5.225   3.110   8.308 -0.8110 -1.2523  0.7606
14472SOL    HW244858   5.240   3.041   8.443  1.2902 -0.9499  0.7168
14473SOL     OW44859   4.242   3.775   8.580  0.1910  0.0511  0.2950
14473SOL    HW144860   4.303   3.703   8.562  1.0295  0.7737  0.1402
14473SOL    HW244861   4.261   3.799   8.671  0.9497  1.0141 -0.1016
14474SOL     OW44862   5.969   2.877   8.192  0.2901  0.4157  0.2672
14474SOL    HW144863   5.908   2.951   8.196 -0.1967  0.0800 -0.7537
14474SOL    HW244864   6.052   2.913   8.223 -0.0000  1.3249  0.0121
14475SOL     OW44865   5.517   1.964   8.560  0.2250  0.0930 -0.2312
14475SOL    HW144866   5.432   2.001   8.583  0.1817  0.1625 -0.5031
14475SOL    HW244867   5.581   2.021   8.602  0.1442  0.1751 -0.2204
14476SOL     OW44868   4.163   3.966   7.711 -0.7113  1.1474  0.2764
14476SOL    HW144869   4.122   3.993   7.629 -0.0708  0.2359 -0.3611
14476SOL    HW244870   4.211   3.887   7.689  0.4968  1.5752  1.2523
14477SOL     OW44871   2.509   1.020   7.109  0.0697  0.5980 -0.3465
14477SOL    HW144872   2.585   0.962   7.114  1.1099  1.7251 -1.9871
14477SOL    HW244873   2.536   1.098   7.157  0.4870  1.5107 -2.0089
14478SOL     OW44874   4.694   3.812   8.731  0.0244  0.1499 -0.1171
14478SOL    HW144875   4.775   3.778   8.770 -1.0747 -0.9677  1.2960
14478SOL    HW244876   4.632   3.739   8.738 -1.4229  1.3332 -0.1766
14479SOL     OW44877   5.151   2.703   9.138  0.2860  0.5720 -0.0997
14479SOL    HW144878   5.070   2.753   9.147  0.4309  0.9277 -0.7139
14479SOL    HW244879   5.173   2.675   9.227  0.6388  2.2692  0.3735
14480SOL     OW44880   3.406   2.792   7.852 -0.1553  0.0522  0.4083
14480SOL    HW144881   3.426   2.877   7.813  1.3251  0.3016  1.6330
14480SOL    HW244882   3.489   2.761   7.887 -0.6194 -2.0223 -0.1893
14481SOL     OW44883   5.155   1.323   9.041 -0.4728  0.3994  0.5147
14481SOL    HW144884   5.131   1.412   9.014  0.5414  1.6654  3.4133
14481SOL    HW244885   5.087   1.298   9.103 -0.6495 -0.8186 -0.1477
14482SOL     OW44886   3.923   2.766   9.742  0.1412 -0.5989 -0.1899
14482SOL    HW144887   3.990   2.733   9.682  0.6625  0.2350 -0.0894
14482SOL    HW244888   3.864   2.817   9.687 -0.4371 -1.3548 -0.2817
14483SOL     OW44889   3.663   1.095   8.581 -0.0038 -0.0206 -0.0099
14483SOL    HW144890   3.696   1.163   8.640  1.2804  1.1680 -1.9682
14483SOL    HW244891   3.649   1.140   8.498  1.0418 -2.1855 -1.4477
14484SOL     OW44892   0.300   2.536   8.133  0.2225  0.0629 -0.1817
14484SOL    HW144893   0.340   2.503   8.052 -0.4014 -1.6664  0.1745
14484SOL    HW244894   0.286   2.458   8.186 -1.5039  0.8854  0.6542
14485SOL     OW44895   3.981   2.907   8.926 -0.2870  0.1535  0.0314
14485SOL    HW144896   3.908   2.951   8.969  0.2941  0.2288  0.9861
14485SOL    HW244897   3.984   2.944   8.838 -2.5386 -1.1863 -0.6748
14486SOL     OW44898   6.447   5.191   6.901 -0.0468  0.3631  0.3659
14486SOL    HW144899   6.512   5.132   6.862 -1.1735 -1.2104  0.7692
14486SOL    HW244900   6.367   5.175   6.851 -1.0866 -0.4918  2.2062
14487SOL     OW44901   4.492   3.634   8.750  0.3851 -0.0207 -0.4668
14487SOL    HW144902   4.412   3.634   8.804  0.1163  0.8262 -0.8463
14487SOL    HW244903   4.461   3.615   8.662  1.0307 -3.2852 -0.1187
14488SOL     OW44904   4.448   4.045   9.099 -0.5126  0.0380  0.5930
14488SOL    HW144905   4.485   4.034   9.012  0.4404 -1.5172  1.1414
14488SOL    HW244906   4.491   4.124   9.133 -1.7609  1.3394 -0.7204
14489SOL     OW44907   4.865   2.495   8.744  0.0273  0.5288  0.0143
14489SOL    HW144908   4.797   2.448   8.695  0.3858  0.3895 -0.3576
14489SOL    HW244909   4.824   2.518   8.827 -0.8530  1.4399 -0.6517
14490SOL     OW44910   6.308   4.674   9.554 -0.2454  0.5454 -0.4137
14490SOL    HW144911   6.273   4.614   9.619 -1.3232  1.0895 -0.4677
14490SOL    HW244912   6.396   4.694   9.584 -0.8427  1.0619  1.0869
14491SOL     OW44913   5.810   3.807   8.384  0.2362  0.5577  0.0518
14491SOL    HW144914   5.791   3.892   8.345 -1.1078  0.5727  0.6739
14491SOL    HW244915   5.898   3.816   8.420  0.8662  1.0539 -1.5320
14492SOL     OW44916   5.260   1.994   8.616  0.4418 -0.6620 -0.5693
14492SOL    HW144917   5.180   1.971   8.569  0.6640 -2.1006 -0.2762
14492SOL    HW244918   5.241   1.975   8.708  0.5158  0.7267 -0.2379
14493SOL     OW44919   3.732   1.996   5.795  0.5093 -0.5712 -0.6764
14493SOL    HW144920   3.777   2.043   5.725  1.3845 -1.6245 -0.8527
14493SOL    HW244921   3.645   2.036   5.799  0.8213  0.2447 -1.6083
14494SOL     OW44922   4.944   1.860  11.247  0.3595 -0.2476  0.9046
14494SOL    HW144923   4.908   1.776  11.275  0.8033 -0.4031  1.0307
14494SOL    HW244924   4.968   1.904  11.329 -0.4982  0.2989  0.8747
14495SOL     OW44925   4.534   2.808   8.970  0.0691  0.1306 -0.1213
14495SOL    HW144926   4.453   2.856   8.959  0.4498  0.5214 -1.4531
14495SOL    HW244927   4.522   2.728   8.920  0.4017  0.0700 -0.1115
14496SOL     OW44928   4.624   4.485   8.707  0.1033  0.3174 -0.5896
14496SOL    HW144929   4.572   4.406   8.690 -0.4710  0.6649 -0.4790
14496SOL    HW244930   4.702   4.474   8.653  0.5662 -0.8493  0.2532
14497SOL     OW44931   3.351   2.070   7.641  0.5649  0.0088  0.2173
14497SOL    HW144932   3.343   2.018   7.721 -2.2893 -0.9393 -0.6032
14497SOL    HW244933   3.395   2.012   7.579  1.1497  0.1167  0.5140
14498SOL     OW44934   4.510   2.972   6.548  0.3265 -0.0916  0.5527
14498SOL    HW144935   4.605   2.981   6.542  0.2147  0.5554 -0.4696
14498SOL    HW244936   4.496   2.904   6.614  1.4950 -0.1874  0.7132
14499SOL     OW44937   5.048   2.145   7.457  0.0646  0.0137 -0.4834
14499SOL    HW144938   5.001   2.116   7.379 -1.4981 -0.7455  0.6885
14499SOL    HW244939   4.991   2.210   7.497  1.7243  1.8461 -0.9191
14500SOL     OW44940   5.382   3.806   8.030 -0.5302 -0.1614 -0.2341
14500SOL    HW144941   5.393   3.854   8.112 -0.9598 -1.0710  0.3903
14500SOL    HW244942   5.331   3.864   7.974  3.5465  2.4244 -1.6787
14501SOL     OW44943   5.787   2.184   7.684 -0.7734 -0.5132 -0.7868
14501SOL    HW144944   5.770   2.245   7.612 -3.1590  0.3319  0.3681
14501SOL    HW244945   5.781   2.238   7.763  0.5439 -1.6400  0.1397
14502SOL     OW44946   3.525   2.112   8.401 -0.2773  0.2559 -0.3720
14502SOL    HW144947   3.599   2.134   8.344  0.7228 -2.6647 -0.3778
14502SOL    HW244948   3.458   2.079   8.341  0.0452 -1.0115 -0.0676
14503SOL     OW44949   5.070   3.105   8.602  0.0514 -0.2492  0.2078
14503SOL    HW144950   4.985   3.061   8.594 -0.1315  0.0588  0.4373
14503SOL    HW244951   5.050   3.198   8.592  0.3253 -0.1528  0.5241
14504SOL     OW44952   2.381   3.143   8.190  0.8086  0.1406  0.5276
14504SOL    HW144953   2.302   3.191   8.165  0.2042 -0.0217  2.0066
14504SOL    HW244954   2.446   3.211   8.207  0.7952  0.3040 -0.0556
14505SOL     OW44955   4.249   4.003   7.986  0.4327 -0.1030 -0.2357
14505SOL    HW144956   4.212   3.959   7.909  2.2336  0.7770 -1.6803
14505SOL    HW244957   4.259   4.094   7.959  2.3768 -0.0446  0.5139
14506SOL     OW44958   6.172   0.891   8.508 -0.2468  0.3433 -0.1379
14506SOL    HW144959   6.078   0.907   8.516 -0.1021  1.4251 -0.4105
14506SOL    HW244960   6.190   0.904   8.415  0.3060  0.9825  0.0487
14507SOL     OW44961   3.794   1.656   8.846  0.7798 -0.0859  0.2320
14507SOL    HW144962   3.702   1.635   8.864  0.9644 -1.3664 -0.1807
14507SOL    HW244963   3.817   1.600   8.771  1.4999  1.2693 -0.6099
14508SOL     OW44964   4.188   3.074   8.084  0.2008 -0.0199  0.2503
14508SOL    HW144965   4.150   3.134   8.020 -0.2555 -0.3734  0.1801
14508SOL    HW244966   4.190   3.124   8.166 -1.0226 -0.1932  0.4052
14509SOL     OW44967   6.148   2.213  10.679 -0.5773  0.3726 -0.1213
14509SOL    HW144968   6.179   2.153  10.611 -1.2796 -0.1139 -0.0315
14509SOL    HW244969   6.163   2.166  10.761 -0.8190  0.4584 -0.0274
14510SOL     OW44970   5.783   1.828   8.501  0.2961 -0.0944 -0.0266
14510SOL    HW144971   5.728   1.760   8.462 -0.0113  1.2782 -2.1643
14510SOL    HW244972   5.722   1.898   8.525  0.6469 -0.3498  1.7901
14511SOL     OW44973   5.706   3.418   8.601  0.4776  0.0325  0.0947
14511SOL    HW144974   5.650   3.342   8.591 -0.5070  0.8801 -1.2801
14511SOL    HW244975   5.660   3.475   8.663  0.2938  0.3031 -0.2864
14512SOL     OW44976   3.362   1.868   9.789 -0.1701  0.3638  0.2612
14512SOL    HW144977   3.306   1.943   9.767  0.3517  0.4834 -0.7428
14512SOL    HW244978   3.304   1.807   9.834 -0.9155  0.8272 -0.0461
14513SOL     OW44979   4.425   2.590   8.291 -0.3608 -0.0203 -0.2415
14513SOL    HW144980   4.429   2.651   8.217  2.4873 -1.3135 -1.3099
14513SOL    HW244981   4.457   2.641   8.366  0.9701  0.1423 -0.8954
14514SOL     OW44982   3.745   2.226  11.703  0.4429 -0.1314  0.1193
14514SOL    HW144983   3.756   2.247  11.796 -0.1601  1.0214 -0.0546
14514SOL    HW244984   3.766   2.307  11.657 -0.1580 -0.4232 -0.6937
14515SOL     OW44985   4.988   2.620   9.821 -0.4062  0.1357  0.5080
14515SOL    HW144986   5.051   2.682   9.784  0.8094 -1.1029  0.4137
14515SOL    HW244987   4.957   2.569   9.747  1.0410 -1.4722  0.9306
14516SOL     OW44988   2.713   3.686   9.427 -0.0678  0.0494  0.0967
14516SOL    HW144989   2.746   3.726   9.346 -0.8828  1.3701  0.4014
14516SOL    HW244990   2.788   3.638   9.462  0.5132  0.0939 -1.0394
14517SOL     OW44991   5.480   4.791  10.375  0.4569  0.1626  0.0558
14517SOL    HW144992   5.474   4.706  10.332 -0.2626  0.3455 -0.2257
14517SOL    HW244993   5.433   4.780  10.457 -1.5824  0.8623 -0.9485
14518SOL     OW44994   5.509   2.529   8.401 -0.0110  0.7219  0.1370
14518SOL    HW144995   5.432   2.474   8.387  1.2040 -1.2619  0.9380
14518SOL    HW244996   5.501   2.598   8.335 -0.8306 -1.2508 -1.9450
14519SOL     OW44997   5.075   2.820   9.436  0.2170 -0.2379 -0.4381
14519SOL    HW144998   5.131   2.878   9.385  0.8337  0.2570  0.7755
14519SOL    HW244999   5.049   2.871   9.512  0.7644 -1.5194  0.6644
14520SOL     OW45000   1.608   3.120  11.166  0.6178  0.4535  0.0071
14520SOL    HW145001   1.522   3.086  11.143  0.8904  0.1873 -0.6693
14520SOL    HW245002   1.609   3.208  11.129  0.9109  0.1724 -0.6709
14521SOL     OW45003   5.850   2.370  10.684 -0.0561  0.3604  0.3743
14521SOL    HW145004   5.937   2.408  10.671  0.9382 -1.7164  0.6132
14521SOL    HW245005   5.828   2.331  10.600  0.7059 -1.9126  1.1731
14522SOL     OW45006   5.943   4.045  11.104  0.2647 -0.4350  0.1059
14522SOL    HW145007   5.999   4.117  11.075 -0.2289 -0.1553 -0.1789
14522SOL    HW245008   5.997   3.967  11.098  0.2848 -0.3386 -1.2622
14523SOL     OW45009   4.421   4.155  10.956 -0.2751  0.3016  0.1611
14523SOL    HW145010   4.377   4.207  10.890  0.9452  0.9095 -0.1936
14523SOL    HW245011   4.457   4.081  10.908 -1.1610 -0.3851  0.5083
14524SOL     OW45012   3.928   4.803  10.473 -0.3247  0.1293 -0.4629
14524SOL    HW145013   3.932   4.898  10.467 -1.2626  0.0947 -2.5131
14524SOL    HW245014   4.003   4.772  10.423  0.6769 -0.2454  1.2012
14525SOL     OW45015   4.825   3.225   9.626  0.0995 -0.1359 -0.7342
14525SOL    HW145016   4.782   3.306   9.654  0.7503 -0.1625  0.3788
14525SOL    HW245017   4.756   3.176   9.581 -0.2764  1.0647 -1.5205
14526SOL     OW45018   3.419   1.564   0.063  0.6870  0.3579 -0.3088
14526SOL    HW145019   3.413   1.472   0.037  0.4269  0.1767  0.3693
14526SOL    HW245020   3.333   1.584   0.101  0.5514  1.0436 -0.9673
14527SOL     OW45021   4.469   1.589   8.364 -0.3301  0.2342 -0.1529
14527SOL    HW145022   4.481   1.495   8.381  0.3450  0.3285 -0.0831
14527SOL    HW245023   4.484   1.630   8.449 -1.1311  0.3749 -0.0682
14528SOL     OW45024   2.309   4.180  11.684 -0.4707 -0.0944 -0.8040
14528SOL    HW145025   2.361   4.136  11.751 -1.6578 -0.4293 -0.0719
14528SOL    HW245026   2.371   4.235  11.637  0.6727 -1.0572 -0.4525
14529SOL     OW45027   3.231   3.169   9.642 -0.2948 -0.3090  0.1278
14529SOL    HW145028   3.290   3.238   9.672  1.1887 -1.6353  0.3940
14529SOL    HW245029   3.205   3.124   9.722 -0.7638 -0.4441 -0.0973
14530SOL     OW45030   3.057   3.004  11.434 -0.1692  0.1001 -0.0790
14530SOL    HW145031   2.963   2.988  11.440  0.0698 -3.1450 -2.2259
14530SOL    HW245032   3.067   3.063  11.359 -0.4991  1.7702  1.1380
14531SOL     OW45033   5.652   2.581   9.077  0.3553  0.5857 -0.0764
14531SOL    HW145034   5.653   2.493   9.115  0.0810 -0.7446 -2.9132
14531SOL    HW245035   5.559   2.602   9.068  0.3752  0.1579 -1.4708
14532SOL     OW45036   5.522   2.406  11.256  0.2275 -0.3161  0.5225
14532SOL    HW145037   5.466   2.433  11.329 -2.7801  1.0306 -2.0864
14532SOL    HW245038   5.543   2.488  11.211  2.9314 -0.9945  0.3462
14533SOL     OW45039   4.447   2.113   9.186 -0.2310  0.0437  0.0035
14533SOL    HW145040   4.518   2.157   9.140  0.3473 -1.0435 -0.1709
14533SOL    HW245041   4.483   2.028   9.211 -1.6785 -0.8092 -0.6958
14534SOL     OW45042   6.900   4.293   9.469  0.4830  0.4030 -0.3807
14534SOL    HW145043   6.935   4.245   9.545 -0.8632 -0.9358 -0.5508
14534SOL    HW245044   6.857   4.369   9.507 -0.3353 -0.3476  0.2700
14535SOL     OW45045   4.092   2.651   9.521 -0.0804 -0.2238  0.2992
14535SOL    HW145046   4.071   2.560   9.538 -0.6047  0.1843  2.0346
14535SOL    HW245047   4.144   2.649   9.440 -1.3781 -1.8853 -0.5585
14536SOL     OW45048   5.701   3.319   9.393 -0.1430  0.3013 -0.2426
14536SOL    HW145049   5.753   3.400   9.388 -0.9850  0.8568 -0.2341
14536SOL    HW245050   5.643   3.324   9.317 -1.0868  0.3405  0.4625
14537SOL     OW45051   3.260   3.055   9.881 -0.3881 -0.5895 -0.3921
14537SOL    HW145052   3.327   2.994   9.913  0.2829 -1.5459 -3.3238
14537SOL    HW245053   3.294   3.142   9.904  0.5861 -1.1526  0.4043
14538SOL     OW45054   5.707   2.895  10.203  0.0253  0.2272  0.6598
14538SOL    HW145055   5.777   2.932  10.150 -0.9669  0.2994 -0.6497
14538SOL    HW245056   5.666   2.971  10.245  0.2832  0.2515  0.8696
14539SOL     OW45057   4.254   3.030  10.427 -0.1756  0.1733 -0.5406
14539SOL    HW145058   4.288   2.982  10.352 -0.3211  2.9605 -2.5474
14539SOL    HW245059   4.173   3.070  10.396 -1.8502 -0.9558  2.0886
14540SOL     OW45060   5.683   3.013  10.461 -0.2839 -0.2377 -0.5297
14540SOL    HW145061   5.602   3.054  10.433 -0.1755 -0.2367 -0.8462
14540SOL    HW245062   5.745   3.085  10.471 -0.9665  0.0953  2.1335
14541SOL     OW45063   4.192   2.649  10.800 -0.3786 -0.0332 -0.2903
14541SOL    HW145064   4.137   2.704  10.745  0.4272  0.3132 -0.7621
14541SOL    HW245065   4.191   2.692  10.886 -1.8386 -0.7120  0.0540
14542SOL     OW45066   4.741   4.249   9.352 -0.1667 -0.3335 -0.5035
14542SOL    HW145067   4.682   4.195   9.299  0.8205 -0.0977 -1.9329
14542SOL    HW245068   4.815   4.267   9.293  0.7963  0.3065  0.8453
14543SOL     OW45069   3.521   6.256  10.819  0.3077  0.1766 -0.2855
14543SOL    HW145070   3.605   6.297  10.799 -0.3876  0.5590 -2.7788
14543SOL    HW245071   3.459   6.300  10.761 -2.1300  1.5311  3.0343
14544SOL     OW45072   4.774   3.292  12.468 -0.2855  0.1770 -0.1354
14544SOL    HW145073   4.703   3.278  12.406  0.7371 -1.6173 -0.9661
14544SOL    HW245074   4.800   3.204  12.495  1.2373  0.8160  0.5829
14545SOL     OW45075   5.773   2.249  11.178 -0.7653 -0.1354 -0.7803
14545SOL    HW145076   5.693   2.290  11.211 -0.6179  0.5260 -1.2263
14545SOL    HW245077   5.760   2.245  11.083 -0.7343 -1.0403 -0.7580
14546SOL     OW45078   6.167   4.306  10.155 -0.6056  0.1851  0.0887
14546SOL    HW145079   6.177   4.243  10.226  1.5232  1.0383  0.6373
14546SOL    HW245080   6.080   4.343  10.167 -0.7380 -0.5402  1.5242
14547SOL     OW45081   5.628   2.603  10.499  0.3691 -0.1043  0.1132
14547SOL    HW145082   5.639   2.507  10.498 -3.9701 -0.8402  1.3240
14547SOL    HW245083   5.665   2.630  10.583  1.4962 -0.6574 -0.1723
14548SOL     OW45084   2.643   4.080  11.412 -0.4141  0.2758 -0.1743
14548SOL    HW145085   2.559   4.124  11.410 -0.5617  0.1966  1.9574
14548SOL    HW245086   2.629   3.998  11.365 -0.4328  1.8970 -3.1878
14549SOL     OW45087   4.546   5.811  10.371  0.1743 -0.2338  0.1347
14549SOL    HW145088   4.537   5.746  10.441  0.9485 -1.2444 -0.6607
14549SOL    HW245089   4.617   5.777  10.316  1.0615  1.6549  0.0556
14550SOL     OW45090   3.562   2.050  10.141  0.2455 -0.5838 -0.1647
14550SOL    HW145091   3.573   2.123  10.203 -0.1154  0.6806 -1.5165
14550SOL    HW245092   3.476   2.014  10.163  0.6935 -1.0112  0.9194
14551SOL     OW45093   5.297   2.178  11.807 -0.7659  0.8235 -0.3767
14551SOL    HW145094   5.331   2.258  11.847  0.2990  0.9262 -1.4171
14551SOL    HW245095   5.362   2.155  11.740 -1.1215 -0.8343 -0.2044
14552SOL     OW45096   4.612   1.344  11.290 -0.0254 -0.5746  0.3183
14552SOL    HW145097   4.587   1.259  11.327 -0.2116 -0.9341 -0.6129
14552SOL    HW245098   4.566   1.348  11.206  0.2973  0.2769  0.1759
14553SOL     OW45099   3.373   1.729  10.795  0.0857 -0.0795 -0.4547
14553SOL    HW145100   3.344   1.777  10.873 -1.3386 -0.7411 -0.5414
14553SOL    HW245101   3.340   1.780  10.721  1.1013  0.3395 -0.6359
14554SOL     OW45102   3.979   2.801  10.379 -0.6482 -0.4110  0.4940
14554SOL    HW145103   4.072   2.815  10.401 -0.2031  1.8399 -2.2046
14554SOL    HW245104   3.981   2.734  10.311 -0.8223  0.4962 -0.4320
14555SOL     OW45105   4.522   2.744  10.071 -0.1274 -0.2221  0.2363
14555SOL    HW145106   4.515   2.650  10.087  2.0119 -0.7440 -1.4373
14555SOL    HW245107   4.479   2.758   9.986 -0.3097  0.3064  0.4070
14556SOL     OW45108   4.556   3.988  10.736 -0.1143  0.0898 -0.1239
14556SOL    HW145109   4.621   3.954  10.797 -0.2331  2.5521  1.5248
14556SOL    HW245110   4.498   3.914  10.719  2.0875 -1.6975 -0.2969
14557SOL     OW45111   4.918   3.145   9.942 -0.0360 -0.0902 -0.5333
14557SOL    HW145112   4.882   3.183  10.023  0.1509  1.0709 -0.9698
14557SOL    HW245113   4.962   3.065   9.970  1.2565  1.0145  0.7520
14558SOL     OW45114   5.565   0.601  11.267  0.4460 -0.5672 -0.9042
14558SOL    HW145115   5.537   0.670  11.327  0.4702 -1.1982 -0.1596
14558SOL    HW245116   5.656   0.622  11.248  0.0034  0.5451 -2.0200
14559SOL     OW45117   4.853   1.749   7.965 -0.0788 -0.1659 -0.1827
14559SOL    HW145118   4.867   1.843   7.977  1.2299 -0.2528 -0.8729
14559SOL    HW245119   4.785   1.727   8.029 -0.7558  1.3301 -0.3501
14560SOL     OW45120   4.508   1.723  10.812 -0.4911  0.1016  0.1834
14560SOL    HW145121   4.596   1.759  10.803 -0.1089 -0.4295  1.5272
14560SOL    HW245122   4.497   1.667  10.735  0.2788  0.3020 -0.0774
14561SOL     OW45123   7.286   1.885   8.948 -0.4403 -0.1315  0.0685
14561SOL    HW145124   7.279   1.948   8.876 -1.1106  0.9160  1.0199
14561SOL    HW245125   7.197   1.850   8.958 -0.6896  0.8068  1.3118
14562SOL     OW45126   5.489   3.487   9.002  0.0755  0.0613  0.1172
14562SOL    HW145127   5.450   3.570   8.977 -0.1390 -0.6534 -2.1483
14562SOL    HW245128   5.512   3.445   8.919  2.5212 -1.0598  1.2497
14563SOL     OW45129   5.234   1.281  11.662  0.1145  0.5697 -0.4454
14563SOL    HW145130   5.153   1.274  11.612  0.5859  0.3194 -1.2007
14563SOL    HW245131   5.265   1.191  11.671  1.2004  0.7846 -1.7033
14564SOL     OW45132   4.803   2.349   0.192 -0.0023 -0.0242  0.0914
14564SOL    HW145133   4.867   2.412   0.160  0.5921 -0.2598  0.7929
14564SOL    HW245134   4.820   2.270   0.141  0.2025 -0.0535  0.2028
14565SOL     OW45135   4.203   3.094   9.135  0.2646  0.5113 -0.3305
14565SOL    HW145136   4.248   3.073   9.053  1.1161  1.9532 -0.2634
14565SOL    HW245137   4.240   3.178   9.162 -1.0295  0.7484  0.8068
14566SOL     OW45138   6.758   3.073   9.993 -0.1361  0.1023 -0.0996
14566SOL    HW145139   6.769   2.978   9.986  1.0273  0.3066 -1.2506
14566SOL    HW245140   6.846   3.108   9.984 -0.3512  1.2506  1.6953
14567SOL     OW45141   4.665   4.221  11.976  0.2128 -0.6048 -0.8165
14567SOL    HW145142   4.588   4.255  11.931 -0.0689 -1.7805 -1.2445
14567SOL    HW245143   4.666   4.267  12.060 -1.5108 -1.2491 -0.3960
14568SOL     OW45144   5.021   1.331  12.411  0.4319 -0.1612  0.4799
14568SOL    HW145145   4.945   1.339  12.354 -0.0020  0.5380  1.1424
14568SOL    HW245146   5.086   1.285  12.357 -1.0588 -2.4663  0.5146
14569SOL     OW45147   6.330   5.109   9.413 -0.4231 -0.2439 -0.5210
14569SOL    HW145148   6.241   5.145   9.410 -0.2070  0.2496 -1.2497
14569SOL    HW245149   6.386   5.185   9.397  0.0634 -0.8254 -1.6533
14570SOL     OW45150   4.325   3.661   9.761  0.1292  0.4320  0.3204
14570SOL    HW145151   4.271   3.631   9.687  2.6790  0.1862 -1.5841
14570SOL    HW245152   4.335   3.755   9.746  0.8962  0.3310  0.1570
14571SOL     OW45153   3.926   3.662   9.957  0.3005 -0.4065 -0.1628
14571SOL    HW145154   3.972   3.741   9.931 -0.4561  1.2133  2.9136
14571SOL    HW245155   3.834   3.679   9.937  0.0517 -0.1843  1.0693
14572SOL     OW45156   4.239   3.683  10.224  0.0283  0.7314 -0.0744
14572SOL    HW145157   4.146   3.665  10.231  0.2092 -0.5160 -0.6390
14572SOL    HW245158   4.264   3.717  10.310 -0.8106  0.4594  0.2801
14573SOL     OW45159   3.191   4.439  10.104 -1.3230  0.2294 -0.3811
14573SOL    HW145160   3.115   4.469  10.053 -0.3577  1.0523 -1.3832
14573SOL    HW245161   3.266   4.485  10.065  0.0298 -2.2852 -0.9403
14574SOL     OW45162   4.911   2.229  12.055  0.0522 -0.5013  0.4896
14574SOL    HW145163   4.938   2.183  11.975  1.3050  0.8318  0.0930
14574SOL    HW245164   4.821   2.258  12.037 -0.0821 -1.2003  0.0211
14575SOL     OW45165   3.849   2.050   7.366  0.0218 -0.0718  0.5579
14575SOL    HW145166   3.838   2.120   7.431  0.9457 -0.0496  0.7048
14575SOL    HW245167   3.910   1.988   7.407  1.6383  0.5702 -0.7429
14576SOL     OW45168   4.451   1.577  11.398  0.0715 -0.3431  0.7927
14576SOL    HW145169   4.511   1.610  11.465 -0.6074  1.6172  0.5033
14576SOL    HW245170   4.508   1.551  11.325  0.6453  1.7116  0.4248
14577SOL     OW45171   5.010   3.217  11.786 -0.5034 -0.4212  0.3649
14577SOL    HW145172   5.022   3.288  11.849  2.0155  0.1563 -0.6603
14577SOL    HW245173   5.010   3.137  11.838  1.8596  0.0124  1.1340
14578SOL     OW45174   5.954   1.619   9.659 -0.1881  0.1924 -0.0248
14578SOL    HW145175   5.868   1.592   9.693 -0.3281  2.3079  1.4790
14578SOL    HW245176   6.007   1.539   9.662 -1.1484 -0.4273  2.2131
14579SOL     OW45177   6.716   6.209  12.203  0.4449 -0.1919  0.0531
14579SOL    HW145178   6.691   6.285  12.257 -0.1149 -0.0723 -0.3650
14579SOL    HW245179   6.726   6.138  12.267 -1.9961 -0.5057  0.1924
14580SOL     OW45180   4.793   1.424   8.806 -0.1994  0.1414 -0.4133
14580SOL    HW145181   4.789   1.507   8.760 -0.0682 -0.4338 -1.4853
14580SOL    HW245182   4.886   1.409   8.822 -0.2825  0.6644  0.6797
14581SOL     OW45183   5.325   2.286   8.686 -0.1057  0.1394  0.3543
14581SOL    HW145184   5.362   2.294   8.774  5.0344  0.5744 -1.4925
14581SOL    HW245185   5.323   2.191   8.670 -1.4802  0.0366  1.0273
14582SOL     OW45186   4.576   2.852   7.736 -0.3371 -0.6825  0.4798
14582SOL    HW145187   4.598   2.921   7.674 -0.1655 -0.2889  0.9734
14582SOL    HW245188   4.506   2.889   7.790 -2.1365 -1.8410 -0.9403
14583SOL     OW45189   5.130   3.473   8.387  0.2612 -0.0602  0.1150
14583SOL    HW145190   5.068   3.486   8.315  0.8272  0.4228 -0.2929
14583SOL    HW245191   5.077   3.436   8.457 -0.2009 -1.0181 -0.7183
14584SOL     OW45192   4.887   3.591  11.459 -0.1173 -0.4239  0.6998
14584SOL    HW145193   4.974   3.565  11.490  0.2226 -0.5888 -0.3459
14584SOL    HW245194   4.903   3.630  11.373 -0.9786  0.4286  0.9010
14585SOL     OW45195   5.260   3.198   9.552  0.1047  0.1177  0.0317
14585SOL    HW145196   5.181   3.247   9.527  0.9030  1.3349 -0.1849
14585SOL    HW245197   5.281   3.229   9.640  0.5444  0.0651 -0.0541
14586SOL     OW45198   4.287   3.067   9.493  0.0661  0.0161  0.1393
14586SOL    HW145199   4.263   3.155   9.464 -0.3910 -0.4346 -0.9002
14586SOL    HW245200   4.205   3.030   9.526  0.7531  0.9024  3.2423
14587SOL     OW45201   2.776   3.740  10.196  0.1646  0.0451  0.3638
14587SOL    HW145202   2.807   3.687  10.123  1.4150  1.9026 -0.5344
14587SOL    HW245203   2.795   3.830  10.170  1.4254  0.7502  3.3093
14588SOL     OW45204   4.748   4.578   9.964 -0.3528  0.0385 -0.5141
14588SOL    HW145205   4.740   4.488   9.994 -1.4496  0.1211 -0.4957
14588SOL    HW245206   4.764   4.571   9.870 -2.0659 -0.1920 -0.8312
14589SOL     OW45207   6.772   2.451  10.660 -0.2616 -0.0729  0.1756
14589SOL    HW145208   6.800   2.432  10.571  0.3589 -1.0753  0.5648
14589SOL    HW245209   6.679   2.427  10.661 -0.5419  0.9520 -0.4714
14590SOL     OW45210   1.686   2.402   9.998 -0.1936  0.2885 -0.3596
14590SOL    HW145211   1.656   2.462   9.930 -2.0074  1.0105  0.9757
14590SOL    HW245212   1.619   2.334  10.002 -0.0428  0.1706  0.5523
14591SOL     OW45213   2.802   2.957  11.103  0.0527 -0.2348  0.3717
14591SOL    HW145214   2.777   3.043  11.136  1.3071 -0.3145  1.6121
14591SOL    HW245215   2.817   2.971  11.009  2.4285  1.4815  0.8938
14592SOL     OW45216   3.739   2.413  11.222 -0.1759  0.2972  0.8760
14592SOL    HW145217   3.702   2.410  11.134 -0.8075  0.8087  1.1254
14592SOL    HW245218   3.749   2.321  11.246  2.6050  0.0048 -0.7912
14593SOL     OW45219   4.445   1.230  11.617  0.0943 -0.1382 -0.0298
14593SOL    HW145220   4.455   1.173  11.541 -0.9194  0.9697 -1.0363
14593SOL    HW245221   4.384   1.298  11.588  1.5238  1.6678  0.9855
14594SOL     OW45222   5.435   1.735  10.942 -0.3554 -0.1658 -0.0257
14594SOL    HW145223   5.343   1.728  10.917  0.1096 -1.8686 -1.4222
14594SOL    HW245224   5.444   1.675  11.016 -0.6777  1.2251  1.1871
14595SOL     OW45225   5.548   2.337   9.740  0.3345  0.4650 -0.5251
14595SOL    HW145226   5.601   2.331   9.661  0.6247 -1.7717 -0.2326
14595SOL    HW245227   5.610   2.324   9.811 -0.3344 -0.5357 -0.1003
14596SOL     OW45228   5.367   2.286   8.975 -0.1806 -0.4644  0.4489
14596SOL    HW145229   5.316   2.336   9.038  2.0266  2.8767 -0.1314
14596SOL    HW245230   5.424   2.230   9.028  0.7868  1.3955  1.4621
14597SOL     OW45231   5.489   1.164   8.971  0.0722  0.3542  0.2476
14597SOL    HW145232   5.394   1.173   8.957 -0.1841 -1.5303  0.5365
14597SOL    HW245233   5.513   1.243   9.019 -0.9624  1.8525 -1.5636
14598SOL     OW45234   5.827   2.837   9.900 -0.1234 -0.0008  0.1381
14598SOL    HW145235   5.902   2.895   9.913  0.5158 -0.9357  0.8059
14598SOL    HW245236   5.780   2.874   9.826  0.6562  0.9648  0.1096
14599SOL     OW45237   4.195   2.484   9.040 -0.2564 -0.3437  0.2076
14599SOL    HW145238   4.238   2.466   8.956 -0.3419 -0.0956  0.1093
14599SOL    HW245239   4.140   2.561   9.023 -0.1808 -0.2168  0.5224
14600SOL     OW45240   4.812   2.102   8.827 -0.0126 -0.2475  0.1001
14600SOL    HW145241   4.899   2.141   8.826 -0.3707  0.5614 -0.3686
14600SOL    HW245242   4.774   2.129   8.910 -0.2476  0.3842 -0.2101
14601SOL     OW45243   4.403   2.845   0.714  0.1200 -0.1816  0.6592
14601SOL    HW145244   4.370   2.932   0.738 -2.5951 -0.7713 -0.5822
14601SOL    HW245245   4.439   2.810   0.796  2.8732  2.6703  0.8338
14602SOL     OW45246   4.709   3.698   9.999  0.3206  0.3952  0.2759
14602SOL    HW145247   4.735   3.607  10.013  0.6102  0.0226 -2.2426
14602SOL    HW245248   4.617   3.701  10.025  0.1417 -0.7684 -0.1664
14603SOL     OW45249   5.629   4.945   9.440  0.1351 -0.1268 -0.2453
14603SOL    HW145250   5.706   4.888   9.448  1.2644  1.5741  2.5232
14603SOL    HW245251   5.622   4.964   9.347  1.7069 -2.0671 -0.8323
14604SOL     OW45252   5.527   3.075  12.033  0.0242  0.0062 -0.4626
14604SOL    HW145253   5.526   2.991  12.078  0.3576  0.3129  0.1228
14604SOL    HW245254   5.619   3.101  12.032 -0.2516  1.1515  0.8509
14605SOL     OW45255   6.169   2.674   7.692 -0.3758 -0.3649 -0.0783
14605SOL    HW145256   6.160   2.697   7.784  0.4391  0.8434 -0.2825
14605SOL    HW245257   6.102   2.607   7.677  0.6055 -1.8276  1.7859
14606SOL     OW45258   5.882   3.133  11.044  0.1030  0.5216 -0.0202
14606SOL    HW145259   5.838   3.172  11.119  0.5355 -0.8188  0.9746
14606SOL    HW245260   5.934   3.204  11.007 -0.5014  1.3286  0.6403
14607SOL     OW45261   3.995   4.256   9.791 -0.7238 -0.3826 -0.0302
14607SOL    HW145262   3.936   4.305   9.735 -0.3279  0.7918  0.5503
14607SOL    HW245263   4.041   4.197   9.732 -1.1627 -0.0102 -0.7552
14608SOL     OW45264   3.800   2.025   9.844  0.1338 -0.8637  0.3209
14608SOL    HW145265   3.740   1.958   9.877 -0.1882  0.0657  1.6976
14608SOL    HW245266   3.818   2.081   9.919  0.8238  0.2910 -0.6585
14609SOL     OW45267   5.042   1.307  11.434  0.0139 -0.0137  0.8465
14609SOL    HW145268   5.036   1.400  11.452 -1.3900 -0.2524  1.7244
14609SOL    HW245269   5.002   1.297  11.347 -0.9409  0.0595  1.2683
14610SOL     OW45270   1.987   3.933  10.249  0.8312 -0.5996 -0.5829
14610SOL    HW145271   1.917   3.997  10.261  1.3857 -0.0832 -0.0204
14610SOL    HW245272   1.978   3.904  10.158 -0.6937 -1.2607 -0.2422
14611SOL     OW45273   4.306   1.009  10.911 -0.3508  0.1175 -0.0591
14611SOL    HW145274   4.284   1.075  10.977  1.8605  1.4378 -0.5083
14611SOL    HW245275   4.391   0.974  10.939 -0.7396 -1.4303 -0.6821
14612SOL     OW45276   4.540   3.128   9.837 -0.2172  0.1937  0.1256
14612SOL    HW145277   4.622   3.080   9.831 -1.0006 -1.4132  1.1997
14612SOL    HW245278   4.552   3.205   9.782  1.2655 -1.0400 -1.3863
14613SOL     OW45279   5.480   3.175   9.917  0.4314  0.3829 -0.2813
14613SOL    HW145280   5.398   3.186   9.869  0.5390 -1.8782 -1.0862
14613SOL    HW245281   5.471   3.092   9.963  1.5716  0.9934  1.1274
14614SOL     OW45282   6.818   0.665   9.797  0.4770 -0.0926  0.5386
14614SOL    HW145283   6.731   0.629   9.811  0.9518 -1.7972 -0.6447
14614SOL    HW245284   6.831   0.660   9.702  1.7713  0.3545  0.6759
14615SOL     OW45285   2.896   2.561   8.911 -0.4818  0.3390  0.2546
14615SOL    HW145286   2.977   2.536   8.866 -0.6609  1.3316 -0.6601
14615SOL    HW245287   2.841   2.483   8.908 -1.0326  0.7263 -2.5466
14616SOL     OW45288   5.397   1.884   0.171  0.0654 -0.1891  0.7691
14616SOL    HW145289   5.390   1.961   0.228 -0.0757  0.8150 -0.5523
14616SOL    HW245290   5.469   1.833   0.207  0.8389  1.0916  1.0818
14617SOL     OW45291   6.138   1.837  11.148 -0.6417 -0.3840  0.1275
14617SOL    HW145292   6.061   1.889  11.126 -1.1164 -1.7082 -1.5281
14617SOL    HW245293   6.147   1.775  11.076  1.1231 -1.2312  1.0090
14618SOL     OW45294   3.383   1.795  10.466  0.0857  0.0976 -0.1305
14618SOL    HW145295   3.435   1.742  10.406  1.6037  1.4169 -0.0551
14618SOL    HW245296   3.446   1.830  10.529 -1.0862  0.7662  0.7361
14619SOL     OW45297   4.236   1.934  10.614  0.0837 -0.4154 -0.0536
14619SOL    HW145298   4.260   1.849  10.652 -2.0278 -1.2898 -0.5559
14619SOL    HW245299   4.281   1.937  10.530 -1.7263 -2.2163 -1.1790
14620SOL     OW45300   3.347   4.595   9.944 -0.0450 -0.0210 -0.3440
14620SOL    HW145301   3.438   4.620   9.962  0.6542 -1.9027 -0.9350
14620SOL    HW245302   3.310   4.669   9.895  1.3634  0.5318 -0.6188
14621SOL     OW45303   5.276   2.260  11.272  0.7103 -0.2194 -0.3498
14621SOL    HW145304   5.256   2.279  11.364 -0.1391 -0.2220 -0.5348
14621SOL    HW245305   5.296   2.346  11.234  2.4149 -0.3594  0.1443
14622SOL     OW45306   5.729   1.759  11.129 -0.3748 -0.3135 -0.0853
14622SOL    HW145307   5.727   1.799  11.216 -0.8014 -0.8643  0.1615
14622SOL    HW245308   5.676   1.818  11.074  0.8294  0.6591 -0.2612
14623SOL     OW45309   1.269   3.351  11.820 -0.0138 -0.1813 -0.0141
14623SOL    HW145310   1.362   3.344  11.796  0.2432  2.4084 -0.0679
14623SOL    HW245311   1.227   3.385  11.741 -0.4889  1.2691  0.8357
14624SOL     OW45312   2.752   3.452   9.837 -0.2205 -0.4324 -0.3440
14624SOL    HW145313   2.821   3.389   9.815 -0.4692 -0.8845  0.1496
14624SOL    HW245314   2.798   3.536   9.843  0.8544 -1.0868  2.5553
14625SOL     OW45315   2.369   2.163  11.123  0.2048 -0.2056  0.1539
14625SOL    HW145316   2.436   2.177  11.056 -0.7773 -1.6929 -1.2097
14625SOL    HW245317   2.374   2.070  11.143  0.1806  0.1311  1.8653
14626SOL     OW45318   5.642   2.685  11.441 -0.2745  0.7574 -0.0514
14626SOL    HW145319   5.554   2.718  11.457 -1.4035 -1.4633 -1.1791
14626SOL    HW245320   5.642   2.661  11.348  1.7165  1.1974 -0.2040
14627SOL     OW45321   3.362   2.541  10.457 -0.7823  0.0505  0.0562
14627SOL    HW145322   3.383   2.541  10.363  0.3638 -1.2027  0.2772
14627SOL    HW245323   3.340   2.632  10.476 -0.2499  0.4960 -1.2662
14628SOL     OW45324   6.646   3.200  10.220 -0.1781 -0.1573 -0.6987
14628SOL    HW145325   6.675   3.170  10.134 -0.0068 -1.3989 -0.2295
14628SOL    HW245326   6.680   3.134  10.281 -1.4108 -0.0134  0.1808
14629SOL     OW45327   5.432   3.974  10.658 -0.1397 -0.1933  0.4257
14629SOL    HW145328   5.505   4.034  10.638  0.7043 -1.5001 -0.5592
14629SOL    HW245329   5.376   3.979  10.581  0.3052 -1.1779  0.0241
14630SOL     OW45330   3.768   2.955  11.051  0.4207 -0.2929  0.6022
14630SOL    HW145331   3.716   3.005  11.115  0.0819  0.1576 -0.0165
14630SOL    HW245332   3.705   2.896  11.010  0.5645 -0.3279  0.4319
14631SOL     OW45333   6.515   2.597  10.185 -0.1250 -0.3637 -0.2892
14631SOL    HW145334   6.562   2.514  10.178  2.7187  1.1344 -0.4540
14631SOL    HW245335   6.497   2.621  10.094 -1.5155 -1.0477 -0.2169
14632SOL     OW45336   3.610   1.069  10.851  0.3627 -0.5784  0.1687
14632SOL    HW145337   3.662   1.028  10.921  3.6504  2.4161 -0.2354
14632SOL    HW245338   3.650   1.037  10.770 -0.5493 -0.6747 -0.2460
14633SOL     OW45339   6.553   1.661   8.784 -0.6815  0.3289 -0.2583
14633SOL    HW145340   6.549   1.586   8.725 -1.1122 -0.5274  0.8088
14633SOL    HW245341   6.461   1.682   8.802 -0.5719 -0.1928  1.0121
14634SOL     OW45342   7.005   2.628   8.535  0.1704 -0.0753  0.0653
14634SOL    HW145343   7.061   2.694   8.494 -1.1722  0.6807 -0.6239
14634SOL    HW245344   6.916   2.658   8.517 -0.4657 -1.2667  1.0886
14635SOL     OW45345   3.785   2.355   9.585  0.0248 -0.5919 -0.7528
14635SOL    HW145346   3.718   2.288   9.594 -0.3782 -0.1206 -0.1786
14635SOL    HW245347   3.818   2.344   9.496 -1.9065  0.1892 -1.6056
14636SOL     OW45348   2.779   2.990  10.806  0.3901  0.1135 -0.2084
14636SOL    HW145349   2.766   3.077  10.844  0.0097  0.7105 -1.6249
14636SOL    HW245350   2.758   3.001  10.713 -1.2000 -1.8472 -0.1530
14637SOL     OW45351   3.281   3.608   8.912  0.1255 -0.1134 -0.4924
14637SOL    HW145352   3.361   3.653   8.939  0.0590 -0.3083  0.0486
14637SOL    HW245353   3.279   3.618   8.817  0.1486  0.9618 -0.3941
14638SOL     OW45354   6.062   3.574  12.118 -0.8299  0.3892 -0.3041
14638SOL    HW145355   6.039   3.549  12.028 -0.3987 -1.6516  0.0977
14638SOL    HW245356   6.122   3.648  12.108  1.0662 -1.2455 -1.8620
14639SOL     OW45357   3.590   1.607  10.660  0.4259  0.0472 -0.2134
14639SOL    HW145358   3.506   1.622  10.704  0.5059  2.5326 -0.7401
14639SOL    HW245359   3.648   1.672  10.699  1.6029 -0.4103 -1.1652
14640SOL     OW45360   2.908   4.514   8.950  0.1619 -0.3810  0.0884
14640SOL    HW145361   2.930   4.432   8.906 -1.3313 -0.4802 -0.5187
14640SOL    HW245362   2.870   4.569   8.881 -0.9945 -0.0549  0.9533
14641SOL     OW45363   4.970   3.255  10.384  0.2393  0.5171 -0.2857
14641SOL    HW145364   5.037   3.192  10.357 -0.4066 -1.8301  2.9834
14641SOL    HW245365   5.014   3.340  10.378  2.5989 -0.6469 -0.8308
14642SOL     OW45366   3.580   0.463   9.961 -0.3032 -0.6706  0.1222
14642SOL    HW145367   3.573   0.371   9.985 -1.5575 -0.2670  1.4719
14642SOL    HW245368   3.557   0.466   9.868  0.9817 -1.8445 -0.2718
14643SOL     OW45369   3.646   2.286  10.285 -0.1078 -0.5901  0.0006
14643SOL    HW145370   3.679   2.312  10.199 -0.4853 -0.0482  0.0127
14643SOL    HW245371   3.551   2.301  10.279  0.1705  2.4256  1.5071
14644SOL     OW45372   3.963   2.345  12.116 -0.5391  0.0256 -0.2137
14644SOL    HW145373   3.971   2.272  12.054  1.8345  0.1143 -0.0998
14644SOL    HW245374   4.012   2.416  12.076 -0.4338  0.6475  0.9795
14645SOL     OW45375   4.215   2.810  11.068 -0.4614  0.4523  0.2518
14645SOL    HW145376   4.161   2.886  11.091 -0.3040  0.1676  1.6680
14645SOL    HW245377   4.161   2.735  11.093  0.1875  0.1484  0.7669
14646SOL     OW45378   3.484   2.268  12.497  0.1715  0.5828  0.5326
14646SOL    HW145379   3.391   2.283  12.513 -0.2686 -1.8776  0.5207
14646SOL    HW245380   3.528   2.323  12.563 -1.3710 -0.3501  2.4469
14647SOL     OW45381   4.689   2.988  10.207 -0.1388 -0.3217 -0.6482
14647SOL    HW145382   4.653   2.929  10.273 -2.3614  1.1110 -0.4901
14647SOL    HW245383   4.679   2.940  10.124  0.2671 -1.0813 -0.2662
14648SOL     OW45384   3.104   3.788  12.362 -0.0532  0.0481 -0.0530
14648SOL    HW145385   3.154   3.724  12.311 -0.6099 -0.2502 -0.2359
14648SOL    HW245386   3.078   3.855  12.298  0.4951  0.4416  0.1306
14649SOL     OW45387   2.862   4.730   9.733 -0.1419  0.2197 -0.0660
14649SOL    HW145388   2.814   4.649   9.716  0.6269 -0.4948  1.0092
14649SOL    HW245389   2.881   4.766   9.646  0.8742 -1.5854 -0.6552
14650SOL     OW45390   2.865   2.640  10.315  0.2107  0.4608 -0.0952
14650SOL    HW145391   2.793   2.592  10.274  0.7595 -0.4102 -0.0709
14650SOL    HW245392   2.859   2.729  10.279 -1.5680  0.7401  0.7683
14651SOL     OW45393   4.553   1.169   9.925 -0.5137 -0.4119 -0.3598
14651SOL    HW145394   4.550   1.128  10.011 -0.5865 -0.8503 -0.5653
14651SOL    HW245395   4.512   1.255   9.937  0.3842 -0.0675  0.2564
14652SOL     OW45396   3.611   4.554  10.011 -0.6332 -0.4312  0.4970
14652SOL    HW145397   3.627   4.557  10.105  0.9910 -0.6290  0.2490
14652SOL    HW245398   3.652   4.472   9.982 -0.6588 -0.1163 -0.4648
14653SOL     OW45399   4.585   3.621  10.619  0.4906 -0.1626  0.1224
14653SOL    HW145400   4.535   3.697  10.650 -0.6413 -0.5286 -0.7726
14653SOL    HW245401   4.611   3.645  10.530  1.3387 -0.2598  0.3369
14654SOL     OW45402   6.035   3.017   9.892 -0.0633  0.2265  0.4511
14654SOL    HW145403   6.103   3.084   9.883  0.7622 -0.8103 -1.6191
14654SOL    HW245404   6.038   2.968   9.809 -1.6515 -1.4187  1.2953
14655SOL     OW45405   5.034   1.657   9.737 -0.4846 -0.5076 -0.1384
14655SOL    HW145406   5.054   1.610   9.656 -0.8172 -1.8801  0.5381
14655SOL    HW245407   5.049   1.749   9.716  1.2508 -0.9855 -1.2102
14656SOL     OW45408   5.446   3.149  10.673  0.8070  0.3458  0.5153
14656SOL    HW145409   5.467   3.076  10.616  0.4719  0.4575  0.2457
14656SOL    HW245410   5.512   3.146  10.742 -1.4246 -2.6533  2.7830
14657SOL     OW45411   2.931   3.531  10.073  0.3129  0.1769 -0.1056
14657SOL    HW145412   2.995   3.520  10.003 -0.9726 -1.4648 -1.0921
14657SOL    HW245413   2.915   3.442  10.105  0.6893  0.8628  2.1607
14658SOL     OW45414   5.780   4.650  11.056  0.4500  0.1941  0.0635
14658SOL    HW145415   5.766   4.580  10.993  0.6653 -0.1129  0.3486
14658SOL    HW245416   5.873   4.641  11.081 -0.0991 -0.9838  1.9245
14659SOL     OW45417   6.558   1.497   8.578 -0.3175  0.3934  0.1614
14659SOL    HW145418   6.573   1.405   8.598  1.5392  0.6380  0.0834
14659SOL    HW245419   6.644   1.530   8.551 -0.1201  2.9358  3.3671
14660SOL     OW45420   6.503   3.836   8.321 -0.3064  0.4934 -0.4009
14660SOL    HW145421   6.426   3.803   8.366 -1.4680  2.6222 -0.6780
14660SOL    HW245422   6.567   3.851   8.391 -0.1720 -1.1087 -0.1530
14661SOL     OW45423   3.496   5.369  10.442  0.2685  0.3261 -0.0401
14661SOL    HW145424   3.518   5.394  10.532  0.0713  0.4650 -0.0299
14661SOL    HW245425   3.401   5.359  10.443  0.1933  0.9494 -0.3879
14662SOL     OW45426   3.992   2.637   8.919  0.5330  0.1146 -0.7497
14662SOL    HW145427   4.001   2.732   8.926  1.7815 -0.0299 -0.0023
14662SOL    HW245428   4.008   2.618   8.827 -1.2211  0.7437 -1.2205
14663SOL     OW45429   4.883   3.315  11.525  0.6619 -0.3017 -0.4899
14663SOL    HW145430   4.858   3.407  11.527  1.4536 -0.0791  1.2255
14663SOL    HW245431   4.940   3.304  11.602  0.9474 -2.1163 -0.9117
14664SOL     OW45432   4.510   4.885   9.613  0.2714 -0.0868 -0.9066
14664SOL    HW145433   4.508   4.793   9.638 -1.5289 -0.0707 -0.8746
14664SOL    HW245434   4.538   4.885   9.522 -0.9693 -0.7982 -1.3124
14665SOL     OW45435   5.351   2.726  11.122 -0.0764 -0.7919  0.0715
14665SOL    HW145436   5.299   2.785  11.177 -0.1837 -0.7703 -0.0529
14665SOL    HW245437   5.328   2.751  11.032  0.9307 -0.0729  0.0029
14666SOL     OW45438   6.101   2.272   8.714 -0.0425 -0.3083 -0.0026
14666SOL    HW145439   6.049   2.277   8.634  2.0401  1.0748 -1.3714
14666SOL    HW245440   6.091   2.358   8.755  0.2597 -0.4130  0.3042
14667SOL     OW45441   5.486   3.171  10.341 -0.7852 -0.2868  0.0974
14667SOL    HW145442   5.392   3.184  10.329 -0.8530 -1.2333 -0.5234
14667SOL    HW245443   5.525   3.254  10.313 -1.4134 -0.0198 -0.0075
14668SOL     OW45444   3.114   3.834  10.117  0.1604 -0.1778 -0.5636
14668SOL    HW145445   3.127   3.875  10.202 -0.8267  1.2132 -1.0351
14668SOL    HW245446   3.170   3.756  10.118  0.5469  0.0951  1.1430
14669SOL     OW45447   3.979   2.979   9.234 -0.1304 -0.7402  0.2345
14669SOL    HW145448   4.055   3.022   9.194 -0.5853  0.1044  0.2627
14669SOL    HW245449   3.908   3.044   9.227 -0.7793 -1.4168  0.4480
14670SOL     OW45450   2.712   3.098  10.241 -0.0405 -0.3809 -0.7540
14670SOL    HW145451   2.786   3.156  10.226 -1.0213  0.7356 -1.5244
14670SOL    HW245452   2.701   3.096  10.336 -1.8235  3.2386 -0.7072
14671SOL     OW45453   4.998   2.389  10.896 -0.1868 -0.3299 -0.0836
14671SOL    HW145454   4.980   2.361  10.807  2.0093 -0.6537 -0.4864
14671SOL    HW245455   5.015   2.483  10.888 -2.4584  0.1775  0.4419
14672SOL     OW45456   3.982   3.586  10.207  0.1485 -0.1094 -0.2943
14672SOL    HW145457   3.942   3.613  10.124  1.7629  1.4993 -0.5934
14672SOL    HW245458   3.996   3.492  10.197  1.5578  0.2655 -2.4366
14673SOL     OW45459   4.245   1.638  12.384 -0.1552 -0.3961  0.2134
14673SOL    HW145460   4.228   1.732  12.390 -4.9502 -0.7541 -2.4434
14673SOL    HW245461   4.203   1.600  12.462 -0.9387 -0.4487 -0.2167
14674SOL     OW45462   4.118   4.923   9.465  0.4028  0.2951  0.3444
14674SOL    HW145463   4.176   4.990   9.502 -1.3315  1.4767  1.0603
14674SOL    HW245464   4.127   4.933   9.370  1.2256  0.5965  0.4520
14675SOL     OW45465   5.427   2.069  10.144 -0.2173 -0.1657  0.2421
14675SOL    HW145466   5.519   2.052  10.128 -0.6286 -0.9671 -1.5755
14675SOL    HW245467   5.393   2.098  10.059 -1.4357  1.1740  1.1282
14676SOL     OW45468   2.648   1.685  11.401 -0.1138  0.7749 -0.0216
14676SOL    HW145469   2.701   1.633  11.462 -0.3537  0.6548  0.0832
14676SOL    HW245470   2.705   1.698  11.325  0.6936  2.0653  0.7549
14677SOL     OW45471   4.600   3.055   0.610 -0.4887 -0.6741  0.3562
14677SOL    HW145472   4.621   3.051   0.703 -1.0639  0.5185  0.5480
14677SOL    HW245473   4.505   3.050   0.606 -0.5157  0.1042 -0.1105
14678SOL     OW45474   2.681   0.443   9.688 -0.1253  0.1541  0.3995
14678SOL    HW145475   2.675   0.375   9.621  0.7327  0.8054 -0.3681
14678SOL    HW245476   2.610   0.423   9.749 -0.4483 -0.8972 -0.2911
14679SOL     OW45477   5.221   3.673  12.211  0.0097 -0.3278 -0.5537
14679SOL    HW145478   5.278   3.597  12.204 -2.0511 -1.8950 -1.6910
14679SOL    HW245479   5.264   3.741  12.160  0.6312 -1.6090 -1.8013
14680SOL     OW45480   1.795   2.323   8.765 -0.3078  0.4170 -0.0235
14680SOL    HW145481   1.711   2.313   8.810 -0.5351  0.2470 -0.4845
14680SOL    HW245482   1.849   2.252   8.800  0.2158  1.5208  1.5291
14681SOL     OW45483   6.060   4.161   7.466 -0.2407 -0.4266 -0.3221
14681SOL    HW145484   6.127   4.229   7.471 -2.0697  1.3794  1.0722
14681SOL    HW245485   6.086   4.096   7.531 -0.2245  0.6274  0.7378
14682SOL     OW45486   4.037   3.884   0.824  0.0061  0.7168 -0.0128
14682SOL    HW145487   4.045   3.857   0.733  2.2595  3.0066 -0.5960
14682SOL    HW245488   3.954   3.932   0.828 -0.9979 -0.9062 -0.3571
14683SOL     OW45489   5.083   1.581   8.620 -0.3618 -0.0076 -0.1969
14683SOL    HW145490   5.014   1.621   8.568 -1.7197 -0.4671  1.1610
14683SOL    HW245491   5.055   1.592   8.711  0.3104 -2.0340  0.3157
14684SOL     OW45492   3.499   0.618  11.246 -0.2288  0.0647  0.1591
14684SOL    HW145493   3.530   0.708  11.245  0.6571 -0.2269 -0.9898
14684SOL    HW245494   3.431   0.615  11.178 -0.0978 -0.1758  0.0345
14685SOL     OW45495   5.758   2.221  10.909  0.3899 -0.6792  0.0743
14685SOL    HW145496   5.796   2.265  10.834 -0.5887  1.2315  0.6453
14685SOL    HW245497   5.713   2.145  10.873 -1.9723  1.3692 -1.6592
14686SOL     OW45498   5.950   2.397   0.563 -0.1643 -0.3480 -0.2100
14686SOL    HW145499   6.044   2.402   0.545 -0.2084  0.5658 -0.1963
14686SOL    HW245500   5.909   2.443   0.490 -0.4525  1.6493  1.1478
14687SOL     OW45501   5.230   3.579  11.022  0.1321  0.8862 -0.1727
14687SOL    HW145502   5.221   3.498  11.072  0.0041  1.6958  1.1616
14687SOL    HW245503   5.307   3.564  10.967  1.3677  0.5693  1.5385
14688SOL     OW45504   2.572   2.779  10.416 -0.2202 -0.5224  0.5676
14688SOL    HW145505   2.544   2.698  10.459 -0.2395 -1.8344 -1.6969
14688SOL    HW245506   2.580   2.754  10.323 -0.1210  2.0669 -0.1882
14689SOL     OW45507   2.967   3.438   8.785  0.0698 -0.1537 -0.2311
14689SOL    HW145508   2.874   3.424   8.805  0.3541  0.3495  1.5785
14689SOL    HW245509   2.970   3.524   8.743 -0.1745  0.3315  0.7225
14690SOL     OW45510   4.928   3.704   9.680 -0.2945  0.1805  0.5311
14690SOL    HW145511   4.981   3.776   9.644  0.3193 -1.5374 -2.3496
14690SOL    HW245512   4.838   3.736   9.676  0.1499  1.6180  1.5145
14691SOL     OW45513   4.435   2.483  10.051 -0.2117 -0.1311  0.0024
14691SOL    HW145514   4.399   2.452  10.134  0.3535 -2.1054 -0.4238
14691SOL    HW245515   4.365   2.468   9.987  0.5076 -1.9204 -0.4396
14692SOL     OW45516   4.415   2.856  11.268  0.2908 -0.2327 -0.5969
14692SOL    HW145517   4.347   2.846  11.202 -0.4548  0.3470  0.0540
14692SOL    HW245518   4.386   2.931  11.320 -0.9449 -2.5940  2.4680
14693SOL     OW45519   4.247   2.466   9.345  0.3015  0.3342 -0.3717
14693SOL    HW145520   4.207   2.393   9.298 -0.2423  0.5353 -0.2399
14693SOL    HW245521   4.225   2.544   9.293 -0.0117  0.5170  0.0236
14694SOL     OW45522   5.849   2.390   7.867  0.3609  0.3137  0.3457
14694SOL    HW145523   5.778   2.439   7.909  0.7440  2.1958 -1.0973
14694SOL    HW245524   5.884   2.449   7.801  2.3006 -1.1325 -0.0222
14695SOL     OW45525   5.529   4.022  10.036 -0.1062 -0.0541  0.1492
14695SOL    HW145526   5.503   3.930  10.029 -1.2969  0.3114 -0.8075
14695SOL    HW245527   5.449   4.067  10.064  0.1913  0.7967 -0.3221
14696SOL     OW45528   5.236   2.512  11.915 -0.3114 -0.3612  0.3863
14696SOL    HW145529   5.149   2.551  11.928 -0.1401 -0.6991  3.0299
14696SOL    HW245530   5.243   2.446  11.984  1.6237 -1.1386 -0.5028
14697SOL     OW45531   2.815   3.120  11.550 -0.1544 -0.2941 -0.2967
14697SOL    HW145532   2.843   3.117  11.641  0.7875 -2.6116 -0.6034
14697SOL    HW245533   2.789   3.211  11.536  0.5809  0.3306  1.9970
14698SOL     OW45534   5.792   1.600   9.927 -0.4697  0.8771  0.1534
14698SOL    HW145535   5.875   1.625   9.965  1.3215 -0.1722 -2.7189
14698SOL    HW245536   5.757   1.681   9.888  0.6656  0.8195 -1.0521
14699SOL     OW45537   4.698   1.169   8.856  0.7505 -0.4804 -0.0490
14699SOL    HW145538   4.734   1.253   8.825 -0.2794  0.3117  0.8290
14699SOL    HW245539   4.774   1.122   8.890  1.3711  0.0251 -0.6867
14700SOL     OW45540   5.791   2.570   9.830 -0.2639 -0.0494  0.5734
14700SOL    HW145541   5.820   2.658   9.853 -0.3946 -0.1289  1.0668
14700SOL    HW245542   5.790   2.523   9.914  2.3923 -1.2980  0.0446
14701SOL     OW45543   3.067   5.199  10.826  0.1112  0.1416  0.3746
14701SOL    HW145544   2.977   5.230  10.820  0.7871  1.9394 -3.6616
14701SOL    HW245545   3.061   5.105  10.809 -0.9873  0.2843 -0.0924
14702SOL     OW45546   3.611   3.425  10.244  0.2972  0.0328 -0.7779
14702SOL    HW145547   3.678   3.364  10.214 -1.1158 -1.6637 -0.6297
14702SOL    HW245548   3.628   3.436  10.338 -0.1158 -1.0958 -0.5524
14703SOL     OW45549   6.299   2.184  10.341  0.1691  0.3411  0.6306
14703SOL    HW145550   6.205   2.193  10.327  0.0668  1.1668  1.7061
14703SOL    HW245551   6.338   2.238  10.272 -0.1921  1.2045  1.0931
14704SOL     OW45552   2.135   2.006  11.721  0.0434  0.0900  0.8073
14704SOL    HW145553   2.156   1.913  11.717 -4.0176 -0.9496 -1.8383
14704SOL    HW245554   2.064   2.013  11.784 -0.8946  1.0085 -0.2886
14705SOL     OW45555   4.704   2.913   9.715  0.1029  0.3422  0.1641
14705SOL    HW145556   4.672   2.824   9.727  0.0056  0.5694  1.9367
14705SOL    HW245557   4.798   2.907   9.734  0.6492  0.1861 -2.2781
14706SOL     OW45558   5.794   4.921  10.568 -0.0022  0.3411  0.4533
14706SOL    HW145559   5.776   4.869  10.647 -0.0817  0.6292  0.6294
14706SOL    HW245560   5.805   4.857  10.499  1.5486 -0.0048  0.9819
14707SOL     OW45561   5.868   1.854   7.917 -0.5327 -0.2887  0.6661
14707SOL    HW145562   5.797   1.906   7.954 -0.9400 -0.4689  0.1390
14707SOL    HW245563   5.842   1.763   7.933 -1.1230 -0.3973 -0.7966
14708SOL     OW45564   4.319   1.924  10.322  0.0682 -0.7104  0.0573
14708SOL    HW145565   4.363   1.840  10.338  0.9702 -0.2872 -0.1138
14708SOL    HW245566   4.389   1.982  10.292 -0.8439 -0.3910 -1.5885
14709SOL     OW45567   4.686   1.195  10.519 -0.6516 -0.6892 -0.1471
14709SOL    HW145568   4.668   1.102  10.534  0.1068 -0.9150 -0.5977
14709SOL    HW245569   4.766   1.196  10.467 -0.9746  0.1993 -0.6460
14710SOL     OW45570   3.604   2.147  11.271  0.0406 -0.3115 -0.0108
14710SOL    HW145571   3.521   2.172  11.230 -0.3695 -0.9278  0.4294
14710SOL    HW245572   3.591   2.166  11.364 -0.4907 -2.6247  0.4369
14711SOL     OW45573   5.022   1.828   1.002  0.3568 -0.2226  0.1547
14711SOL    HW145574   5.090   1.845   1.067  0.5146  0.8331 -0.2669
14711SOL    HW245575   4.941   1.861   1.042  0.4564  0.4416 -0.1763
14712SOL     OW45576   5.858   1.323   0.769 -0.2840 -0.4687  0.1662
14712SOL    HW145577   5.783   1.370   0.806  0.0075  0.1200  0.0212
14712SOL    HW245578   5.819   1.250   0.721 -0.9899  1.3072 -2.1594
14713SOL     OW45579   3.402   4.174   1.866 -0.1655 -0.2613 -0.0560
14713SOL    HW145580   3.320   4.153   1.821 -0.2941  0.0998  0.0020
14713SOL    HW245581   3.470   4.139   1.809 -0.3734 -0.8804  0.0735
14714SOL     OW45582   4.621   2.674  10.739 -0.0285 -0.0038 -0.5332
14714SOL    HW145583   4.648   2.689  10.648  0.4577  0.8867 -0.2502
14714SOL    HW245584   4.572   2.752  10.763  1.6142  0.7173  0.6301
14715SOL     OW45585   3.287   2.152  11.580 -0.4410  0.4118  0.3994
14715SOL    HW145586   3.245   2.214  11.638 -1.0316  0.2300  0.1728
14715SOL    HW245587   3.230   2.149  11.503  0.4858  0.8876 -0.3251
14716SOL     OW45588   5.965   1.436  11.350 -0.7410 -0.5359 -0.0698
14716SOL    HW145589   6.017   1.469  11.277 -0.3492  0.7829  0.7891
14716SOL    HW245590   5.928   1.353  11.317  0.3212 -0.5272 -1.3594
14717SOL     OW45591   5.047   4.075   1.336  0.5270 -0.1334 -0.2118
14717SOL    HW145592   4.953   4.085   1.355  0.1668 -1.2556 -1.2817
14717SOL    HW245593   5.064   4.137   1.266  0.6786  0.3109  0.2086
14718SOL     OW45594   4.225   1.966   0.213 -0.2223  0.2850 -0.2416
14718SOL    HW145595   4.177   1.963   0.296 -0.6629 -1.4252 -0.5071
14718SOL    HW245596   4.307   1.920   0.230  0.6995  1.8997 -0.1854
14719SOL     OW45597   3.166   2.259   0.145  0.3660  0.0209  0.2108
14719SOL    HW145598   3.189   2.332   0.088  0.3579 -0.9702 -1.1229
14719SOL    HW245599   3.080   2.230   0.115  0.3676 -0.5306  0.7067
14720SOL     OW45600   5.252   5.304  10.816 -0.4036  0.1839  0.4760
14720SOL    HW145601   5.173   5.318  10.764  0.6385  0.6681 -1.0493
14720SOL    HW245602   5.317   5.274  10.752  0.1807 -2.0099  1.9855
14721SOL     OW45603   4.424   3.302   0.055 -0.2911  0.0041  0.6799
14721SOL    HW145604   4.478   3.293   0.134  1.2003 -2.4407 -0.5168
14721SOL    HW245605   4.487   3.322  -0.014 -0.7609 -3.0538 -0.7889
14722SOL     OW45606   3.912   2.056  11.539 -0.1509 -0.0042  0.4006
14722SOL    HW145607   3.916   1.970  11.581  1.5757  0.6142  1.6365
14722SOL    HW245608   3.853   2.107  11.594 -0.4375 -0.1269  0.2068
14723SOL     OW45609   3.228   3.520   0.633  0.2724  0.2194 -0.8372
14723SOL    HW145610   3.207   3.612   0.619 -0.1283  0.3087  0.2569
14723SOL    HW245611   3.319   3.520   0.664  0.8323  0.0983 -2.4142
14724SOL     OW45612   3.075   2.829  11.095  0.0475 -0.5598 -0.2831
14724SOL    HW145613   3.144   2.866  11.040 -1.2173 -0.7167 -2.0655
14724SOL    HW245614   3.009   2.898  11.102 -0.5006 -1.0753 -0.2301
14725SOL     OW45615   5.313   1.195  11.020  0.1755 -0.3054  0.3395
14725SOL    HW145616   5.288   1.221  10.931 -2.0006  1.3639  1.3476
14725SOL    HW245617   5.369   1.266  11.051 -0.0611 -0.2751  0.7054
14726SOL     OW45618   5.581   3.776  11.993 -0.3008  0.1445 -0.3712
14726SOL    HW145619   5.621   3.748  12.075 -0.2839 -1.9818 -1.0546
14726SOL    HW245620   5.644   3.837  11.955  0.3121  0.0997  0.5565
14727SOL     OW45621   3.985   2.571  11.593  0.1793  0.2548 -0.5485
14727SOL    HW145622   3.892   2.554  11.577  0.7705 -2.1190 -1.8241
14727SOL    HW245623   4.030   2.529  11.520  2.4096 -0.9310  1.3786
14728SOL     OW45624   3.074   4.134  12.027 -0.1738 -0.1958 -0.1890
14728SOL    HW145625   3.114   4.133  11.940  1.2619  0.2710  0.4312
14728SOL    HW245626   2.989   4.176  12.015  0.0133 -0.1397 -1.3578
14729SOL     OW45627   3.989   1.189   0.174  0.0976  0.4133 -0.1651
14729SOL    HW145628   3.963   1.275   0.206 -0.6281 -0.2409  1.1427
14729SOL    HW245629   3.933   1.173   0.098  0.9384  1.4765 -1.0439
14730SOL     OW45630   4.085   2.434   2.088  0.3252 -0.0516  0.3743
14730SOL    HW145631   4.042   2.514   2.119  0.1700 -0.1692  0.4647
14730SOL    HW245632   4.178   2.457   2.085  0.4422 -0.2736  1.6829
14731SOL     OW45633   4.528   2.337   0.559 -0.0726 -0.2863  0.7857
14731SOL    HW145634   4.468   2.263   0.552 -1.2106  0.5200  1.7426
14731SOL    HW245635   4.527   2.376   0.472  2.2327 -2.5955 -0.4227
14732SOL     OW45636   3.994   2.514   1.570 -0.2289  0.4529  0.5556
14732SOL    HW145637   3.926   2.575   1.541 -0.7009  0.2095  1.1476
14732SOL    HW245638   4.035   2.557   1.645  1.6505  1.5331 -0.9817
14733SOL     OW45639   2.054   1.934  12.389  0.0473  0.4262  0.4421
14733SOL    HW145640   2.033   2.021  12.422  0.0518  0.4645  0.3431
14733SOL    HW245641   2.042   1.940  12.294 -0.4464  0.1792  0.4870
14734SOL     OW45642   6.733   4.938   9.605  0.4812 -0.0850 -1.0250
14734SOL    HW145643   6.722   4.999   9.532 -1.2911  3.1655  1.7268
14734SOL    HW245644   6.653   4.885   9.604 -0.9786  1.9644  0.1552
14735SOL     OW45645   6.210   2.530  11.036  0.2421  0.6579 -0.1619
14735SOL    HW145646   6.179   2.454  11.084 -1.7595  0.2492 -1.9589
14735SOL    HW245647   6.182   2.605  11.088 -0.4403  0.2142  0.1157
14736SOL     OW45648   3.870   4.497  11.995 -0.2808 -0.1918 -0.6199
14736SOL    HW145649   3.810   4.553  11.945 -0.6593 -1.0254 -1.1327
14736SOL    HW245650   3.872   4.536  12.083 -2.7329 -0.9258 -0.1529
14737SOL     OW45651   5.000   1.742  12.154  0.7232  0.3659  0.6077
14737SOL    HW145652   4.958   1.695  12.081 -0.2657  1.0875  0.6903
14737SOL    HW245653   5.094   1.725  12.142  0.7868  1.8952 -1.9105
14738SOL     OW45654   3.379   1.178  11.134 -0.1969 -0.7585 -0.8731
14738SOL    HW145655   3.327   1.179  11.214  1.6397 -3.7943  0.5459
14738SOL    HW245656   3.335   1.115  11.077 -0.8861  0.5820 -1.8944
14739SOL     OW45657   6.577   2.858  11.313  0.0203  0.4956 -0.5895
14739SOL    HW145658   6.663   2.899  11.300 -0.6302  1.5730 -1.7072
14739SOL    HW245659   6.553   2.826  11.226 -0.7074  0.1996 -0.2853
14740SOL     OW45660   4.117   1.952   0.463 -0.0195  0.4897 -0.0182
14740SOL    HW145661   4.029   1.964   0.499  0.3830 -0.8171  1.4942
14740SOL    HW245662   4.148   1.870   0.500  2.0117  1.1230 -0.1754
14741SOL     OW45663   3.429   2.004  10.895  0.3339  0.2783 -0.3626
14741SOL    HW145664   3.359   2.064  10.920  0.9050  0.0088  2.1426
14741SOL    HW245665   3.425   1.934  10.960  2.5767 -0.0135 -0.4518
14742SOL     OW45666   2.982   2.558  11.011  0.4075  0.0757  0.0824
14742SOL    HW145667   3.020   2.611  11.081  0.4505  0.8834 -0.5373
14742SOL    HW245668   2.956   2.621  10.944 -0.7791 -0.5717 -0.1011
14743SOL     OW45669   4.228   1.296  10.891 -0.6088  0.0392 -0.2452
14743SOL    HW145670   4.175   1.344  10.828 -0.1056  0.0469 -0.6699
14743SOL    HW245671   4.317   1.331  10.880 -0.2865 -0.7940 -0.3775
14744SOL     OW45672   3.993   3.155  10.463 -0.1679  0.5123 -0.1415
14744SOL    HW145673   3.937   3.198  10.398  0.1143  3.4451  1.3682
14744SOL    HW245674   3.942   3.159  10.545  0.2343 -1.3871  0.2457
14745SOL     OW45675   3.756   1.116   0.034 -0.1923 -0.2168  0.1262
14745SOL    HW145676   3.674   1.098   0.080 -1.7812 -0.9986 -2.7746
14745SOL    HW245677   3.736   1.100  -0.058  2.1200  3.3599 -1.2299
14746SOL     OW45678   5.709   3.933  10.767 -0.2334 -0.0025  0.8804
14746SOL    HW145679   5.670   4.014  10.734 -0.2957 -0.1577  0.5778
14746SOL    HW245680   5.741   3.888  10.689 -0.5652 -0.4659  1.0094
14747SOL     OW45681   4.204   1.843  11.723 -0.8357  0.0723  0.6846
14747SOL    HW145682   4.240   1.759  11.695  0.2519  1.0082 -0.8625
14747SOL    HW245683   4.114   1.842  11.690  0.1570  0.8049 -2.3927
14748SOL     OW45684   5.961   0.117  12.070 -0.2773 -0.5285 -0.1641
14748SOL    HW145685   5.924   0.107  12.158  0.8950 -0.4392  0.3679
14748SOL    HW245686   5.990   0.029  12.046 -1.2452 -0.6906 -0.7803
14749SOL     OW45687   4.641   1.846  11.236 -0.0624  0.0513  0.4765
14749SOL    HW145688   4.664   1.934  11.206  0.1240 -0.8467 -2.2600
14749SOL    HW245689   4.621   1.857  11.329 -0.1295  2.9812  0.2013
14750SOL     OW45690   4.637   2.085  12.276  0.0906 -0.3802  0.3600
14750SOL    HW145691   4.679   2.060  12.194 -0.1325  0.8407 -0.1544
14750SOL    HW245692   4.558   2.031  12.280 -0.2754  0.0569 -0.6084
14751SOL     OW45693   4.635   3.937   0.005  0.3742 -0.5585  0.9494
14751SOL    HW145694   4.570   3.999   0.036  0.6620 -0.6874  1.8284
14751SOL    HW245695   4.590   3.853   0.004 -0.1611 -0.2926 -0.7013
14752SOL     OW45696   4.031   3.908  11.827 -0.1980  0.2318 -0.4325
14752SOL    HW145697   4.097   3.908  11.758  0.4602  0.7847  0.1845
14752SOL    HW245698   4.061   3.974  11.890 -0.9800  0.0098  0.1964
14753SOL     OW45699   4.027   3.459  12.425 -0.2400 -0.2941  0.6205
14753SOL    HW145700   3.957   3.524  12.434  0.8197  0.8087  1.2506
14753SOL    HW245701   3.987   3.386  12.378 -1.0479  1.4743 -1.5818
14754SOL     OW45702   5.431   2.037  12.427  0.3065  0.3902  0.6359
14754SOL    HW145703   5.357   2.089  12.460  0.5602  1.1884 -0.0273
14754SOL    HW245704   5.442   1.968  12.492 -1.2977 -0.0056  0.5384
14755SOL     OW45705   4.397   1.996  11.867 -0.5062 -0.1313 -0.2769
14755SOL    HW145706   4.323   1.967  11.815 -0.8774 -1.0203  0.7064
14755SOL    HW245707   4.453   2.044  11.806 -1.2323 -0.6024 -1.3313
14756SOL     OW45708   3.135   2.091  11.062 -0.1268  0.3648  0.2531
14756SOL    HW145709   3.180   2.069  11.144 -2.8918 -2.8063  1.1299
14756SOL    HW245710   3.109   2.182  11.073  3.0990  1.3596  0.9893
14757SOL     OW45711   2.231   2.221  10.273  0.1099 -0.1603 -0.3719
14757SOL    HW145712   2.216   2.126  10.268 -0.0384 -0.2564  1.1754
14757SOL    HW245713   2.144   2.260  10.267  0.2826  0.0185 -2.5610
14758SOL     OW45714   4.504   0.913   0.765 -0.2245  0.1456  0.2204
14758SOL    HW145715   4.540   0.882   0.848  1.3160  0.2158 -0.3858
14758SOL    HW245716   4.410   0.922   0.781 -0.0608 -0.5512  1.7239
14759SOL     OW45717   4.525   2.843  11.761 -0.5796 -0.3275  0.5000
14759SOL    HW145718   4.595   2.853  11.825 -0.4117  0.8022  0.1608
14759SOL    HW245719   4.563   2.790  11.691 -0.0705  0.2581  0.3310
14760SOL     OW45720   2.814   2.020  11.617 -1.0729 -0.0165 -0.4971
14760SOL    HW145721   2.815   2.105  11.662 -1.3411 -1.0137  1.5066
14760SOL    HW245722   2.793   1.957  11.686 -0.0810 -1.8226 -1.7706
14761SOL     OW45723   5.405   0.840  11.416 -0.0817  0.4646  0.1858
14761SOL    HW145724   5.442   0.895  11.484  0.7890  2.1800 -1.5958
14761SOL    HW245725   5.391   0.898  11.342  0.0199 -1.5159 -1.5010
14762SOL     OW45726   4.477   3.144  10.099  0.7109  0.4160  0.2502
14762SOL    HW145727   4.491   3.154  10.005  0.6974  2.0786  0.4051
14762SOL    HW245728   4.556   3.101  10.131  1.0901  0.6375 -0.3825
14763SOL     OW45729   6.584   0.789   9.096 -0.0070  0.3630 -0.2891
14763SOL    HW145730   6.504   0.823   9.055  1.3167  0.3081 -3.1416
14763SOL    HW245731   6.636   0.755   9.023  1.6834 -1.6505  1.7196
14764SOL     OW45732   4.272   2.754   1.022 -0.2120  0.3786  0.1979
14764SOL    HW145733   4.212   2.795   0.960 -0.8750 -1.3043 -0.3383
14764SOL    HW245734   4.224   2.752   1.105 -0.9801 -1.0080 -0.2415
14765SOL     OW45735   5.372   3.443  12.222 -0.2708 -0.1142  0.3645
14765SOL    HW145736   5.351   3.349  12.229  1.3824 -0.5014  0.5807
14765SOL    HW245737   5.449   3.445  12.165 -0.0321  1.0955  0.7138
14766SOL     OW45738   2.365   4.388  10.085 -0.3035 -0.3730 -0.2862
14766SOL    HW145739   2.451   4.426  10.065 -0.6139  1.0779  0.9428
14766SOL    HW245740   2.384   4.316  10.145  0.0530 -0.0787 -0.0432
14767SOL     OW45741   4.830   3.033  11.488  0.3565 -0.1733 -0.2077
14767SOL    HW145742   4.740   3.064  11.477  0.0041 -0.5502  1.3050
14767SOL    HW245743   4.880   3.112  11.511  0.2483 -0.0852 -0.2757
14768SOL     OW45744   3.340   4.374  10.695  0.2762 -0.2208  0.0070
14768SOL    HW145745   3.336   4.459  10.739  0.8551 -0.1160 -0.1393
14768SOL    HW245746   3.334   4.395  10.602  0.2487 -0.3521 -0.0202
14769SOL     OW45747   3.336   1.042   1.786 -0.6674  0.5003  0.1032
14769SOL    HW145748   3.391   0.965   1.804 -1.4276  0.1247  0.8795
14769SOL    HW245749   3.359   1.105   1.854 -1.1163  0.3830  0.3646
14770SOL     OW45750   4.336   1.277  11.942 -0.2711 -0.0027 -0.1206
14770SOL    HW145751   4.412   1.218  11.938 -0.0812  0.3015 -3.0665
14770SOL    HW245752   4.374   1.363  11.959  0.2866  0.3262 -2.5730
14771SOL     OW45753   5.220   0.255   1.812 -0.5319  0.2762 -0.0608
14771SOL    HW145754   5.141   0.223   1.856 -0.8942 -0.0571 -0.9142
14771SOL    HW245755   5.198   0.344   1.785 -0.3687  0.4240  0.2943
14772SOL     OW45756   2.800   3.215  12.175  0.0744 -0.1336  0.9356
14772SOL    HW145757   2.779   3.123  12.166 -0.9845 -0.1345  2.9168
14772SOL    HW245758   2.889   3.223  12.140 -0.8116 -1.3195 -1.8409
14773SOL     OW45759   6.467   2.336   0.094 -0.0111  0.1381  0.3924
14773SOL    HW145760   6.377   2.314   0.069 -0.0582  0.2086  0.4996
14773SOL    HW245761   6.517   2.256   0.077  0.1754  0.5237 -1.0106
14774SOL     OW45762   5.250   2.484  11.106  0.0312  0.1886 -0.1378
14774SOL    HW145763   5.193   2.512  11.035  0.6437 -0.4903 -0.9178
14774SOL    HW245764   5.307   2.559  11.123 -0.3791  0.4901 -0.0873
14775SOL     OW45765   3.027   3.892  10.390  0.7232 -0.0022 -0.2617
14775SOL    HW145766   3.017   3.813  10.444 -2.6781  0.4763  0.0809
14775SOL    HW245767   2.972   3.957  10.433  1.1622  1.6787 -2.1069
14776SOL     OW45768   4.870   2.742  12.218 -0.6195 -0.4338 -0.6065
14776SOL    HW145769   4.842   2.670  12.161 -0.6282 -1.4444  0.6302
14776SOL    HW245770   4.792   2.798  12.225 -0.5851 -0.2193 -1.6490
14777SOL     OW45771   5.070   2.223  11.103 -0.0441  0.7086 -0.2725
14777SOL    HW145772   5.043   2.290  11.040  1.4091  1.4763 -0.1181
14777SOL    HW245773   5.152   2.256  11.140  0.3202 -0.8117  0.3623
14778SOL     OW45774   4.797   0.833  12.302  0.3235  0.7912  0.0076
14778SOL    HW145775   4.792   0.928  12.311 -0.6444  0.5508  3.2324
14778SOL    HW245776   4.745   0.799  12.375 -0.0411 -2.2445 -1.5094
14779SOL     OW45777   3.579   4.047   0.538  0.7263  0.0510  0.0328
14779SOL    HW145778   3.634   4.095   0.475 -0.7445  2.9373  0.7553
14779SOL    HW245779   3.502   4.021   0.488  0.4998  0.5206  0.1229
14780SOL     OW45780   5.807   3.217  12.202 -0.1945 -0.0132  0.4299
14780SOL    HW145781   5.747   3.228  12.276  0.3961 -1.7590  1.2112
14780SOL    HW245782   5.798   3.125  12.177 -0.0494  0.4403 -1.4048
14781SOL     OW45783   4.505   2.459  11.168  0.3100 -0.3659  0.0122
14781SOL    HW145784   4.516   2.551  11.142 -0.9751 -0.1665  0.1163
14781SOL    HW245785   4.455   2.463  11.249 -0.1710 -1.1704 -0.2344
14782SOL     OW45786   5.316   3.383   2.437  0.4098  0.1187 -0.1629
14782SOL    HW145787   5.251   3.369   2.506  1.4832 -2.0248  0.5088
14782SOL    HW245788   5.400   3.390   2.483  0.9698  0.2804 -1.1621
14783SOL     OW45789   5.227   3.491  10.634 -0.1978  0.1258  0.3798
14783SOL    HW145790   5.304   3.440  10.610 -0.9221 -1.9861  2.2060
14783SOL    HW245791   5.251   3.533  10.716 -0.9736 -0.5644  0.9698
14784SOL     OW45792   4.090   3.432  11.668  0.7093  0.1093  0.1631
14784SOL    HW145793   4.081   3.344  11.703 -2.5738  1.4271  3.3435
14784SOL    HW245794   4.171   3.466  11.706  1.2629 -1.0613  0.0436
14785SOL     OW45795   5.901   2.354  11.452 -0.6900 -0.2083  0.5741
14785SOL    HW145796   5.988   2.371  11.414 -0.3474  0.0871  1.4603
14785SOL    HW245797   5.847   2.330  11.378 -0.3566  1.5560 -0.2935
14786SOL     OW45798   5.070   2.657  10.959  0.4120  0.3822  0.1138
14786SOL    HW145799   5.114   2.733  10.919  0.9969  0.8144  1.5214
14786SOL    HW245800   5.056   2.682  11.050 -0.1061 -0.9100  0.4138
14787SOL     OW45801   5.758   0.126   0.123  0.5006 -0.4754  0.1943
14787SOL    HW145802   5.809   0.049   0.100  1.6332  0.6039 -1.0792
14787SOL    HW245803   5.803   0.199   0.080 -0.8539  0.8272  0.8760
14788SOL     OW45804   6.220   1.783  11.581  0.2765  0.4608 -0.0020
14788SOL    HW145805   6.129   1.766  11.557  0.5116 -1.4967  0.3339
14788SOL    HW245806   6.268   1.708  11.545  1.3970  0.1937  1.9446
14789SOL     OW45807   3.749   2.726   1.782 -0.2222 -0.0036 -0.5860
14789SOL    HW145808   3.693   2.771   1.845  0.0056 -1.1461  0.4643
14789SOL    HW245809   3.834   2.770   1.791 -0.3404  0.2172 -0.5273
14790SOL     OW45810   4.265   1.732  11.265  0.6960 -0.2009 -0.2729
14790SOL    HW145811   4.300   1.729  11.176  0.5527 -0.4263 -0.3215
14790SOL    HW245812   4.334   1.694  11.319  0.3639 -1.0266 -0.4222
14791SOL     OW45813   4.054   1.132  11.034 -0.6862  0.4128 -0.4428
14791SOL    HW145814   3.976   1.153  11.086  0.1080  0.0318  0.9381
14791SOL    HW245815   4.110   1.209  11.041  0.1081 -0.2295  0.6117
14792SOL     OW45816   4.151   1.927  12.045 -0.0539  0.0379  0.0693
14792SOL    HW145817   4.147   1.834  12.068  0.0381 -0.5278 -1.9621
14792SOL    HW245818   4.225   1.934  11.984 -0.9119  1.1459 -0.9086
14793SOL     OW45819   4.242   7.343  11.170 -0.2810 -0.3679 -0.0293
14793SOL    HW145820   4.330   7.351  11.132 -0.7301  0.3262 -0.9478
14793SOL    HW245821   4.199   7.276  11.117 -0.8464  0.4634 -0.6380
14794SOL     OW45822   3.133   3.344   0.428 -0.3565 -0.0484 -0.1749
14794SOL    HW145823   3.158   3.422   0.478  0.6149 -0.4849  0.0551
14794SOL    HW245824   3.170   3.359   0.341 -1.4602  0.4063 -0.5772
14795SOL     OW45825   3.726   1.941  12.161  0.0547  0.0484  0.2071
14795SOL    HW145826   3.728   1.915  12.069  0.1661 -1.2037  0.5500
14795SOL    HW245827   3.674   1.874  12.205 -0.3609  0.8632  0.9972
14796SOL     OW45828   2.774   1.230  12.351  0.2351  0.2304 -0.0182
14796SOL    HW145829   2.758   1.317  12.313  1.4496 -0.8296 -3.2231
14796SOL    HW245830   2.869   1.222  12.353  0.2130 -0.2286  2.4333
14797SOL     OW45831   4.695   2.841  10.976 -0.0106 -0.5817 -0.1720
14797SOL    HW145832   4.607   2.877  10.964  0.3259  0.5352  0.5493
14797SOL    HW245833   4.695   2.760  10.925 -1.7035 -1.0145  0.4398
14798SOL     OW45834   4.266   2.935  11.735  0.2214 -0.0453 -0.1442
14798SOL    HW145835   4.345   2.898  11.775 -0.3631  0.2346  1.3157
14798SOL    HW245836   4.194   2.891  11.780 -0.4719  1.7406  0.5665
14799SOL     OW45837   5.639   2.374   0.452 -0.2553 -0.0426  0.2877
14799SOL    HW145838   5.687   2.359   0.370 -1.1236 -1.3397 -0.0193
14799SOL    HW245839   5.547   2.362   0.428 -0.4871 -0.9899  1.5452
14800SOL     OW45840   3.856   2.597  10.901  0.2247 -0.4520 -0.2347
14800SOL    HW145841   3.760   2.604  10.903  0.3174  1.4260 -0.1518
14800SOL    HW245842   3.884   2.678  10.858  1.8276 -0.4527  0.7537
14801SOL     OW45843   5.273   4.801   0.415 -0.3055  0.7299  0.1885
14801SOL    HW145844   5.238   4.794   0.326 -1.6181 -0.8341  0.7770
14801SOL    HW245845   5.197   4.816   0.470  0.2640 -0.1442  1.2476
14802SOL     OW45846   2.309   2.743  12.109  0.1567  0.2559  0.0574
14802SOL    HW145847   2.225   2.781  12.136 -0.2268 -0.2299 -0.4335
14802SOL    HW245848   2.330   2.681  12.179 -0.1981 -0.0597 -0.1092
14803SOL     OW45849   3.808   2.662   0.983  0.4193  0.4076  0.6860
14803SOL    HW145850   3.842   2.682   0.896  1.9434  1.0491  1.3891
14803SOL    HW245851   3.716   2.639   0.968  0.9071 -0.5018 -1.1947
14804SOL     OW45852   5.176   1.926   1.191  0.1547  0.0061  0.6756
14804SOL    HW145853   5.114   1.999   1.187  0.0857 -0.0867 -0.1469
14804SOL    HW245854   5.199   1.919   1.284 -1.3555 -0.1999  1.0619
14805SOL     OW45855   3.135   0.332  10.870 -1.1241 -0.3800  0.2340
14805SOL    HW145856   3.131   0.427  10.870  0.2857 -0.3034  0.6823
14805SOL    HW245857   3.096   0.306  10.787  2.0390  0.7873 -1.7545
14806SOL     OW45858   4.107   3.128  11.644  0.2677 -0.1352 -0.3548
14806SOL    HW145859   4.025   3.080  11.631 -0.0016  0.0232  0.7120
14806SOL    HW245860   4.172   3.061  11.664  0.1367 -0.1606 -0.0074
14807SOL     OW45861   3.761   3.737   0.938 -0.3467  0.6266  0.5552
14807SOL    HW145862   3.825   3.751   1.008 -1.7188  2.0189  1.6013
14807SOL    HW245863   3.691   3.686   0.979  0.3856 -1.6256 -0.7997
14808SOL     OW45864   3.509   3.782   1.878 -0.4518 -0.5165 -0.0720
14808SOL    HW145865   3.483   3.690   1.880  0.7851 -0.9276 -1.5913
14808SOL    HW245866   3.560   3.794   1.958  0.2731 -1.4359 -0.3865
14809SOL     OW45867   4.253   1.011   0.739 -0.8725  0.0989  0.0121
14809SOL    HW145868   4.209   1.060   0.809 -0.9034 -0.6989  0.5567
14809SOL    HW245869   4.183   0.960   0.698 -0.4430 -1.4610  1.1167
14810SOL     OW45870   3.732   1.646   0.948 -0.0941  0.3623  0.2474
14810SOL    HW145871   3.771   1.692   0.873  2.3308  0.9842  1.7801
14810SOL    HW245872   3.791   1.572   0.963 -1.0676 -0.2794  0.9874
14811SOL     OW45873   5.292   2.524   1.310  0.4642 -0.1021  0.6381
14811SOL    HW145874   5.263   2.433   1.317  0.3631 -0.2289 -1.0071
14811SOL    HW245875   5.290   2.557   1.400 -1.5991 -1.0897  1.0101
14812SOL     OW45876   4.879   2.425  12.329 -0.4286  0.1213 -0.2180
14812SOL    HW145877   4.904   2.516  12.317  0.3352  0.1169  1.1738
14812SOL    HW245878   4.881   2.388  12.241 -1.3132  1.5653 -0.8827
14813SOL     OW45879   2.529   3.389   0.646 -0.6052  0.2507  0.4709
14813SOL    HW145880   2.564   3.317   0.593 -0.0862 -0.1821  1.3685
14813SOL    HW245881   2.506   3.457   0.582 -1.5116 -0.8691 -0.4286
14814SOL     OW45882   4.077   2.472  11.347  0.2256  0.0045  0.0467
14814SOL    HW145883   4.077   2.544  11.285 -1.3455  0.0426  0.0450
14814SOL    HW245884   4.063   2.394  11.294 -1.5344  0.0777  0.3387
14815SOL     OW45885   4.441   4.111   0.058 -0.1693  0.5646  0.0058
14815SOL    HW145886   4.457   4.187   0.115 -1.7973  0.0729  1.1917
14815SOL    HW245887   4.374   4.142  -0.003  1.7676  1.1824 -1.9418
14816SOL     OW45888   3.766   2.437  11.504  0.6091 -0.0140 -0.2870
14816SOL    HW145889   3.809   2.418  11.421 -0.2463 -0.4575 -0.6339
14816SOL    HW245890   3.673   2.422  11.488  0.3611  0.4723  0.5848
14817SOL     OW45891   7.225   3.914  11.960 -0.5653 -0.1373  0.2229
14817SOL    HW145892   7.253   3.979  12.024 -0.2367 -1.3246  1.3401
14817SOL    HW245893   7.306   3.888  11.915 -0.7121  0.2903 -0.3000
14818SOL     OW45894   4.705   2.668   0.082 -0.2911 -0.1644 -0.4010
14818SOL    HW145895   4.661   2.627   0.007  0.5008  1.6382 -1.9431
14818SOL    HW245896   4.699   2.762   0.065  0.0086  0.3125  1.7938
14819SOL     OW45897   2.440   7.914   0.037 -0.5305  0.3935  0.4511
14819SOL    HW145898   2.459   7.994   0.086 -0.5156  0.8925 -0.3461
14819SOL    HW245899   2.412   7.851   0.103 -1.0503  1.2148  1.0254
14820SOL     OW45900   4.480   2.438   0.834  0.3003 -0.3406  0.5023
14820SOL    HW145901   4.403   2.401   0.876 -0.5035  1.0343  0.3113
14820SOL    HW245902   4.463   2.430   0.740 -1.6712  3.6306  0.2862
14821SOL     OW45903   3.999   2.663  11.132  0.1182 -0.2966  0.2238
14821SOL    HW145904   3.952   2.598  11.079 -0.4411 -0.6664  1.1542
14821SOL    HW245905   3.932   2.702  11.188  0.1849  2.0045 -1.1674
14822SOL     OW45906   2.777   2.735  11.243 -0.0447 -0.6917 -0.2723
14822SOL    HW145907   2.711   2.701  11.183  1.0637 -0.3750 -1.7140
14822SOL    HW245908   2.805   2.818  11.205  0.5025 -0.3543  0.8200
14823SOL     OW45909   5.560   2.688   0.297 -0.4792 -0.9512  0.3549
14823SOL    HW145910   5.625   2.730   0.353  0.0334 -1.6924  0.3371
14823SOL    HW245911   5.603   2.680   0.212 -1.2233  0.0933 -0.1316
14824SOL     OW45912   6.359   2.370  12.203  0.3529  0.8883  0.5149
14824SOL    HW145913   6.444   2.376  12.248  1.0494 -1.8862 -0.2548
14824SOL    HW245914   6.380   2.382  12.110  0.1696 -1.1871  0.1694
14825SOL     OW45915   5.016   2.165   1.096  0.1739  0.3254 -0.0363
14825SOL    HW145916   5.025   2.199   1.006  1.2387 -0.4031 -0.2144
14825SOL    HW245917   4.922   2.174   1.114 -0.3225 -0.8203 -1.7486
14826SOL     OW45918   2.680   1.143   0.379  0.4939  0.5106 -0.0571
14826SOL    HW145919   2.592   1.182   0.386  0.1066 -0.4196  0.3787
14826SOL    HW245920   2.712   1.173   0.293  0.5550  2.4338  0.5741
14827SOL     OW45921   4.358   2.423  10.320  0.2400 -0.4474 -0.1560
14827SOL    HW145922   4.322   2.336  10.300  0.1055 -0.6965  1.0986
14827SOL    HW245923   4.396   2.414  10.407  2.2519  0.1664 -0.9214
14828SOL     OW45924   3.470   1.543   0.384 -0.3074 -0.1298 -0.1861
14828SOL    HW145925   3.556   1.571   0.352 -1.0612  0.7179 -1.5838
14828SOL    HW245926   3.484   1.525   0.477  0.6631  3.2804  0.4594
14829SOL     OW45927   4.298   3.287  11.866  0.2487 -0.4755 -0.8358
14829SOL    HW145928   4.316   3.235  11.787  1.8756 -0.7024 -0.3539
14829SOL    HW245929   4.370   3.351  11.869 -0.1044 -0.1058  0.1632
14830SOL     OW45930   6.744   4.565  10.069 -0.4302 -0.4522 -0.5309
14830SOL    HW145931   6.661   4.611  10.077 -0.1801  0.3995 -2.3625
14830SOL    HW245932   6.799   4.602  10.139 -0.5140  1.4795 -1.4255
14831SOL     OW45933   5.771   2.926   0.147  0.7055 -0.3126  0.4208
14831SOL    HW145934   5.784   3.021   0.145 -1.1627 -0.0235  0.1500
14831SOL    HW245935   5.710   2.912   0.219  2.2905 -1.5364  1.5844
14832SOL     OW45936   4.071   0.435  12.173 -0.1480 -0.2483 -0.0356
14832SOL    HW145937   4.113   0.435  12.087  0.7908  0.0390  0.4027
14832SOL    HW245938   3.990   0.485  12.161 -0.9176 -1.7053 -1.1426
14833SOL     OW45939   1.062   3.482  10.740 -0.3856 -0.4802 -0.4776
14833SOL    HW145940   1.008   3.434  10.677 -1.5630  0.2212 -0.0475
14833SOL    HW245941   1.054   3.433  10.821  2.5941 -2.4063 -1.2267
14834SOL     OW45942   4.901   1.692   1.719 -0.3100  0.3077 -0.3333
14834SOL    HW145943   4.873   1.783   1.709  0.5103  0.4863 -1.1117
14834SOL    HW245944   4.914   1.681   1.813 -1.3457  0.7055 -0.1263
14835SOL     OW45945   4.851   2.683  11.150 -0.0109  0.1501 -0.3774
14835SOL    HW145946   4.813   2.755  11.099 -1.3464 -0.2700 -0.0047
14835SOL    HW245947   4.832   2.604  11.099  1.7047  0.0578 -0.9291
14836SOL     OW45948   4.466   3.740  12.170 -0.1062 -0.1144  0.3410
14836SOL    HW145949   4.394   3.719  12.229  0.3112  0.4639  1.0687
14836SOL    HW245950   4.483   3.833  12.184 -0.1235  0.0848 -0.8314
14837SOL     OW45951   3.895   0.808  10.852 -0.5477 -0.0500  1.1154
14837SOL    HW145952   3.801   0.821  10.870 -0.8037  0.5908 -0.5153
14837SOL    HW245953   3.921   0.887  10.805  0.8239 -0.2301  1.5473
14838SOL     OW45954   6.477   3.832   9.980 -0.3246  0.0024  0.2341
14838SOL    HW145955   6.450   3.893  10.049  1.0892  0.2271  0.6168
14838SOL    HW245956   6.437   3.867   9.900  0.6479  1.6103  0.4000
14839SOL     OW45957   4.913   2.459  11.803  0.5699 -0.6157 -0.3516
14839SOL    HW145958   4.855   2.448  11.728 -0.5006 -2.2699  0.6535
14839SOL    HW245959   4.930   2.370  11.834  0.3023  0.0389  1.8511
14840SOL     OW45960   5.657   3.282  12.415  0.3486 -0.4041 -0.0041
14840SOL    HW145961   5.571   3.249  12.440  0.0337 -1.5787 -2.3956
14840SOL    HW245962   5.660   3.371  12.450 -1.1108 -0.9366  1.5965
14841SOL     OW45963   3.585   2.758   1.223  0.4312 -0.1457  0.3493
14841SOL    HW145964   3.510   2.815   1.203  1.5661  0.7232 -1.7447
14841SOL    HW245965   3.580   2.688   1.157  0.2370 -1.3741  1.6094
14842SOL     OW45966   3.360   1.679   0.834  0.2733 -0.6433 -0.0873
14842SOL    HW145967   3.271   1.703   0.861 -0.2512  0.0452 -2.2357
14842SOL    HW245968   3.394   1.758   0.791  1.5291 -1.2370 -0.2294
14843SOL     OW45969   3.933   2.419   0.895  0.3688 -0.2820  0.6018
14843SOL    HW145970   3.909   2.469   0.973 -1.7613  0.5938 -0.5207
14843SOL    HW245971   3.937   2.485   0.825 -2.0117 -1.5348 -0.8196
14844SOL     OW45972   4.295   3.640   0.899 -0.0544  0.4222 -0.2229
14844SOL    HW145973   4.256   3.627   0.813  1.0609 -1.5892 -0.5035
14844SOL    HW245974   4.258   3.570   0.953  0.7791  0.4157  0.3622
14845SOL     OW45975   3.702   4.356  11.407 -0.4714  0.3572 -0.2627
14845SOL    HW145976   3.748   4.298  11.346 -0.6840  0.2356 -0.3097
14845SOL    HW245977   3.654   4.296  11.465  0.5777  0.4277  0.7154
14846SOL     OW45978   4.351   2.187  11.200 -0.0551 -0.2915 -0.0247
14846SOL    HW145979   4.446   2.183  11.206 -0.1888 -2.5730  2.1337
14846SOL    HW245980   4.333   2.275  11.167  2.7600  0.3130 -0.2105
14847SOL     OW45981   5.197   5.281  11.522 -0.5399  0.1737 -0.3109
14847SOL    HW145982   5.183   5.196  11.566  1.2252  0.8630  1.7564
14847SOL    HW245983   5.165   5.345  11.585  0.9241  1.1624 -0.5455
14848SOL     OW45984   5.184   3.209   9.830  0.6721  0.2102  0.6083
14848SOL    HW145985   5.170   3.244   9.918  0.0444  1.6286 -0.0153
14848SOL    HW245986   5.103   3.230   9.783  1.2593  0.1105 -0.4962
14849SOL     OW45987   3.173   2.203  10.752  0.4399  0.1538 -0.3492
14849SOL    HW145988   3.147   2.276  10.696 -0.9575 -0.3598 -0.4067
14849SOL    HW245989   3.251   2.166  10.709 -0.4866 -0.1039 -1.8769
14850SOL     OW45990   6.764   1.675  12.060  0.4141 -0.1909  0.3064
14850SOL    HW145991   6.718   1.664  11.976 -0.2398 -1.6859  0.8140
14850SOL    HW245992   6.856   1.679  12.036  0.2504 -0.7523 -0.4933
14851SOL     OW45993   5.291   0.664   0.522  0.2454  0.6224  0.2852
14851SOL    HW145994   5.383   0.683   0.536 -0.5408  3.3041  2.9209
14851SOL    HW245995   5.275   0.583   0.570  1.3720 -0.5348 -1.1887
14852SOL     OW45996   3.791   4.474   0.046 -0.0799 -0.6860  0.0836
14852SOL    HW145997   3.747   4.427  -0.025  0.7729  0.3702 -1.1781
14852SOL    HW245998   3.758   4.563   0.040  2.2875  0.2041 -1.0508
14853SOL     OW45999   2.678   2.473  11.872 -0.1968  0.2734 -0.0989
14853SOL    HW146000   2.638   2.408  11.813  0.0447 -1.1778  1.2698
14853SOL    HW246001   2.687   2.552  11.818 -3.2010  0.1305 -1.0051
14854SOL     OW46002   2.500   2.042   0.051 -0.6943  0.2842  0.0676
14854SOL    HW146003   2.589   2.079   0.055  0.1441 -1.4020 -1.5329
14854SOL    HW246004   2.453   2.100  -0.009  0.4659 -0.7911 -2.0172
14855SOL     OW46005   5.975   0.711   0.388  0.2612 -0.4238  0.2948
14855SOL    HW146006   5.901   0.769   0.404  1.9623  1.7334  0.9841
14855SOL    HW246007   6.023   0.711   0.471  1.1889 -1.4847 -0.2256
14856SOL     OW46008   6.061   2.765   0.583 -0.7580 -0.0180  0.2553
14856SOL    HW146009   5.969   2.749   0.561 -0.3489 -0.1306 -1.4475
14856SOL    HW246010   6.107   2.768   0.499  1.0001 -1.1695  1.0986
14857SOL     OW46011   4.846   2.349  11.579 -0.2172 -0.4819  0.7246
14857SOL    HW146012   4.754   2.344  11.553  0.0060  0.2956 -0.2717
14857SOL    HW246013   4.892   2.294  11.515  0.1746  0.3536  0.2645
14858SOL     OW46014   4.368   2.798  12.374 -0.4964  0.3627 -0.3745
14858SOL    HW146015   4.327   2.719  12.409  0.8697 -1.6882 -2.9896
14858SOL    HW246016   4.300   2.839  12.321 -0.3648 -0.8856 -1.5691
14859SOL     OW46017   4.542   1.291   0.028 -0.4257 -0.0942 -0.4439
14859SOL    HW146018   4.477   1.221   0.038  0.6236 -1.0089  0.2285
14859SOL    HW246019   4.527   1.326  -0.059 -2.3245  0.2386 -0.0243
14860SOL     OW46020   4.399   1.437  12.290  0.1942 -0.3848 -0.0510
14860SOL    HW146021   4.342   1.500  12.334 -0.3879 -0.4702 -0.6694
14860SOL    HW246022   4.352   1.354  12.295  0.4224 -0.5270 -0.2509
14861SOL     OW46023   5.717   5.082  10.893 -0.9433  0.7590 -0.1792
14861SOL    HW146024   5.626   5.093  10.866 -0.2863  1.0799 -2.4776
14861SOL    HW246025   5.757   5.167  10.876 -0.4929  1.1205  2.2904
14862SOL     OW46026   4.455   3.217  11.646  0.2831 -0.1625 -0.4338
14862SOL    HW146027   4.473   3.305  11.613 -1.0829  0.0380 -0.6806
14862SOL    HW246028   4.538   3.189  11.684  0.8842  1.0228 -0.8136
14863SOL     OW46029   1.242   1.490  11.995  0.6196 -0.3774  0.1746
14863SOL    HW146030   1.165   1.541  11.969 -0.5497 -1.6180  1.0855
14863SOL    HW246031   1.313   1.526  11.942 -0.6123  0.6723 -0.8412
14864SOL     OW46032   5.028   3.592   0.613 -0.7098 -0.0820 -0.6060
14864SOL    HW146033   5.082   3.611   0.536 -2.7378  1.7493 -1.6850
14864SOL    HW246034   4.942   3.570   0.578 -2.0363  1.9713  1.1118
14865SOL     OW46035   4.279   5.633   1.158  0.3080 -0.5780 -0.7762
14865SOL    HW146036   4.227   5.553   1.164 -0.6840  0.1267  0.7518
14865SOL    HW246037   4.340   5.628   1.232 -0.3568  0.4589 -0.1369
14866SOL     OW46038   3.649   3.601   0.185 -0.1345 -0.0999 -0.3333
14866SOL    HW146039   3.621   3.558   0.105 -0.2471  0.3014 -0.5147
14866SOL    HW246040   3.707   3.538   0.228 -2.9673 -1.8925  1.1554
14867SOL     OW46041   3.996   5.123   1.356  0.1080 -0.1488 -0.5469
14867SOL    HW146042   4.076   5.136   1.306  1.3152 -1.9729  0.7943
14867SOL    HW246043   4.011   5.169   1.439  0.2160 -1.3426  0.1160
14868SOL     OW46044   5.807   1.905  12.398 -0.1999  0.1688 -0.1302
14868SOL    HW146045   5.749   1.949  12.336  0.3294  0.8725 -0.1419
14868SOL    HW246046   5.891   1.899  12.352  0.2706  0.9243  0.5932
14869SOL     OW46047   5.308   5.361   2.002 -0.3586  0.0806  0.5215
14869SOL    HW146048   5.243   5.292   1.991 -0.6396 -0.4581  4.3927
14869SOL    HW246049   5.391   5.314   2.011 -0.2828  0.3740  1.3500
14870SOL     OW46050   4.843   5.858   2.220  0.0428  0.0896  0.5149
14870SOL    HW146051   4.860   5.828   2.310  1.5255  0.0436  0.2527
14870SOL    HW246052   4.765   5.912   2.228  0.0249 -0.0744  1.8032
14871SOL     OW46053   4.216   4.243   2.024  0.0475 -0.0994  0.1291
14871SOL    HW146054   4.198   4.248   2.117  2.8840  0.7788  0.7335
14871SOL    HW246055   4.190   4.329   1.990 -0.2670 -0.1400  0.2666
14872SOL     OW46056   5.891   1.869   1.531  0.0117 -0.1990 -0.6345
14872SOL    HW146057   5.912   1.882   1.624  0.6369  0.0445 -0.8067
14872SOL    HW246058   5.795   1.867   1.528 -0.0138  0.0083 -0.0122
14873SOL     OW46059   5.227   5.066   0.118 -0.2625 -0.0117  0.1122
14873SOL    HW146060   5.233   5.095   0.027  1.1159  1.7691  0.7037
14873SOL    HW246061   5.134   5.045   0.131 -0.5119 -0.1143 -1.6220
14874SOL     OW46062   5.756   3.370   2.052 -0.3096  0.0441 -0.1569
14874SOL    HW146063   5.761   3.464   2.034  0.4271 -0.0056 -0.2452
14874SOL    HW246064   5.662   3.351   2.057 -0.5036  1.1899  1.8952
14875SOL     OW46065   2.978   4.754   1.330  0.3107  0.5895 -0.4150
14875SOL    HW146066   2.930   4.836   1.316  1.6807  2.0228  2.4671
14875SOL    HW246067   3.021   4.765   1.414  0.3148 -3.2946  0.2875
14876SOL     OW46068   5.980   3.308   1.127 -0.4173 -0.0066  0.1065
14876SOL    HW146069   5.980   3.214   1.150 -0.3074  0.4460  2.1792
14876SOL    HW246070   6.006   3.310   1.035 -0.8218 -2.0381 -0.1023
14877SOL     OW46071   3.793   3.989   1.177  0.1222 -0.3203 -0.0730
14877SOL    HW146072   3.842   3.929   1.234  0.1740  0.0735  0.2986
14877SOL    HW246073   3.743   4.044   1.237 -0.8464 -0.7659 -0.4497
14878SOL     OW46074   5.133   3.145   1.255 -0.4357 -0.1283 -0.4840
14878SOL    HW146075   5.137   3.121   1.347 -0.3702 -0.7149 -0.6375
14878SOL    HW246076   5.070   3.084   1.216  0.4925 -0.7321 -1.0755
14879SOL     OW46077   2.696   4.548  11.710 -0.0731 -0.2645  0.0206
14879SOL    HW146078   2.668   4.457  11.695  0.3021 -0.4309  0.3041
14879SOL    HW246079   2.760   4.565  11.641 -0.1401 -0.2175 -0.0296
14880SOL     OW46080   3.122   4.801   1.839 -0.3371  0.3647  0.6330
14880SOL    HW146081   3.074   4.741   1.896  0.5121 -0.1355  0.8413
14880SOL    HW246082   3.211   4.767   1.838 -0.5128 -0.2434 -1.7949
14881SOL     OW46083   4.042   6.560   3.415  0.5517 -0.3564  0.2670
14881SOL    HW146084   3.974   6.504   3.378 -0.8641  0.7973  1.0324
14881SOL    HW246085   4.098   6.501   3.466 -0.5443 -1.1673  0.5479
14882SOL     OW46086   2.226   3.958  12.368 -0.1554  0.4236  0.4531
14882SOL    HW146087   2.204   4.025  12.433  2.0522  1.2299  0.4612
14882SOL    HW246088   2.321   3.951  12.373 -0.1409 -1.0491 -1.2100
14883SOL     OW46089   6.211   4.350   2.636 -0.2067  0.1248 -0.3543
14883SOL    HW146090   6.202   4.437   2.675  1.1709  0.1423 -0.0188
14883SOL    HW246091   6.141   4.299   2.676  0.2336  0.5511  1.0404
14884SOL     OW46092   3.929   3.722  11.479  0.2196  0.3424 -0.1425
14884SOL    HW146093   3.908   3.797  11.424  1.3950  0.9587  0.2167
14884SOL    HW246094   3.904   3.751  11.567 -1.1435 -0.4334 -0.2496
14885SOL     OW46095   5.561   6.609   1.144 -0.9049  0.0797 -0.0878
14885SOL    HW146096   5.616   6.549   1.196  0.3025  0.6105 -0.6971
14885SOL    HW246097   5.574   6.694   1.185 -1.1372  0.2434 -0.3520
14886SOL     OW46098   2.513   3.801  11.857  0.0243 -0.0256  0.2868
14886SOL    HW146099   2.563   3.841  11.787 -1.9357  1.5850 -0.2990
14886SOL    HW246100   2.427   3.844  11.853 -0.5637 -0.7687  2.8889
14887SOL     OW46101   4.461   4.290   1.557  0.8874 -0.3815 -0.5533
14887SOL    HW146102   4.489   4.249   1.475 -0.3250 -1.2301 -0.5662
14887SOL    HW246103   4.421   4.372   1.530  0.6226 -0.5901 -0.8111
14888SOL     OW46104   6.144   4.487   0.246  0.1120 -0.2398 -0.3084
14888SOL    HW146105   6.161   4.574   0.210  2.2653 -0.6519 -0.4185
14888SOL    HW246106   6.165   4.494   0.339  2.4187 -1.0898 -0.6909
14889SOL     OW46107   3.778   3.220   2.163  0.2338 -0.5962 -0.1231
14889SOL    HW146108   3.801   3.142   2.214 -0.9266 -1.2113 -0.5104
14889SOL    HW246109   3.743   3.282   2.228  1.1355 -0.3906  0.1805
14890SOL     OW46110   5.061   5.364   1.527 -0.7239 -0.0926  0.0610
14890SOL    HW146111   5.131   5.428   1.533 -0.5691 -0.2315 -0.2320
14890SOL    HW246112   4.983   5.410   1.559 -0.3646 -0.1593  1.0663
14891SOL     OW46113   5.001   4.895   1.925  0.1148  0.4094 -0.2134
14891SOL    HW146114   5.016   4.824   1.862  0.6971  0.1706  0.1880
14891SOL    HW246115   5.072   4.887   1.988 -0.9318  0.1134  0.9644
14892SOL     OW46116   3.570   3.061   0.501  0.1854  0.6911 -0.1954
14892SOL    HW146117   3.583   2.990   0.563  1.9756  1.7794  0.7744
14892SOL    HW246118   3.615   3.033   0.422  1.8508  1.1285  0.5459
14893SOL     OW46119   4.581   3.511  12.307 -0.2987 -0.2101  0.4865
14893SOL    HW146120   4.649   3.561  12.262 -1.3370  1.9613  1.2041
14893SOL    HW246121   4.603   3.420  12.289  2.2998  0.4219 -0.0208
14894SOL     OW46122   5.516   2.436   0.191  0.2469  0.1974  0.6787
14894SOL    HW146123   5.487   2.510   0.244 -2.6878  0.2700 -0.8034
14894SOL    HW246124   5.588   2.471   0.138 -0.0837  1.5537  1.0874
14895SOL     OW46125   2.966   0.000   3.325 -0.0403  0.0738 -0.2277
14895SOL    HW146126   3.039  -0.048   3.285 -0.4197 -0.6187 -0.0930
14895SOL    HW246127   2.985   0.092   3.305  0.2642 -0.1824 -1.2028
14896SOL     OW46128   2.876   3.730   2.911 -0.7415  0.3399  0.0698
14896SOL    HW146129   2.938   3.688   2.970 -0.1397  1.1555  0.0368
14896SOL    HW246130   2.885   3.683   2.828  0.8809  1.3361 -0.3589
14897SOL     OW46131   4.479   4.246   0.888  0.1262  0.9201  0.2312
14897SOL    HW146132   4.479   4.275   0.797  2.1080 -1.2236 -0.5633
14897SOL    HW246133   4.427   4.166   0.887 -0.9417  1.5693  1.3070
14898SOL     OW46134   5.686   4.562   1.784  0.2835  0.0626 -0.2263
14898SOL    HW146135   5.727   4.598   1.863  0.4727 -0.1833 -0.2134
14898SOL    HW246136   5.665   4.639   1.732 -1.3170  0.3582  0.7720
14899SOL     OW46137   4.523   3.406   1.207  0.1234 -0.1509 -0.4307
14899SOL    HW146138   4.588   3.459   1.253 -1.4105  1.7360 -0.2982
14899SOL    HW246139   4.457   3.385   1.273  0.3440 -1.6876 -0.6531
14900SOL     OW46140   3.839   4.314  12.248 -0.1786  0.1959 -0.4250
14900SOL    HW146141   3.834   4.341  12.156 -0.3830 -0.9210 -0.7569
14900SOL    HW246142   3.873   4.391  12.294  2.4485 -0.0031 -1.8128
14901SOL     OW46143   4.694   3.701   1.240 -0.4845 -0.2653  0.4424
14901SOL    HW146144   4.756   3.649   1.292  0.0730  0.6236  0.6991
14901SOL    HW246145   4.643   3.749   1.305 -1.9394 -1.5042  0.2566
14902SOL     OW46146   6.541   3.227   1.275  0.1312 -0.1998 -0.1046
14902SOL    HW146147   6.563   3.251   1.185 -0.7958 -1.3130 -0.6481
14902SOL    HW246148   6.611   3.168   1.302  0.9650  0.9405  0.2860
14903SOL     OW46149   5.449   4.629   1.455 -0.3375  0.5985 -0.2308
14903SOL    HW146150   5.417   4.610   1.543  0.0611  2.0764  0.2590
14903SOL    HW246151   5.536   4.590   1.452 -0.5680  0.0625 -0.1829
14904SOL     OW46152   3.587   4.299   2.500 -0.4924 -0.3219  0.3567
14904SOL    HW146153   3.602   4.238   2.573  0.3696  0.5071  0.9000
14904SOL    HW246154   3.609   4.248   2.422  2.9470  0.0335  0.9495
14905SOL     OW46155   6.654   2.878   1.884  0.6487 -0.7307  0.5504
14905SOL    HW146156   6.623   2.804   1.830 -1.6763 -0.0322  0.8351
14905SOL    HW246157   6.597   2.877   1.960 -0.9383  2.6207 -0.4406
14906SOL     OW46158   3.872   4.744   0.983  0.0411  0.2520  0.1293
14906SOL    HW146159   3.806   4.798   0.940  0.5663  0.2482 -0.6956
14906SOL    HW246160   3.890   4.791   1.065 -0.2872  0.7550 -0.0790
14907SOL     OW46161   2.503   3.052   1.975 -0.2555  0.3969 -0.9189
14907SOL    HW146162   2.549   3.129   2.008 -1.0466  0.1749  0.7936
14907SOL    HW246163   2.570   2.984   1.969  0.0403  0.6385 -0.4041
14908SOL     OW46164   2.582   4.790  11.556 -0.0334  0.3882 -0.3269
14908SOL    HW146165   2.486   4.781  11.561 -0.2121  1.8660 -0.3596
14908SOL    HW246166   2.616   4.721  11.612 -1.0370 -1.5484 -2.0006
14909SOL     OW46167   3.219   3.164  10.353  0.7971  0.6647  0.3879
14909SOL    HW146168   3.281   3.208  10.296  0.9291  0.2682  0.2204
14909SOL    HW246169   3.272   3.126  10.423  0.7491  0.2880  0.2208
14910SOL     OW46170   6.197   4.550   2.819  0.5314  0.2736  0.4382
14910SOL    HW146171   6.207   4.515   2.908  1.0892 -0.0543  0.2559
14910SOL    HW246172   6.253   4.627   2.817  2.2052 -0.8880 -0.2292
14911SOL     OW46173   4.998   3.978  12.001  0.3864  0.3995 -0.0198
14911SOL    HW146174   4.909   3.941  12.000 -0.4430  2.2476 -1.2826
14911SOL    HW246175   5.022   3.979  12.094 -1.5261  1.1909  0.5241
14912SOL     OW46176   2.642   2.726   0.375  0.5659 -0.0066 -0.4911
14912SOL    HW146177   2.570   2.685   0.423 -1.5883  2.5998 -1.2304
14912SOL    HW246178   2.635   2.690   0.286 -1.5225  1.9936 -1.2272
14913SOL     OW46179   4.964   5.672  11.921  0.3614  0.0451  0.2516
14913SOL    HW146180   4.955   5.605  11.853  0.4410 -0.0013  0.2856
14913SOL    HW246181   4.894   5.653  11.983 -0.6413  0.9836 -0.5605
14914SOL     OW46182   2.293   4.791   0.358  0.3341  0.5290 -0.3095
14914SOL    HW146183   2.350   4.723   0.322  1.1527 -0.2031  2.1756
14914SOL    HW246184   2.247   4.748   0.429 -1.3623  1.8503 -0.5495
14915SOL     OW46185   7.167   4.603   1.924 -0.1036 -0.4216  0.5914
14915SOL    HW146186   7.090   4.548   1.943 -0.6826  1.0099  2.8265
14915SOL    HW246187   7.189   4.642   2.009  3.0773 -0.7142  0.0036
14916SOL     OW46188   4.316   4.725   1.959 -0.4814  0.2927  0.4267
14916SOL    HW146189   4.229   4.739   1.922 -0.6978  0.3753  0.9479
14916SOL    HW246190   4.359   4.810   1.952  0.5484 -0.3752 -2.2814
14917SOL     OW46191   3.613   4.128   1.337  0.2757  0.1720  0.2448
14917SOL    HW146192   3.632   4.222   1.344  0.8183  0.1214 -0.3763
14917SOL    HW246193   3.638   4.092   1.422 -2.7582  1.0115  1.6245
14918SOL     OW46194   5.179   2.984   0.169  0.1519 -0.1550  0.3925
14918SOL    HW146195   5.089   2.994   0.201 -0.0507 -0.6289 -0.0101
14918SOL    HW246196   5.219   3.070   0.181  0.0644 -0.3009  1.8434
14919SOL     OW46197   5.559   4.652   1.015 -0.5749  0.3684  0.5190
14919SOL    HW146198   5.559   4.600   0.935  1.5844 -2.5223  2.1764
14919SOL    HW246199   5.480   4.624   1.062  0.4416 -1.4087  1.2829
14920SOL     OW46200   4.607   4.892  12.378 -0.5730 -0.7128  0.1697
14920SOL    HW146201   4.530   4.869  12.429 -0.4520 -0.7104  0.3570
14920SOL    HW246202   4.636   4.810  12.338 -2.6805 -0.1873 -2.7601
14921SOL     OW46203   1.635   3.056   1.820 -0.7082 -0.2818  0.6418
14921SOL    HW146204   1.546   3.066   1.855 -0.1809  0.6181  1.7878
14921SOL    HW246205   1.628   2.982   1.760 -2.3744  0.1610  0.2211
14922SOL     OW46206   5.334   4.231  10.385  0.2902  0.1031  0.0772
14922SOL    HW146207   5.314   4.148  10.430  0.9871  1.5889  3.4077
14922SOL    HW246208   5.324   4.210  10.292 -2.4800 -2.9340  0.8498
14923SOL     OW46209   3.454   3.928  11.504  0.0480 -0.1891 -0.4345
14923SOL    HW146210   3.494   3.841  11.510  0.8315  0.2512  1.2218
14923SOL    HW246211   3.503   3.972  11.435  1.8348 -0.0063  0.8748
14924SOL     OW46212   5.191   3.790  11.894  0.4617  0.2639 -0.6097
14924SOL    HW146213   5.107   3.835  11.899 -0.9428 -2.2909  0.7195
14924SOL    HW246214   5.241   3.823  11.969 -0.1249  0.3490 -0.2569
14925SOL     OW46215   3.258   4.664  11.999  0.1222 -0.3064  0.0129
14925SOL    HW146216   3.242   4.607  11.925 -1.0455 -1.0068  0.7687
14925SOL    HW246217   3.172   4.676  12.040  0.9407 -1.3279  2.2322
14926SOL     OW46218   3.976   6.073   0.687 -0.1849  0.0668 -0.2172
14926SOL    HW146219   4.005   5.982   0.685 -0.3753 -0.0245  0.6952
14926SOL    HW246220   4.025   6.112   0.760 -1.7526  0.1083  0.8717
14927SOL     OW46221   1.869   3.101   2.302 -0.2160 -0.5637  0.2422
14927SOL    HW146222   1.868   3.135   2.391  1.5869 -0.7644  0.3728
14927SOL    HW246223   1.927   3.160   2.254 -2.2325  0.3903 -1.2056
14928SOL     OW46224   4.876   3.470   1.681 -0.0161 -0.4965 -0.3021
14928SOL    HW146225   4.887   3.524   1.759  0.6521 -2.8835  1.4008
14928SOL    HW246226   4.834   3.390   1.714  0.6961 -1.7631 -2.3135
14929SOL     OW46227   4.493   1.598   1.052  0.0719  0.3223 -0.3667
14929SOL    HW146228   4.564   1.534   1.046  1.2357  1.5910 -0.7425
14929SOL    HW246229   4.476   1.607   1.146  0.1826 -0.2386 -0.2918
14930SOL     OW46230   3.954   2.189   1.145 -0.7948 -0.1327  0.1539
14930SOL    HW146231   4.043   2.155   1.143 -0.6241  0.2553 -2.3650
14930SOL    HW246232   3.963   2.284   1.137 -1.4175  0.0180  1.0874
14931SOL     OW46233   4.878   3.987   1.090  0.0909 -0.7138  0.0878
14931SOL    HW146234   4.937   4.056   1.060  0.3028 -1.1392 -0.4832
14931SOL    HW246235   4.862   4.008   1.182  1.0412 -0.5263  0.2212
14932SOL     OW46236   6.301   2.676   1.648  0.0359 -0.5018  0.1993
14932SOL    HW146237   6.335   2.653   1.735  2.4910  1.3763 -0.1572
14932SOL    HW246238   6.348   2.756   1.624 -0.5023 -0.9997 -2.9247
14933SOL     OW46239   3.567   3.866   1.457  0.4587 -0.4451 -0.6303
14933SOL    HW146240   3.496   3.848   1.395 -1.8175 -0.1898  1.7288
14933SOL    HW246241   3.523   3.875   1.542  3.4333 -1.0916  1.1202
14934SOL     OW46242   5.489   3.334   2.135  0.0604 -0.4765 -0.7648
14934SOL    HW146243   5.455   3.322   2.046  0.0515  0.3629 -0.8874
14934SOL    HW246244   5.443   3.412   2.167  1.0045 -0.0208 -0.4940
14935SOL     OW46245   3.137   2.732   0.626  0.4030 -0.2403 -0.3886
14935SOL    HW146246   3.212   2.754   0.571 -0.5772 -0.7071 -1.9626
14935SOL    HW246247   3.062   2.770   0.581 -0.3392  0.2548  1.1770
14936SOL     OW46248   5.402   3.510  12.497  0.2865 -0.0500  0.5785
14936SOL    HW146249   5.402   3.415  12.481 -0.2495  0.2969 -1.8647
14936SOL    HW246250   5.398   3.549  12.410 -0.7961  2.2285  1.5715
14937SOL     OW46251   3.736   1.337   3.289 -0.2742 -0.6769  0.2492
14937SOL    HW146252   3.712   1.303   3.202  2.6377  0.4954 -1.1514
14937SOL    HW246253   3.818   1.293   3.310  0.6528  1.2946  0.9548
14938SOL     OW46254   6.087   3.353   0.887  0.5460  0.1459 -0.4440
14938SOL    HW146255   6.172   3.321   0.857  0.4561 -0.8139  0.2947
14938SOL    HW246256   6.039   3.371   0.806  0.6642 -1.4304 -0.8954
14939SOL     OW46257   4.523   4.097   2.086 -0.1162  0.1780  0.1711
14939SOL    HW146258   4.601   4.046   2.065 -1.1525 -1.0168 -0.9723
14939SOL    HW246259   4.517   4.094   2.181  1.4623  0.6913  0.3228
14940SOL     OW46260   3.723   3.727   0.673  0.1447 -0.1039 -0.3778
14940SOL    HW146261   3.751   3.728   0.764 -0.6501 -1.2701 -0.0896
14940SOL    HW246262   3.783   3.787   0.628  1.6023 -0.7709  0.6073
14941SOL     OW46263   4.484   4.483   2.365 -0.6000 -0.7921  0.0759
14941SOL    HW146264   4.438   4.535   2.299 -0.5104 -0.6853  0.0972
14941SOL    HW246265   4.443   4.396   2.360 -0.8056 -0.6958  0.1006
14942SOL     OW46266   6.424   6.861   3.918  0.3677 -0.4672  0.8923
14942SOL    HW146267   6.493   6.888   3.979 -0.7425  0.4852  1.7772
14942SOL    HW246268   6.412   6.936   3.861  1.6265 -1.4689 -0.7937
14943SOL     OW46269   3.396   2.945   1.132 -0.4944 -0.0374  0.7037
14943SOL    HW146270   3.368   3.035   1.146  1.4407  0.4765  1.5790
14943SOL    HW246271   3.412   2.939   1.038 -0.5080  0.5817  0.6603
14944SOL     OW46272   3.539   4.634   0.605  0.0057  0.3821 -0.4148
14944SOL    HW146273   3.482   4.621   0.681 -1.5646 -1.8254 -1.8589
14944SOL    HW246274   3.595   4.556   0.605  0.8617  0.9852 -0.8424
14945SOL     OW46275   2.329   3.910   0.952 -0.5866 -0.1124 -0.2074
14945SOL    HW146276   2.275   3.831   0.960 -1.3326  0.3478 -0.6249
14945SOL    HW246277   2.267   3.982   0.953  0.0564  0.4571 -0.3005
14946SOL     OW46278   4.858   4.579   1.500 -0.5689  0.0682 -0.4981
14946SOL    HW146279   4.875   4.661   1.452 -2.7509  0.6457 -0.3742
14946SOL    HW246280   4.776   4.595   1.547 -0.7964 -2.0379 -0.0754
14947SOL     OW46281   6.197   3.271   2.030 -0.2443  0.4033  0.6038
14947SOL    HW146282   6.128   3.218   2.070 -0.2713 -0.5650 -0.6574
14947SOL    HW246283   6.154   3.353   2.007 -0.8481  0.0255  0.3465
14948SOL     OW46284   5.939   4.379   1.308  0.0516  0.3555  0.2323
14948SOL    HW146285   5.950   4.288   1.335  3.2621  0.7981  0.7862
14948SOL    HW246286   5.950   4.378   1.213  1.5071  0.2759  0.3784
14949SOL     OW46287   6.777   3.624   0.916  0.1361  0.6818  0.0163
14949SOL    HW146288   6.775   3.719   0.903 -1.2116  0.4245 -2.2209
14949SOL    HW246289   6.721   3.589   0.847 -1.9903 -1.5799  2.6202
14950SOL     OW46290   6.892   4.544   1.068  0.4011 -0.7053 -0.3946
14950SOL    HW146291   6.917   4.636   1.067 -1.7615 -0.0587  0.1082
14950SOL    HW246292   6.843   4.533   1.149  2.0678 -2.7612  0.4255
14951SOL     OW46293   3.657   4.401   0.535  0.1961  0.6680  0.2119
14951SOL    HW146294   3.641   4.380   0.443  0.6602  0.5708  0.1497
14951SOL    HW246295   3.746   4.369   0.551 -0.0763  0.2172  0.8365
14952SOL     OW46296   6.304   3.649   1.515  0.0241 -0.0069 -0.1328
14952SOL    HW146297   6.379   3.617   1.464  0.2502 -0.3816  0.4234
14952SOL    HW246298   6.298   3.589   1.590  0.5016  1.2615  0.9792
14953SOL     OW46299   4.617   4.789  10.059  0.1725 -0.0684  0.0377
14953SOL    HW146300   4.598   4.801   9.965 -0.6997  0.4426  0.2638
14953SOL    HW246301   4.630   4.695  10.068  2.6587  0.0902 -0.9930
14954SOL     OW46302   4.007   4.467   1.300 -0.2826 -0.2643  0.3315
14954SOL    HW146303   4.047   4.386   1.333 -0.7475 -0.2250  1.0050
14954SOL    HW246304   4.015   4.459   1.205  0.4417 -0.7057  0.4140
14955SOL     OW46305   6.036   3.582   1.350 -0.5231  0.0663 -0.2507
14955SOL    HW146306   6.120   3.537   1.355 -0.1870  0.7899  1.1074
14955SOL    HW246307   5.972   3.512   1.335  0.2002 -0.6262 -0.1528
14956SOL     OW46308   5.599   5.203   1.464 -0.1968  0.1064  0.0483
14956SOL    HW146309   5.608   5.194   1.369 -0.4264  0.3578  0.0017
14956SOL    HW246310   5.510   5.237   1.476  0.1403  0.8944  0.3062
14957SOL     OW46311   2.447   4.809   0.636  0.0125 -0.7737 -0.1237
14957SOL    HW146312   2.442   4.831   0.730 -0.4365  0.1782 -0.3605
14957SOL    HW246313   2.441   4.893   0.592  0.2306 -1.2228 -1.0208
14958SOL     OW46314   3.777   5.912   0.940  0.3112  0.2402 -0.2814
14958SOL    HW146315   3.837   5.942   1.008 -0.0199  0.7055 -0.1945
14958SOL    HW246316   3.782   5.980   0.872 -1.5029  1.2550  0.5275
14959SOL     OW46317   7.953   4.794   1.843 -0.2592 -0.5646 -0.0596
14959SOL    HW146318   7.982   4.729   1.780 -0.4924 -0.0353 -0.7176
14959SOL    HW246319   7.978   4.757   1.928 -0.6590 -1.6450 -0.3979
14960SOL     OW46320   6.087   3.512   2.051 -0.1288 -0.0190  0.8387
14960SOL    HW146321   6.038   3.526   2.132  0.0720 -0.6513  1.0760
14960SOL    HW246322   6.049   3.574   1.989  0.5863  1.4169  1.7776
14961SOL     OW46323   5.813   3.183   2.972  0.2947  0.8939 -0.0054
14961SOL    HW146324   5.809   3.275   2.947  1.9216  0.3087 -2.8350
14961SOL    HW246325   5.751   3.139   2.914  0.0337  0.0986  0.8504
14962SOL     OW46326   4.673   3.545   0.807 -0.0301  0.2643  0.2507
14962SOL    HW146327   4.609   3.477   0.788 -0.8041  0.2672  2.4878
14962SOL    HW246328   4.709   3.569   0.722 -1.4049 -1.2927 -0.8396
14963SOL     OW46329   1.263   4.214   1.056  0.3011 -0.2378 -0.3630
14963SOL    HW146330   1.278   4.307   1.039  0.9552 -0.0615  0.9951
14963SOL    HW246331   1.341   4.185   1.102  0.6615 -1.7926 -1.8378
14964SOL     OW46332   5.538   3.706   2.750 -0.7543  0.5144  0.0483
14964SOL    HW146333   5.459   3.725   2.802 -0.1292 -0.5793  1.4923
14964SOL    HW246334   5.604   3.766   2.785 -0.4239  0.0131  0.3025
14965SOL     OW46335   4.148   4.275   2.282  0.1601  0.2601  0.3422
14965SOL    HW146336   4.094   4.203   2.313 -0.4845  0.3379 -0.5517
14965SOL    HW246337   4.226   4.273   2.338 -0.3230 -0.4633  1.0078
14966SOL     OW46338   5.162   3.563   1.880  0.8872 -0.9365 -0.4527
14966SOL    HW146339   5.217   3.640   1.862 -0.0446 -0.3664 -0.9673
14966SOL    HW246340   5.106   3.590   1.953  1.8603 -1.8160  0.6481
14967SOL     OW46341   6.678   3.137  12.069  0.5547 -0.0924  0.0149
14967SOL    HW146342   6.624   3.146  12.148  0.9127  0.8189  0.1668
14967SOL    HW246343   6.765   3.116  12.101  0.7117  0.3250 -0.1245
14968SOL     OW46344   4.348   4.144  11.217 -0.3238  0.2291 -0.0370
14968SOL    HW146345   4.382   4.153  11.128  0.1678  1.9444  0.2845
14968SOL    HW246346   4.384   4.061  11.248  0.3088  0.0888 -1.0794
14969SOL     OW46347   3.638   6.927   0.749 -0.5480  0.0002 -0.2613
14969SOL    HW146348   3.637   6.832   0.736 -0.3753 -0.0094 -0.2027
14969SOL    HW246349   3.642   6.938   0.844 -0.1526  0.0617 -0.2815
14970SOL     OW46350   4.081   4.981   0.585 -0.0028 -0.0043  0.1253
14970SOL    HW146351   4.090   4.961   0.678  0.5862 -0.7198 -0.0783
14970SOL    HW246352   4.007   4.927   0.555  0.9682 -1.1887 -0.2099
14971SOL     OW46353   4.611   5.064   2.823  0.2059  0.2874  0.6030
14971SOL    HW146354   4.542   5.052   2.889 -1.2787  2.3350 -0.4742
14971SOL    HW246355   4.567   5.106   2.749  2.2425 -0.0980 -0.9132
14972SOL     OW46356   1.686   4.056   2.755  0.3573  0.7851 -0.3290
14972SOL    HW146357   1.708   4.113   2.681  1.0625  0.1379 -0.6243
14972SOL    HW246358   1.690   3.967   2.719  0.8175  0.4563  0.5140
14973SOL     OW46359   5.150   3.283   1.789 -0.0940 -0.0609  1.1930
14973SOL    HW146360   5.244   3.264   1.791  0.0116  0.2436  0.0376
14973SOL    HW246361   5.144   3.377   1.808 -0.2178 -0.1964  1.8457
14974SOL     OW46362   2.831   2.127   1.355  0.4015 -0.4505 -0.4301
14974SOL    HW146363   2.905   2.173   1.316  0.7841 -1.8585 -1.4436
14974SOL    HW246364   2.854   2.122   1.448  0.7680  0.5787 -0.4430
14975SOL     OW46365   2.876   3.663   2.222 -0.5030 -0.0368 -0.3407
14975SOL    HW146366   2.839   3.749   2.242 -0.3602 -0.0810  0.1238
14975SOL    HW246367   2.948   3.652   2.284 -0.9740 -0.8003  0.0881
14976SOL     OW46368   5.681   2.912   1.932 -0.4149 -0.0133  0.0532
14976SOL    HW146369   5.696   2.897   2.026  0.6603 -0.5199 -0.1898
14976SOL    HW246370   5.748   2.975   1.907 -1.2147  0.7615 -0.2232
14977SOL     OW46371   5.550   4.375   1.240 -0.4649 -0.0542 -0.3703
14977SOL    HW146372   5.601   4.426   1.302  0.2207  0.7767 -1.5734
14977SOL    HW246373   5.470   4.426   1.225 -0.0591  0.3926 -1.1005
14978SOL     OW46374   3.948   3.427   2.062  0.1344 -0.1718  0.0040
14978SOL    HW146375   3.890   3.470   1.999  1.1995 -2.0195 -2.3985
14978SOL    HW246376   3.914   3.338   2.070  1.2400 -0.5688  0.4369
14979SOL     OW46377   4.806   5.150   1.011 -0.2969  0.4361  0.3432
14979SOL    HW146378   4.773   5.076   1.062 -1.6304  0.5507 -0.3186
14979SOL    HW246379   4.820   5.220   1.075  2.5690 -0.8184  1.2579
14980SOL     OW46380   4.283   4.551   2.169  0.4907  0.1816 -0.3718
14980SOL    HW146381   4.191   4.529   2.186  0.5199  0.2497 -0.1170
14980SOL    HW246382   4.279   4.621   2.103  0.4247 -1.1201 -1.7995
14981SOL     OW46383   5.483   2.669   1.167  0.1620  0.2880 -0.3917
14981SOL    HW146384   5.487   2.733   1.238 -0.1299  0.0776 -0.1817
14981SOL    HW246385   5.402   2.621   1.183  1.4642 -1.6988  0.8276
14982SOL     OW46386   6.537   4.841   2.190  0.1212 -0.0716  0.2831
14982SOL    HW146387   6.481   4.763   2.188  0.1552 -0.2253  2.4585
14982SOL    HW246388   6.475   4.913   2.198  0.1576 -0.1693  1.7085
14983SOL     OW46389   3.709   2.175   2.278  0.1613 -0.3569 -0.0518
14983SOL    HW146390   3.716   2.086   2.312  0.3584  0.3963  2.0635
14983SOL    HW246391   3.797   2.196   2.247  0.6900 -0.1972  1.4591
14984SOL     OW46392   5.086   2.557   0.372  0.4853 -0.6232  0.3920
14984SOL    HW146393   5.093   2.472   0.327  1.8700 -0.5798  0.4997
14984SOL    HW246394   5.141   2.548   0.450 -0.5015 -0.0958  1.1687
14985SOL     OW46395   5.963   2.247   0.795 -0.0951  0.0599  0.3486
14985SOL    HW146396   5.952   2.325   0.849 -2.4475 -0.0763  0.1849
14985SOL    HW246397   5.938   2.275   0.707 -0.4809 -0.7373  0.1879
14986SOL     OW46398   2.481   5.070   1.501 -0.4809 -0.0248  0.0240
14986SOL    HW146399   2.397   5.115   1.512 -1.5759 -1.7132 -0.9574
14986SOL    HW246400   2.477   5.034   1.413  0.5487 -1.6116  0.5979
14987SOL     OW46401   4.619   5.644   2.335 -0.3461 -0.3821  0.0396
14987SOL    HW146402   4.566   5.686   2.268 -1.9114 -0.7930  0.9515
14987SOL    HW246403   4.654   5.566   2.292  1.2232  0.9218 -1.1632
14988SOL     OW46404   4.954   3.283   2.030 -0.0222 -0.5455 -0.0415
14988SOL    HW146405   4.995   3.202   2.000 -1.3811 -1.0509 -0.6129
14988SOL    HW246406   4.974   3.347   1.963  0.8381 -0.4624  0.2834
14989SOL     OW46407   4.707   3.295   1.801  0.3875 -0.0754  0.0400
14989SOL    HW146408   4.718   3.225   1.864  0.9272  1.9300  2.3068
14989SOL    HW246409   4.614   3.319   1.807  0.0551 -0.9313 -1.1885
14990SOL     OW46410   4.941   4.168   0.321 -0.0671 -0.6075  0.3238
14990SOL    HW146411   4.906   4.240   0.373 -1.5567  0.1519 -1.5674
14990SOL    HW246412   4.912   4.089   0.366 -1.2689  0.0199  0.6900
14991SOL     OW46413   5.395   5.537   1.782 -0.0642  0.0693 -0.2107
14991SOL    HW146414   5.319   5.594   1.792 -0.3182 -0.4472  0.9617
14991SOL    HW246415   5.385   5.471   1.851  0.3063 -1.3158 -1.4301
14992SOL     OW46416   3.844   4.948   1.819  0.1929 -0.0870  0.0080
14992SOL    HW146417   3.773   5.009   1.842 -0.4245 -0.9012  0.3291
14992SOL    HW246418   3.812   4.863   1.849  1.8932 -0.2814  1.4408
14993SOL     OW46419   5.288   3.515   2.210  0.0905 -0.2569 -0.2418
14993SOL    HW146420   5.284   3.462   2.290 -0.7513 -0.2335 -0.2527
14993SOL    HW246421   5.196   3.532   2.189  0.3350  0.6063 -0.6455
14994SOL     OW46422   3.902   3.648   2.225 -0.4940  0.3440 -0.0071
14994SOL    HW146423   3.820   3.602   2.209 -0.1168  0.1708 -1.5680
14994SOL    HW246424   3.965   3.578   2.245  0.2749 -0.0107 -3.1878
14995SOL     OW46425   6.504   1.143   0.593 -0.4097 -0.1504  1.0299
14995SOL    HW146426   6.504   1.202   0.668  0.0978 -1.1496  1.8525
14995SOL    HW246427   6.588   1.098   0.598 -0.0208  0.3151 -0.6107
14996SOL     OW46428   2.241   4.462   0.101  0.4106 -0.3258 -0.0582
14996SOL    HW146429   2.231   4.515   0.022 -0.4864  1.3470  1.1245
14996SOL    HW246430   2.151   4.447   0.132  0.7802  0.6115  1.6131
14997SOL     OW46431   5.063   6.179   0.449 -0.3233 -0.2637  0.4389
14997SOL    HW146432   5.144   6.221   0.422  0.3904 -2.3641 -0.9193
14997SOL    HW246433   5.006   6.251   0.477  0.7788  1.5805 -1.8121
14998SOL     OW46434   6.472   6.340   2.554  0.5543  0.4528  0.2817
14998SOL    HW146435   6.505   6.256   2.525 -0.8061 -0.4360  1.1784
14998SOL    HW246436   6.520   6.359   2.634 -1.5263 -1.2518  2.0668
14999SOL     OW46437   2.649   2.221   0.684  0.1573  0.3165  0.3791
14999SOL    HW146438   2.625   2.129   0.691  0.8758 -0.0648 -1.5317
14999SOL    HW246439   2.727   2.230   0.739  1.3134 -0.7566 -0.9840
15000SOL     OW46440   2.325   2.316   1.353  0.0649 -0.4390 -0.1390
15000SOL    HW146441   2.416   2.292   1.339  0.0006 -0.4136 -0.6238
15000SOL    HW246442   2.279   2.283   1.275 -0.4878 -1.2266  0.5017
15001SOL     OW46443   3.394   4.462   0.122  0.2240  0.3359  0.0902
15001SOL    HW146444   3.340   4.438   0.047  0.4910 -0.1932  0.0624
15001SOL    HW246445   3.468   4.510   0.084 -0.2046  1.0306  0.1252
15002SOL     OW46446   3.768   3.555   1.892  0.3204 -0.1571  0.1232
15002SOL    HW146447   3.682   3.513   1.897  0.7096 -1.0073 -0.1791
15002SOL    HW246448   3.756   3.639   1.938 -0.1297 -1.1384  1.8857
15003SOL     OW46449   6.210   3.887   1.611  0.8485  0.1528  0.1362
15003SOL    HW146450   6.270   3.820   1.578  1.6668  0.6380  0.6148
15003SOL    HW246451   6.254   3.923   1.687 -0.3261  0.1203  0.8536
15004SOL     OW46452   5.775   5.040   1.992  0.6367 -0.1777  0.2500
15004SOL    HW146453   5.796   5.029   1.899 -0.0307 -2.4300  0.2974
15004SOL    HW246454   5.684   5.012   1.999  0.0695  1.7410  1.3271
15005SOL     OW46455   4.360   5.375   2.204  0.5848  0.5549  0.4481
15005SOL    HW146456   4.372   5.295   2.153 -0.3371  0.9056 -0.3498
15005SOL    HW246457   4.334   5.344   2.291 -0.6029 -0.0262 -0.0837
15006SOL     OW46458   2.313   4.295  11.121  0.1708 -0.4958  0.1748
15006SOL    HW146459   2.288   4.380  11.157 -0.2609 -0.6204  0.1729
15006SOL    HW246460   2.245   4.274  11.058 -0.5236 -1.4976  1.1978
15007SOL     OW46461   5.282   3.945   0.947  0.6977  0.1677 -0.3810
15007SOL    HW146462   5.267   3.878   0.880 -0.6751  0.6046 -0.5397
15007SOL    HW246463   5.209   4.006   0.936  1.8339  1.6228 -0.1515
15008SOL     OW46464   5.330   4.210   2.297  0.5323  0.3265 -0.4607
15008SOL    HW146465   5.390   4.136   2.292 -0.1884 -0.2803 -0.2971
15008SOL    HW246466   5.255   4.176   2.345  0.9735  1.6934  1.3166
15009SOL     OW46467   5.247   4.024   0.608 -0.3267 -0.5657  0.3302
15009SOL    HW146468   5.277   3.986   0.525 -1.6332 -0.3098 -0.2922
15009SOL    HW246469   5.195   3.954   0.648 -1.3466 -0.0370 -0.0266
15010SOL     OW46470   4.903   4.795  12.343 -0.1508  0.0054 -0.0891
15010SOL    HW146471   4.927   4.722  12.286 -0.4058 -0.1435 -0.0091
15010SOL    HW246472   4.886   4.868  12.283  1.7257  0.4848 -0.0856
15011SOL     OW46473   5.290   4.697   0.755 -0.0394  0.0796  0.4281
15011SOL    HW146474   5.226   4.704   0.684 -0.4254  1.2456  0.8799
15011SOL    HW246475   5.374   4.684   0.710 -0.2326  1.0966 -0.2649
15012SOL     OW46476   2.978   4.349  11.869 -0.0088  0.3530 -0.1863
15012SOL    HW146477   2.890   4.321  11.843 -0.5693  0.1163  1.8193
15012SOL    HW246478   2.994   4.428  11.818 -1.5589  0.6227 -0.2932
15013SOL     OW46479   4.722   3.078   1.225  0.2672  0.5468 -0.7363
15013SOL    HW146480   4.733   3.141   1.297  3.3202 -0.4727 -0.1353
15013SOL    HW246481   4.811   3.063   1.194 -0.4393 -2.7277 -1.5112
15014SOL     OW46482   2.270   5.143   1.927 -0.1163 -0.5446 -0.0775
15014SOL    HW146483   2.249   5.062   1.881 -2.4322  0.2002 -0.4508
15014SOL    HW246484   2.263   5.121   2.020  1.7689 -1.3427 -0.0793
15015SOL     OW46485   3.662   0.993   0.386 -0.1418 -0.1730 -0.6469
15015SOL    HW146486   3.603   0.979   0.311  0.0407  0.3767 -0.8951
15015SOL    HW246487   3.628   1.071   0.429  0.5942  0.3290 -0.9726
15016SOL     OW46488   6.206   3.368   0.082  0.1337  0.0264 -0.0662
15016SOL    HW146489   6.139   3.334   0.022  0.4977 -2.1305  0.6523
15016SOL    HW246490   6.239   3.290   0.127  1.6642  1.2905  1.1034
15017SOL     OW46491   4.099   4.162   1.121  0.7218  0.1337  0.0956
15017SOL    HW146492   4.019   4.121   1.088 -0.3351  1.0867  1.4141
15017SOL    HW246493   4.107   4.243   1.070 -1.0504  1.7337  2.1988
15018SOL     OW46494   3.978   3.410   1.413 -0.0498  0.2646 -0.1798
15018SOL    HW146495   4.065   3.448   1.412  0.8114 -1.5917  0.9868
15018SOL    HW246496   3.933   3.452   1.486  0.6341 -0.3823  0.6192
15019SOL     OW46497   4.341   3.994   1.924  0.6089  0.0077  0.2685
15019SOL    HW146498   4.405   4.030   1.984  0.9259 -0.7863  0.4221
15019SOL    HW246499   4.309   4.069   1.875  1.6959  0.4181  0.1536
15020SOL     OW46500   4.249   4.192   1.730 -0.4973 -0.0367 -0.1437
15020SOL    HW146501   4.230   4.265   1.789 -0.8364  0.3954 -0.7833
15020SOL    HW246502   4.303   4.229   1.661 -0.5299 -0.4266 -0.3830
15021SOL     OW46503   3.716   6.095   0.725  0.6985  0.2834  0.1542
15021SOL    HW146504   3.672   6.180   0.724  0.7340  0.3336 -2.0475
15021SOL    HW246505   3.805   6.114   0.696  1.4096 -0.2354  1.8409
15022SOL     OW46506   5.612   4.824   1.267 -0.5140 -0.4483  0.5459
15022SOL    HW146507   5.600   4.801   1.175 -1.7442  1.3097  0.2306
15022SOL    HW246508   5.536   4.786   1.311 -1.6269  1.4265  0.2995
15023SOL     OW46509   5.214   3.278  11.489 -0.6970 -0.4264  0.6651
15023SOL    HW146510   5.305   3.254  11.508 -0.4679 -0.7981 -0.7950
15023SOL    HW246511   5.208   3.370  11.515  0.1147 -0.3776  0.7081
15024SOL     OW46512   3.138   1.966   0.959  0.4032 -0.1230 -0.2229
15024SOL    HW146513   3.142   2.019   0.880 -0.5436  2.5345  1.3698
15024SOL    HW246514   3.229   1.951   0.984  0.6894 -0.3137 -1.3567
15025SOL     OW46515   4.746   4.260   0.498 -0.5984 -0.0500  0.0829
15025SOL    HW146516   4.683   4.263   0.570 -1.2670 -0.7290 -0.4518
15025SOL    HW246517   4.702   4.307   0.427  0.8392  2.3812  0.6537
15026SOL     OW46518   4.437   4.554   1.762  0.0516 -0.0687  0.3160
15026SOL    HW146519   4.460   4.481   1.821  0.2796  1.0126  1.6176
15026SOL    HW246520   4.390   4.615   1.818  0.7618  1.2643 -0.4983
15027SOL     OW46521   4.871   5.525   1.138  0.1757 -0.0511 -0.0084
15027SOL    HW146522   4.946   5.519   1.079  0.0958  1.2639 -0.2673
15027SOL    HW246523   4.872   5.442   1.186  1.0221 -0.5914 -0.9174
15028SOL     OW46524   5.300   4.483   1.658 -0.0713  0.4016  0.0344
15028SOL    HW146525   5.294   4.499   1.752 -0.6317 -1.1953  0.3134
15028SOL    HW246526   5.361   4.409   1.650  0.2114  0.7143 -0.8804
15029SOL     OW46527   4.582   5.227   1.198  0.1007 -0.2802 -0.3670
15029SOL    HW146528   4.526   5.271   1.262  1.9760  0.3753  0.8912
15029SOL    HW246529   4.609   5.146   1.241 -1.0504 -1.3522 -1.5725
15030SOL     OW46530   6.923   4.400   2.358  0.2983 -0.6520  0.1590
15030SOL    HW146531   6.919   4.306   2.340  2.2586 -0.8824  0.6769
15030SOL    HW246532   7.015   4.424   2.341 -0.0700  1.0843  0.4319
15031SOL     OW46533   6.000   3.693   1.878 -0.2793 -0.1547  0.0059
15031SOL    HW146534   5.961   3.706   1.792 -2.1123 -0.7863  0.6905
15031SOL    HW246535   5.994   3.778   1.921  0.2077  0.0460 -0.3258
15032SOL     OW46536   4.790   2.446   0.608  0.4489  0.3452 -0.1744
15032SOL    HW146537   4.706   2.401   0.618  0.8114 -0.0546  1.2108
15032SOL    HW246538   4.778   2.501   0.530 -2.0449  2.3895  1.4851
15033SOL     OW46539   4.981   5.050   1.235 -0.3058  0.1378  0.9992
15033SOL    HW146540   4.960   5.143   1.245  0.8992  0.3750  1.4872
15033SOL    HW246541   5.055   5.048   1.175 -0.1481 -0.4844  1.2053
15034SOL     OW46542   4.548   2.527   1.516 -0.2007 -0.4248 -0.6819
15034SOL    HW146543   4.600   2.548   1.593  0.2618 -2.5557 -0.3339
15034SOL    HW246544   4.598   2.562   1.443 -0.1330  0.7370 -0.0985
15035SOL     OW46545   5.914   4.100   1.405 -1.0715 -0.4232  0.3911
15035SOL    HW146546   5.950   4.015   1.379 -1.5162 -0.1534 -1.2455
15035SOL    HW246547   5.827   4.103   1.366 -0.8219  1.0329 -0.1486
15036SOL     OW46548   5.964   5.043   1.131  0.3065  0.6024  0.0700
15036SOL    HW146549   5.976   4.991   1.052  1.0260  0.1342  0.4747
15036SOL    HW246550   5.973   4.981   1.203 -0.3900  1.0141  0.5249
15037SOL     OW46551   3.294   3.858   0.882 -0.0607 -0.0126  0.5143
15037SOL    HW146552   3.325   3.945   0.857 -1.1462 -0.0580 -1.0614
15037SOL    HW246553   3.347   3.797   0.830 -1.7150 -0.1366 -1.1140
15038SOL     OW46554   4.890   3.567   1.393 -0.1056  0.2720 -0.2490
15038SOL    HW146555   4.939   3.649   1.396 -1.0932  0.8976 -0.5965
15038SOL    HW246556   4.900   3.529   1.480  1.1177  0.2947 -0.3591
15039SOL     OW46557   5.244   2.298   3.128  0.2799 -0.1232  0.4619
15039SOL    HW146558   5.211   2.330   3.212 -2.6802  0.0647 -0.6328
15039SOL    HW246559   5.165   2.275   3.079  1.8546  0.1592 -2.4342
15040SOL     OW46560   5.279   3.702   0.141  0.6327 -0.5993  0.4360
15040SOL    HW146561   5.352   3.758   0.113 -0.7211  0.9444 -0.1649
15040SOL    HW246562   5.296   3.617   0.100  1.3234  0.1661 -0.9273
15041SOL     OW46563   4.197   3.616   2.581  0.0342  0.4183 -0.4237
15041SOL    HW146564   4.247   3.646   2.656 -1.1404  1.1135  0.1068
15041SOL    HW246565   4.185   3.522   2.596  0.1721  0.4766  0.0461
15042SOL     OW46566   4.028   4.649   2.508  0.1527  0.0835 -0.3562
15042SOL    HW146567   4.039   4.607   2.594 -1.8293 -0.1283 -0.1658
15042SOL    HW246568   4.028   4.742   2.528  0.8037  0.0681 -0.2744
15043SOL     OW46569   3.822   4.007   0.679  0.2628  0.3265  0.0262
15043SOL    HW146570   3.743   4.049   0.646  1.2791  2.2767 -0.0642
15043SOL    HW246571   3.881   4.004   0.603  0.4619 -0.6572  0.2078
15044SOL     OW46572   6.296   4.319   2.262 -0.3238 -0.0788  0.4107
15044SOL    HW146573   6.246   4.378   2.319 -3.1895 -1.1826 -0.7502
15044SOL    HW246574   6.229   4.262   2.222  1.7944 -1.0364 -2.0676
15045SOL     OW46575   4.144   2.838   1.250 -0.3215  0.0796 -0.0000
15045SOL    HW146576   4.058   2.831   1.210 -1.1850  1.5835  1.4395
15045SOL    HW246577   4.126   2.854   1.343  1.5493 -1.6649  0.7673
15046SOL     OW46578   6.698   2.633   1.039  0.3429  0.5008  0.3294
15046SOL    HW146579   6.756   2.585   1.099 -0.3658 -1.2646 -0.3204
15046SOL    HW246580   6.613   2.632   1.083  0.1134  0.3509 -0.1108
15047SOL     OW46581   4.856   3.729   0.040 -0.0455 -0.3556 -0.0366
15047SOL    HW146582   4.872   3.817   0.072 -0.2183 -0.7113  1.0917
15047SOL    HW246583   4.812   3.741  -0.044 -1.6847  0.6625  0.9136
15048SOL     OW46584   1.736   4.312   0.319  0.3637  0.0646  0.6217
15048SOL    HW146585   1.657   4.261   0.333  0.5684  0.2018  2.4788
15048SOL    HW246586   1.788   4.260   0.258 -0.8024 -0.3972  0.0049
15049SOL     OW46587   5.551   3.329   0.633 -0.3636 -0.2814  0.2121
15049SOL    HW146588   5.468   3.283   0.649 -0.7678  0.2769 -0.2230
15049SOL    HW246589   5.531   3.421   0.652 -0.8478  0.4467 -3.1488
15050SOL     OW46590   5.151   4.788   2.556  0.0596  0.1987  0.0298
15050SOL    HW146591   5.071   4.815   2.601 -0.5639  0.3788 -1.1456
15050SOL    HW246592   5.121   4.733   2.485  0.8994  1.0966 -1.0549
15051SOL     OW46593   2.521   3.758  12.163 -0.2248 -0.1658  0.1711
15051SOL    HW146594   2.556   3.672  12.186 -0.4213 -0.5953 -1.0432
15051SOL    HW246595   2.530   3.762  12.067 -0.6527  0.9721  0.1691
15052SOL     OW46596   4.578   5.465   0.974 -0.3119  0.5618  0.2732
15052SOL    HW146597   4.548   5.556   0.983 -0.5590  0.3158  2.4305
15052SOL    HW246598   4.659   5.462   1.025 -0.7241 -0.6075  0.8768
15053SOL     OW46599   4.633   2.748   2.125  0.2973  0.3367 -0.2623
15053SOL    HW146600   4.602   2.817   2.066  0.4750  0.2276 -0.4851
15053SOL    HW246601   4.709   2.711   2.080 -0.4460 -0.7404 -0.6694
15054SOL     OW46602   5.165   2.718   1.032 -0.2692  0.2656  0.2295
15054SOL    HW146603   5.082   2.715   1.080  0.2473 -0.0243  1.1307
15054SOL    HW246604   5.204   2.632   1.045  0.0097  0.2772 -0.4963
15055SOL     OW46605   4.323   3.637   0.521  0.8147 -0.4506 -0.2650
15055SOL    HW146606   4.361   3.602   0.441  0.8691 -3.1477  0.8229
15055SOL    HW246607   4.283   3.561   0.563 -0.1214  1.0751  1.7678
15056SOL     OW46608   3.538   5.043   1.297  0.1067  0.0537 -0.3443
15056SOL    HW146609   3.537   5.008   1.386 -2.4782 -0.5588 -0.5549
15056SOL    HW246610   3.618   5.096   1.294  0.4070 -0.1019  2.2521
15057SOL     OW46611   2.968   4.456   1.047  0.3962 -0.3279  0.3176
15057SOL    HW146612   2.975   4.537   0.997  2.0353  1.4128  3.1432
15057SOL    HW246613   3.058   4.427   1.059 -0.0352 -1.3379  1.2730
15058SOL     OW46614   4.878   5.516   1.671 -0.1736  0.2334  0.0704
15058SOL    HW146615   4.911   5.605   1.683  1.0162  0.0979 -1.7716
15058SOL    HW246616   4.792   5.517   1.713  0.1078  2.0424  0.7019
15059SOL     OW46617   5.373   3.811  11.102  0.0036  0.1587  0.0594
15059SOL    HW146618   5.313   3.762  11.044 -0.8188  0.1117  0.9331
15059SOL    HW246619   5.381   3.897  11.061 -0.3886  0.0523 -0.2447
15060SOL     OW46620   4.589   3.899   1.407 -0.4038 -0.0751  0.7401
15060SOL    HW146621   4.586   3.895   1.503 -1.5928  1.8803  0.8379
15060SOL    HW246622   4.667   3.951   1.388 -0.2551 -0.3311  0.6491
15061SOL     OW46623   2.769   5.039   2.631  0.0372 -0.3882  0.6490
15061SOL    HW146624   2.740   5.129   2.648 -0.3846  0.0676 -1.9633
15061SOL    HW246625   2.827   5.047   2.555 -0.5172 -2.3768 -0.0392
15062SOL     OW46626   3.551   4.363   1.710 -0.0201  0.2653  0.1180
15062SOL    HW146627   3.505   4.348   1.627 -0.2669  2.0755 -0.1188
15062SOL    HW246628   3.482   4.359   1.776  0.0364 -0.3428  0.1404
15063SOL     OW46629   2.036   5.689   0.868 -0.0881 -0.0978 -0.1251
15063SOL    HW146630   2.030   5.744   0.790 -0.2001  0.7150  0.4468
15063SOL    HW246631   2.128   5.662   0.872  0.1251  0.6204 -0.0349
15064SOL     OW46632   4.684   4.897   1.086  0.5202 -0.4671 -0.2323
15064SOL    HW146633   4.601   4.859   1.059  0.4199  0.1890 -0.8577
15064SOL    HW246634   4.679   4.900   1.182 -0.2079 -0.3429 -0.2746
15065SOL     OW46635   7.122   3.133   1.764  0.0296  0.1355  0.2420
15065SOL    HW146636   7.083   3.179   1.689  0.9992  0.3009 -0.1691
15065SOL    HW246637   7.065   3.058   1.778 -0.0072 -0.0458 -0.8377
15066SOL     OW46638   3.791   5.711   0.755 -0.5666  1.1071 -1.0093
15066SOL    HW146639   3.764   5.743   0.841 -1.2942 -0.5581 -0.5693
15066SOL    HW246640   3.796   5.616   0.766 -2.8882  0.5788 -3.3442
15067SOL     OW46641   5.364   5.110   0.739  0.1687  0.2937 -0.0909
15067SOL    HW146642   5.294   5.158   0.694 -2.2312 -2.0025  0.9467
15067SOL    HW246643   5.398   5.051   0.672 -3.4054 -3.1232  0.7098
15068SOL     OW46644   3.279   0.865  11.536  0.1075  0.1797  0.2696
15068SOL    HW146645   3.326   0.793  11.578  1.8310  1.1123  0.0363
15068SOL    HW246646   3.334   0.942  11.551  0.3529  0.7447 -2.8314
15069SOL     OW46647   6.198   3.858   1.243  0.3107  0.0190 -0.0386
15069SOL    HW146648   6.267   3.793   1.233  0.5843 -0.1080  2.1163
15069SOL    HW246649   6.176   3.855   1.336 -1.9188  0.7564 -0.4861
15070SOL     OW46650   4.418   4.981   1.952 -0.4890  0.7112 -0.1794
15070SOL    HW146651   4.344   5.038   1.973 -0.2361  0.9765 -0.0069
15070SOL    HW246652   4.463   4.969   2.035 -1.2119 -0.7147  0.0362
15071SOL     OW46653   2.914   4.244  12.263 -0.3673 -0.6249  0.1743
15071SOL    HW146654   2.944   4.200  12.343  0.0178  0.5066  0.6784
15071SOL    HW246655   2.840   4.191  12.233 -0.8022 -0.8406  1.5286
15072SOL     OW46656   4.013   3.236   0.549  0.4348  0.7106 -0.3707
15072SOL    HW146657   3.970   3.185   0.617  0.3434 -0.8691 -1.5466
15072SOL    HW246658   3.995   3.328   0.572 -0.0705  0.2100  1.3714
15073SOL     OW46659   3.586   3.581   1.443 -0.6639 -0.7271  0.0240
15073SOL    HW146660   3.608   3.535   1.524 -2.2842 -1.7317 -0.0665
15073SOL    HW246661   3.551   3.665   1.472 -0.5560 -0.7872  0.3309
15074SOL     OW46662   5.001   5.352   2.057  0.1272  0.1782 -0.2436
15074SOL    HW146663   4.984   5.280   2.118 -1.4218  0.7831  0.0884
15074SOL    HW246664   4.965   5.322   1.974  1.2170 -0.1787 -0.6135
15075SOL     OW46665   0.967   5.916   1.152 -0.3503 -0.3885 -0.0445
15075SOL    HW146666   0.893   5.860   1.129 -0.6328 -0.5335  1.1230
15075SOL    HW246667   1.035   5.855   1.182 -0.8123 -0.1300  1.6472
15076SOL     OW46668   3.708   6.254   2.729 -0.2388 -0.0925 -0.0293
15076SOL    HW146669   3.783   6.304   2.759 -2.0051  2.9547 -0.2957
15076SOL    HW246670   3.745   6.170   2.701  2.4483 -0.3054  3.5085
15077SOL     OW46671   4.617   5.234   0.837  0.6143  0.1494  0.3590
15077SOL    HW146672   4.697   5.195   0.873  0.3212  0.4128  1.3097
15077SOL    HW246673   4.603   5.313   0.888 -0.5737 -0.1842  0.5881
15078SOL     OW46674   5.120   3.757   2.846  0.1397  0.4425 -1.0359
15078SOL    HW146675   5.111   3.701   2.924  0.5009 -0.4171 -1.6038
15078SOL    HW246676   5.077   3.839   2.871 -0.0621  0.0517 -0.0530
15079SOL     OW46677   6.665   5.991   3.116  0.3391 -0.2439 -0.7438
15079SOL    HW146678   6.742   5.944   3.146  0.2660 -0.2800 -0.6093
15079SOL    HW246679   6.677   6.080   3.150  0.1176 -0.3566 -0.3516
15080SOL     OW46680   5.674   3.212   1.722  0.1943 -0.0477 -0.4350
15080SOL    HW146681   5.617   3.215   1.645 -0.7953 -0.3254  0.2685
15080SOL    HW246682   5.736   3.142   1.703  0.6819  0.6192 -1.4447
15081SOL     OW46683   4.604   4.800   2.067 -0.6328 -1.0270  0.4798
15081SOL    HW146684   4.662   4.740   2.020 -1.1868 -2.0836  1.1180
15081SOL    HW246685   4.551   4.744   2.123 -2.2101 -0.0761  0.0082
15082SOL     OW46686   6.810   5.090   1.813 -0.0910 -0.9053 -0.2690
15082SOL    HW146687   6.854   5.016   1.772  1.9680 -1.0184  1.9269
15082SOL    HW246688   6.733   5.052   1.855  0.8376 -1.8287  0.6649
15083SOL     OW46689   5.435   4.677   3.713 -0.6310 -0.3649 -0.4289
15083SOL    HW146690   5.361   4.728   3.746 -0.5788 -0.8701  0.5014
15083SOL    HW246691   5.501   4.682   3.781 -0.2482 -0.8711 -0.7466
15084SOL     OW46692   5.265   3.978   1.987  0.2163 -0.2803  0.2387
15084SOL    HW146693   5.210   4.035   1.934 -1.8383 -1.1421  1.3432
15084SOL    HW246694   5.206   3.943   2.054  1.4958 -3.2823 -0.0688
15085SOL     OW46695   6.185   5.120   2.973  0.2048  0.2946 -0.6543
15085SOL    HW146696   6.141   5.202   2.996  0.3665  0.1280  0.2974
15085SOL    HW246697   6.172   5.111   2.879  0.8224  1.8006 -0.9093
15086SOL     OW46698   6.837   7.219   4.376 -0.1516  0.1795  0.7737
15086SOL    HW146699   6.881   7.221   4.461  1.8664 -0.1301 -0.2219
15086SOL    HW246700   6.855   7.132   4.342 -1.4322  0.0981  0.2480
15087SOL     OW46701   5.440   5.093   3.682 -0.3775 -0.3458  0.7158
15087SOL    HW146702   5.504   5.119   3.749 -0.4933  0.0935  0.6575
15087SOL    HW246703   5.419   5.174   3.636  2.7997 -1.1646 -2.6275
15088SOL     OW46704   1.996   4.830   2.202  0.1179  0.6282  0.0093
15088SOL    HW146705   2.025   4.779   2.126 -0.2972  1.2790 -0.5959
15088SOL    HW246706   2.024   4.778   2.277 -2.4704 -1.8388 -0.5352
15089SOL     OW46707   4.093   5.472   1.414  0.2331 -0.0966 -0.3834
15089SOL    HW146708   4.049   5.409   1.471  2.1377 -0.6146  0.5741
15089SOL    HW246709   4.083   5.436   1.326 -1.1797 -0.2154 -0.2051
15090SOL     OW46710   5.046   4.678   1.736 -0.0824 -0.3609  0.4720
15090SOL    HW146711   4.958   4.643   1.726 -0.4120  0.8891 -1.3904
15090SOL    HW246712   5.104   4.604   1.716 -0.7076 -0.8188  0.3261
15091SOL     OW46713   5.634   4.979   3.458  0.3201 -0.2123  0.0841
15091SOL    HW146714   5.541   4.956   3.454 -0.1998  1.7987 -0.5596
15091SOL    HW246715   5.657   4.969   3.551 -0.5497 -0.6618  0.2627
15092SOL     OW46716   3.577   5.257   2.978  0.3401 -0.1278  0.1310
15092SOL    HW146717   3.595   5.172   3.017  1.5849 -0.3519 -0.8484
15092SOL    HW246718   3.510   5.296   3.034 -0.9942 -2.1422  0.0194
15093SOL     OW46719   5.382   5.023   1.715  0.2743  0.1038 -0.1320
15093SOL    HW146720   5.377   5.118   1.702  1.0025  0.2204  0.3949
15093SOL    HW246721   5.346   4.987   1.634  0.7508  0.8319 -0.6911
15094SOL     OW46722   5.297   3.787   1.666 -0.4712  0.2563 -0.3047
15094SOL    HW146723   5.224   3.850   1.670  1.8969  3.4993 -2.5743
15094SOL    HW246724   5.315   3.779   1.572  2.4788  0.1010  0.2017
15095SOL     OW46725   4.701   3.502   2.074  0.2590 -0.0895 -0.3231
15095SOL    HW146726   4.670   3.412   2.065  0.9558 -0.3375 -0.2722
15095SOL    HW246727   4.685   3.524   2.165  0.8165 -0.4424 -0.1353
15096SOL     OW46728   7.276   4.851   1.823  0.2988  0.1339  0.2497
15096SOL    HW146729   7.261   4.847   1.918  0.0742 -0.7508  0.1864
15096SOL    HW246730   7.283   4.759   1.796 -1.1563  0.3192 -0.8369
15097SOL     OW46731   4.357   5.182   2.705  0.0840 -0.3527  0.2759
15097SOL    HW146732   4.339   5.137   2.788 -0.3722 -0.9023 -0.1043
15097SOL    HW246733   4.390   5.268   2.730 -2.5543  0.5286  1.0727
15098SOL     OW46734   5.232   4.960   3.761 -0.3015  0.3010 -0.0337
15098SOL    HW146735   5.319   4.990   3.735 -0.1932  0.0573  0.0364
15098SOL    HW246736   5.172   5.008   3.706 -0.1547  0.9408  0.3588
15099SOL     OW46737   2.786   4.932   3.815  0.4920  0.6126  0.4487
15099SOL    HW146738   2.709   4.890   3.852  1.1828 -0.8322  0.3089
15099SOL    HW246739   2.856   4.866   3.823  1.3018  1.2529 -0.9594
15100SOL     OW46740   2.119   2.940   1.413  0.4388 -0.0877  0.4342
15100SOL    HW146741   2.190   2.916   1.353 -0.0919 -0.4170 -0.0787
15100SOL    HW246742   2.159   3.000   1.475  0.6052  1.7442 -1.3454
15101SOL     OW46743   4.860   4.025   1.853 -0.2169  0.5449 -0.2361
15101SOL    HW146744   4.856   4.105   1.904 -0.0082 -0.0292  0.7092
15101SOL    HW246745   4.797   3.966   1.895 -0.4433  0.2415 -0.9765
15102SOL     OW46746   6.215   4.477   3.787 -0.0446 -0.0473  0.4855
15102SOL    HW146747   6.270   4.552   3.761 -2.6975  1.6188 -0.7502
15102SOL    HW246748   6.182   4.442   3.704  0.4330 -2.1031  1.1023
15103SOL     OW46749   4.952   6.600   2.961 -0.0355  0.4785  0.0903
15103SOL    HW146750   5.015   6.629   3.026 -1.1991  2.6110  0.3781
15103SOL    HW246751   4.877   6.569   3.013 -0.0130 -0.1567 -0.2470
15104SOL     OW46752   5.897   5.004   1.696  0.1709 -0.1067  0.5861
15104SOL    HW146753   5.854   4.954   1.628 -0.0679 -1.2668  1.5510
15104SOL    HW246754   5.893   5.095   1.666  1.3459 -0.7248 -1.5942
15105SOL     OW46755   7.209   6.069   3.354 -0.0107  0.6617  1.0425
15105SOL    HW146756   7.143   6.122   3.309  0.6896  1.6130  1.1075
15105SOL    HW246757   7.177   6.063   3.445  0.9144  2.7635  1.5612
15106SOL     OW46758   1.849   5.659   0.586 -0.2155 -0.1574  0.4294
15106SOL    HW146759   1.894   5.587   0.631  1.1304  0.0689 -0.4980
15106SOL    HW246760   1.919   5.707   0.542 -0.7930  2.7535  2.3652
15107SOL     OW46761   4.384   3.702   2.778 -0.2556  0.2332  0.5820
15107SOL    HW146762   4.321   3.739   2.840 -0.7968  0.2186  0.0434
15107SOL    HW246763   4.469   3.712   2.821 -0.4430  1.7015  0.6399
15108SOL     OW46764   4.832   6.800   2.334 -0.0126  0.5770  0.6602
15108SOL    HW146765   4.822   6.714   2.374  2.1306  0.0813  0.2483
15108SOL    HW246766   4.786   6.859   2.393 -0.4622 -0.6854  1.6178
15109SOL     OW46767   6.572   6.096   2.456  0.1534  0.3014 -0.9694
15109SOL    HW146768   6.546   6.065   2.543  0.2847  2.0158 -0.2977
15109SOL    HW246769   6.668   6.092   2.457  0.1910  1.1561 -0.7059
15110SOL     OW46770   5.800   3.549   5.281  0.1391 -0.3617 -0.0177
15110SOL    HW146771   5.849   3.590   5.210 -1.5184  0.3371 -0.8214
15110SOL    HW246772   5.725   3.608   5.295  0.5747 -0.3032  2.5507
15111SOL     OW46773   5.640   3.463   1.702 -0.1606  0.6176 -0.6021
15111SOL    HW146774   5.609   3.465   1.612  0.1523  0.0479 -0.7293
15111SOL    HW246775   5.669   3.373   1.715 -0.4199  0.6357  0.1437
15112SOL     OW46776   3.674   4.739   1.361 -0.3386  0.0389 -0.1572
15112SOL    HW146777   3.656   4.826   1.397  0.3728  0.6507 -1.2317
15112SOL    HW246778   3.694   4.685   1.438 -1.5466  0.6150  0.5895
15113SOL     OW46779   2.843   5.876   6.314 -0.2554  0.2890  0.3752
15113SOL    HW146780   2.815   5.900   6.403  0.1351 -2.5470  1.3694
15113SOL    HW246781   2.763   5.845   6.272 -0.2513  0.6591  0.0948
15114SOL     OW46782   3.373   4.961   1.823  0.3210  0.1543  0.3367
15114SOL    HW146783   3.287   4.980   1.861  0.5418  0.0086  0.9256
15114SOL    HW246784   3.431   5.025   1.864  0.4042  0.6282 -0.4844
15115SOL     OW46785   5.857   4.688   4.740  0.0589 -0.3948  0.1683
15115SOL    HW146786   5.921   4.692   4.669 -0.2323  2.0911 -0.0172
15115SOL    HW246787   5.788   4.631   4.707 -0.3419  1.1354 -1.8128
15116SOL     OW46788   7.387   3.978   3.223  0.2409  0.0259  0.4178
15116SOL    HW146789   7.401   3.942   3.135 -1.1729 -0.8036  0.4891
15116SOL    HW246790   7.302   4.022   3.218  0.0877 -0.1235  1.3819
15117SOL     OW46791   3.260   4.181   2.480 -0.4154 -0.4011 -0.2651
15117SOL    HW146792   3.321   4.235   2.529  0.6230 -1.3568 -0.4769
15117SOL    HW246793   3.188   4.165   2.541 -0.0282 -0.0253  0.3005
15118SOL     OW46794   5.873   5.698   2.866 -0.5107 -0.1963 -0.0407
15118SOL    HW146795   5.811   5.627   2.880 -0.5392 -0.2252 -0.3063
15118SOL    HW246796   5.941   5.685   2.932 -0.8290 -0.1169  0.2985
15119SOL     OW46797   3.294   4.664   1.520  0.2040 -0.0997 -0.2766
15119SOL    HW146798   3.265   4.581   1.480 -1.3447  0.1227  0.3058
15119SOL    HW246799   3.306   4.644   1.612 -3.2545  0.9155  0.5544
15120SOL     OW46800   5.756   5.203   3.780 -0.5665 -0.5811 -0.3674
15120SOL    HW146801   5.787   5.189   3.869 -1.9723 -0.6611  0.1226
15120SOL    HW246802   5.765   5.117   3.738 -0.8142 -0.7760 -0.0194
15121SOL     OW46803   4.381   5.818   3.510 -0.7923  0.1172 -0.0124
15121SOL    HW146804   4.405   5.732   3.477 -1.2157  0.1880 -0.5149
15121SOL    HW246805   4.370   5.805   3.604 -1.1094 -0.4351 -0.1226
15122SOL     OW46806   4.687   5.041   1.369  0.3287 -0.0004 -0.1251
15122SOL    HW146807   4.782   5.051   1.372  0.1928  1.4853  0.3453
15122SOL    HW246808   4.661   5.036   1.461  0.0856 -2.3471 -0.2694
15123SOL     OW46809   4.908   3.609   2.329  0.4836 -0.0646 -0.2606
15123SOL    HW146810   4.922   3.619   2.423 -2.6191  0.6327  0.2235
15123SOL    HW246811   4.922   3.516   2.312 -0.0521 -0.4056  1.1149
15124SOL     OW46812   7.070   4.264   2.032 -0.4017 -0.0362 -0.8781
15124SOL    HW146813   7.108   4.257   1.944 -1.5259 -0.6201 -1.3391
15124SOL    HW246814   7.061   4.174   2.062 -2.7838 -0.0597 -1.4222
15125SOL     OW46815   4.452   3.944   2.978 -0.2557  0.9235 -0.1389
15125SOL    HW146816   4.490   3.880   2.918 -0.4113  0.1085  0.6252
15125SOL    HW246817   4.524   4.004   2.998  0.3001  0.1263  0.3068
15126SOL     OW46818   4.849   4.703   2.555  0.0757  0.4674 -0.2055
15126SOL    HW146819   4.827   4.795   2.539  1.2456  1.1229  1.5907
15126SOL    HW246820   4.772   4.667   2.598 -0.3630  0.6090 -0.8607
15127SOL     OW46821   3.365   4.416   1.238  0.1662 -0.1261  0.3290
15127SOL    HW146822   3.435   4.461   1.191  0.6639 -0.1106  1.0690
15127SOL    HW246823   3.285   4.457   1.206  0.5262  0.2417 -0.1171
15128SOL     OW46824   7.707   3.602   2.323  0.0885 -0.1213 -0.1761
15128SOL    HW146825   7.726   3.531   2.262  0.6267 -0.1920  0.0671
15128SOL    HW246826   7.791   3.647   2.334  0.3213 -0.8599  1.4657
15129SOL     OW46827   3.860   6.436   3.181  0.3098 -0.1921  0.0730
15129SOL    HW146828   3.899   6.364   3.131  0.5433  1.4967 -2.3458
15129SOL    HW246829   3.829   6.395   3.262  2.1454 -2.6268 -0.3432
15130SOL     OW46830   3.309   5.533   1.933 -0.5829  0.3458 -0.5257
15130SOL    HW146831   3.234   5.575   1.891 -1.8967 -0.9177  0.4649
15130SOL    HW246832   3.305   5.442   1.903 -0.9449 -0.3344  1.4713
15131SOL     OW46833   5.101   4.307   3.361 -0.0691 -0.0253 -0.1471
15131SOL    HW146834   5.018   4.283   3.320 -0.3731  1.0108 -0.1622
15131SOL    HW246835   5.119   4.235   3.422 -0.3893 -0.8116 -0.9655
15132SOL     OW46836   6.746   2.804   4.471 -0.2473 -0.2356  0.2958
15132SOL    HW146837   6.760   2.763   4.386 -1.9293 -0.9435  0.3295
15132SOL    HW246838   6.685   2.875   4.454  0.2562  0.3178  0.7476
15133SOL     OW46839   5.877   2.549   1.521  0.1233  0.4753 -0.5978
15133SOL    HW146840   5.807   2.486   1.537  0.4983 -0.1999 -1.4932
15133SOL    HW246841   5.914   2.567   1.607  0.0042 -0.5295 -0.3261
15134SOL     OW46842   5.676   6.361   2.567 -0.0196  0.5083  0.3893
15134SOL    HW146843   5.649   6.287   2.514  0.6683  1.6789 -1.6821
15134SOL    HW246844   5.750   6.328   2.618 -0.0193 -0.3425 -0.1449
15135SOL     OW46845   6.049   4.633   3.379 -0.0352 -0.1446  0.1108
15135SOL    HW146846   6.005   4.667   3.457 -0.7193 -0.8467  0.0417
15135SOL    HW246847   6.000   4.670   3.305 -0.0007 -0.2682  0.0250
15136SOL     OW46848   4.195   5.861   2.452 -0.0302 -0.4539 -0.2246
15136SOL    HW146849   4.132   5.815   2.507  0.3915 -0.2488  0.4407
15136SOL    HW246850   4.208   5.945   2.496 -3.0269  1.6795 -2.8579
15137SOL     OW46851   2.776   3.984   2.896 -0.8232  0.3451  0.3442
15137SOL    HW146852   2.686   3.976   2.926 -1.7382 -1.6792 -2.4608
15137SOL    HW246853   2.811   3.895   2.901  0.2612  0.6968 -0.5772
15138SOL     OW46854   5.614   3.377   2.937 -0.0669 -0.3764  0.0228
15138SOL    HW146855   5.683   3.441   2.925 -0.8497  0.1901 -1.8181
15138SOL    HW246856   5.533   3.424   2.916 -0.8489 -1.4714  0.4647
15139SOL     OW46857   6.066   4.560   1.500 -0.0808  0.0045  0.2352
15139SOL    HW146858   6.020   4.508   1.565  0.0953 -1.4858 -0.7756
15139SOL    HW246859   6.017   4.547   1.419 -0.3791  1.9324  0.0486
15140SOL     OW46860   5.621   3.128   2.752 -0.3123 -0.4716  0.2435
15140SOL    HW146861   5.676   3.179   2.692  0.4137 -1.2649  0.2063
15140SOL    HW246862   5.541   3.180   2.762  0.4082  0.6850  0.2349
15141SOL     OW46863   4.151   2.370   2.419  0.4135 -0.2543  0.4764
15141SOL    HW146864   4.157   2.309   2.346 -0.6473 -1.1188  1.0868
15141SOL    HW246865   4.225   2.430   2.406  0.0296 -0.1372 -1.5156
15142SOL     OW46866   3.725   5.500   2.933 -0.2679 -0.8975  0.1597
15142SOL    HW146867   3.666   5.425   2.929 -0.2071 -1.0029  1.0723
15142SOL    HW246868   3.667   5.576   2.944 -0.3326 -0.7945 -0.8161
15143SOL     OW46869   4.651   3.758   2.557 -0.1618  0.3469  0.6454
15143SOL    HW146870   4.631   3.698   2.629 -2.3248  1.4370  1.0468
15143SOL    HW246871   4.676   3.840   2.601  0.7803  0.3590  0.1152
15144SOL     OW46872   5.055   5.422   3.219  0.8010 -0.6850  0.3141
15144SOL    HW146873   5.060   5.339   3.266  1.4235  0.0964  1.6676
15144SOL    HW246874   5.041   5.488   3.287 -0.0731  0.2972 -0.7699
15145SOL     OW46875   2.747   4.017   2.573  0.0716 -0.0210 -0.0099
15145SOL    HW146876   2.738   4.031   2.479 -3.0552 -0.1828  0.1593
15145SOL    HW246877   2.822   3.957   2.581 -1.1265 -2.1017 -2.6476
15146SOL     OW46878   3.740   4.321   3.171 -0.4251  0.3807 -0.3969
15146SOL    HW146879   3.801   4.248   3.173 -1.2367 -0.3035  0.0791
15146SOL    HW246880   3.754   4.367   3.254  0.4267  1.0783 -0.9041
15147SOL     OW46881   4.805   4.827   2.855 -0.1652  0.3468  0.6427
15147SOL    HW146882   4.755   4.748   2.873  1.1491 -0.5574  0.4722
15147SOL    HW246883   4.744   4.899   2.873 -1.5430 -0.6947  0.3375
15148SOL     OW46884   4.997   4.762   3.172 -0.2090  0.4678 -0.0065
15148SOL    HW146885   4.929   4.694   3.168 -0.6522  0.8964  0.0868
15148SOL    HW246886   5.035   4.753   3.259  1.3672 -1.1958 -0.7960
15149SOL     OW46887   5.277   4.980   3.228 -0.0105 -0.6623  0.0751
15149SOL    HW146888   5.270   4.884   3.225 -1.5848 -0.5420 -0.6937
15149SOL    HW246889   5.230   5.004   3.308  2.2491 -0.6178  1.5080
15150SOL     OW46890   4.998   4.364   3.053 -0.3966  0.2838  0.3751
15150SOL    HW146891   4.925   4.407   3.098  0.3613  1.1180  0.8407
15150SOL    HW246892   4.979   4.270   3.061 -2.6455  0.4576 -1.5861
15151SOL     OW46893   6.969   4.314   2.662 -0.4745  0.4730 -0.0594
15151SOL    HW146894   6.898   4.252   2.647 -1.0180  0.9521  0.4320
15151SOL    HW246895   6.965   4.333   2.756  0.2310  0.6015 -0.0449
15152SOL     OW46896   3.538   3.965   1.063 -0.3990 -0.2307 -0.2107
15152SOL    HW146897   3.633   3.969   1.067 -0.3767  0.2759 -1.0412
15152SOL    HW246898   3.512   3.929   1.148  0.4574  0.9731  0.6044
15153SOL     OW46899   6.062   5.292   1.736  0.1138 -0.4184 -0.3854
15153SOL    HW146900   6.111   5.266   1.657  0.1686 -0.8765 -0.2066
15153SOL    HW246901   5.971   5.297   1.707  0.2812  0.6284 -0.7667
15154SOL     OW46902   6.739   2.598   0.739  0.0112  0.6481  0.4419
15154SOL    HW146903   6.792   2.668   0.701  0.3260  0.7922  1.1313
15154SOL    HW246904   6.732   2.620   0.832 -0.8566  0.3723  0.4530
15155SOL     OW46905   4.822   4.277   2.615 -0.5884  0.2469  0.0959
15155SOL    HW146906   4.900   4.286   2.669 -0.4352 -0.1799 -0.0479
15155SOL    HW246907   4.757   4.333   2.657 -0.9203 -1.1610  1.5776
15156SOL     OW46908   5.080   4.097   2.639 -0.3513 -0.7766  0.1706
15156SOL    HW146909   4.997   4.142   2.627  0.2674  0.4197  0.2911
15156SOL    HW246910   5.064   4.037   2.712 -2.0781 -3.0716 -1.9046
15157SOL     OW46911   5.319   5.696   3.995 -0.0094  0.0916 -0.2044
15157SOL    HW146912   5.252   5.633   4.019 -2.3784  2.5885  0.2612
15157SOL    HW246913   5.291   5.730   3.910  0.5712  1.2357  0.0345
15158SOL     OW46914   4.784   4.468   3.179 -0.0592 -0.2032 -0.7309
15158SOL    HW146915   4.773   4.527   3.253  2.4776  0.7773 -1.0089
15158SOL    HW246916   4.744   4.386   3.206  0.5795  0.2072  1.6256
15159SOL     OW46917   4.495   5.024   0.706 -0.2385 -0.4822  0.3953
15159SOL    HW146918   4.431   5.063   0.647  1.5906 -0.5901 -1.7819
15159SOL    HW246919   4.543   5.098   0.743  0.4894 -0.4764 -0.5177
15160SOL     OW46920   5.448   5.129   3.091 -0.4156  0.0322  0.1923
15160SOL    HW146921   5.441   5.120   2.996 -0.9179 -1.3768  0.3298
15160SOL    HW246922   5.374   5.078   3.125 -0.9679  1.4973  1.3229
15161SOL     OW46923   6.295   4.397   1.549 -0.0694  0.3844 -0.2842
15161SOL    HW146924   6.339   4.383   1.465  1.5607  1.0752  0.4102
15161SOL    HW246925   6.224   4.459   1.529  1.3729  1.9180 -0.8776
15162SOL     OW46926   3.881   3.928   4.268  0.1135 -0.2185 -0.3374
15162SOL    HW146927   3.871   3.848   4.320 -0.9287  0.2230  0.1885
15162SOL    HW246928   3.961   3.915   4.218 -0.2850 -1.7880 -0.6198
15163SOL     OW46929   4.535   5.559   1.708  0.2351  0.0079 -0.4222
15163SOL    HW146930   4.534   5.654   1.714 -0.3285  0.0814 -1.5285
15163SOL    HW246931   4.455   5.537   1.662 -2.0872 -1.3115  3.7297
15164SOL     OW46932   4.177   4.841   2.869  0.3946 -0.0200  0.2581
15164SOL    HW146933   4.096   4.846   2.921 -0.1486  1.4098 -0.6883
15164SOL    HW246934   4.238   4.794   2.926 -0.8672 -0.4835  1.2885
15165SOL     OW46935   5.224   5.190   2.635  0.6907 -0.0531  0.2208
15165SOL    HW146936   5.224   5.143   2.719 -0.6499 -1.5679 -0.5557
15165SOL    HW246937   5.293   5.149   2.585  0.8118  0.1482  0.2235
15166SOL     OW46938   5.798   4.845   2.597 -0.5430  0.2983 -0.3988
15166SOL    HW146939   5.841   4.846   2.683 -1.5401  0.7092  0.1039
15166SOL    HW246940   5.854   4.789   2.544  0.9351  1.2393  0.0834
15167SOL     OW46941   6.226   5.985   2.069 -0.2184 -0.4169 -0.8722
15167SOL    HW146942   6.154   5.924   2.083 -1.9305  1.6448 -0.1105
15167SOL    HW246943   6.217   6.013   1.978  0.7290 -1.4490 -1.3021
15168SOL     OW46944   5.473   2.856   1.448 -0.2605 -0.4895  0.5252
15168SOL    HW146945   5.440   2.884   1.533  0.1836 -0.7885  0.7959
15168SOL    HW246946   5.511   2.770   1.463  3.3219  1.0114  0.8935
15169SOL     OW46947   3.018   4.587   4.322  0.2423  0.2891  0.1036
15169SOL    HW146948   3.112   4.599   4.339  0.4100  1.0485 -1.2131
15169SOL    HW246949   3.003   4.494   4.335  0.8600  0.3795  1.7393
15170SOL     OW46950   4.254   4.457   3.607 -0.5404  0.5627 -0.2171
15170SOL    HW146951   4.268   4.370   3.645 -0.8670 -0.2919 -1.9685
15170SOL    HW246952   4.200   4.502   3.672 -0.3195 -0.4934  0.7548
15171SOL     OW46953   5.078   5.078   2.331 -0.0619 -0.4577 -0.2857
15171SOL    HW146954   5.026   5.096   2.409  0.1990 -0.6571 -0.0647
15171SOL    HW246955   5.166   5.059   2.364 -0.2634 -1.9163 -0.5229
15172SOL     OW46956   2.863   4.007   2.243  0.3695 -0.8643  0.0022
15172SOL    HW146957   2.956   4.030   2.250  0.0574 -0.0772  2.0918
15172SOL    HW246958   2.820   4.089   2.220  0.0180 -0.9124  0.5037
15173SOL     OW46959   4.397   4.426   3.392 -0.0103 -0.1896  0.5015
15173SOL    HW146960   4.456   4.501   3.392 -0.6371  0.3149  0.5413
15173SOL    HW246961   4.347   4.435   3.474 -1.6720  0.6536 -0.5354
15174SOL     OW46962   5.519   3.660   2.156 -0.1367 -0.1974 -0.0274
15174SOL    HW146963   5.427   3.640   2.168  0.3022 -1.5689  1.4222
15174SOL    HW246964   5.524   3.702   2.069 -2.0438 -0.3854 -0.2620
15175SOL     OW46965   2.940   4.550   3.112 -0.1220  0.8268 -0.5186
15175SOL    HW146966   2.962   4.473   3.164 -1.3851  0.7721 -0.0329
15175SOL    HW246967   2.939   4.622   3.176 -0.7418  0.9205 -0.6280
15176SOL     OW46968   4.273   4.738   3.384  0.5137  0.4415  0.7703
15176SOL    HW146969   4.356   4.698   3.411  0.7761  0.5217  0.1016
15176SOL    HW246970   4.274   4.825   3.422  1.4841  1.0478 -0.5488
15177SOL     OW46971   5.420   3.964   3.895 -0.1851  0.3004  0.2239
15177SOL    HW146972   5.409   3.949   3.801  1.4873  0.2833 -0.0038
15177SOL    HW246973   5.419   4.059   3.905  1.2213  0.3827 -0.0835
15178SOL     OW46974   3.485   3.931   2.337  0.2078  0.0320 -0.4710
15178SOL    HW146975   3.390   3.931   2.325  0.1309  2.4431 -0.1525
15178SOL    HW246976   3.498   3.919   2.431  0.2750 -0.8988 -0.5840
15179SOL     OW46977   5.974   3.967   1.084 -0.1077 -0.1382 -0.3095
15179SOL    HW146978   5.917   3.931   1.152 -0.2902  3.4289  1.6578
15179SOL    HW246979   6.061   3.965   1.123 -0.0841  1.1576 -0.2585
15180SOL     OW46980   4.454   5.550   3.410 -0.0581 -0.1852 -0.3044
15180SOL    HW146981   4.548   5.542   3.421  0.2734  2.6491 -0.3572
15180SOL    HW246982   4.421   5.461   3.419  2.4386 -1.0504  1.3279
15181SOL     OW46983   5.134   4.955   3.461  0.1620  0.0522 -0.5432
15181SOL    HW146984   5.160   4.888   3.524 -0.2268  1.0612  0.7385
15181SOL    HW246985   5.041   4.939   3.447  0.3604 -0.4949 -1.2883
15182SOL     OW46986   6.092   4.511   2.261 -0.4169 -0.3382 -0.1860
15182SOL    HW146987   6.010   4.462   2.254  0.4348 -2.0313  0.9549
15182SOL    HW246988   6.066   4.596   2.296 -1.7027 -0.8188  0.0905
15183SOL     OW46989   2.832   5.528   2.621  0.1407 -0.2264  0.1717
15183SOL    HW146990   2.809   5.435   2.613  1.0395 -0.5682  1.2815
15183SOL    HW246991   2.803   5.551   2.709 -1.3578  0.9593 -0.5712
15184SOL     OW46992   6.341   2.926   1.298  0.0112 -0.1189 -0.2565
15184SOL    HW146993   6.282   2.851   1.296 -0.8042  0.4951  0.3236
15184SOL    HW246994   6.380   2.924   1.385 -0.1275  0.2169 -0.1864
15185SOL     OW46995   5.826   2.705   2.395  0.7836  0.2267  0.0297
15185SOL    HW146996   5.868   2.730   2.477  1.2057 -0.9610  0.1941
15185SOL    HW246997   5.841   2.611   2.388 -1.5974 -0.2109 -0.0604
15186SOL     OW46998   6.569   4.841   4.209 -0.2344  0.4326 -0.5894
15186SOL    HW146999   6.534   4.919   4.250  1.0230 -0.0236  1.5052
15186SOL    HW247000   6.660   4.836   4.239 -0.2067 -1.6922 -0.8245
15187SOL     OW47001   3.372   4.120  12.492 -0.1753 -0.1502  0.0162
15187SOL    HW147002   3.338   4.068  12.419 -0.3004  0.8850 -0.6723
15187SOL    HW247003   3.350   4.210  12.471  0.4295  0.2452  0.9858
15188SOL     OW47004   4.360   4.358   2.915  0.0794 -0.1986  0.3922
15188SOL    HW147005   4.400   4.383   2.998  1.1379  2.4675 -0.7951
15188SOL    HW247006   4.269   4.339   2.937  0.0565  1.5322  2.0366
15189SOL     OW47007   2.428   4.334   2.541  0.2147  0.3944  0.0926
15189SOL    HW147008   2.463   4.256   2.585 -2.2869 -0.9831 -0.1846
15189SOL    HW247009   2.357   4.300   2.487 -1.4914  3.0073  0.5686
15190SOL     OW47010   3.072   6.306   3.121  0.4096  0.1043 -0.5712
15190SOL    HW147011   3.079   6.243   3.192  0.0800  0.9976  0.2738
15190SOL    HW247012   3.125   6.270   3.051  1.2403 -0.4916  0.3521
15191SOL     OW47013   4.285   3.810   2.281 -0.0108 -0.6086  0.1649
15191SOL    HW147014   4.289   3.834   2.373 -0.2986  0.0369  0.0198
15191SOL    HW247015   4.312   3.719   2.278 -1.1463 -0.9908  1.0368
15192SOL     OW47016   4.398   5.651   2.179 -0.2960 -0.1985 -0.0246
15192SOL    HW147017   4.303   5.661   2.176 -0.2460  0.2067 -0.3696
15192SOL    HW247018   4.412   5.557   2.191 -0.7565 -0.0601  1.8462
15193SOL     OW47019   3.640   3.807   2.109  0.1335  0.2157  0.7890
15193SOL    HW147020   3.734   3.825   2.107  0.2068 -0.0990  1.1837
15193SOL    HW247021   3.608   3.855   2.186  0.1263 -0.3549  1.1535
15194SOL     OW47022   2.849   4.306   3.691  0.6020  0.1169  0.0496
15194SOL    HW147023   2.844   4.211   3.682  2.9904  0.1150 -2.0361
15194SOL    HW247024   2.889   4.320   3.777  3.2174 -0.9460 -0.9101
15195SOL     OW47025   7.015   5.251   4.682  0.0561  0.5674  0.6653
15195SOL    HW147026   6.923   5.263   4.659  0.4794  0.4094 -1.2980
15195SOL    HW247027   7.054   5.338   4.672  0.5094  0.2428 -0.5921
15196SOL     OW47028   4.705   3.791   2.292  0.1415  0.4781  0.6293
15196SOL    HW147029   4.668   3.792   2.380 -2.0529  0.1606 -0.2299
15196SOL    HW247030   4.762   3.714   2.291  0.8265  0.9357  1.9809
15197SOL     OW47031   4.019   4.633   3.465  0.1907  0.5235  0.3021
15197SOL    HW147032   4.075   4.689   3.412  1.0478 -1.5445 -1.0843
15197SOL    HW247033   4.078   4.592   3.527 -0.0280 -0.5520 -0.1868
15198SOL     OW47034   3.565   4.514   3.389  0.3840  0.1885 -0.1972
15198SOL    HW147035   3.531   4.462   3.462  1.6799 -1.0281 -0.3978
15198SOL    HW247036   3.660   4.503   3.395  0.5478  0.5153 -1.7412
15199SOL     OW47037   6.106   5.888   3.402  0.3374  0.6602 -0.7212
15199SOL    HW147038   6.150   5.809   3.433  2.3703  1.9721 -0.0885
15199SOL    HW247039   6.014   5.863   3.398  0.9292 -1.7979 -0.7776
15200SOL     OW47040   3.956   4.632   2.983 -0.3916  0.4120 -0.6240
15200SOL    HW147041   3.967   4.552   2.930 -1.3319 -0.6655  0.7382
15200SOL    HW247042   3.984   4.607   3.071  1.9284  2.4085 -0.6998
15201SOL     OW47043   2.677   5.044   2.144  0.8554 -0.6817 -0.1799
15201SOL    HW147044   2.682   5.111   2.076  1.1789 -0.1762  0.3234
15201SOL    HW247045   2.585   5.041   2.169  0.9937  0.3685  0.5421
15202SOL     OW47046   3.205   5.053   2.322 -0.3069 -0.2970 -0.3678
15202SOL    HW147047   3.179   4.986   2.385 -0.3941 -0.6702 -0.7987
15202SOL    HW247048   3.191   5.013   2.236 -1.8428  0.8214 -0.6771
15203SOL     OW47049   5.891   5.040   3.078  0.1846 -0.8410 -0.3004
15203SOL    HW147050   5.924   4.974   3.017 -0.0496  0.3396 -1.7705
15203SOL    HW247051   5.817   5.079   3.032  1.2284  1.4719 -0.1379
15204SOL     OW47052   5.794   4.467   2.224 -0.6302  0.0771  0.3279
15204SOL    HW147053   5.704   4.491   2.203 -0.4168  0.4652 -0.1386
15204SOL    HW247054   5.799   4.477   2.319 -1.0516  0.1362  0.3482
15205SOL     OW47055   7.539   5.421   2.668  0.0949 -0.3125  0.1096
15205SOL    HW147056   7.493   5.489   2.619  0.1656 -1.3154 -1.4231
15205SOL    HW247057   7.623   5.461   2.692  0.2252  0.0906 -0.9612
15206SOL     OW47058   3.253   5.441   1.352  0.0589 -0.3252 -0.2889
15206SOL    HW147059   3.221   5.360   1.392  1.9679 -1.7219 -1.3957
15206SOL    HW247060   3.175   5.496   1.343 -1.1157 -1.6034  1.4456
15207SOL     OW47061   2.412   5.483   1.264  0.0155 -0.0246 -0.5318
15207SOL    HW147062   2.319   5.503   1.264  0.6186  3.3423 -0.1306
15207SOL    HW247063   2.434   5.470   1.356  0.2150  0.9029 -0.4384
15208SOL     OW47064   3.660   5.776   2.659 -0.2196  0.6932  0.1548
15208SOL    HW147065   3.690   5.797   2.747 -0.1276  1.0433  0.0420
15208SOL    HW247066   3.665   5.859   2.611 -2.0312  0.9250  0.3113
15209SOL     OW47067   6.803   4.635   2.977 -0.1129  0.5056  0.0283
15209SOL    HW147068   6.715   4.604   2.999  0.4465  0.2502  2.2237
15209SOL    HW247069   6.814   4.715   3.029  0.7865  0.7918 -0.5783
15210SOL     OW47070   7.411   4.436   2.629  0.3116 -0.3305 -0.2290
15210SOL    HW147071   7.388   4.516   2.676  0.0515 -0.4681 -0.1248
15210SOL    HW247072   7.331   4.384   2.627  0.7330 -1.0590  0.6256
15211SOL     OW47073   4.904   5.039   3.803  0.6674 -0.0186 -0.0976
15211SOL    HW147074   4.899   5.008   3.893  0.1890 -0.7680 -0.3740
15211SOL    HW247075   4.916   4.960   3.751 -0.0478  0.3019 -0.7701
15212SOL     OW47076   4.681   3.220   2.082 -0.0259  0.0422 -0.7831
15212SOL    HW147077   4.668   3.235   2.176  1.8019 -0.6853 -0.3864
15212SOL    HW247078   4.775   3.206   2.072 -0.3016 -0.8399 -2.5878
15213SOL     OW47079   3.782   4.811   3.799  0.6297  0.1962 -0.1051
15213SOL    HW147080   3.727   4.842   3.870 -2.1887  0.3611 -2.1618
15213SOL    HW247081   3.808   4.723   3.825 -0.7623  0.0646  0.9359
15214SOL     OW47082   5.484   5.829   2.411  0.5736 -0.2142  0.0126
15214SOL    HW147083   5.459   5.741   2.439 -0.8740 -0.4521 -1.8966
15214SOL    HW247084   5.554   5.854   2.472  0.8890 -2.5910  0.7164
15215SOL     OW47085   6.709   4.153   3.001 -0.3202 -0.1658 -0.1450
15215SOL    HW147086   6.787   4.180   2.952 -1.0221  0.5206 -0.9241
15215SOL    HW247087   6.693   4.225   3.062 -2.1085  1.2563 -2.1215
15216SOL     OW47088   6.985   1.332   2.087  0.2396  0.2492  0.3613
15216SOL    HW147089   7.053   1.343   2.154  0.7791 -0.4076 -0.0607
15216SOL    HW247090   6.908   1.376   2.123  0.4736 -0.2263  1.4896
15217SOL     OW47091   4.270   4.944   3.155 -1.1948 -0.0648 -0.0506
15217SOL    HW147092   4.268   4.850   3.140 -0.3693  0.0194 -0.7536
15217SOL    HW247093   4.186   4.963   3.196  0.0375 -1.6953  3.6694
15218SOL     OW47094   4.558   5.049   3.192 -0.7159  0.2549  0.0342
15218SOL    HW147095   4.471   5.062   3.153 -0.2540  2.2174 -0.4093
15218SOL    HW247096   4.541   5.043   3.286 -1.3597  0.2940 -0.0739
15219SOL     OW47097   3.282   4.955   3.008  0.1624 -0.7211 -0.0187
15219SOL    HW147098   3.344   4.984   2.942 -0.3513 -0.6468 -0.4705
15219SOL    HW247099   3.323   4.979   3.092 -0.3880  1.6612 -0.3602
15220SOL     OW47100   4.314   5.255   2.440 -0.2752  0.4326 -0.3440
15220SOL    HW147101   4.366   5.228   2.516  0.8530  0.7331 -0.9914
15220SOL    HW247102   4.248   5.187   2.431 -0.8015  0.6747  1.2449
15221SOL     OW47103   4.243   5.609   2.685  0.2707  0.1924  0.0620
15221SOL    HW147104   4.283   5.597   2.771 -0.6331  1.3545  0.6656
15221SOL    HW247105   4.317   5.626   2.626  0.9481 -1.1853  0.4617
15222SOL     OW47106   3.675   4.751   3.562 -0.1822 -0.0624  0.4281
15222SOL    HW147107   3.631   4.666   3.567  2.6675 -1.9362 -2.4585
15222SOL    HW247108   3.731   4.753   3.640 -0.8418 -0.4445  0.9229
15223SOL     OW47109   5.203   5.356   4.255  0.2734  0.5002  0.0805
15223SOL    HW147110   5.174   5.272   4.291  1.8586 -0.2806 -0.3766
15223SOL    HW247111   5.298   5.347   4.246  0.1848  1.3353 -2.5444
15224SOL     OW47112   6.204   3.361   2.477 -0.2216  0.3080  0.0615
15224SOL    HW147113   6.204   3.457   2.472  1.3717  0.2830 -0.9153
15224SOL    HW247114   6.176   3.332   2.390 -1.6568 -0.1613  0.6338
15225SOL     OW47115   3.701   5.154   1.924  0.4307 -0.0308 -0.2920
15225SOL    HW147116   3.783   5.202   1.910  0.5099 -0.2272 -0.5025
15225SOL    HW247117   3.718   5.099   2.000  0.4716 -0.0165 -0.2909
15226SOL     OW47118   5.512   4.860   2.034 -0.9455  0.0456  0.2396
15226SOL    HW147119   5.480   4.775   2.064  1.2787 -0.5266  1.1471
15226SOL    HW247120   5.548   4.843   1.947  0.9941 -0.3681  1.0736
15227SOL     OW47121   6.551   3.207   1.637 -0.5188  0.4901 -0.3801
15227SOL    HW147122   6.520   3.211   1.727  0.9010 -1.8500  0.2935
15227SOL    HW247123   6.642   3.237   1.642 -0.6848  1.1883 -1.2233
15228SOL     OW47124   3.131   5.216   1.463  0.2984 -0.1932  0.2456
15228SOL    HW147125   3.073   5.140   1.468  0.6736 -0.6054 -1.2947
15228SOL    HW247126   3.214   5.186   1.499  0.0291 -0.0667  0.9904
15229SOL     OW47127   5.796   5.560   3.176 -0.3664 -0.0221  0.0015
15229SOL    HW147128   5.854   5.635   3.164  0.3764 -0.2488  1.9139
15229SOL    HW247129   5.846   5.486   3.140 -0.7606  0.2388 -1.1274
15230SOL     OW47130   2.105   2.454   2.762  0.1210  0.3029  0.2547
15230SOL    HW147131   2.013   2.481   2.760 -0.2959 -0.9458  1.2118
15230SOL    HW247132   2.135   2.465   2.672 -0.8115  1.2362  0.0362
15231SOL     OW47133   5.456   4.262   1.643 -0.0965 -0.1099  0.0139
15231SOL    HW147134   5.506   4.277   1.563 -2.3646 -0.5249 -1.5602
15231SOL    HW247135   5.397   4.190   1.622 -0.6099 -0.3784  2.1456
15232SOL     OW47136   3.369   2.967   2.051 -0.0098 -0.2095 -0.3898
15232SOL    HW147137   3.460   2.937   2.063  0.0405  0.2622  0.4854
15232SOL    HW247138   3.324   2.937   2.130 -0.1463  1.2984  0.1311
15233SOL     OW47139   5.073   6.281   3.391  0.5323  0.1314  0.3698
15233SOL    HW147140   5.135   6.321   3.452  0.9134 -0.3142  0.2796
15233SOL    HW247141   5.020   6.354   3.360  1.6550  0.6839 -0.3230
15234SOL     OW47142   4.226   4.467   2.704 -0.2880  0.1910  1.1119
15234SOL    HW147143   4.143   4.420   2.710 -1.4036  1.9403  0.1972
15234SOL    HW247144   4.283   4.423   2.768 -1.9095 -1.0125  1.8109
15235SOL     OW47145   5.593   3.694   3.784 -0.4313  0.4045 -0.2418
15235SOL    HW147146   5.537   3.718   3.858 -0.2569  0.0646  0.0042
15235SOL    HW247147   5.535   3.696   3.708 -1.6060 -3.0337  0.3980
15236SOL     OW47148   6.014   4.193   4.026 -0.3414  0.4277 -0.2665
15236SOL    HW147149   6.022   4.288   4.025 -1.1452  0.5368  1.0455
15236SOL    HW247150   5.970   4.173   4.109 -0.8391 -1.0374 -0.8430
15237SOL     OW47151   5.209   6.076   4.739 -0.3375 -0.1123 -0.2066
15237SOL    HW147152   5.137   6.018   4.766 -0.7703  0.7667  0.6147
15237SOL    HW247153   5.275   6.065   4.807 -0.4576  0.4095 -0.0002
15238SOL     OW47154   4.720   3.234   1.463  0.0010  0.6526 -0.4058
15238SOL    HW147155   4.671   3.314   1.485 -0.2472 -0.1555  2.1818
15238SOL    HW247156   4.777   3.219   1.538  0.7962 -1.0584 -1.3122
15239SOL     OW47157   6.699   3.566   1.858 -0.1762  0.6007 -0.6336
15239SOL    HW147158   6.638   3.556   1.931 -0.6405  0.7575 -0.9946
15239SOL    HW247159   6.679   3.651   1.820  1.0033  1.1405 -0.0980
15240SOL     OW47160   6.445   5.092   2.992 -0.3472  0.9874 -0.0345
15240SOL    HW147161   6.351   5.079   3.000 -0.2699 -0.3374 -0.9868
15240SOL    HW247162   6.481   5.064   3.076 -0.7881  1.6230  0.3790
15241SOL     OW47163   4.311   2.939   5.397  0.4509  0.1454  0.3514
15241SOL    HW147164   4.261   3.018   5.379 -0.1030  0.1602  1.8586
15241SOL    HW247165   4.383   2.968   5.453  2.0538  0.0752 -1.5536
15242SOL     OW47166   6.866   4.987   3.814  0.7351  0.2073  0.1224
15242SOL    HW147167   6.859   4.891   3.817  2.6846  0.0258  0.5330
15242SOL    HW247168   6.874   5.013   3.906 -2.4146  1.0803  0.2429
15243SOL     OW47169   3.348   4.636   0.411 -0.3869  0.2070 -0.0901
15243SOL    HW147170   3.364   4.543   0.393  1.5426  0.5520 -0.2877
15243SOL    HW247171   3.411   4.659   0.479 -1.6245  1.1178  0.7869
15244SOL     OW47172   5.450   3.377   1.879  0.3266  0.3576 -0.3794
15244SOL    HW147173   5.420   3.468   1.883  1.6570  0.9066 -1.9207
15244SOL    HW247174   5.538   3.383   1.842  0.2394 -1.6088 -0.9790
15245SOL     OW47175   4.841   3.298   2.683 -0.4613 -0.0397  0.2786
15245SOL    HW147176   4.823   3.388   2.711  0.2294  1.3119 -3.1317
15245SOL    HW247177   4.756   3.264   2.655 -0.7014 -0.4524  1.4536
15246SOL     OW47178   5.977   3.714   1.603 -0.2791  0.1990 -0.0071
15246SOL    HW147179   6.024   3.796   1.587 -0.7805  0.1327 -2.1757
15246SOL    HW247180   6.028   3.648   1.556 -1.6683 -0.1263 -1.1288
15247SOL     OW47181   5.694   5.472   2.877 -0.1987  0.3113  0.5019
15247SOL    HW147182   5.635   5.447   2.949  0.8477 -1.1425  0.9104
15247SOL    HW247183   5.649   5.441   2.798 -0.7820  0.7953  0.6359
15248SOL     OW47184   4.134   5.331   2.938  0.9201  0.4643 -0.2477
15248SOL    HW147185   4.133   5.307   2.846  2.9979  0.8049 -0.4071
15248SOL    HW247186   4.073   5.404   2.945 -0.0137 -0.2198 -1.1427
15249SOL     OW47187   4.503   5.407   2.761  0.3925 -0.3777 -0.0427
15249SOL    HW147188   4.505   5.484   2.704  0.6542 -0.1993  0.2031
15249SOL    HW247189   4.578   5.420   2.820  1.0300 -1.2929 -0.6227
15250SOL     OW47190   3.066   4.597   2.838 -0.1475  0.6443  0.1102
15250SOL    HW147191   3.006   4.590   2.912  2.9046 -0.2144  2.7192
15250SOL    HW247192   3.150   4.621   2.877  2.2931 -2.4341 -2.6787
15251SOL     OW47193   4.569   4.771   3.197 -0.3843  0.3270  0.4499
15251SOL    HW147194   4.571   4.861   3.227 -1.6019 -0.1354  2.0385
15251SOL    HW247195   4.539   4.721   3.272  0.8513 -1.5106 -0.1942
15252SOL     OW47196   2.869   4.263   2.629 -0.0453 -0.6460  0.3929
15252SOL    HW147197   2.834   4.175   2.614 -1.3237  0.0807 -1.2792
15252SOL    HW247198   2.856   4.278   2.722  0.0249 -2.1533  0.6664
15253SOL     OW47199   5.642   3.794   5.359  0.3612  0.4224  0.0029
15253SOL    HW147200   5.637   3.887   5.381  2.3708  0.5942 -0.1025
15253SOL    HW247201   5.561   3.757   5.394 -1.5169  2.5471 -1.7774
15254SOL     OW47202   3.813   5.297   3.788 -0.4322 -0.1866 -0.2855
15254SOL    HW147203   3.835   5.221   3.734  0.8376 -0.6660  0.8563
15254SOL    HW247204   3.772   5.260   3.866 -2.2520  0.5004 -0.8611
15255SOL     OW47205   5.149   5.457   1.088  0.4582  0.1763 -0.0157
15255SOL    HW147206   5.102   5.404   1.023  0.0880  0.2210  0.2119
15255SOL    HW247207   5.236   5.418   1.092  0.4573  0.1162 -0.4750
15256SOL     OW47208   6.401   3.179   3.438  0.1977  0.1475 -0.0242
15256SOL    HW147209   6.496   3.189   3.444 -0.0010  1.8502  0.8374
15256SOL    HW247210   6.372   3.170   3.529 -0.4215 -1.1370 -0.3234
15257SOL     OW47211   5.827   2.970   1.275  0.3393 -0.3424  0.4453
15257SOL    HW147212   5.836   2.878   1.297  0.5770 -0.5735 -0.5426
15257SOL    HW247213   5.913   2.997   1.244 -0.4422 -0.7220 -2.4570
15258SOL     OW47214   5.468   5.422   3.039  0.2998  0.7873 -0.4004
15258SOL    HW147215   5.383   5.446   3.003  0.4344  2.2576  0.2116
15258SOL    HW247216   5.461   5.328   3.057 -0.9519  0.7529 -0.9873
15259SOL     OW47217   5.128   3.419   2.653 -0.2997 -0.7733  0.2076
15259SOL    HW147218   5.091   3.386   2.735  0.2818 -0.2926  0.6773
15259SOL    HW247219   5.060   3.474   2.615 -0.8375 -1.5634  0.0053
15260SOL     OW47220   6.155   3.613   2.424  0.3923 -0.3414 -0.1275
15260SOL    HW147221   6.214   3.684   2.402  1.2861 -0.9386  0.2788
15260SOL    HW247222   6.082   3.621   2.362 -0.1632  1.6660  0.7033
15261SOL     OW47223   5.919   3.651   2.237  0.1524  0.7774 -0.2676
15261SOL    HW147224   5.917   3.735   2.190  0.9476  0.6700 -0.5222
15261SOL    HW247225   5.852   3.659   2.304  1.3318  2.3045  0.8188
15262SOL     OW47226   3.849   4.169   2.903 -0.0521 -0.4753  0.5276
15262SOL    HW147227   3.867   4.081   2.935  1.4679  0.5796  2.7899
15262SOL    HW247228   3.808   4.214   2.977  1.9130  1.5373  0.5030
15263SOL     OW47229   3.847   5.423   1.955  0.3522 -0.2269  0.0111
15263SOL    HW147230   3.848   5.437   2.049  0.8247  1.2417 -0.1846
15263SOL    HW247231   3.928   5.463   1.923  0.1115 -0.5321 -1.0379
15264SOL     OW47232   3.839   4.463   3.398 -0.2422  0.0877  0.0140
15264SOL    HW147233   3.848   4.389   3.459 -0.3741  0.3912  0.4016
15264SOL    HW247234   3.901   4.529   3.431  0.2216 -0.0258 -0.6027
15265SOL     OW47235   3.195   3.754   4.525  0.1054  0.0251 -0.3723
15265SOL    HW147236   3.157   3.676   4.565  0.5451 -0.1206 -0.2357
15265SOL    HW247237   3.288   3.748   4.544  0.2123  0.3359 -0.7817
15266SOL     OW47238   3.785   4.374   4.290 -0.2979  0.6176  0.1985
15266SOL    HW147239   3.748   4.420   4.365 -0.9832  3.1595 -1.5641
15266SOL    HW247240   3.851   4.434   4.254  0.1922 -0.6156 -1.1018
15267SOL     OW47241   3.221   5.706   3.933  0.0294  0.2483 -0.0483
15267SOL    HW147242   3.250   5.786   3.891  1.5327 -0.4454 -0.3969
15267SOL    HW247243   3.179   5.735   4.015 -0.4569  1.4270 -0.6969
15268SOL     OW47244   6.878   6.286   3.741 -0.4835 -0.2456  0.2568
15268SOL    HW147245   6.793   6.293   3.699 -0.6777 -0.0500  0.6836
15268SOL    HW247246   6.907   6.197   3.723 -0.3180 -0.0046 -0.7569
15269SOL     OW47247   5.258   4.531   5.157  0.7361  0.3460  0.0732
15269SOL    HW147248   5.261   4.459   5.220  2.7280 -1.2247 -1.6652
15269SOL    HW247249   5.170   4.567   5.166 -0.0457 -1.7389  1.6195
15270SOL     OW47250   5.883   3.535   3.172  0.0073  0.1488  0.1510
15270SOL    HW147251   5.843   3.620   3.192  1.0048  0.5252  0.6321
15270SOL    HW247252   5.880   3.528   3.077  0.7111  1.1382  0.0405
15271SOL     OW47253   4.212   4.169   5.369  0.1425  0.5389 -0.0273
15271SOL    HW147254   4.145   4.141   5.430 -0.2731  0.7302 -0.3928
15271SOL    HW247255   4.257   4.089   5.343 -0.4236  0.3207 -0.3446
15272SOL     OW47256   4.134   5.010   4.528  0.1757 -0.5862 -0.5914
15272SOL    HW147257   4.089   4.925   4.520  0.5214 -0.6942 -1.5238
15272SOL    HW247258   4.102   5.046   4.611  0.1182 -1.6823 -0.1184
15273SOL     OW47259   4.780   5.653   5.169  0.6949  0.1820 -0.0496
15273SOL    HW147260   4.686   5.665   5.177  0.6337 -0.3091  0.0049
15273SOL    HW247261   4.804   5.603   5.247  1.3357  2.0819  1.0450
15274SOL     OW47262   4.689   4.227   5.584  0.3764 -0.3751  0.1108
15274SOL    HW147263   4.769   4.274   5.610  0.2020  0.0096 -0.0363
15274SOL    HW247264   4.716   4.176   5.507  0.4924 -0.2747  0.0833
15275SOL     OW47265   5.620   5.997   6.160  0.0759 -0.4462  0.4291
15275SOL    HW147266   5.634   5.926   6.223 -0.3843 -2.2554 -1.3996
15275SOL    HW247267   5.703   6.004   6.113 -0.3687 -0.8629 -0.4335
15276SOL     OW47268   4.022   4.941   3.271  0.4688  0.0831 -0.1098
15276SOL    HW147269   3.977   5.025   3.264 -0.5480 -0.3886  0.4190
15276SOL    HW247270   3.956   4.882   3.308  1.5703 -0.6238  0.8184
15277SOL     OW47271   4.787   5.751   4.928  0.5677 -0.0485  0.0168
15277SOL    HW147272   4.798   5.720   5.018  0.1413 -0.4944 -0.0775
15277SOL    HW247273   4.795   5.671   4.875 -2.0883 -0.2891 -0.1219
15278SOL     OW47274   5.187   5.660   3.738 -0.3425  0.3789  0.0975
15278SOL    HW147275   5.095   5.637   3.755  0.0323 -0.7588  0.6866
15278SOL    HW247276   5.231   5.575   3.731  0.4365  0.8911 -1.5584
15279SOL     OW47277   5.333   3.848   5.160 -0.1423 -0.0766 -0.1716
15279SOL    HW147278   5.262   3.784   5.156 -0.6208  0.4310 -0.0768
15279SOL    HW247279   5.304   3.911   5.227 -0.2074  0.8417 -1.0427
15280SOL     OW47280   3.031   3.114   4.485  0.1063  0.1799  0.1944
15280SOL    HW147281   3.082   3.170   4.543  2.0884 -0.9023 -0.3745
15280SOL    HW247282   3.094   3.088   4.417 -1.1694 -1.4285 -0.4306
15281SOL     OW47283   4.939   5.349   4.635  0.5059 -1.2328  0.4629
15281SOL    HW147284   4.932   5.397   4.552  1.9023  2.2537  2.1238
15281SOL    HW247285   5.027   5.312   4.634  1.5274  0.9831  1.2816
15282SOL     OW47286   4.541   5.539   3.716 -0.1084  0.1219 -0.5907
15282SOL    HW147287   4.449   5.561   3.729 -0.0450  0.4393 -0.6763
15282SOL    HW247288   4.544   5.444   3.724 -0.0385  0.2779  2.0103
15283SOL     OW47289   4.453   5.767   4.004 -0.0231 -0.8749 -0.5411
15283SOL    HW147290   4.365   5.740   4.031  0.8522 -1.5178  1.8786
15283SOL    HW247291   4.497   5.685   3.982  0.4684 -0.7189 -0.1465
15284SOL     OW47292   5.567   3.907   5.680 -0.1272 -0.4187  0.1194
15284SOL    HW147293   5.491   3.965   5.667 -0.0379 -0.6492 -1.7592
15284SOL    HW247294   5.528   3.823   5.705 -0.4634 -0.3968 -0.3156
15285SOL     OW47295   4.577   5.106   4.827  0.6492 -0.1812 -0.0766
15285SOL    HW147296   4.549   5.155   4.904 -1.6942 -1.4064 -0.0541
15285SOL    HW247297   4.509   5.039   4.815  2.3327 -1.7402 -1.6297
15286SOL     OW47298   5.833   6.136   6.488  0.3053  0.2487  0.1748
15286SOL    HW147299   5.796   6.054   6.521 -1.8412  0.4373 -1.5396
15286SOL    HW247300   5.927   6.128   6.503  0.0006 -1.9163  1.3036
15287SOL     OW47301   5.175   4.100   3.516  0.0334 -0.3227  0.0515
15287SOL    HW147302   5.154   4.104   3.610  0.8416 -0.9459  0.2710
15287SOL    HW247303   5.260   4.143   3.508 -0.5782  0.8307 -0.6028
15288SOL     OW47304   3.384   5.941   5.822 -0.0230  0.0116  0.0180
15288SOL    HW147305   3.336   6.017   5.855 -1.4145 -0.9374  0.2720
15288SOL    HW247306   3.464   5.940   5.874 -0.6344  0.4904  1.0204
15289SOL     OW47307   3.475   4.411   6.336  0.0247  0.0528  0.2960
15289SOL    HW147308   3.503   4.458   6.258 -1.0432  0.3366  0.0569
15289SOL    HW247309   3.395   4.456   6.363  1.0763  0.8162  2.3591
15290SOL     OW47310   6.547   4.590   4.061 -0.0665 -0.0991 -0.6963
15290SOL    HW147311   6.589   4.541   4.131 -1.4134  0.0643  0.2657
15290SOL    HW247312   6.534   4.678   4.098  4.0596  1.7967 -3.0118
15291SOL     OW47313   5.881   6.906   4.056  0.1966 -0.0344  0.3083
15291SOL    HW147314   5.911   6.977   4.000 -0.4961 -0.6253 -0.8448
15291SOL    HW247315   5.829   6.850   3.999  0.7083 -1.4648  1.1867
15292SOL     OW47316   4.507   6.319   4.623 -0.4357 -0.5782  0.0310
15292SOL    HW147317   4.483   6.254   4.690  0.4797 -1.1198 -0.1373
15292SOL    HW247318   4.503   6.271   4.541  0.4997 -0.5182 -0.0694
15293SOL     OW47319   5.096   4.322   5.278  0.4193 -0.1548  0.5103
15293SOL    HW147320   5.088   4.258   5.208  0.3142  0.0178  0.3626
15293SOL    HW247321   5.016   4.374   5.272  0.6596  0.2130  0.4015
15294SOL     OW47322   0.085   3.738   7.019 -0.1355  0.2395  0.3925
15294SOL    HW147323   0.179   3.738   7.001 -0.0618  0.0795  0.7697
15294SOL    HW247324   0.061   3.646   7.024 -0.0424  0.2572  1.6407
15295SOL     OW47325   5.058   5.659   5.761 -0.0985  0.2350  0.3267
15295SOL    HW147326   5.015   5.643   5.845 -0.2274  0.7862  0.3688
15295SOL    HW247327   5.124   5.725   5.780 -0.5356  0.8079 -0.1226
15296SOL     OW47328   3.824   4.952   6.470  0.0331  0.0908  0.5388
15296SOL    HW147329   3.883   4.960   6.545 -1.7203  0.0971  1.9569
15296SOL    HW247330   3.816   4.858   6.456  1.9816  0.0794 -1.0423
15297SOL     OW47331   3.526   1.746   5.990 -0.3879 -0.2008  0.2958
15297SOL    HW147332   3.500   1.818   5.932 -0.0304 -0.1299  0.2229
15297SOL    HW247333   3.578   1.788   6.059 -3.0521  0.1672  2.2594
15298SOL     OW47334   5.084   4.560   4.541  0.0780 -0.0788  0.0342
15298SOL    HW147335   5.136   4.587   4.465  1.5148 -1.6661  0.3686
15298SOL    HW247336   5.049   4.474   4.516 -0.4788 -0.0479  0.6887
15299SOL     OW47337   5.296   4.483   4.208  0.2362  0.7691  0.0687
15299SOL    HW147338   5.218   4.428   4.202 -1.3835  2.8045  1.0991
15299SOL    HW247339   5.349   4.442   4.277  0.2490 -0.8036 -0.8453
15300SOL     OW47340   3.127   5.879   2.129 -0.3885 -0.0161  0.1195
15300SOL    HW147341   3.129   5.969   2.163 -0.3191 -0.1758  0.5540
15300SOL    HW247342   3.083   5.829   2.198 -0.4031 -0.3192 -0.1084
15301SOL     OW47343   5.184   3.157   4.829  0.1175  0.0278 -0.3873
15301SOL    HW147344   5.095   3.189   4.842 -0.1304  0.4790 -2.7237
15301SOL    HW247345   5.233   3.191   4.904 -2.1619 -2.6878  2.6392
15302SOL     OW47346   4.952   6.357   5.165  0.2850  0.2891 -0.5435
15302SOL    HW147347   4.904   6.415   5.106  0.9769 -0.0192 -1.4304
15302SOL    HW247348   4.919   6.269   5.144  1.5095  0.0210 -1.4731
15303SOL     OW47349   3.570   3.058   5.016 -0.0567  0.6946 -0.5055
15303SOL    HW147350   3.665   3.056   5.002 -0.2174  0.8402 -1.6989
15303SOL    HW247351   3.556   3.134   5.073  0.5894  0.3785  0.0813
15304SOL     OW47352   5.645   5.243   4.971  0.0099 -0.1275  0.2750
15304SOL    HW147353   5.617   5.302   5.041  0.3920 -1.3128  1.4770
15304SOL    HW247354   5.664   5.160   5.015 -0.3224 -1.1092 -1.3282
15305SOL     OW47355   4.249   6.972   4.720  0.1290  0.0499  0.3038
15305SOL    HW147356   4.317   7.000   4.781 -0.9468 -1.0285  2.0764
15305SOL    HW247357   4.281   6.889   4.685 -0.0213 -0.1796  0.7080
15306SOL     OW47358   4.032   3.928   4.567 -0.3407 -0.2205 -0.4340
15306SOL    HW147359   4.079   3.902   4.647 -0.3247  0.3783 -0.2446
15306SOL    HW247360   4.058   4.019   4.552  0.3038 -0.5749 -1.5926
15307SOL     OW47361   3.616   4.835   3.105  0.5828 -0.0357  0.0947
15307SOL    HW147362   3.615   4.930   3.104  2.9002  0.0858 -1.6742
15307SOL    HW247363   3.680   4.812   3.172  1.6643 -0.1889 -0.9380
15308SOL     OW47364   4.522   5.919   3.139 -0.3920  0.0783 -0.2254
15308SOL    HW147365   4.541   5.878   3.054  2.9432 -0.6152  0.7147
15308SOL    HW247366   4.538   6.012   3.125 -0.0772 -0.0031 -0.4132
15309SOL     OW47367   4.892   2.500   5.746  0.4320 -0.3835  0.0902
15309SOL    HW147368   4.863   2.583   5.709  0.9493  0.6335  1.8523
15309SOL    HW247369   4.979   2.486   5.709 -0.3190 -1.0686 -1.5448
15310SOL     OW47370   3.663   5.039   5.327  0.2352 -0.1780  0.5533
15310SOL    HW147371   3.635   4.964   5.381  1.2433 -2.3235 -1.6983
15310SOL    HW247372   3.596   5.046   5.260  1.2394 -0.4789 -0.5016
15311SOL     OW47373   4.268   5.458   4.821 -0.4278  0.2102 -0.0982
15311SOL    HW147374   4.296   5.377   4.864  0.8273  0.0358 -1.1749
15311SOL    HW247375   4.304   5.528   4.876  0.7107 -0.0067 -0.5362
15312SOL     OW47376   4.522   2.468   4.658  0.2759  0.5011  0.2992
15312SOL    HW147377   4.492   2.558   4.672  1.6534  0.9721  0.4548
15312SOL    HW247378   4.478   2.440   4.578 -0.3350  1.2388  0.3685
15313SOL     OW47379   5.386   4.506   4.914 -0.3436  0.4803  0.3741
15313SOL    HW147380   5.469   4.550   4.926  0.1545 -0.8772  2.4971
15313SOL    HW247381   5.332   4.535   4.987 -1.3253  0.4315 -0.3060
15314SOL     OW47382   4.364   5.271   3.463 -0.3808  0.0067 -0.3236
15314SOL    HW147383   4.319   5.278   3.547 -1.5569 -0.1032 -0.9192
15314SOL    HW247384   4.397   5.182   3.460  0.1975  0.1960  0.2741
15315SOL     OW47385   4.648   4.384   6.177  0.7734 -0.1130  0.4429
15315SOL    HW147386   4.716   4.317   6.172  0.0350 -0.8082 -0.7805
15315SOL    HW247387   4.566   4.337   6.163  0.2281  1.0151 -0.3488
15316SOL     OW47388   6.473   4.918   4.995 -0.2477  0.0441 -0.3506
15316SOL    HW147389   6.555   4.957   5.027 -0.1799 -0.7496  0.4658
15316SOL    HW247390   6.407   4.946   5.058 -0.6310  0.7063 -1.0261
15317SOL     OW47391   4.210   5.687   3.065  0.3425 -0.0004  0.2382
15317SOL    HW147392   4.291   5.686   3.012  0.4864 -0.7873  0.4615
15317SOL    HW247393   4.171   5.601   3.050 -0.7757  0.5994 -0.3418
15318SOL     OW47394   4.370   5.120   4.397  0.2527  0.0782 -0.2422
15318SOL    HW147395   4.391   5.035   4.358  0.7183 -0.2261  0.6282
15318SOL    HW247396   4.299   5.102   4.458  0.6794  0.2205  0.3011
15319SOL     OW47397   5.586   5.025   2.616  0.0071 -0.0582 -0.5764
15319SOL    HW147398   5.509   4.970   2.626  0.2614 -0.6839 -1.8753
15319SOL    HW247399   5.660   4.963   2.615  0.3255  0.3205 -1.6596
15320SOL     OW47400   5.460   5.289   3.894 -0.2140  0.0281 -0.0755
15320SOL    HW147401   5.391   5.232   3.930 -0.5629 -0.0199 -0.7984
15320SOL    HW247402   5.509   5.319   3.971 -1.4024  0.5349  0.5129
15321SOL     OW47403   4.434   5.440   5.786 -0.4576  0.5181  0.2382
15321SOL    HW147404   4.415   5.355   5.747  1.1284  0.2278  0.0201
15321SOL    HW247405   4.404   5.503   5.720  1.8725  0.0383 -1.4098
15322SOL     OW47406   5.138   4.686   4.307  0.0911 -0.2206  0.3501
15322SOL    HW147407   5.047   4.665   4.289  0.1915 -0.5522  0.2194
15322SOL    HW247408   5.187   4.637   4.241  0.3180  0.6059 -0.1023
15323SOL     OW47409   5.314   4.420   6.677  0.0336 -0.0679  0.6609
15323SOL    HW147410   5.321   4.513   6.656  1.3282 -0.2285  0.3279
15323SOL    HW247411   5.249   4.416   6.748 -0.8190  0.9658 -0.0366
15324SOL     OW47412   5.354   4.426   2.828  0.0374 -0.4965  0.6024
15324SOL    HW147413   5.352   4.469   2.913 -0.3080 -1.4958  1.1161
15324SOL    HW247414   5.433   4.460   2.786 -0.2584  0.6651  0.9566
15325SOL     OW47415   6.142   4.860   4.826  0.3512 -0.0090 -0.6249
15325SOL    HW147416   6.100   4.805   4.893 -0.3925  0.9424 -0.2822
15325SOL    HW247417   6.186   4.798   4.768 -0.6562 -0.9859 -0.3792
15326SOL     OW47418   5.025   6.385   4.521 -0.4386  0.5394  0.5663
15326SOL    HW147419   5.036   6.310   4.463 -0.5147  0.3416  0.8046
15326SOL    HW247420   5.050   6.461   4.468 -2.0915  0.5458 -0.2740
15327SOL     OW47421   4.702   5.419   5.786 -0.5057 -0.2797  0.2286
15327SOL    HW147422   4.607   5.432   5.790 -0.3203  0.8596  1.8544
15327SOL    HW247423   4.713   5.339   5.735 -2.3130 -0.1549 -0.4140
15328SOL     OW47424   4.602   5.187   4.527 -0.9123 -0.2196 -0.1570
15328SOL    HW147425   4.590   5.160   4.618 -1.0475 -1.6748 -0.5746
15328SOL    HW247426   4.520   5.163   4.484  0.2534 -2.4758 -1.2846
15329SOL     OW47427   6.389   4.388   3.981  0.4310 -0.5447 -0.6143
15329SOL    HW147428   6.439   4.460   4.019 -0.7911  0.4559 -0.8554
15329SOL    HW247429   6.333   4.429   3.915 -0.8412 -1.5902 -0.2357
15330SOL     OW47430   4.571   3.948   5.130 -0.0710 -0.3595 -0.1632
15330SOL    HW147431   4.624   3.916   5.057  0.8291 -1.2764  0.8477
15330SOL    HW247432   4.607   4.034   5.150 -1.3841  0.6384 -1.7954
15331SOL     OW47433   3.416   5.539   5.442  0.3273 -0.4168  0.1248
15331SOL    HW147434   3.416   5.475   5.370  1.1358 -0.5105  0.2048
15331SOL    HW247435   3.494   5.518   5.493  0.3150  0.3092  0.4520
15332SOL     OW47436   7.204   6.281   4.422  0.0057 -0.1352  0.3018
15332SOL    HW147437   7.117   6.309   4.392  0.4942  0.9386 -0.1574
15332SOL    HW247438   7.203   6.298   4.517  0.2587  1.4144  0.0493
15333SOL     OW47439   4.876   6.343   4.851 -0.3178 -0.5092  0.2606
15333SOL    HW147440   4.833   6.281   4.792 -1.1775  0.3832 -0.0641
15333SOL    HW247441   4.966   6.310   4.858 -0.1109 -0.5079 -1.7511
15334SOL     OW47442   5.437   4.164   4.700 -0.9022  0.6509  0.0273
15334SOL    HW147443   5.474   4.119   4.624 -0.5035  1.4310 -0.2503
15334SOL    HW247444   5.368   4.104   4.732  0.0215 -0.4297  0.0542
15335SOL     OW47445   4.620   5.433   4.978 -0.0661  0.6452  0.1148
15335SOL    HW147446   4.591   5.352   5.020 -0.7833  0.4219 -0.7732
15335SOL    HW247447   4.598   5.502   5.040  0.7265  0.1533  0.9598
15336SOL     OW47448   5.620   4.800   5.714 -0.3149 -0.1454 -0.2152
15336SOL    HW147449   5.588   4.855   5.642 -1.1545 -1.0171 -0.5314
15336SOL    HW247450   5.572   4.831   5.791 -1.6928 -1.1812 -0.6144
15337SOL     OW47451   4.283   4.283   5.631  0.1349  0.1038  0.0855
15337SOL    HW147452   4.198   4.262   5.668 -0.0338 -0.0449 -0.3787
15337SOL    HW247453   4.279   4.251   5.541 -0.1254  2.0975 -0.6662
15338SOL     OW47454   3.984   5.670   6.071  0.2835 -0.5045 -0.8214
15338SOL    HW147455   4.065   5.638   6.031  1.1400  0.4714  0.0804
15338SOL    HW247456   3.977   5.621   6.152  0.7039  0.3453 -0.2542
15339SOL     OW47457   5.726   4.951   4.858  0.1272 -0.9990 -0.6068
15339SOL    HW147458   5.647   4.989   4.897  0.4310  0.1123 -1.0242
15339SOL    HW247459   5.704   4.859   4.844 -0.3482 -1.2053  1.2015
15340SOL     OW47460   5.867   3.191   4.172  0.2549 -0.1745  0.0329
15340SOL    HW147461   5.822   3.256   4.117 -0.1994 -0.3256  0.2246
15340SOL    HW247462   5.902   3.242   4.245  0.5968 -0.0210 -0.2341
15341SOL     OW47463   3.560   4.217   3.955 -0.2966  0.3625  0.0129
15341SOL    HW147464   3.610   4.214   3.873  0.8039 -0.8827  0.6976
15341SOL    HW247465   3.619   4.178   4.020 -1.2231  1.1614  1.3659
15342SOL     OW47466   3.326   4.777   5.125 -0.2802  0.2212 -0.1633
15342SOL    HW147467   3.256   4.841   5.111 -0.5358  0.4314  1.7563
15342SOL    HW247468   3.280   4.697   5.152  0.1410 -0.1168 -0.4445
15343SOL     OW47469   5.359   4.428   6.319 -0.2087  0.1839 -0.2633
15343SOL    HW147470   5.424   4.492   6.350  0.4577  0.2991 -1.7959
15343SOL    HW247471   5.293   4.481   6.274 -0.2683 -0.1065 -0.5223
15344SOL     OW47472   4.403   3.376   1.855 -0.3061  0.3895 -0.4663
15344SOL    HW147473   4.347   3.337   1.922  1.0839 -1.9821 -0.5711
15344SOL    HW247474   4.343   3.399   1.784 -1.8244  3.0325  1.5113
15345SOL     OW47475   4.972   5.821   6.433  0.3419  0.2121 -0.0642
15345SOL    HW147476   4.970   5.781   6.346 -0.4592 -1.3062  0.5944
15345SOL    HW247477   4.895   5.878   6.436  0.0593 -0.1576 -0.1837
15346SOL     OW47478   6.763   4.318   4.656  0.3532  0.0933 -0.2475
15346SOL    HW147479   6.822   4.387   4.685 -1.4322  1.6126 -0.0953
15346SOL    HW247480   6.794   4.296   4.568 -0.3335  2.6760 -1.2216
15347SOL     OW47481   7.139   6.052   5.794 -0.0884  0.0374 -0.8529
15347SOL    HW147482   7.232   6.040   5.780 -0.1082  0.7547 -1.6255
15347SOL    HW247483   7.119   6.139   5.759 -0.8206  0.4113  0.4081
15348SOL     OW47484   4.924   4.573   4.139 -0.5334 -0.4271 -0.5003
15348SOL    HW147485   4.841   4.589   4.184  0.3355  0.7774  0.7539
15348SOL    HW247486   4.915   4.485   4.102 -1.9304 -0.7730  0.5981
15349SOL     OW47487   5.132   5.713   5.245 -0.3846 -0.4262 -0.0628
15349SOL    HW147488   5.107   5.663   5.322 -0.8445 -0.8626 -0.4878
15349SOL    HW247489   5.222   5.741   5.263 -0.8395  0.3865  1.0894
15350SOL     OW47490   3.847   5.422   6.600 -0.2671 -0.1612 -0.5308
15350SOL    HW147491   3.913   5.357   6.575  0.1922 -0.6208  1.6733
15350SOL    HW247492   3.779   5.371   6.644 -1.7611  0.4142 -2.0697
15351SOL     OW47493   4.499   4.374   5.372  0.1059  0.0746  0.1224
15351SOL    HW147494   4.475   4.454   5.419  0.7915 -0.4944  1.5011
15351SOL    HW247495   4.419   4.323   5.367  0.5910 -1.2250  3.4971
15352SOL     OW47496   3.174   5.481   4.880  0.1551  0.0898 -0.4746
15352SOL    HW147497   3.115   5.477   4.956  0.6596 -0.2425 -0.0884
15352SOL    HW247498   3.206   5.391   4.871 -0.1674  0.0506 -1.3030
15353SOL     OW47499   4.553   6.012   5.508  0.2323 -0.3413 -0.1119
15353SOL    HW147500   4.538   5.967   5.425 -2.5869 -0.6793  0.4892
15353SOL    HW247501   4.580   5.942   5.568 -0.1967 -0.5472 -0.1529
15354SOL     OW47502   4.088   5.165   6.271  0.2134 -0.1004 -0.1916
15354SOL    HW147503   4.165   5.108   6.274  0.2352 -0.0429  1.2413
15354SOL    HW247504   4.018   5.109   6.237  0.3093 -0.9209  0.8875
15355SOL     OW47505   4.361   3.600   4.681 -0.0038 -0.6336 -0.3458
15355SOL    HW147506   4.415   3.521   4.680 -1.1431 -1.4301 -0.2688
15355SOL    HW247507   4.286   3.579   4.625 -0.7808  0.0587  0.3954
15356SOL     OW47508   3.741   7.867   4.796 -0.5882 -0.1020 -0.1309
15356SOL    HW147509   3.836   7.863   4.811 -0.2395 -2.1342 -2.2197
15356SOL    HW247510   3.713   7.775   4.793 -2.2616  0.3982 -1.4152
15357SOL     OW47511   3.953   4.043   4.996  0.6016 -0.1006 -0.4625
15357SOL    HW147512   4.039   4.042   5.039  0.0970 -3.0399  0.6923
15357SOL    HW247513   3.906   4.114   5.038  1.8054  0.2701  0.3141
15358SOL     OW47514   5.712   6.806   3.856 -0.2534 -0.0910 -0.1439
15358SOL    HW147515   5.650   6.870   3.893  0.8799 -0.1225  1.9140
15358SOL    HW247516   5.689   6.723   3.898  0.4221 -0.3486 -0.2832
15359SOL     OW47517   4.848   5.135   4.422  0.1852  0.4608  0.7125
15359SOL    HW147518   4.753   5.147   4.427  0.3226  0.9522  3.2210
15359SOL    HW247519   4.884   5.223   4.436  1.0066  0.0058  1.5625
15360SOL     OW47520   4.889   3.695   4.157 -0.1502  0.0518 -0.0670
15360SOL    HW147521   4.860   3.770   4.105 -0.3725 -0.1984 -0.3082
15360SOL    HW247522   4.856   3.713   4.245 -0.5343  0.0513 -0.2098
15361SOL     OW47523   5.186   6.581   6.153  0.1819 -0.2764  0.6604
15361SOL    HW147524   5.202   6.533   6.072 -0.9559 -2.3289  1.5471
15361SOL    HW247525   5.094   6.605   6.149 -0.0594 -0.9752  1.5901
15362SOL     OW47526   7.410   5.745   5.559 -0.1839 -0.3750  0.3115
15362SOL    HW147527   7.401   5.747   5.654  1.6933  0.2609  0.5225
15362SOL    HW247528   7.494   5.703   5.544 -1.0447 -1.6817 -1.1623
15363SOL     OW47529   5.039   4.939   4.949 -0.1092  0.5018  0.4714
15363SOL    HW147530   5.034   4.856   4.903  0.8165 -0.1437  1.4815
15363SOL    HW247531   5.002   5.003   4.888  0.1045 -0.4819 -0.7291
15364SOL     OW47532   5.128   3.078   3.465  0.2746 -0.3880 -0.5725
15364SOL    HW147533   5.136   2.983   3.476 -1.9791 -0.8015 -1.9261
15364SOL    HW247534   5.046   3.101   3.509  1.3751  1.1848  0.7882
15365SOL     OW47535   4.984   6.158   4.356 -0.2719  0.2157  0.1321
15365SOL    HW147536   4.898   6.199   4.368 -0.5123 -0.3246  0.2925
15365SOL    HW247537   4.964   6.067   4.332  0.2534  0.0060  0.4702
15366SOL     OW47538   3.372   5.273   6.073 -0.0434 -0.0795  0.5479
15366SOL    HW147539   3.372   5.177   6.081 -0.8510 -0.0568  0.8715
15366SOL    HW247540   3.455   5.293   6.029 -0.0861 -0.9611  0.0460
15367SOL     OW47541   4.012   5.559   5.427 -0.0345  0.3853 -0.2755
15367SOL    HW147542   4.018   5.605   5.511 -0.5331  0.0272 -0.0361
15367SOL    HW247543   4.044   5.471   5.446 -2.1576 -0.3662  0.0839
15368SOL     OW47544   5.302   4.526   3.549 -0.3357 -0.2963  0.0213
15368SOL    HW147545   5.337   4.591   3.610 -0.7139  0.6179 -0.7240
15368SOL    HW247546   5.376   4.505   3.491 -0.1892 -0.6135  0.3150
15369SOL     OW47547   4.976   7.026   5.443 -0.0434  0.4685 -0.8127
15369SOL    HW147548   5.065   6.995   5.428 -0.7974 -0.4427 -4.2788
15369SOL    HW247549   4.984   7.122   5.441  1.0793  0.4592  1.0433
15370SOL     OW47550   5.139   3.735   5.470 -0.4964  0.0406 -0.1748
15370SOL    HW147551   5.088   3.799   5.519 -0.9716  0.1440 -0.7847
15370SOL    HW247552   5.089   3.722   5.389 -0.6808 -1.4869  0.1609
15371SOL     OW47553   3.384   3.724   4.264 -0.3726 -0.0015  0.1118
15371SOL    HW147554   3.295   3.706   4.233 -0.3839 -1.1702  0.7668
15371SOL    HW247555   3.373   3.793   4.330 -0.5568  1.1803 -1.0999
15372SOL     OW47556   4.845   4.930   4.038  0.2291  0.3047  0.0993
15372SOL    HW147557   4.780   4.867   4.068  1.6927 -1.3982 -0.1242
15372SOL    HW247558   4.899   4.947   4.115 -0.5100  1.8002  0.3178
15373SOL     OW47559   7.348   5.699   5.094 -0.7748 -0.2460  0.1224
15373SOL    HW147560   7.316   5.724   5.008  0.3040 -0.3525 -0.3296
15373SOL    HW247561   7.303   5.758   5.155 -1.1447  0.1843 -0.5560
15374SOL     OW47562   5.794   4.564   3.952 -0.4700 -0.0336  0.0187
15374SOL    HW147563   5.825   4.531   4.037 -0.3673  0.4925  0.1886
15374SOL    HW247564   5.797   4.487   3.894  0.9467 -0.0640  0.0925
15375SOL     OW47565   4.698   4.850   4.650 -0.1078  0.3535  0.2488
15375SOL    HW147566   4.652   4.847   4.566  0.1057  0.0936  0.1398
15375SOL    HW247567   4.629   4.856   4.715 -0.3046 -0.2747  0.0982
15376SOL     OW47568   5.663   5.163   2.368 -0.3637  0.5908  0.7234
15376SOL    HW147569   5.629   5.150   2.456 -2.6198  0.3428 -0.1168
15376SOL    HW247570   5.656   5.257   2.353  0.7395  0.7426  1.0395
15377SOL     OW47571   4.788   6.188   4.073 -0.5068 -0.7728 -0.5102
15377SOL    HW147572   4.757   6.104   4.107 -0.0146 -1.0926 -0.8395
15377SOL    HW247573   4.849   6.220   4.139 -0.7907 -0.6099 -0.3242
15378SOL     OW47574   4.499   4.884   6.004  0.5207  0.4715 -0.1397
15378SOL    HW147575   4.521   4.833   5.927  3.0560 -1.2969  1.5933
15378SOL    HW247576   4.457   4.821   6.063 -2.1716  1.9730 -0.2857
15379SOL     OW47577   4.033   4.205   3.455 -0.2638 -0.7218  0.2854
15379SOL    HW147578   4.006   4.213   3.546 -0.7867 -0.1301  0.0788
15379SOL    HW247579   4.087   4.125   3.453  0.6708 -0.1416  1.3234
15380SOL     OW47580   5.225   6.041   3.434 -0.2038 -0.5335 -0.2333
15380SOL    HW147581   5.188   5.990   3.506  1.0097  0.6363  1.2887
15380SOL    HW247582   5.164   6.113   3.421 -0.4883 -0.8163 -0.4689
15381SOL     OW47583   5.644   5.462   3.696  0.0930 -0.0046  0.1166
15381SOL    HW147584   5.655   5.375   3.734 -1.1690 -0.1740  0.1181
15381SOL    HW247585   5.632   5.446   3.602  1.5317  0.3048 -0.1525
15382SOL     OW47586   5.299   6.849   7.092 -0.0522  0.1032 -0.0127
15382SOL    HW147587   5.392   6.825   7.093  0.8638  3.1594  0.2380
15382SOL    HW247588   5.266   6.817   7.008  1.7158  0.4194 -0.8678
15383SOL     OW47589   4.442   4.584   5.513 -0.0340 -0.1506 -0.1264
15383SOL    HW147590   4.488   4.663   5.485  0.1901  0.3715  1.6061
15383SOL    HW247591   4.384   4.613   5.582 -1.5432 -1.1567 -0.9010
15384SOL     OW47592   5.751   5.566   3.925 -0.1885 -0.3361 -0.4350
15384SOL    HW147593   5.722   5.557   3.835 -1.3156  0.9819 -0.2411
15384SOL    HW247594   5.846   5.557   3.921 -0.3168 -1.4776 -1.5678
15385SOL     OW47595   4.177   5.678   4.092 -0.3330 -0.8204  0.3992
15385SOL    HW147596   4.155   5.666   4.185 -0.5673  0.7298  0.5832
15385SOL    HW247597   4.113   5.625   4.045 -2.7661  1.3201  1.0377
15386SOL     OW47598   5.873   4.926   4.595 -0.0603  0.3321 -0.0541
15386SOL    HW147599   5.879   4.860   4.664 -0.4080  0.1084 -0.2297
15386SOL    HW247600   5.797   4.979   4.620  0.0828  0.5261 -0.0318
15387SOL     OW47601   5.210   3.694   4.975  0.5029  0.3387 -0.1566
15387SOL    HW147602   5.131   3.647   5.004 -0.7026  1.4615 -1.4356
15387SOL    HW247603   5.180   3.783   4.959  1.9185  0.6619 -1.1983
15388SOL     OW47604   5.975   4.557   6.347 -0.4129 -0.1838 -0.4077
15388SOL    HW147605   5.972   4.635   6.291  0.9867 -0.1954 -0.5406
15388SOL    HW247606   5.954   4.485   6.288 -0.2939 -0.0545 -0.6108
15389SOL     OW47607   4.804   5.846   6.970  0.1024  0.3845 -0.1059
15389SOL    HW147608   4.895   5.872   6.984  0.3376 -0.3992 -0.1388
15389SOL    HW247609   4.803   5.806   6.883 -0.4235  1.0253 -0.4061
15390SOL     OW47610   5.393   5.664   4.330 -0.0752  0.0912  0.5196
15390SOL    HW147611   5.312   5.614   4.324  1.1895 -2.1165  0.8158
15390SOL    HW247612   5.376   5.729   4.398 -2.0684  0.7116 -0.5167
15391SOL     OW47613   4.998   5.006   4.250 -0.0154  0.0831 -0.1029
15391SOL    HW147614   4.947   5.027   4.328  1.0397 -2.6034  1.4427
15391SOL    HW247615   5.089   5.024   4.274  0.4702 -2.0945 -0.1235
15392SOL     OW47616   4.232   5.716   5.082 -0.4530 -0.2446 -0.0045
15392SOL    HW147617   4.139   5.696   5.092 -0.8065  1.4901  0.3462
15392SOL    HW247618   4.235   5.804   5.047  1.0605  0.6055  2.0554
15393SOL     OW47619   5.430   5.590   2.511 -0.1624 -0.7126  0.2218
15393SOL    HW147620   5.371   5.534   2.461 -1.2722 -0.5411  1.3040
15393SOL    HW247621   5.410   5.572   2.602  1.7693 -0.9397  0.6489
15394SOL     OW47622   4.296   3.453   5.339 -0.2363 -0.6557 -0.2720
15394SOL    HW147623   4.324   3.479   5.427  0.2627  0.8019 -0.8302
15394SOL    HW247624   4.202   3.472   5.336 -0.7438 -2.7208  0.6087
15395SOL     OW47625   5.507   4.678   4.413 -0.4578 -0.1811 -0.0128
15395SOL    HW147626   5.450   4.703   4.340  0.2753  0.8843 -0.2438
15395SOL    HW247627   5.473   4.727   4.488 -0.9840 -0.9916  0.2866
15396SOL     OW47628   5.095   4.293   4.224 -0.4347  0.1437  0.0085
15396SOL    HW147629   5.047   4.312   4.304 -1.8162 -0.6616 -0.5796
15396SOL    HW247630   5.106   4.198   4.224 -0.1185  0.1709 -0.5743
15397SOL     OW47631   4.611   3.646   5.402 -0.0274 -0.0262  0.3547
15397SOL    HW147632   4.518   3.628   5.392 -0.3706  1.9180 -0.6469
15397SOL    HW247633   4.644   3.651   5.312  1.1865 -1.2618  0.7048
15398SOL     OW47634   3.447   5.219   2.256  0.3681 -0.7520 -0.3182
15398SOL    HW147635   3.370   5.176   2.293  1.2243 -0.4518  2.0099
15398SOL    HW247636   3.506   5.147   2.232  0.8819 -0.9846  1.4820
15399SOL     OW47637   5.978   3.458   5.481 -0.1387  0.0805  0.0835
15399SOL    HW147638   5.928   3.416   5.551 -1.9844  1.8896 -0.0447
15399SOL    HW247639   5.912   3.499   5.425  1.4362  1.6395 -0.7523
15400SOL     OW47640   5.187   3.711   4.202  0.5938  0.6444 -0.3325
15400SOL    HW147641   5.203   3.637   4.261  0.9347 -0.0714 -1.2796
15400SOL    HW247642   5.093   3.711   4.189  0.5071  0.8544  0.2607
15401SOL     OW47643   4.805   5.113   5.880  0.4939  0.2847  0.1092
15401SOL    HW147644   4.741   5.133   5.948  0.2431  1.7110 -0.5178
15401SOL    HW247645   4.794   5.019   5.863 -2.2536  0.6764 -0.7623
15402SOL     OW47646   4.793   5.156   5.130  0.5216  0.2216 -0.5508
15402SOL    HW147647   4.862   5.126   5.189  1.5630 -0.7451 -2.1792
15402SOL    HW247648   4.837   5.166   5.045 -0.9245  1.5264 -1.2061
15403SOL     OW47649   3.992   4.237   5.579  0.1683 -0.0882 -0.3771
15403SOL    HW147650   3.991   4.333   5.586 -1.1526 -0.0952 -0.1384
15403SOL    HW247651   3.907   4.216   5.540  0.4145 -1.1777 -0.3382
15404SOL     OW47652   3.943   4.074   6.598 -0.3731  0.0370  0.5181
15404SOL    HW147653   3.869   4.077   6.536 -0.1557 -0.4458  0.2228
15404SOL    HW247654   3.974   3.983   6.592  1.8181  0.7941 -1.2343
15405SOL     OW47655   3.482   4.162   6.509  0.2937  0.2149  0.2080
15405SOL    HW147656   3.473   4.214   6.589 -1.2185 -0.8032  0.7434
15405SOL    HW247657   3.499   4.226   6.440  1.7344  1.1023  1.3350
15406SOL     OW47658   4.757   4.505   5.458 -0.4697 -0.1791 -0.3053
15406SOL    HW147659   4.672   4.460   5.461 -0.5341 -0.0299  0.2308
15406SOL    HW247660   4.795   4.479   5.374 -2.2312  1.9630 -1.8617
15407SOL     OW47661   4.813   3.973   5.356 -0.3405  0.2245 -0.1268
15407SOL    HW147662   4.781   4.036   5.291 -0.2430  2.4900  1.8772
15407SOL    HW247663   4.744   3.970   5.422  0.5714 -0.1954  0.8259
15408SOL     OW47664   4.461   5.318   6.826  0.5271  0.3939  0.1994
15408SOL    HW147665   4.528   5.363   6.774 -0.2762 -1.0151 -2.2732
15408SOL    HW247666   4.458   5.229   6.788 -2.3708  0.2600  0.5052
15409SOL     OW47667   3.188   5.114   7.398 -0.5386  0.2401 -0.1432
15409SOL    HW147668   3.266   5.167   7.382 -0.3225 -0.4993 -1.6608
15409SOL    HW247669   3.200   5.036   7.344 -2.0568 -0.1609  0.0532
15410SOL     OW47670   3.787   5.469   8.142  0.1368 -0.6794 -0.6412
15410SOL    HW147671   3.852   5.531   8.176 -0.2059 -0.1363 -0.9643
15410SOL    HW247672   3.837   5.391   8.119  0.5002 -0.7365  0.2861
15411SOL     OW47673   5.897   5.830   5.582 -0.1923  0.5872 -0.2413
15411SOL    HW147674   5.964   5.814   5.648  2.5844 -1.4129 -3.2795
15411SOL    HW247675   5.885   5.746   5.538 -2.1130  1.7497 -2.1215
15412SOL     OW47676   4.276   6.295   6.018  0.2968 -0.4119 -0.6269
15412SOL    HW147677   4.371   6.312   6.014  0.6489 -1.5547  1.3147
15412SOL    HW247678   4.246   6.303   5.928  2.4775 -1.2089 -1.4962
15413SOL     OW47679   5.430   5.677   7.521 -0.2337  0.2275 -0.1130
15413SOL    HW147680   5.371   5.745   7.488  0.6522  0.2147 -1.8324
15413SOL    HW247681   5.517   5.713   7.509  0.2341 -1.0276 -0.6390
15414SOL     OW47682   4.651   6.590   6.253 -0.5278 -0.3105  0.1801
15414SOL    HW147683   4.659   6.637   6.336 -1.0461 -1.2375  0.7783
15414SOL    HW247684   4.569   6.623   6.215  0.0216  0.5653 -0.2768
15415SOL     OW47685   3.011   4.745   7.422  0.2258  0.2349 -0.0598
15415SOL    HW147686   3.008   4.656   7.387  0.7841  0.6407 -1.1628
15415SOL    HW247687   3.078   4.790   7.370 -1.2167  1.7867 -0.6858
15416SOL     OW47688   4.418   5.212   6.485 -0.7526 -0.5331  0.6004
15416SOL    HW147689   4.384   5.155   6.416  0.5137  0.7846 -1.2196
15416SOL    HW247690   4.409   5.161   6.565  0.0456 -3.1874 -0.8899
15417SOL     OW47691   4.027   4.488   5.687 -0.0284  0.4405 -0.1763
15417SOL    HW147692   3.977   4.431   5.745  0.4566  0.9353  0.7665
15417SOL    HW247693   3.961   4.533   5.634 -0.4605 -0.2977 -0.2700
15418SOL     OW47694   4.790   3.011   6.573  0.1497 -0.1419  0.0164
15418SOL    HW147695   4.874   3.045   6.604  0.3663  0.6209 -1.3382
15418SOL    HW247696   4.806   2.986   6.482 -0.3018 -2.9037  0.6189
15419SOL     OW47697   3.851   5.450   5.689 -0.8708  0.5659 -0.0476
15419SOL    HW147698   3.834   5.419   5.778 -0.0615 -1.6144 -0.5933
15419SOL    HW247699   3.945   5.441   5.678 -1.0988 -0.2561 -1.4905
15420SOL     OW47700   5.334   6.008   3.765  0.2492  0.2395  0.3009
15420SOL    HW147701   5.366   6.073   3.703  1.7565  0.0624  0.8639
15420SOL    HW247702   5.374   5.926   3.737 -1.0161 -0.3351  0.0713
15421SOL     OW47703   4.486   5.388   6.114 -0.4345 -0.3391 -0.1893
15421SOL    HW147704   4.540   5.363   6.039  1.3998 -0.6704  1.1682
15421SOL    HW247705   4.397   5.365   6.088  0.2395 -1.1570 -1.9497
15422SOL     OW47706   5.215   4.403   6.931 -0.5497 -0.2374  0.1485
15422SOL    HW147707   5.120   4.397   6.946 -0.8900  0.6334 -1.4784
15422SOL    HW247708   5.243   4.475   6.988 -1.6033  2.1482 -2.1087
15423SOL     OW47709   5.816   3.794   6.940 -0.2688  0.6832  0.9827
15423SOL    HW147710   5.860   3.799   6.855  0.4695 -0.7798  1.2603
15423SOL    HW247711   5.796   3.702   6.953 -2.7706  1.1779  1.2417
15424SOL     OW47712   3.958   4.516   6.785 -0.2798 -0.3494 -0.2953
15424SOL    HW147713   3.909   4.597   6.802  0.4636 -0.2221  1.4619
15424SOL    HW247714   3.945   4.463   6.863  1.7190 -0.6403 -0.1031
15425SOL     OW47715   5.243   7.034   5.382  0.6462 -0.4471  0.2844
15425SOL    HW147716   5.331   7.063   5.405  0.6727 -0.8300  0.6672
15425SOL    HW247717   5.228   7.072   5.295  2.4610 -3.0091 -1.2975
15426SOL     OW47718   5.917   5.524   7.858 -0.0554 -0.1027 -0.5703
15426SOL    HW147719   5.827   5.518   7.824 -0.6354  0.1268  0.8771
15426SOL    HW247720   5.946   5.433   7.862 -0.8250 -0.3155  0.4831
15427SOL     OW47721   3.958   5.854   5.865 -0.1075  0.5651  0.3829
15427SOL    HW147722   3.940   5.937   5.911 -0.3804  0.2914  0.7730
15427SOL    HW247723   3.951   5.787   5.933  0.5981  0.2676  0.1742
15428SOL     OW47724   5.251   5.780   6.499  0.1413  0.2485 -0.4711
15428SOL    HW147725   5.175   5.731   6.532  1.9229 -3.1991 -1.0250
15428SOL    HW247726   5.307   5.791   6.576  0.4378 -0.0075 -0.6470
15429SOL     OW47727   5.041   6.742   6.811 -0.1460  0.0892  0.3171
15429SOL    HW147728   5.000   6.804   6.871  2.1109  1.0381  0.9565
15429SOL    HW247729   5.038   6.658   6.857 -0.7522  0.2703  0.6157
15430SOL     OW47730   4.104   3.542   7.223  0.6289 -0.0644 -0.3212
15430SOL    HW147731   4.072   3.553   7.134  0.0332  0.0562 -0.0959
15430SOL    HW247732   4.165   3.615   7.236  1.8569 -0.9030 -1.1214
15431SOL     OW47733   4.117   5.315   5.538  0.2223 -0.1573  0.6188
15431SOL    HW147734   4.101   5.223   5.560  0.5498 -0.0958  1.1244
15431SOL    HW247735   4.150   5.354   5.619 -0.0556  0.4418  0.4491
15432SOL     OW47736   3.987   5.684   6.431 -0.4759  0.0109  0.2585
15432SOL    HW147737   3.978   5.593   6.404  1.8539  0.0819 -1.0044
15432SOL    HW247738   4.022   5.680   6.520 -0.0965 -0.3594  0.0979
15433SOL     OW47739   4.405   4.766   6.490 -0.5182 -0.5187  0.0697
15433SOL    HW147740   4.460   4.706   6.541  0.1493  1.9762  2.5496
15433SOL    HW247741   4.331   4.785   6.547 -1.2642  0.2168 -1.0951
15434SOL     OW47742   4.360   5.904   6.612 -0.1861  0.3429 -0.7650
15434SOL    HW147743   4.376   5.823   6.661  0.4002 -0.1523 -1.7301
15434SOL    HW247744   4.266   5.917   6.617 -0.1679  0.2081  0.3190
15435SOL     OW47745   6.637   4.652   7.512 -0.4925  1.3316  0.0847
15435SOL    HW147746   6.671   4.571   7.474  1.6610  2.1197  0.1804
15435SOL    HW247747   6.587   4.624   7.588 -0.7874  0.0367 -0.5596
15436SOL     OW47748   4.162   4.324   5.999 -0.0646 -0.4839  0.0985
15436SOL    HW147749   4.133   4.248   6.049 -3.3601 -0.2806 -1.2779
15436SOL    HW247750   4.090   4.343   5.939  1.0096  3.1691 -0.2915
15437SOL     OW47751   3.395   4.588   7.013  0.2962  1.1808  0.2026
15437SOL    HW147752   3.353   4.587   7.099 -0.8487  0.1581 -0.3448
15437SOL    HW247753   3.459   4.660   7.019  0.9556  0.4976  2.2126
15438SOL     OW47754   4.351   6.020   6.374  0.5974  0.2745  0.1999
15438SOL    HW147755   4.346   5.965   6.452  1.0301 -0.4942 -0.3059
15438SOL    HW247756   4.331   5.962   6.301  3.1445  0.2141 -0.5670
15439SOL     OW47757   4.728   4.943   6.422 -0.3498  0.4693 -0.4296
15439SOL    HW147758   4.717   4.848   6.421 -0.7305  0.5127 -0.4089
15439SOL    HW247759   4.803   4.959   6.364  1.2141 -0.0279  1.3284
15440SOL     OW47760   4.586   5.194   7.288  0.3999 -0.9469  0.4432
15440SOL    HW147761   4.508   5.249   7.303  0.4349 -0.2561 -1.6248
15440SOL    HW247762   4.607   5.207   7.196  3.3669 -0.6038  1.0658
15441SOL     OW47763   6.713   5.468   6.076 -0.4985  0.1597 -0.3074
15441SOL    HW147764   6.687   5.388   6.030  2.6902 -1.0806 -0.2432
15441SOL    HW247765   6.756   5.436   6.156  0.2211  1.9693  0.0767
15442SOL     OW47766   4.040   4.954   6.121 -0.0312 -0.6125 -0.7939
15442SOL    HW147767   3.955   4.911   6.122 -0.7673  0.7565  0.3897
15442SOL    HW247768   4.053   4.979   6.029 -0.1819 -2.1247 -1.2562
15443SOL     OW47769   5.566   6.532   8.107  0.0523  0.2745  0.0571
15443SOL    HW147770   5.488   6.493   8.146  0.3322  0.0256  0.3706
15443SOL    HW247771   5.542   6.547   8.015 -0.2180 -0.2113  0.0439
15444SOL     OW47772   6.476   2.580   5.317 -0.1525 -0.4927  0.0250
15444SOL    HW147773   6.449   2.505   5.370  1.3473 -1.7674 -0.9222
15444SOL    HW247774   6.531   2.542   5.248  2.4884  1.6531  0.7534
15445SOL     OW47775   5.420   5.275   8.178 -0.2071  0.3542  0.3495
15445SOL    HW147776   5.466   5.268   8.094  1.5681  1.0431  1.2131
15445SOL    HW247777   5.342   5.220   8.168  0.1554  0.1390 -1.6107
15446SOL     OW47778   3.665   5.358   6.266  0.3147  0.5534  0.4254
15446SOL    HW147779   3.675   5.263   6.269  1.5674  0.6809  2.0307
15446SOL    HW247780   3.645   5.383   6.356 -2.1271  1.6578 -0.3519
15447SOL     OW47781   5.567   6.161   5.918  0.2435 -0.0117 -0.0799
15447SOL    HW147782   5.531   6.072   5.916 -1.8246  0.7531 -2.4447
15447SOL    HW247783   5.600   6.171   6.007 -0.1360 -2.8803  0.4865
15448SOL     OW47784   3.029   5.499   5.117 -0.2954 -0.3579  0.0076
15448SOL    HW147785   2.934   5.504   5.123 -0.1932  0.9981  1.4163
15448SOL    HW247786   3.059   5.587   5.142  1.3138 -0.6001 -0.9254
15449SOL     OW47787   3.671   4.400   6.738  0.5878 -0.1471 -0.2550
15449SOL    HW147788   3.723   4.450   6.675  2.0019  1.2337  1.8764
15449SOL    HW247789   3.725   4.323   6.757 -0.4457 -1.2811 -1.6274
15450SOL     OW47790   5.523   7.788   4.419  0.0814 -0.8276 -0.0487
15450SOL    HW147791   5.504   7.871   4.375 -3.1005 -1.0030  0.7620
15450SOL    HW247792   5.501   7.803   4.510 -1.1438 -2.6756  0.0188
15451SOL     OW47793   4.571   6.623   6.835 -0.3503 -0.0189  0.0047
15451SOL    HW147794   4.570   6.666   6.921 -0.2358  1.5898 -0.7662
15451SOL    HW247795   4.511   6.675   6.781  0.0688 -0.6185 -1.0709
15452SOL     OW47796   3.645   5.155   6.573  0.4092  0.0751 -0.0526
15452SOL    HW147797   3.688   5.090   6.518 -0.4774  0.1588 -0.8659
15452SOL    HW247798   3.573   5.108   6.615  0.2045  0.3530 -0.0841
15453SOL     OW47799   3.673   4.957   4.984 -0.4753  0.0565 -0.5817
15453SOL    HW147800   3.745   4.913   5.028 -0.0045  0.5681 -0.8247
15453SOL    HW247801   3.620   4.886   4.948  0.5801 -0.3081 -1.4685
15454SOL     OW47802   4.936   4.486   6.094  0.4622 -0.4392  0.2213
15454SOL    HW147803   4.923   4.394   6.117 -1.4764 -0.4362 -0.6987
15454SOL    HW247804   4.848   4.521   6.081  1.2365  0.8197 -2.2514
15455SOL     OW47805   5.563   3.287   7.574 -0.2987  0.3981 -0.0089
15455SOL    HW147806   5.632   3.312   7.512 -0.9026  2.7434  0.1634
15455SOL    HW247807   5.482   3.298   7.524 -0.8587  3.1169  1.2949
15456SOL     OW47808   4.210   3.980   5.877 -0.1047 -0.4221  0.6919
15456SOL    HW147809   4.185   4.047   5.941 -1.5624 -0.1102 -0.1677
15456SOL    HW247810   4.153   3.906   5.895  0.0357 -0.6393  0.2574
15457SOL     OW47811   5.036   5.620   6.715 -0.4757 -0.0136  0.0079
15457SOL    HW147812   5.010   5.536   6.752 -1.3271 -0.0375 -0.6106
15457SOL    HW247813   5.109   5.649   6.770  1.8829 -2.5481 -1.5431
15458SOL     OW47814   5.688   4.345   7.698 -0.4487  0.0680  0.2414
15458SOL    HW147815   5.651   4.400   7.629 -0.5737 -1.4400 -0.9386
15458SOL    HW247816   5.612   4.312   7.746 -0.3501  1.4366  1.4234
15459SOL     OW47817   5.067   6.273   5.400 -0.5164 -0.0858  0.1156
15459SOL    HW147818   5.049   6.318   5.318  0.2322  1.0553  0.5500
15459SOL    HW247819   5.087   6.183   5.375 -3.0165 -0.4858 -0.6892
15460SOL     OW47820   4.063   4.505   6.268 -0.2814 -0.2664 -0.2209
15460SOL    HW147821   4.016   4.425   6.291 -0.8820  0.0579 -0.2934
15460SOL    HW247822   4.149   4.495   6.309  0.0619 -1.4440 -1.1544
15461SOL     OW47823   4.235   4.151   5.077 -0.1711 -0.3012  0.3091
15461SOL    HW147824   4.308   4.202   5.042  2.0075 -2.4637  1.4376
15461SOL    HW247825   4.227   4.180   5.168 -1.5904  0.7568 -0.1058
15462SOL     OW47826   4.428   4.998   7.567 -0.1773 -0.0377 -0.3726
15462SOL    HW147827   4.333   5.007   7.566 -0.3965 -1.4217  1.5249
15462SOL    HW247828   4.461   5.088   7.570 -1.3838  0.4652 -1.2278
15463SOL     OW47829   5.422   4.900   6.431 -0.0444  0.5611 -0.0933
15463SOL    HW147830   5.360   4.914   6.358 -1.7176  1.0540  1.3434
15463SOL    HW247831   5.385   4.827   6.479  0.2050  1.2019  1.0999
15464SOL     OW47832   4.793   5.491   5.376  0.0251 -0.1475  0.0438
15464SOL    HW147833   4.789   5.562   5.440  1.6077  1.2626 -1.3345
15464SOL    HW247834   4.869   5.439   5.404  0.0965 -0.1295 -0.1198
15465SOL     OW47835   5.819   3.719   4.623  0.2478 -0.3085  0.5901
15465SOL    HW147836   5.843   3.771   4.547  0.5728 -1.8971 -0.4443
15465SOL    HW247837   5.723   3.714   4.620  0.1839  0.5699  0.9493
15466SOL     OW47838   3.102   4.276   6.608  0.3081  0.1092 -0.5014
15466SOL    HW147839   3.125   4.183   6.615  0.5248  0.1371 -0.8062
15466SOL    HW247840   3.119   4.298   6.516  0.9022  0.6178 -0.2825
15467SOL     OW47841   3.940   4.709   5.877 -0.2582  0.2680 -0.6818
15467SOL    HW147842   3.965   4.801   5.864 -1.0927  0.9187  1.7145
15467SOL    HW247843   4.019   4.666   5.909  0.0538  0.2138 -1.5124
15468SOL     OW47844   4.645   5.100   6.090 -0.5006  0.4212  0.2314
15468SOL    HW147845   4.631   5.128   6.181 -1.5696 -1.0569  0.5451
15468SOL    HW247846   4.603   5.015   6.084 -0.0389  0.2831 -1.5457
15469SOL     OW47847   5.251   4.308   5.517 -0.2730  0.1418 -0.2384
15469SOL    HW147848   5.277   4.400   5.525 -0.1610  0.2213 -1.2961
15469SOL    HW247849   5.199   4.305   5.437  1.2807 -1.0284 -1.2720
15470SOL     OW47850   4.330   4.997   6.317 -0.2319 -0.1082  0.9836
15470SOL    HW147851   4.362   4.934   6.382  0.7502 -1.2010 -0.4988
15470SOL    HW247852   4.346   4.955   6.233 -1.0120  1.4809 -0.0041
15471SOL     OW47853   5.230   2.067   5.408  0.0378  0.6890  0.1230
15471SOL    HW147854   5.168   2.126   5.364 -0.8831  0.4068  1.0127
15471SOL    HW247855   5.182   2.032   5.482  1.9004  2.0538  2.1014
15472SOL     OW47856   4.107   4.099   6.127 -0.4540 -0.9543 -0.2968
15472SOL    HW147857   4.130   4.137   6.212  1.1475 -0.5240 -0.8792
15472SOL    HW247858   4.105   4.005   6.144  0.2044 -0.8987  0.1495
15473SOL     OW47859   6.518   5.265   7.163  0.3145  0.2117  0.0837
15473SOL    HW147860   6.539   5.225   7.079  2.0157 -0.8170  0.9324
15473SOL    HW247861   6.435   5.226   7.188  0.5768 -0.7050 -0.3976
15474SOL     OW47862   6.570   6.646   6.384  0.6184 -0.3317 -0.5952
15474SOL    HW147863   6.537   6.606   6.464  0.2013  0.8480 -0.1632
15474SOL    HW247864   6.660   6.669   6.404 -0.4385  3.2252  0.8770
15475SOL     OW47865   6.559   5.470   7.795 -0.1437  0.0325 -0.3806
15475SOL    HW147866   6.623   5.515   7.850 -0.9151  1.0607 -0.2977
15475SOL    HW247867   6.607   5.448   7.715 -0.1990  2.7433 -1.2467
15476SOL     OW47868   4.992   4.960   6.720 -0.7938 -0.3112  0.6437
15476SOL    HW147869   4.959   4.877   6.686 -0.3317  0.1570 -1.0177
15476SOL    HW247870   5.027   5.005   6.644  0.6404  0.6373  1.8173
15477SOL     OW47871   5.494   2.865   7.233  0.1845 -0.1352 -0.3180
15477SOL    HW147872   5.547   2.910   7.298  1.1216  1.5303 -2.1640
15477SOL    HW247873   5.506   2.772   7.253  0.4840  0.3002  1.7989
15478SOL     OW47874   4.801   5.746   6.712 -0.0581 -0.3876  0.9331
15478SOL    HW147875   4.739   5.717   6.646  0.1881  0.4526  0.3228
15478SOL    HW247876   4.886   5.712   6.682  0.1292  0.4046  0.5578
15479SOL     OW47877   5.416   5.676   5.432  0.2377 -0.3441 -0.0965
15479SOL    HW147878   5.344   5.617   5.411  0.8375 -1.7225  1.4947
15479SOL    HW247879   5.489   5.645   5.378  0.1034 -0.0190 -0.4652
15480SOL     OW47880   2.822   6.093   7.145 -0.2460  0.9012 -0.4375
15480SOL    HW147881   2.828   6.132   7.058  0.5606  0.0282 -0.7909
15480SOL    HW247882   2.833   5.999   7.130  2.4063  0.9111  0.8307
15481SOL     OW47883   4.014   5.373   6.908 -0.4784  0.3912  0.1886
15481SOL    HW147884   4.061   5.376   6.825  2.2832 -1.0241  1.5488
15481SOL    HW247885   3.955   5.298   6.899 -0.0224  0.0922 -0.4199
15482SOL     OW47886   2.932   6.028   6.601  0.1220 -0.4256 -0.0179
15482SOL    HW147887   2.892   5.965   6.662 -0.8148 -0.0953 -0.2773
15482SOL    HW247888   3.018   6.047   6.639 -0.2822 -0.5425  0.9789
15483SOL     OW47889   4.511   4.277   5.784 -0.2437  0.2485  0.0642
15483SOL    HW147890   4.558   4.262   5.701 -0.9620  1.2760 -0.5425
15483SOL    HW247891   4.420   4.289   5.758 -0.7563 -1.0501  1.1749
15484SOL     OW47892   4.281   5.184   8.941  0.4493 -0.0145  0.1677
15484SOL    HW147893   4.191   5.182   8.909  0.3330 -0.3591  0.5011
15484SOL    HW247894   4.322   5.106   8.903  0.6398  0.2039 -0.0757
15485SOL     OW47895   5.767   3.853   6.380 -0.3731 -0.1343 -0.6985
15485SOL    HW147896   5.747   3.913   6.308 -1.4914 -1.0554 -1.1971
15485SOL    HW247897   5.716   3.886   6.454 -1.3987 -0.7240 -1.1154
15486SOL     OW47898   3.815   4.690   6.344  0.4276 -0.7562 -0.5586
15486SOL    HW147899   3.907   4.663   6.341  1.3364  1.9565  0.0221
15486SOL    HW247900   3.797   4.723   6.256  1.6059  3.0581  0.4316
15487SOL     OW47901   2.746   3.235   7.408  0.2602  0.1803  0.1081
15487SOL    HW147902   2.831   3.193   7.422 -0.3107 -0.3341  2.6448
15487SOL    HW247903   2.684   3.162   7.405 -0.2692  0.6263  0.0761
15488SOL     OW47904   4.222   4.206   6.384 -0.0415 -0.1313 -0.3374
15488SOL    HW147905   4.134   4.241   6.380  0.3034  0.7591 -0.3190
15488SOL    HW247906   4.270   4.267   6.440  0.6881 -0.3663 -0.6895
15489SOL     OW47907   5.614   5.351   6.332 -0.2207  0.1196 -0.2261
15489SOL    HW147908   5.661   5.359   6.415  1.2772  2.4181 -1.2008
15489SOL    HW247909   5.523   5.339   6.357  0.4121 -1.1344  1.7308
15490SOL     OW47910   3.734   4.452   6.464 -0.0185 -0.2823 -0.7029
15490SOL    HW147911   3.772   4.529   6.423  0.1444 -0.9778 -1.9060
15490SOL    HW247912   3.652   4.438   6.417 -0.2637 -0.5752 -0.1910
15491SOL     OW47913   4.669   5.191   8.185  1.0622  0.0667  0.5027
15491SOL    HW147914   4.674   5.222   8.275  1.2947  0.5157  0.3409
15491SOL    HW247915   4.670   5.095   8.192  0.9422  0.0984  0.9807
15492SOL     OW47916   3.837   4.505   6.065 -0.1212  0.1181 -0.1623
15492SOL    HW147917   3.853   4.532   5.975  0.4332  0.0643 -0.0847
15492SOL    HW247918   3.924   4.507   6.106 -0.2093 -0.8710  0.0896
15493SOL     OW47919   4.739   4.696   7.220  0.1169 -0.2787  0.3291
15493SOL    HW147920   4.681   4.690   7.144  0.7168 -0.7153 -0.0969
15493SOL    HW247921   4.693   4.756   7.280  0.0907  0.8527 -0.7772
15494SOL     OW47922   5.639   5.094   6.880  0.4144 -0.4760  0.0673
15494SOL    HW147923   5.580   5.074   6.807 -0.2869  0.7077  0.2835
15494SOL    HW247924   5.584   5.090   6.958  0.9240 -0.6928  0.4233
15495SOL     OW47925   4.983   3.799   5.230 -0.0235 -0.0081  0.3734
15495SOL    HW147926   4.924   3.862   5.272 -0.5949  0.1597 -0.6562
15495SOL    HW247927   5.005   3.839   5.146  0.6903 -0.5746  0.2794
15496SOL     OW47928   4.526   3.670   5.770 -0.9686  0.1038 -0.0948
15496SOL    HW147929   4.618   3.651   5.786 -1.0999 -0.5206 -0.0550
15496SOL    HW247930   4.519   3.765   5.779 -0.5848  0.0296  1.2697
15497SOL     OW47931   4.002   4.966   6.666  0.1874 -0.0936 -0.0612
15497SOL    HW147932   3.981   4.895   6.727  2.2754 -0.3424  0.4568
15497SOL    HW247933   4.098   4.966   6.662  0.2158  2.1451 -0.7087
15498SOL     OW47934   3.242   5.101   6.341  0.1687 -0.2809 -0.3296
15498SOL    HW147935   3.229   5.033   6.407 -0.8674 -0.2181 -0.4503
15498SOL    HW247936   3.286   5.057   6.269  2.4147 -0.0913  0.8376
15499SOL     OW47937   3.731   4.039   6.419 -0.3819 -0.6159 -0.3370
15499SOL    HW147938   3.668   4.112   6.416  0.1382  0.0374  2.1634
15499SOL    HW247939   3.677   3.961   6.429 -0.9427  0.0532  3.2256
15500SOL     OW47940   4.126   5.368   5.810  0.5540 -0.1803  0.0675
15500SOL    HW147941   4.052   5.307   5.804 -0.0939  0.3629  1.9727
15500SOL    HW247942   4.184   5.330   5.876  0.6475  0.7278  0.5271
15501SOL     OW47943   2.854   6.041   4.768  0.5001 -0.3437  0.0698
15501SOL    HW147944   2.812   6.035   4.682  0.5500  1.1167 -0.0783
15501SOL    HW247945   2.799   5.987   4.825  1.3192 -2.6405 -1.1490
15502SOL     OW47946   3.307   5.707   6.529  0.3441  0.6325 -0.6906
15502SOL    HW147947   3.292   5.669   6.616 -1.9740  0.7761 -0.9608
15502SOL    HW247948   3.392   5.673   6.502  0.8641  0.1301  1.3886
15503SOL     OW47949   3.930   4.404   7.035  0.6042  0.3740  0.8982
15503SOL    HW147950   3.986   4.426   7.110  0.7824 -2.2100  1.6063
15503SOL    HW247951   3.909   4.311   7.047 -0.3976  0.2056 -1.6090
15504SOL     OW47952   4.950   4.276   7.161 -0.1284 -0.0790 -0.7086
15504SOL    HW147953   4.889   4.256   7.232 -0.5572  1.0825 -0.7321
15504SOL    HW247954   4.911   4.234   7.084  0.1365 -1.0110 -0.3497
15505SOL     OW47955   4.422   4.256   6.089  0.2983  0.0257 -0.5647
15505SOL    HW147956   4.356   4.226   6.151  1.1299 -0.2319  0.2104
15505SOL    HW247957   4.372   4.298   6.019 -0.5951  1.4992  0.8977
15506SOL     OW47958   5.354   3.850   5.988 -0.6002  0.5829 -0.3048
15506SOL    HW147959   5.276   3.880   5.942 -0.6423  1.6228  0.3977
15506SOL    HW247960   5.352   3.897   6.072  1.3901  1.5958 -0.7572
15507SOL     OW47961   3.646   6.079   6.467 -0.3922 -0.1443  0.4044
15507SOL    HW147962   3.617   6.087   6.376  0.5062 -0.1921  0.1018
15507SOL    HW247963   3.732   6.037   6.461 -0.6035 -0.7298  1.3243
15508SOL     OW47964   4.749   4.682   6.129 -0.1164  0.8024 -0.0685
15508SOL    HW147965   4.668   4.639   6.099  1.1799 -1.8812  0.0052
15508SOL    HW247966   4.746   4.674   6.224  0.6303 -0.1321 -0.1125
15509SOL     OW47967   5.819   4.734   6.653 -0.3558  0.3308  0.5405
15509SOL    HW147968   5.752   4.670   6.676 -0.1633 -0.7584 -1.6542
15509SOL    HW247969   5.901   4.695   6.683 -0.0366 -1.3450 -2.1436
15510SOL     OW47970   4.266   4.496   6.449 -0.5300 -0.0514 -0.5723
15510SOL    HW147971   4.249   4.557   6.520  0.6357  0.9479 -1.1060
15510SOL    HW247972   4.361   4.499   6.437 -0.6130 -0.8740 -1.5705
15511SOL     OW47973   6.184   5.895   6.023 -0.3653 -0.4926  0.4099
15511SOL    HW147974   6.178   5.954   6.097 -1.6312 -0.0734 -0.0102
15511SOL    HW247975   6.271   5.855   6.032 -0.3269 -0.1448  1.8657
15512SOL     OW47976   3.692   6.188   5.933 -0.9123  0.1505  0.3566
15512SOL    HW147977   3.653   6.102   5.917 -0.0467  0.1147 -1.8824
15512SOL    HW247978   3.786   6.171   5.942 -0.9754  0.6214  2.3734
15513SOL     OW47979   3.760   4.250   6.132 -0.0448  0.2003  0.0617
15513SOL    HW147980   3.666   4.239   6.147  0.1400  0.3759  1.4380
15513SOL    HW247981   3.767   4.333   6.087 -0.4581  0.9148  1.2573
15514SOL     OW47982   4.659   7.077   6.793  0.0185 -0.1113 -0.3301
15514SOL    HW147983   4.570   7.044   6.806 -1.0255  2.9124  0.9582
15514SOL    HW247984   4.675   7.134   6.868  3.0614 -0.4560 -0.5783
15515SOL     OW47985   5.722   2.967   6.050  0.2228 -0.0537  0.5196
15515SOL    HW147986   5.626   2.968   6.054  0.1963 -0.2531  0.0117
15515SOL    HW247987   5.742   2.952   5.958  0.7413 -0.4000  0.6822
15516SOL     OW47988   5.148   5.440   7.217 -0.2715 -0.0904 -0.1448
15516SOL    HW147989   5.053   5.451   7.214 -0.6096 -0.9505  3.3024
15516SOL    HW247990   5.162   5.347   7.200 -0.3567 -0.5201  1.9059
15517SOL     OW47991   2.985   7.324   7.482  0.6231 -1.0287  0.0241
15517SOL    HW147992   3.044   7.334   7.407  0.3509  2.8230  0.0989
15517SOL    HW247993   3.020   7.249   7.530  3.0627 -1.3354 -1.9995
15518SOL     OW47994   5.350   4.434   3.950 -0.0461  0.1081  0.2542
15518SOL    HW147995   5.270   4.469   3.910  1.0043  0.4721 -1.6431
15518SOL    HW247996   5.366   4.492   4.025 -0.2982  1.5183 -0.7417
15519SOL     OW47997   4.791   7.366   5.082 -0.0800 -0.0274 -0.2678
15519SOL    HW147998   4.822   7.448   5.045 -2.1493  0.7262 -0.4167
15519SOL    HW247999   4.708   7.348   5.038  0.4351 -2.3646 -0.4517
15520SOL     OW48000   5.125   5.386   6.559 -0.2197  0.1710  0.0084
15520SOL    HW148001   5.178   5.457   6.594  0.8767 -0.7513  0.2753
15520SOL    HW248002   5.035   5.410   6.582  0.3771 -0.1677  3.1167
15521SOL     OW48003   5.187   2.427   6.413  0.5873  0.1823  0.0860
15521SOL    HW148004   5.253   2.469   6.468  0.3652  0.2496  0.2999
15521SOL    HW248005   5.229   2.420   6.327  1.0003 -0.0835  0.3046
15522SOL     OW48006   4.260   4.624   5.712  0.2719 -0.2665 -0.3685
15522SOL    HW148007   4.189   4.565   5.686 -0.0297  0.4483 -1.2389
15522SOL    HW248008   4.230   4.664   5.794 -0.8352  0.8163 -1.2587
15523SOL     OW48009   4.129   7.530   5.422  0.3045  0.2213 -0.5440
15523SOL    HW148010   4.136   7.475   5.500 -0.7781 -0.5450 -0.9631
15523SOL    HW248011   4.161   7.616   5.451  2.2925 -0.6372  0.0565
15524SOL     OW48012   5.067   4.859   5.953  0.3079 -0.1219  0.7884
15524SOL    HW148013   4.978   4.893   5.952  0.2700 -0.1955 -0.8849
15524SOL    HW248014   5.061   4.776   5.907  1.9165  1.8489 -3.4512
15525SOL     OW48015   4.840   6.007   6.023 -0.1011 -0.3859 -0.0655
15525SOL    HW148016   4.780   5.996   6.097 -2.0507  0.4888 -1.4279
15525SOL    HW248017   4.881   6.092   6.039  1.1142 -1.1642  1.0768
15526SOL     OW48018   6.067   5.415   6.452 -0.0989  0.5884 -0.2462
15526SOL    HW148019   6.099   5.409   6.362  1.6634 -0.2402  0.3798
15526SOL    HW248020   5.981   5.375   6.451 -0.7983  2.0294 -1.8590
15527SOL     OW48021   4.047   5.222   6.528 -0.0255 -0.0526  0.2551
15527SOL    HW148022   4.077   5.187   6.444 -1.3193 -0.3061 -0.1367
15527SOL    HW248023   4.001   5.149   6.569 -3.5532  1.2478 -0.9699
15528SOL     OW48024   5.173   5.537   5.495  0.6098 -0.1043 -0.0809
15528SOL    HW148025   5.115   5.461   5.501 -1.0660  1.1106 -0.0194
15528SOL    HW248026   5.186   5.564   5.586 -0.3539  0.7503 -0.1713
15529SOL     OW48027   5.747   4.992   7.155  0.2171  0.5504 -0.3075
15529SOL    HW148028   5.778   4.952   7.073 -0.0964 -1.0332  0.3182
15529SOL    HW248029   5.761   4.925   7.221 -2.8682  0.4237  0.3441
15530SOL     OW48030   6.190   5.315   6.242 -0.0482  0.3952  0.5915
15530SOL    HW148031   6.261   5.252   6.254  0.9378  1.2545 -0.3766
15530SOL    HW248032   6.123   5.268   6.192  0.0688 -0.2799  1.0685
15531SOL     OW48033   5.344   4.092   5.658 -0.2986  0.0387 -0.6441
15531SOL    HW148034   5.290   4.074   5.735  1.1808  1.0393  0.7072
15531SOL    HW248035   5.300   4.166   5.615 -0.1708  0.6845  0.2976
15532SOL     OW48036   5.058   5.384   7.703 -0.2242 -0.5211 -0.2554
15532SOL    HW148037   5.020   5.302   7.671  1.8066 -1.7303  0.2346
15532SOL    HW248038   5.128   5.357   7.762  1.1389  1.5404 -0.7919
15533SOL     OW48039   4.223   4.658   6.656 -0.2359  0.1465 -0.4595
15533SOL    HW148040   4.158   4.616   6.712 -0.0180 -1.0729 -1.0681
15533SOL    HW248041   4.229   4.748   6.688 -2.5788  0.4484 -0.6986
15534SOL     OW48042   5.052   5.362   6.854 -0.2677  0.2208 -0.1660
15534SOL    HW148043   5.072   5.382   6.946 -1.0159 -1.6487  0.4653
15534SOL    HW248044   5.100   5.280   6.837 -1.8167 -0.6051 -0.7484
15535SOL     OW48045   4.611   5.556   6.517  0.1602 -0.4939  0.1528
15535SOL    HW148046   4.560   5.512   6.450  0.5026 -2.1414  0.9361
15535SOL    HW248047   4.548   5.579   6.585  0.2250 -1.1802  0.4451
15536SOL     OW48048   5.800   3.882   5.854 -0.2543 -0.0644  0.1416
15536SOL    HW148049   5.731   3.886   5.787  0.2830  0.8597 -0.3878
15536SOL    HW248050   5.804   3.972   5.888  0.8754 -0.0331 -0.0425
15537SOL     OW48051   4.486   3.944   5.773  0.2572  0.5533  0.8502
15537SOL    HW148052   4.542   4.002   5.824  0.0520  2.0718 -0.5802
15537SOL    HW248053   4.397   3.975   5.790  0.1659  0.8745 -0.1729
15538SOL     OW48054   3.208   0.305   7.866  0.3191  0.3781  0.4409
15538SOL    HW148055   3.177   0.245   7.934  0.4481 -0.2525 -0.0444
15538SOL    HW248056   3.128   0.330   7.819  0.2388  0.7606  0.7701
15539SOL     OW48057   4.824   4.767   5.504  0.1514  0.0734  0.3094
15539SOL    HW148058   4.739   4.811   5.500  0.0949 -0.1053 -0.5758
15539SOL    HW248059   4.806   4.677   5.476  0.9294  0.4848 -1.6328
15540SOL     OW48060   4.744   5.521   4.770  0.0245 -0.2205 -0.3774
15540SOL    HW148061   4.689   5.473   4.832 -1.4731  0.1988 -1.3134
15540SOL    HW248062   4.812   5.459   4.745 -1.2812 -1.5424 -0.8069
15541SOL     OW48063   3.778   6.311   7.379 -0.4687  0.0494 -0.4072
15541SOL    HW148064   3.741   6.245   7.320 -1.0776 -1.0025  1.0619
15541SOL    HW248065   3.837   6.262   7.436 -0.2282  0.9361  0.1336
15542SOL     OW48066   5.138   5.087   6.528  1.0896 -0.3745 -0.1009
15542SOL    HW148067   5.115   5.178   6.547 -0.2112 -0.5863 -0.5325
15542SOL    HW248068   5.133   5.081   6.432 -1.5958 -1.5120  0.0023
15543SOL     OW48069   3.199   5.257   7.051  0.1923 -0.1423 -0.0224
15543SOL    HW148070   3.277   5.222   7.009 -0.1126 -0.0559 -0.6677
15543SOL    HW248071   3.129   5.198   7.025 -0.2433  0.6798 -0.7530
15544SOL     OW48072   5.195   3.594   5.691  0.1266  0.3390  0.1648
15544SOL    HW148073   5.107   3.561   5.706 -0.0891  0.6857 -0.3079
15544SOL    HW248074   5.188   3.647   5.612  1.2472 -1.5082 -1.2497
15545SOL     OW48075   4.143   4.628   6.014  0.6096  0.1030 -0.3606
15545SOL    HW148076   4.143   4.543   6.059  0.4990 -0.2620 -1.0328
15545SOL    HW248077   4.137   4.692   6.084 -1.4569 -0.4956  0.1033
15546SOL     OW48078   5.678   3.250   6.962 -0.0175  0.4201 -0.3348
15546SOL    HW148079   5.609   3.191   6.992  0.6309 -0.2462 -0.1223
15546SOL    HW248080   5.632   3.319   6.914 -0.8504  0.1485  0.0627
15547SOL     OW48081   4.849   5.692   3.597 -0.6798 -0.0544 -0.5941
15547SOL    HW148082   4.894   5.611   3.575 -0.5033  0.1214 -0.8860
15547SOL    HW248083   4.777   5.697   3.534 -1.3107 -0.5012  0.0819
15548SOL     OW48084   4.935   6.520   7.074  0.1832  0.1050 -0.1971
15548SOL    HW148085   5.014   6.514   7.127 -0.2122 -2.3631  0.2126
15548SOL    HW248086   4.921   6.432   7.041 -0.1238  1.2995 -3.7082
15549SOL     OW48087   5.146   4.613   6.250  0.4277 -0.1916 -0.3045
15549SOL    HW148088   5.089   4.641   6.321  0.1071 -0.9773 -0.2428
15549SOL    HW248089   5.086   4.583   6.182  0.7288  0.5613 -0.9202
15550SOL     OW48090   4.685   4.203   5.250 -0.6806  0.6649  0.2932
15550SOL    HW148091   4.757   4.262   5.227 -1.8748  1.6619 -1.0934
15550SOL    HW248092   4.633   4.253   5.313 -1.2206  0.7612 -0.2218
15551SOL     OW48093   5.280   6.626   4.209 -0.5931 -0.3941  0.0781
15551SOL    HW148094   5.312   6.543   4.246 -1.1454 -0.7049 -0.1296
15551SOL    HW248095   5.338   6.692   4.246  1.6905 -1.1216 -1.9568
15552SOL     OW48096   6.841   5.361   6.303  0.6588  0.1479 -0.2770
15552SOL    HW148097   6.861   5.268   6.313  1.5998  0.3968  0.3318
15552SOL    HW248098   6.925   5.401   6.280 -0.1770  0.5363 -2.8963
15553SOL     OW48099   5.218   4.884   7.292 -0.0112 -0.0719 -0.1168
15553SOL    HW148100   5.125   4.871   7.274 -0.1591  0.0793  0.5155
15553SOL    HW248101   5.236   4.828   7.368  0.8277 -1.4626 -1.2996
15554SOL     OW48102   3.428   4.970  10.503 -0.0053 -0.3525  0.2023
15554SOL    HW148103   3.350   5.023  10.522 -0.4915 -1.5751  1.8369
15554SOL    HW248104   3.411   4.886  10.546  1.5543 -1.1908 -0.7381
15555SOL     OW48105   4.052   4.055   9.368  0.0226 -0.3729  0.5743
15555SOL    HW148106   4.104   4.097   9.300 -1.3118  0.8403  0.2438
15555SOL    HW248107   4.047   3.963   9.340  2.5340 -0.7098  1.0238
15556SOL     OW48108   4.838   4.308  10.362 -0.0838 -0.5178 -0.5060
15556SOL    HW148109   4.913   4.338  10.413  0.0350  0.7872 -1.3982
15556SOL    HW248110   4.762   4.346  10.408 -0.1691 -1.3537  0.0620
15557SOL     OW48111   2.395   3.064  10.965  0.2062 -0.3805  0.2224
15557SOL    HW148112   2.429   3.137  11.018 -1.8697  2.3515 -1.9150
15557SOL    HW248113   2.335   3.018  11.023 -0.9369  1.6538  0.7254
15558SOL     OW48114   4.821   5.487   8.422 -0.1894 -0.2492 -0.6846
15558SOL    HW148115   4.790   5.560   8.368 -0.3316  0.1111 -0.1227
15558SOL    HW248116   4.754   5.419   8.411 -0.5380  0.0567 -0.4673
15559SOL     OW48117   4.415   5.622   6.712 -0.1504 -0.3746  0.0046
15559SOL    HW148118   4.337   5.585   6.670  0.8127 -2.5748  0.0357
15559SOL    HW248119   4.409   5.594   6.803 -0.8606  2.1230  0.8118
15560SOL     OW48120   5.742   7.960  10.766  0.5187  0.1581  0.1739
15560SOL    HW148121   5.709   8.050  10.768  0.3066  0.2376 -2.7218
15560SOL    HW248122   5.668   7.909  10.734  1.1491 -0.7973  0.2206
15561SOL     OW48123   3.776   5.690   9.402  0.1615  0.1285  0.4228
15561SOL    HW148124   3.763   5.693   9.497  0.7903 -0.2250  0.5313
15561SOL    HW248125   3.781   5.597   9.381  0.1033  0.2053  0.0565
15562SOL     OW48126   5.299   6.629   8.417  0.8471  0.3842 -0.6097
15562SOL    HW148127   5.301   6.547   8.367  1.7157 -0.2716  0.4633
15562SOL    HW248128   5.362   6.616   8.488 -0.0972  1.4217  0.4643
15563SOL     OW48129   5.059   3.769   8.453 -0.2176 -0.2216 -0.0345
15563SOL    HW148130   4.974   3.789   8.414 -0.7078  0.4015  1.2804
15563SOL    HW248131   5.080   3.681   8.423 -1.3879 -0.4285 -0.2671
15564SOL     OW48132   5.687   5.161  10.487 -0.0982 -0.3621  0.1666
15564SOL    HW148133   5.651   5.135  10.403 -0.3481  1.1386 -0.2099
15564SOL    HW248134   5.728   5.081  10.521 -0.0155 -0.9984 -1.3507
15565SOL     OW48135   3.421   7.991   6.954 -0.2576 -0.0409  0.3272
15565SOL    HW148136   3.437   7.909   6.999 -0.0059 -1.2449 -1.8105
15565SOL    HW248137   3.486   7.993   6.883 -0.5363  1.7972  0.0581
15566SOL     OW48138   5.257   5.899   7.474  0.1088  0.6929 -0.3533
15566SOL    HW148139   5.187   5.945   7.427 -1.9985 -1.1642  0.7349
15566SOL    HW248140   5.224   5.892   7.564  0.1566 -2.9703 -0.4620
15567SOL     OW48141   6.189   3.894   8.211  0.9008 -0.6420  0.2817
15567SOL    HW148142   6.142   3.857   8.135  0.2522 -0.8504  0.7737
15567SOL    HW248143   6.155   3.983   8.219  0.0616 -1.0152  1.0527
15568SOL     OW48144   4.476   4.257   8.703  0.2972  0.4269  0.2162
15568SOL    HW148145   4.420   4.247   8.626 -0.9445  2.1244  0.8285
15568SOL    HW248146   4.470   4.174   8.749 -0.9309  0.2470 -0.2477
15569SOL     OW48147   5.467   5.858   9.946 -0.2503 -0.1499 -0.0618
15569SOL    HW148148   5.379   5.862   9.908 -0.5148 -3.9506 -0.1956
15569SOL    HW248149   5.522   5.822   9.877  0.9674  0.1346  0.7274
15570SOL     OW48150   4.477   3.323   7.590 -1.2987  0.3892 -0.1551
15570SOL    HW148151   4.553   3.376   7.613 -1.9959 -0.0621  3.8272
15570SOL    HW248152   4.479   3.318   7.494  1.6946  3.2047 -0.3878
15571SOL     OW48153   6.491   4.545   6.294  0.4565  0.3533  0.0906
15571SOL    HW148154   6.580   4.542   6.260  0.5888 -1.5592  0.4373
15571SOL    HW248155   6.485   4.628   6.341  1.3244  1.4961 -1.7595
15572SOL     OW48156   7.043   7.865   8.232 -0.2203  0.0070 -0.0495
15572SOL    HW148157   7.005   7.877   8.319  0.2426 -3.2505  0.7524
15572SOL    HW248158   6.978   7.901   8.172 -0.3754  2.6849  1.5705
15573SOL     OW48159   4.944   4.256   9.549  0.3286  0.0171 -0.0721
15573SOL    HW148160   4.856   4.254   9.512  0.2230 -1.4208  0.1869
15573SOL    HW248161   5.002   4.263   9.473 -0.0069  0.9938 -0.2407
15574SOL     OW48162   6.535   7.092   8.021  0.1285  0.2881  0.0573
15574SOL    HW148163   6.554   7.124   8.110  0.1174 -1.5966  0.7971
15574SOL    HW248164   6.619   7.058   7.989  0.0218  0.4968 -0.4449
15575SOL     OW48165   6.103   7.152   7.588  0.6077  0.4394  0.5501
15575SOL    HW148166   6.111   7.137   7.682 -0.7093  1.9501  0.9518
15575SOL    HW248167   6.065   7.071   7.554 -0.2646  0.4062  1.5639
15576SOL     OW48168   4.773   3.973   7.935 -0.1554  0.2438 -0.0204
15576SOL    HW148169   4.723   3.910   7.882 -2.6942 -0.5162  3.0115
15576SOL    HW248170   4.860   3.934   7.941 -1.2027 -2.2414  0.4290
15577SOL     OW48171   5.797   7.100   8.058 -0.1742  0.5729  0.2957
15577SOL    HW148172   5.840   7.070   8.138 -0.2179 -0.4409 -0.0361
15577SOL    HW248173   5.708   7.066   8.064  0.0041 -0.0663 -0.4595
15578SOL     OW48174   5.487   4.003   8.273 -0.1000 -0.2730  0.7521
15578SOL    HW148175   5.501   4.085   8.227  1.1190 -0.1089  1.3775
15578SOL    HW248176   5.405   4.015   8.320 -0.4804  0.1769 -0.0078
15579SOL     OW48177   5.365   5.461   8.390  0.9023  0.1472  0.5523
15579SOL    HW148178   5.270   5.461   8.399  0.7965  1.0862 -0.3289
15579SOL    HW248179   5.384   5.389   8.330  1.0094 -1.6754  2.6458
15580SOL     OW48180   3.824   5.485  10.539 -0.0947  0.5966  0.1860
15580SOL    HW148181   3.790   5.413  10.487  0.2001  0.7582 -0.2395
15580SOL    HW248182   3.773   5.562  10.511  0.4723  0.8010 -0.3137
15581SOL     OW48183   3.396   4.091   9.939  0.1282 -0.2828 -0.4229
15581SOL    HW148184   3.362   4.174   9.903 -1.2393 -0.5465  0.1918
15581SOL    HW248185   3.406   4.035   9.862 -0.6519 -0.1260 -0.6469
15582SOL     OW48186   3.288   6.141   7.736  0.6084 -0.0689  0.1398
15582SOL    HW148187   3.350   6.211   7.715 -0.5518  0.6385 -1.0173
15582SOL    HW248188   3.203   6.175   7.710 -0.1773 -1.3587  0.9176
15583SOL     OW48189   5.486   4.041   8.786 -0.3674  0.2131 -0.4373
15583SOL    HW148190   5.476   4.087   8.703  1.5926  1.3975 -0.0745
15583SOL    HW248191   5.400   4.046   8.828 -0.9095  1.1060 -1.6345
15584SOL     OW48192   4.187   5.120   7.530 -0.0311 -0.6277  0.4271
15584SOL    HW148193   4.100   5.105   7.493  0.8204 -1.9714 -1.1321
15584SOL    HW248194   4.170   5.140   7.622 -2.0131 -0.3123  0.0432
15585SOL     OW48195   3.420   5.245  10.789 -0.0965 -0.0472  0.1393
15585SOL    HW148196   3.498   5.190  10.777 -0.2697 -0.0339 -1.1759
15585SOL    HW248197   3.435   5.289  10.873  1.5834  0.3856 -0.3536
15586SOL     OW48198   3.630   5.430   7.929  0.7565  0.4043 -0.3731
15586SOL    HW148199   3.619   5.336   7.944  2.0489  0.1932 -0.5964
15586SOL    HW248200   3.659   5.465   8.013 -1.6252  0.9765  0.2616
15587SOL     OW48201   4.598   6.063   7.281  0.2705  0.2327  0.1142
15587SOL    HW148202   4.509   6.030   7.278  0.0431  0.7143  1.1297
15587SOL    HW248203   4.652   5.985   7.291 -0.0489 -0.0352 -0.2156
15588SOL     OW48204   5.763   4.096   8.324  0.4907  0.2409 -0.4673
15588SOL    HW148205   5.669   4.115   8.324  0.4153  0.0065 -1.8796
15588SOL    HW248206   5.784   4.078   8.416 -0.3858  2.4089  0.2196
15589SOL     OW48207   5.640   5.497   9.951  0.0795  0.1611 -0.1850
15589SOL    HW148208   5.629   5.432   9.882 -0.5298  0.8451 -0.7553
15589SOL    HW248209   5.734   5.503   9.965  0.1596 -0.5706 -0.3819
15590SOL     OW48210   4.763   6.120   8.277 -0.0325 -0.5266 -1.1636
15590SOL    HW148211   4.797   6.154   8.359  0.3943  0.7182 -1.8426
15590SOL    HW248212   4.837   6.076   8.236  0.0432 -0.1991 -1.3803
15591SOL     OW48213   4.625   5.302   8.441  0.1718 -0.5579 -0.8009
15591SOL    HW148214   4.556   5.338   8.496  0.8837 -1.1519  0.5334
15591SOL    HW248215   4.636   5.212   8.473  0.9123 -0.7728 -1.6219
15592SOL     OW48216   5.187   5.174   7.129  0.1976  0.1616 -0.9295
15592SOL    HW148217   5.142   5.102   7.085  2.5066 -1.1967 -1.2428
15592SOL    HW248218   5.275   5.139   7.148  0.0377  1.3448  2.9022
15593SOL     OW48219   4.133   5.515   7.518  0.2233  0.1932  0.1953
15593SOL    HW148220   4.054   5.508   7.464  0.1888  0.8737  0.1589
15593SOL    HW248221   4.109   5.573   7.590  0.6628  0.3366  0.2306
15594SOL     OW48222   4.606   5.574   9.369  0.5510  0.2482  0.3067
15594SOL    HW148223   4.599   5.487   9.329  0.9249  0.6391 -0.6423
15594SOL    HW248224   4.588   5.635   9.297  2.6005  1.0198  0.3883
15595SOL     OW48225   3.849   5.170   7.698  0.0666 -0.4452 -0.1086
15595SOL    HW148226   3.780   5.107   7.721  0.7039 -1.4834 -0.9517
15595SOL    HW248227   3.822   5.206   7.614 -0.1082  0.1618  0.1984
15596SOL     OW48228   3.927   4.742  10.059  0.0765  0.3414 -0.3597
15596SOL    HW148229   3.969   4.745   9.973 -0.3497  0.4970 -0.5635
15596SOL    HW248230   3.865   4.815  10.058  0.8091  1.0104  0.4700
15597SOL     OW48231   4.905   4.088   8.152  0.6508  0.3735 -0.4859
15597SOL    HW148232   4.919   4.183   8.155  0.5297  0.4081 -0.9134
15597SOL    HW248233   4.871   4.072   8.064 -2.6833  0.4118  0.6248
15598SOL     OW48234   4.521   4.054   8.367 -0.4339 -0.1629 -0.1100
15598SOL    HW148235   4.525   3.962   8.394 -0.0230 -0.3836 -0.8905
15598SOL    HW248236   4.448   4.059   8.306 -0.8934  0.1831  0.4520
15599SOL     OW48237   4.036   4.073   7.499 -0.1571  0.5549 -0.0490
15599SOL    HW148238   3.985   4.141   7.544 -1.0419  0.7090 -1.2428
15599SOL    HW248239   4.095   4.121   7.441  1.3300  0.3736  1.2606
15600SOL     OW48240   6.712   3.460   8.535 -0.0270  0.0273  0.5058
15600SOL    HW148241   6.790   3.471   8.480 -0.4207  1.1104  0.1240
15600SOL    HW248242   6.735   3.390   8.596  0.9397 -0.2327 -0.1275
15601SOL     OW48243   3.629   3.631   7.562 -0.3477 -0.2296 -0.4265
15601SOL    HW148244   3.702   3.684   7.529 -0.1189 -0.9244 -1.0434
15601SOL    HW248245   3.552   3.669   7.519 -0.3193  0.2860 -0.0368
15602SOL     OW48246   5.731   5.100   8.494 -0.0404 -0.2175  0.1955
15602SOL    HW148247   5.765   5.144   8.572  1.4713  1.4877 -1.3000
15602SOL    HW248248   5.636   5.098   8.506 -0.0576  2.2321  1.0421
15603SOL     OW48249   5.400   6.621   6.892 -0.2174  0.1796 -0.5712
15603SOL    HW148250   5.453   6.680   6.838  1.3754 -0.8276 -0.1871
15603SOL    HW248251   5.342   6.577   6.831  1.1206 -0.4768 -1.4215
15604SOL     OW48252   4.225   5.603   8.049 -0.1511  0.3049 -0.4715
15604SOL    HW148253   4.154   5.568   7.996 -0.2226  2.3833 -1.8437
15604SOL    HW248254   4.280   5.652   7.988  1.4055  0.3623  0.8865
15605SOL     OW48255   4.127   4.716  10.278  0.1018  0.3119 -0.7324
15605SOL    HW148256   4.176   4.729  10.196  0.9589 -1.2089 -0.5164
15605SOL    HW248257   4.045   4.676  10.250  1.0147 -1.6625 -0.8241
15606SOL     OW48258   4.769   4.078   8.490 -0.3981 -0.1537  0.2889
15606SOL    HW148259   4.677   4.096   8.472 -1.0815 -1.6844  2.0031
15606SOL    HW248260   4.789   3.999   8.442 -0.3501 -0.5209  0.8972
15607SOL     OW48261   4.794   5.172   8.922  0.4385  0.3242  0.2639
15607SOL    HW148262   4.848   5.094   8.918  0.0850  0.1086 -1.0771
15607SOL    HW248263   4.724   5.155   8.859  0.4159  1.7589 -0.1346
15608SOL     OW48264   4.849   3.859   8.303  0.1338 -0.0707  0.5586
15608SOL    HW148265   4.790   3.796   8.261  1.8130 -0.4945 -1.3152
15608SOL    HW248266   4.834   3.941   8.255 -1.2286  0.7206  2.2450
15609SOL     OW48267   5.248   4.132   6.944  0.3186 -0.1815  0.6750
15609SOL    HW148268   5.236   4.224   6.920  0.3666 -0.5348 -0.8160
15609SOL    HW248269   5.339   4.127   6.975  0.2243  0.3251  1.0389
15610SOL     OW48270   4.185   5.944   8.690 -0.5686 -0.7527 -0.3404
15610SOL    HW148271   4.241   5.868   8.674  0.1127  0.0164 -1.9208
15610SOL    HW248272   4.147   5.964   8.604 -0.9350  0.5339  0.0913
15611SOL     OW48273   4.341   4.083   9.454 -0.1120 -0.6598 -0.2251
15611SOL    HW148274   4.343   4.106   9.361  3.0469 -0.7364 -0.2938
15611SOL    HW248275   4.352   3.988   9.456 -1.0299 -0.7652  0.2407
15612SOL     OW48276   7.303   5.063   7.813 -0.3486  0.4034 -0.3444
15612SOL    HW148277   7.332   5.124   7.880 -1.1417  2.0277 -1.4295
15612SOL    HW248278   7.253   4.997   7.861  1.1695  0.1254  0.9476
15613SOL     OW48279   5.280   6.020   9.758  0.3949 -0.4472 -0.1314
15613SOL    HW148280   5.243   5.932   9.750 -1.9303  0.4944 -0.5502
15613SOL    HW248281   5.248   6.052   9.842  1.8000 -0.2405  0.3345
15614SOL     OW48282   5.813   4.195   8.080 -0.6866 -0.1301 -0.3224
15614SOL    HW148283   5.753   4.269   8.070 -0.5401  0.2159  1.1147
15614SOL    HW248284   5.795   4.161   8.168  0.1301 -1.0036 -0.4740
15615SOL     OW48285   4.835   4.616   8.476  0.2510  0.4471 -0.4815
15615SOL    HW148286   4.750   4.661   8.475  0.7010  1.2976 -1.0178
15615SOL    HW248287   4.816   4.531   8.436 -0.5969  0.1419  0.5071
15616SOL     OW48288   6.245   6.289   8.579  0.9241  0.1498 -0.3205
15616SOL    HW148289   6.231   6.377   8.544 -0.6618  0.0589  0.0161
15616SOL    HW248290   6.271   6.237   8.504 -0.6038  0.3715 -1.0387
15617SOL     OW48291   5.072   4.205   8.367  0.3842  0.0236  0.4480
15617SOL    HW148292   5.009   4.146   8.326  0.3965  0.4712 -0.2244
15617SOL    HW248293   5.054   4.291   8.329  1.6496  0.0839 -0.0693
15618SOL     OW48294   4.248   5.003   9.247 -0.1890 -0.0322  0.0137
15618SOL    HW148295   4.245   4.999   9.152  0.7339  1.6186 -0.1270
15618SOL    HW248296   4.321   4.946   9.271 -0.5758 -0.6420 -0.2300
15619SOL     OW48297   5.176   4.315   8.937 -0.0304 -0.4699 -0.1021
15619SOL    HW148298   5.250   4.340   8.882  0.1471 -2.0140 -0.6377
15619SOL    HW248299   5.194   4.356   9.022  0.6787  0.3808 -0.6475
15620SOL     OW48300   4.241   4.315   8.915 -0.2264 -0.4586  0.0970
15620SOL    HW148301   4.205   4.260   8.844 -0.9565 -0.2013  0.2628
15620SOL    HW248302   4.284   4.387   8.869 -0.3440 -0.5112 -0.1008
15621SOL     OW48303   3.724   4.318   9.940 -0.0351  0.6146 -0.1028
15621SOL    HW148304   3.685   4.287   9.858  0.8609 -0.9493  0.0327
15621SOL    HW248305   3.746   4.238   9.988  1.2236  1.4812  0.8230
15622SOL     OW48306   6.082   4.904  10.326 -0.1098  0.3388  0.4495
15622SOL    HW148307   6.116   4.830  10.276  0.8980 -0.2455  1.9185
15622SOL    HW248308   5.993   4.916  10.294 -0.0323 -1.0085 -0.3475
15623SOL     OW48309   5.300   3.991   6.655 -0.8326 -0.2259 -0.8846
15623SOL    HW148310   5.277   3.901   6.630  0.2403 -0.6902 -0.2745
15623SOL    HW248311   5.248   4.008   6.734 -0.0725 -0.8120 -0.2363
15624SOL     OW48312   2.857   5.668   9.588 -0.1210 -0.2946  0.0332
15624SOL    HW148313   2.819   5.690   9.673 -0.1008  0.6985 -0.2047
15624SOL    HW248314   2.946   5.702   9.592 -0.7459  1.5863 -1.0990
15625SOL     OW48315   6.203   4.241   7.915 -0.2587 -0.1224  0.0061
15625SOL    HW148316   6.265   4.297   7.868 -1.3827  2.2736  1.2091
15625SOL    HW248317   6.222   4.258   8.007 -2.7433  0.8126  0.4142
15626SOL     OW48318   4.634   4.890   7.393  0.2913 -0.7425  0.9649
15626SOL    HW148319   4.595   4.926   7.313  0.2903  0.6718  1.5662
15626SOL    HW248320   4.573   4.915   7.462  0.8494 -0.9871  1.5508
15627SOL     OW48321   4.481   5.375   8.950 -0.4164  0.4812 -0.2475
15627SOL    HW148322   4.505   5.320   8.876  0.5878  0.4990  0.0581
15627SOL    HW248323   4.397   5.339   8.980 -0.1211 -0.4240 -0.4977
15628SOL     OW48324   4.959   4.863   9.534 -0.8831  0.3677  0.0684
15628SOL    HW148325   4.992   4.780   9.499 -1.2547  0.6377 -0.9551
15628SOL    HW248326   5.028   4.926   9.515 -0.8414  0.4065  0.3445
15629SOL     OW48327   3.723   3.759   7.941  0.1525 -0.3629 -0.4179
15629SOL    HW148328   3.640   3.795   7.911  0.2916  0.6477  0.3581
15629SOL    HW248329   3.755   3.822   8.005  2.1555 -0.0064 -1.6589
15630SOL     OW48330   6.527   2.634   7.343  0.2099 -0.2831  0.4052
15630SOL    HW148331   6.465   2.574   7.384  0.4772  1.0223  2.9070
15630SOL    HW248332   6.602   2.636   7.402  0.5155  1.9189  0.0508
15631SOL     OW48333   5.269   5.206   9.066 -0.6226  0.4095  0.3675
15631SOL    HW148334   5.267   5.253   9.150  0.8512  1.8828 -0.3635
15631SOL    HW248335   5.178   5.209   9.035 -0.8181  1.6375  0.9881
15632SOL     OW48336   4.380   5.238   9.916  0.2698 -0.4873 -0.4507
15632SOL    HW148337   4.389   5.324   9.955 -1.5549 -0.5335  0.2046
15632SOL    HW248338   4.340   5.184   9.985  1.7985 -1.9983 -0.6827
15633SOL     OW48339   4.244   4.128   9.979 -0.2237 -0.1480 -0.0703
15633SOL    HW148340   4.319   4.186   9.991  1.4670 -2.2070 -0.0633
15633SOL    HW248341   4.173   4.186   9.951  1.2573  1.9287  0.2486
15634SOL     OW48342   5.271   4.307   9.577 -0.6688 -0.4895 -0.3156
15634SOL    HW148343   5.189   4.282   9.535 -0.7030  0.8111 -1.0729
15634SOL    HW248344   5.334   4.314   9.505 -0.4289  0.5789 -0.0200
15635SOL     OW48345   5.201   3.845   7.218  0.2418 -0.0549 -0.3051
15635SOL    HW148346   5.215   3.750   7.212 -0.9476 -0.2888  0.2632
15635SOL    HW248347   5.258   3.874   7.289 -0.6426 -0.6485  0.6796
15636SOL     OW48348   4.878   3.710   6.610  0.1247 -0.3636 -0.0615
15636SOL    HW148349   4.874   3.737   6.518  0.2691 -0.7553 -0.1861
15636SOL    HW248350   4.822   3.772   6.656 -0.4101 -0.5148 -0.4991
15637SOL     OW48351   4.843   5.539   9.189  0.4011 -0.0902  0.8547
15637SOL    HW148352   4.910   5.478   9.156 -0.9871 -0.2920 -1.8664
15637SOL    HW248353   4.800   5.572   9.110 -1.1429  1.8756  2.4149
15638SOL     OW48354   4.566   4.420   0.344 -0.1565 -0.2152  0.2331
15638SOL    HW148355   4.575   4.482   0.416 -0.5769 -0.2949  0.3579
15638SOL    HW248356   4.566   4.474   0.265 -1.3765  0.0340  0.3824
15639SOL     OW48357   6.489   4.503   8.993  0.1527  0.2305  0.7791
15639SOL    HW148358   6.472   4.436   9.060  0.2632 -0.9287 -0.3036
15639SOL    HW248359   6.485   4.586   9.040 -0.9964 -0.4666  1.9949
15640SOL     OW48360   3.999   5.670   7.716  0.0411 -0.4712  0.0111
15640SOL    HW148361   3.966   5.715   7.793 -2.7562  0.9138 -1.8210
15640SOL    HW248362   3.944   5.592   7.707  0.1729 -0.4917 -0.7000
15641SOL     OW48363   4.661   5.157   9.497  0.0795 -0.3543 -0.2359
15641SOL    HW148364   4.695   5.085   9.444  2.4480  1.1325 -0.8851
15641SOL    HW248365   4.586   5.190   9.447  0.0105 -1.2953 -0.7763
15642SOL     OW48366   4.622   4.079   9.611  1.0182 -0.8227  0.3583
15642SOL    HW148367   4.637   3.992   9.575  2.7572  0.4689 -2.3273
15642SOL    HW248368   4.618   4.137   9.535 -1.4199  1.3427  1.9372
15643SOL     OW48369   3.932   4.463  10.117  0.3779 -0.1213 -0.0473
15643SOL    HW148370   3.860   4.430  10.064 -1.1313 -0.7844  2.2666
15643SOL    HW248371   3.925   4.558  10.111 -0.5743 -0.1857  0.0251
15644SOL     OW48372   5.488   4.621   8.055  0.2435 -0.4195  0.7105
15644SOL    HW148373   5.423   4.572   8.106  0.5306 -1.3500  0.2147
15644SOL    HW248374   5.496   4.705   8.100 -0.6031 -0.6519  1.3236
15645SOL     OW48375   5.540   5.265   7.933 -0.2696  0.0441 -0.6982
15645SOL    HW148376   5.475   5.244   7.865 -1.1929 -1.3829  0.5740
15645SOL    HW248377   5.609   5.201   7.920  0.3738  0.8294 -1.3066
15646SOL     OW48378   3.278   6.156   9.851  0.5319 -0.4327 -0.4897
15646SOL    HW148379   3.189   6.159   9.816 -0.1132  1.9457  1.0852
15646SOL    HW248380   3.334   6.156   9.774 -0.8323  2.2343 -1.5980
15647SOL     OW48381   4.276   4.232   8.486  0.2411  0.0217 -0.5341
15647SOL    HW148382   4.302   4.160   8.428  0.0320 -1.9234  1.6596
15647SOL    HW248383   4.185   4.250   8.461  0.0561 -0.9829 -0.6549
15648SOL     OW48384   4.423   5.610   8.756 -0.1113 -0.2728 -0.6883
15648SOL    HW148385   4.371   5.530   8.761 -1.4789  0.5957 -0.4010
15648SOL    HW248386   4.494   5.597   8.818 -1.7905 -0.2481  1.3506
15649SOL     OW48387   3.657   5.073   9.183  0.3866 -0.1100  0.4002
15649SOL    HW148388   3.734   5.027   9.217  0.4115  1.2399  2.2945
15649SOL    HW248389   3.608   5.005   9.137  0.2837 -2.1688  3.3047
15650SOL     OW48390   5.480   5.251   9.425  0.4249  0.7873 -1.0963
15650SOL    HW148391   5.491   5.187   9.496 -0.8006  1.5852 -0.1423
15650SOL    HW248392   5.515   5.207   9.348  0.6122 -0.6168 -0.2533
15651SOL     OW48393   5.169   5.780   9.785 -0.2634  0.4045  0.0374
15651SOL    HW148394   5.199   5.694   9.815  0.1550  0.8453  0.9296
15651SOL    HW248395   5.157   5.770   9.691  1.1600 -0.2307 -0.0908
15652SOL     OW48396   3.543   5.506   8.585  0.7200 -0.6406  0.3981
15652SOL    HW148397   3.573   5.421   8.554  2.2389 -1.0394  2.7375
15652SOL    HW248398   3.496   5.487   8.667  0.2499  0.6921  0.4691
15653SOL     OW48399   4.853   7.404  11.561  0.1274  0.6334  0.4482
15653SOL    HW148400   4.814   7.491  11.550  1.5294  1.0682 -1.8507
15653SOL    HW248401   4.795   7.345  11.513 -0.1902  0.4672  1.0202
15654SOL     OW48402   5.825   2.410   8.871  0.7890  0.1461  0.4835
15654SOL    HW148403   5.834   2.495   8.915 -1.5964  1.4147 -1.2365
15654SOL    HW248404   5.860   2.425   8.783  1.4432 -1.0541  0.5177
15655SOL     OW48405   4.358   4.868  10.402  0.0952 -0.4504  0.1080
15655SOL    HW148406   4.427   4.805  10.420  0.0106 -0.3991  0.6456
15655SOL    HW248407   4.370   4.892  10.310  0.6979 -0.5476  0.1590
15656SOL     OW48408   3.945   5.248   8.125  0.3630 -0.2806  0.5006
15656SOL    HW148409   3.972   5.172   8.073  0.0272 -0.3495  0.4207
15656SOL    HW248410   4.027   5.290   8.151  0.5715  1.1577 -2.1433
15657SOL     OW48411   4.519   4.709   8.796  0.0992  0.0766 -0.4364
15657SOL    HW148412   4.567   4.770   8.740  1.4387 -0.5260  0.0102
15657SOL    HW248413   4.538   4.622   8.759 -0.5766 -0.1836 -0.1887
15658SOL     OW48414   3.835   5.477   7.738 -0.6040 -0.1376  0.3580
15658SOL    HW148415   3.821   5.414   7.667 -1.1308  0.7378 -0.3295
15658SOL    HW248416   3.772   5.452   7.806 -1.1511 -0.0546 -0.1182
15659SOL     OW48417   6.830   6.027   8.202  0.1864  0.2162  0.4672
15659SOL    HW148418   6.866   6.005   8.287  1.5772 -1.1604 -0.4327
15659SOL    HW248419   6.777   5.951   8.177 -1.1934  1.0957  0.5825
15660SOL     OW48420   4.762   4.342   8.429  0.2187 -0.5801  0.2433
15660SOL    HW148421   4.791   4.340   8.338  0.4298  0.2927  0.2868
15660SOL    HW248422   4.764   4.250   8.457 -0.0055 -0.8767 -0.6758
15661SOL     OW48423   3.137   5.647   7.974 -0.2967 -0.2744  0.5711
15661SOL    HW148424   3.062   5.641   7.914  0.5727 -2.0772 -0.4237
15661SOL    HW248425   3.108   5.602   8.053 -1.0594  1.1474  1.1489
15662SOL     OW48426   4.102   6.025   9.074 -0.0620 -0.5275  0.3665
15662SOL    HW148427   4.148   5.945   9.047  1.4075  0.7178 -1.0134
15662SOL    HW248428   4.032   6.036   9.011  1.7095  0.9178 -1.4938
15663SOL     OW48429   4.877   6.477   6.135 -0.0959 -0.2611 -1.0898
15663SOL    HW148430   4.870   6.393   6.180  0.8418  0.7850  1.1225
15663SOL    HW248431   4.801   6.527   6.166  1.2926  0.9576  0.5235
15664SOL     OW48432   6.430   1.613   9.235 -0.4771 -0.8085  0.0213
15664SOL    HW148433   6.398   1.692   9.191  0.6586 -1.1115 -1.4329
15664SOL    HW248434   6.351   1.563   9.254 -1.1902  0.5237  0.6912
15665SOL     OW48435   4.283   4.042   8.258 -0.1978  0.2261  0.3831
15665SOL    HW148436   4.239   3.980   8.316 -0.9523  0.2414 -0.1617
15665SOL    HW248437   4.240   4.031   8.173  0.7941  0.2976 -0.1495
15666SOL     OW48438   5.617   4.487   9.430 -0.3020  0.1934 -0.3376
15666SOL    HW148439   5.545   4.424   9.418  1.4491 -2.0407  0.2577
15666SOL    HW248440   5.631   4.524   9.343 -2.4858  1.0952 -0.3666
15667SOL     OW48441   5.012   4.985   8.930 -0.2564 -0.0231 -0.1548
15667SOL    HW148442   4.978   4.896   8.945  0.4696 -0.2216  0.3852
15667SOL    HW248443   5.098   4.971   8.890 -0.2492  0.4420 -0.2996
15668SOL     OW48444   4.885   5.130   8.609 -0.5610  0.0695 -0.6271
15668SOL    HW148445   4.844   5.119   8.695 -0.7090 -0.1143 -0.7195
15668SOL    HW248446   4.844   5.209   8.573  2.4704  2.6621  1.1709
15669SOL     OW48447   5.151   4.572  10.358  0.1925 -0.1486  0.0445
15669SOL    HW148448   5.113   4.549  10.273 -1.1613  0.7132  0.3829
15669SOL    HW248449   5.090   4.536  10.422  0.1465  0.9118  0.6167
15670SOL     OW48450   3.299   4.278   7.315  0.3060  0.0128 -0.4552
15670SOL    HW148451   3.316   4.184   7.327  0.8232  0.3156  1.5158
15670SOL    HW248452   3.383   4.320   7.333 -0.6205  1.0320  1.8232
15671SOL     OW48453   4.358   5.391   7.639 -0.1271 -0.1454  0.0362
15671SOL    HW148454   4.275   5.395   7.591  0.6439  0.1232 -1.3305
15671SOL    HW248455   4.356   5.306   7.683 -0.8469 -0.4203 -0.5077
15672SOL     OW48456   2.985   1.711   5.918 -0.2877  0.3910  0.7653
15672SOL    HW148457   2.998   1.726   5.825 -1.2771  1.0892  0.7241
15672SOL    HW248458   2.938   1.627   5.922  0.3304  0.0308  0.6885
15673SOL     OW48459   5.115   5.127   7.531  0.6182  0.1274 -0.2920
15673SOL    HW148460   5.061   5.048   7.526 -0.9879  1.0210  1.4958
15673SOL    HW248461   5.079   5.184   7.463  1.0139 -0.2406 -0.8135
15674SOL     OW48462   5.056   5.418  10.313 -0.2407  0.1383  0.3300
15674SOL    HW148463   5.024   5.328  10.306  0.3343 -0.0755  0.3640
15674SOL    HW248464   4.989   5.464  10.364 -0.8060 -0.1329 -0.1500
15675SOL     OW48465   4.109   6.369   7.692  0.4996  0.2111  0.5517
15675SOL    HW148466   4.046   6.432   7.657 -1.3849 -1.3703  0.8859
15675SOL    HW248467   4.089   6.288   7.645  2.3601 -0.3491  0.6520
15676SOL     OW48468   4.187   4.173   9.172 -0.1206  0.1464  0.3170
15676SOL    HW148469   4.184   4.226   9.092 -1.2808 -1.5367 -0.8277
15676SOL    HW248470   4.271   4.128   9.167 -0.0485  0.2923  0.2042
15677SOL     OW48471   6.048   5.989   9.201 -0.7735  0.7999 -0.6622
15677SOL    HW148472   6.120   5.987   9.265 -1.4044 -0.0611  0.0499
15677SOL    HW248473   6.092   6.000   9.116  0.4983 -2.2981 -0.5641
15678SOL     OW48474   6.820   7.248   6.424 -0.1087  0.3567 -0.6352
15678SOL    HW148475   6.840   7.174   6.367  2.6097 -0.4591  1.1615
15678SOL    HW248476   6.830   7.214   6.513  0.0520  2.5783  0.2771
15679SOL     OW48477   7.155   3.099   8.466  0.2232 -0.2119  0.1654
15679SOL    HW148478   7.065   3.088   8.497  0.3790 -0.4112  0.5520
15679SOL    HW248479   7.156   3.055   8.381 -0.8529  2.3934 -1.3486
15680SOL     OW48480   6.485   2.206   7.811 -0.5477  0.0799 -0.3962
15680SOL    HW148481   6.573   2.170   7.805 -0.0398  0.9615  1.1069
15680SOL    HW248482   6.486   2.281   7.751 -0.4099 -0.1583 -0.6934
15681SOL     OW48483   5.932   5.103   7.745 -0.1564 -0.0079  0.0198
15681SOL    HW148484   5.885   5.142   7.672 -0.7674  0.8758  0.8757
15681SOL    HW248485   5.963   5.177   7.797  0.6992 -0.6121  0.4005
15682SOL     OW48486   5.579   3.988   7.260 -0.7017  0.4582 -0.1571
15682SOL    HW148487   5.641   3.966   7.330 -1.1828 -0.2599  0.0572
15682SOL    HW248488   5.493   3.977   7.301 -1.1232 -2.6921 -1.5422
15683SOL     OW48489   5.604   6.558   7.478  0.4577 -0.1967 -0.4578
15683SOL    HW148490   5.638   6.474   7.510  1.8874 -0.1606 -1.7582
15683SOL    HW248491   5.679   6.599   7.434 -0.3003  1.6237 -0.1592
15684SOL     OW48492   5.009   4.637   7.581  0.7390 -0.2295 -0.7688
15684SOL    HW148493   4.919   4.668   7.587  0.4328 -1.2285  0.0915
15684SOL    HW248494   5.016   4.600   7.493  0.0106 -0.9945 -0.5182
15685SOL     OW48495   5.728   5.221   7.301  0.9660  0.1441 -0.1873
15685SOL    HW148496   5.663   5.278   7.259 -0.2945 -0.6325  0.6373
15685SOL    HW248497   5.725   5.140   7.249 -0.7876 -0.9212  1.4358
15686SOL     OW48498   4.690   5.892   9.492 -0.4559  1.1960  0.2750
15686SOL    HW148499   4.722   5.802   9.490 -1.7532  0.7339 -0.4879
15686SOL    HW248500   4.770   5.945   9.484  0.1354  0.0777 -2.6531
15687SOL     OW48501   3.241   5.907   7.842  0.5386 -0.1875  0.0721
15687SOL    HW148502   3.278   5.993   7.819  0.9964 -0.5210 -0.4508
15687SOL    HW248503   3.316   5.856   7.872  0.2604 -0.4027  0.4149
15688SOL     OW48504   3.748   4.527   9.120  0.2757 -0.3488  0.1496
15688SOL    HW148505   3.828   4.498   9.076  0.7597 -0.1633  0.8767
15688SOL    HW248506   3.724   4.608   9.075  0.4732 -0.4295 -0.1046
15689SOL     OW48507   4.685   3.566   7.889 -0.3995  0.2415 -0.4185
15689SOL    HW148508   4.778   3.579   7.908 -0.5865  0.5489  0.2963
15689SOL    HW248509   4.684   3.517   7.806  0.3747  1.6830 -1.3236
15690SOL     OW48510   5.306   5.703   7.917 -0.5865  0.4406 -0.3022
15690SOL    HW148511   5.247   5.710   7.842 -2.7690  0.2022  1.2764
15690SOL    HW248512   5.314   5.609   7.932 -0.9212  0.4945  0.2732
15691SOL     OW48513   4.462   4.307   9.202  0.0153 -0.1472  0.1295
15691SOL    HW148514   4.402   4.375   9.233 -0.2157  0.5887 -1.7763
15691SOL    HW248515   4.466   4.320   9.107  0.1053 -2.7111 -0.2793
15692SOL     OW48516   4.605   4.475   8.989 -0.2769 -0.3578  0.0870
15692SOL    HW148517   4.536   4.540   8.975  0.8019  0.9469  0.5884
15692SOL    HW248518   4.627   4.445   8.901  0.1149  0.9585 -0.2891
15693SOL     OW48519   4.939   4.331   8.839  0.0330  0.1714 -0.2447
15693SOL    HW148520   4.961   4.274   8.765  1.9431  3.4310 -2.4536
15693SOL    HW248521   5.021   4.340   8.887 -0.6841 -0.2514  1.1081
15694SOL     OW48522   4.430   3.694   7.892  0.0665 -0.3601 -0.1301
15694SOL    HW148523   4.503   3.632   7.894  0.8346  0.4590 -1.4011
15694SOL    HW248524   4.444   3.749   7.969 -1.3715 -2.5015  1.8034
15695SOL     OW48525   3.064   6.011   8.464  0.0077  0.5611 -0.4762
15695SOL    HW148526   3.100   5.978   8.382  1.7219 -1.2266  0.8989
15695SOL    HW248527   2.970   6.018   8.449 -0.2312 -3.1624 -1.5346
15696SOL     OW48528   5.266   4.896   8.895  0.1380 -0.0719  0.1683
15696SOL    HW148529   5.291   4.805   8.883 -0.8795 -0.1995 -1.2465
15696SOL    HW248530   5.296   4.940   8.815  0.7756  0.8811  0.9077
15697SOL     OW48531   5.344   3.964   7.422  0.0079 -0.4006  0.4410
15697SOL    HW148532   5.290   4.038   7.393  0.5893 -0.4197 -0.7602
15697SOL    HW248533   5.399   4.000   7.491 -0.3233  0.0718  0.4643
15698SOL     OW48534   4.998   5.094   7.874  0.4044  0.2517  0.6516
15698SOL    HW148535   4.948   5.031   7.822  0.7872  2.0624 -2.1169
15698SOL    HW248536   4.935   5.161   7.898  1.0508  1.7998 -1.6197
15699SOL     OW48537   4.393   4.986   8.815 -0.6853 -0.2220  0.0091
15699SOL    HW148538   4.414   4.899   8.849 -1.2085 -0.0555  0.7933
15699SOL    HW248539   4.307   4.975   8.773 -0.4240 -0.2428 -0.5155
15700SOL     OW48540   5.356   5.070  10.420  0.2451  0.1926 -0.0157
15700SOL    HW148541   5.444   5.041  10.397  0.5576  0.4448  0.8114
15700SOL    HW248542   5.305   4.990  10.426  0.1750  0.1144 -1.4423
15701SOL     OW48543   3.761   4.015   9.537  0.0194 -0.2884  0.1579
15701SOL    HW148544   3.762   3.947   9.471 -0.6754  0.7462 -0.9635
15701SOL    HW248545   3.843   4.062   9.525 -0.1948  0.0215 -0.1103
15702SOL     OW48546   2.974   5.657  10.500  0.0147 -0.2214 -0.0162
15702SOL    HW148547   3.022   5.681  10.579 -1.4832  2.2292  0.2359
15702SOL    HW248548   3.024   5.697  10.428  0.4950 -1.1000 -0.1956
15703SOL     OW48549   4.483   6.601  10.861 -0.1330 -0.2372 -0.0872
15703SOL    HW148550   4.537   6.526  10.884 -0.9844 -0.7685  0.2173
15703SOL    HW248551   4.409   6.565  10.813 -0.1809  0.4902 -0.5872
15704SOL     OW48552   4.039   5.760   9.976 -0.2969  0.0334  0.1615
15704SOL    HW148553   4.080   5.829  10.029 -2.1388  2.0865 -0.9321
15704SOL    HW248554   4.107   5.732   9.916  0.5348  0.7971  0.7235
15705SOL     OW48555   5.094   4.398   9.778 -0.0334 -0.2470  0.3771
15705SOL    HW148556   5.169   4.394   9.718 -1.0982 -0.8470 -0.9702
15705SOL    HW248557   5.021   4.428   9.723 -1.1842 -1.4073  1.2254
15706SOL     OW48558   4.382   3.908  10.127  0.0483  0.0125 -0.7913
15706SOL    HW148559   4.303   3.952  10.097 -1.0403  1.0829  3.0285
15706SOL    HW248560   4.358   3.815  10.131 -0.3936  0.0998 -1.3719
15707SOL     OW48561   4.765   3.518  10.375  0.3019  0.2572 -0.5776
15707SOL    HW148562   4.799   3.431  10.353  0.4312 -0.0711  0.7976
15707SOL    HW248563   4.757   3.516  10.470  1.0587  2.0281 -0.4407
15708SOL     OW48564   4.395   5.249   9.343  0.1956  0.2994  0.2811
15708SOL    HW148565   4.434   5.271   9.259  1.5347 -1.7427  0.3069
15708SOL    HW248566   4.337   5.175   9.324  0.2059  0.0728  1.0974
15709SOL     OW48567   4.443   3.509  11.053 -0.1989  0.0133 -0.0979
15709SOL    HW148568   4.463   3.500  11.146  0.9872  0.2372 -0.3248
15709SOL    HW248569   4.524   3.487  11.008  0.2157  2.9442 -0.9790
15710SOL     OW48570   4.380   3.774  10.734  0.2713 -0.2886 -0.0301
15710SOL    HW148571   4.339   3.728  10.661 -0.4697  0.1409  0.1092
15710SOL    HW248572   4.339   3.736  10.812 -0.0652  0.3425  0.1006
15711SOL     OW48573   5.049   5.319  10.647 -0.3865  0.1147  0.2469
15711SOL    HW148574   4.961   5.312  10.684  0.5916  0.0439  2.7750
15711SOL    HW248575   5.043   5.276  10.562 -3.4408  2.5358 -0.9731
15712SOL     OW48576   5.939   4.613  10.669 -0.0077  0.4126 -0.3975
15712SOL    HW148577   5.983   4.575  10.593 -0.0528 -2.6166  0.9699
15712SOL    HW248578   5.846   4.597  10.654  0.0081 -0.5641  0.4154
15713SOL     OW48579   2.874   5.617   8.848 -0.2948 -0.0619  0.2176
15713SOL    HW148580   2.855   5.537   8.897  0.3290  0.0197  0.6174
15713SOL    HW248581   2.969   5.614   8.834 -0.2580  0.6193  0.2680
15714SOL     OW48582   4.388   7.086   9.441  0.3384 -0.5305 -0.3383
15714SOL    HW148583   4.359   7.174   9.466  1.0244  0.2162 -2.0221
15714SOL    HW248584   4.342   7.028   9.501 -1.2183  0.8861 -0.0816
15715SOL     OW48585   4.377   4.950  10.144 -0.3354 -0.2748  0.6266
15715SOL    HW148586   4.459   4.935  10.097 -0.3485  2.3340 -0.4478
15715SOL    HW248587   4.309   4.924  10.082 -0.3233 -0.4170  0.6729
15716SOL     OW48588   3.249   5.437   8.690 -0.6094 -0.0210 -0.3263
15716SOL    HW148589   3.321   5.375   8.703 -0.2560  0.7901  2.2807
15716SOL    HW248590   3.267   5.478   8.605  2.6483  0.8694  0.6430
15717SOL     OW48591   2.915   3.682   9.714 -0.0388 -0.2562 -0.0121
15717SOL    HW148592   2.922   3.630   9.634  0.0170 -0.4373  0.1092
15717SOL    HW248593   2.989   3.743   9.710 -1.5035  1.5572 -1.3909
15718SOL     OW48594   4.379   3.011  11.507  0.5550  0.4955  0.2908
15718SOL    HW148595   4.410   3.095  11.541  0.5537 -0.1622  1.9935
15718SOL    HW248596   4.323   2.976  11.576 -0.0545 -0.5745 -0.7124
15719SOL     OW48597   4.107   4.142   8.735 -0.0129  0.3079  0.2767
15719SOL    HW148598   4.042   4.074   8.753  1.5982 -1.3726  0.0811
15719SOL    HW248599   4.088   4.170   8.645 -0.8436  0.2951  0.4414
15720SOL     OW48600   4.268   2.779   9.292  0.5547  0.3919 -0.3805
15720SOL    HW148601   4.281   2.857   9.346  0.3366  1.0600 -1.2727
15720SOL    HW248602   4.357   2.754   9.265  0.9519 -1.3526  2.1348
15721SOL     OW48603   3.599   7.154  10.066 -0.4826 -0.5084  0.1953
15721SOL    HW148604   3.525   7.093  10.062 -0.1277 -0.9513  0.3654
15721SOL    HW248605   3.640   7.147   9.979 -0.5596 -0.3626  0.1467
15722SOL     OW48606   6.108   5.206   9.959  0.0885 -0.2042 -0.1541
15722SOL    HW148607   6.154   5.285   9.931  1.0858 -0.2045  1.3602
15722SOL    HW248608   6.034   5.199   9.900  1.1163  0.7267 -1.6220
15723SOL     OW48609   4.627   5.432   9.862  0.8629  0.0014  0.0444
15723SOL    HW148610   4.539   5.452   9.893  0.8222 -0.5018  0.2659
15723SOL    HW248611   4.684   5.491   9.911  0.7726 -0.6039  0.8888
15724SOL     OW48612   6.383   4.186   8.423  0.1028 -0.0590 -0.2540
15724SOL    HW148613   6.386   4.098   8.386  0.4442 -1.2935  2.4884
15724SOL    HW248614   6.457   4.189   8.484 -0.8134  1.5686  0.8410
15725SOL     OW48615   5.909   4.410   7.848  0.4214 -0.4799 -0.3012
15725SOL    HW148616   5.954   4.329   7.826 -0.9415 -1.2853 -0.2172
15725SOL    HW248617   5.837   4.416   7.784  0.7419  0.8900 -0.5798
15726SOL     OW48618   2.821   7.125   8.700 -0.3248  0.1705 -0.0878
15726SOL    HW148619   2.899   7.084   8.738 -0.1609  0.5964  0.0494
15726SOL    HW248620   2.808   7.079   8.617 -1.6821 -1.9257  1.2058
15727SOL     OW48621   4.889   6.123  11.257  0.2605  0.1334  0.6277
15727SOL    HW148622   4.851   6.044  11.219  1.2054 -0.6727  1.2863
15727SOL    HW248623   4.897   6.184  11.185 -0.3813 -0.4176  0.0801
15728SOL     OW48624   4.151   6.417   9.350  0.0511  0.3221 -0.1093
15728SOL    HW148625   4.156   6.321   9.355  2.4612  0.4350  0.9549
15728SOL    HW248626   4.209   6.440   9.278 -2.8776  0.9277 -2.4642
15729SOL     OW48627   4.760   2.418  10.515  0.2831 -0.6622 -0.4709
15729SOL    HW148628   4.841   2.386  10.553 -1.3050 -0.8893  3.1274
15729SOL    HW248629   4.769   2.513  10.514  0.1861 -0.6012  1.1690
15730SOL     OW48630   6.010   5.182  11.387 -0.2614  0.4733  0.1249
15730SOL    HW148631   5.924   5.140  11.385  0.0109 -0.1063  0.2924
15730SOL    HW248632   6.019   5.214  11.477 -0.1267  0.1545  0.2267
15731SOL     OW48633   5.617   4.581   8.953  0.4686 -0.1749  0.3296
15731SOL    HW148634   5.710   4.561   8.960  0.3887 -0.5491  0.3412
15731SOL    HW248635   5.601   4.587   8.859  0.5479  0.1034  0.3329
15732SOL     OW48636   5.152   2.356  11.527 -0.0500 -0.0949  0.2065
15732SOL    HW148637   5.063   2.381  11.504 -0.0895 -0.8397 -0.5099
15732SOL    HW248638   5.147   2.331  11.619 -0.3663  0.8082  0.4410
15733SOL     OW48639   3.876   3.925  11.314 -0.0932  0.2760  0.0949
15733SOL    HW148640   3.918   3.934  11.229 -1.0025  0.5988 -0.3428
15733SOL    HW248641   3.926   3.982  11.372  0.7137 -0.1773 -0.1564
15734SOL     OW48642   4.262   4.643  10.033 -0.0888 -0.3074  0.0129
15734SOL    HW148643   4.274   4.708   9.964 -0.0297 -0.1133  0.2027
15734SOL    HW248644   4.216   4.571   9.991  0.1032 -0.2663 -0.2720
15735SOL     OW48645   5.097   3.907  10.154 -0.1035  0.4574 -0.0408
15735SOL    HW148646   5.044   3.847  10.206  0.8482 -0.0129  0.4116
15735SOL    HW248647   5.040   3.933  10.082 -0.8598 -0.2287  0.2950
15736SOL     OW48648   3.998   4.232  10.847  0.1768 -0.0334 -0.2256
15736SOL    HW148649   3.977   4.174  10.773 -3.1743  1.7197 -0.8229
15736SOL    HW248650   4.050   4.302  10.808 -1.7918  1.0203 -1.0871
15737SOL     OW48651   5.777   5.434   9.077  0.0843 -0.2552  0.1563
15737SOL    HW148652   5.823   5.433   8.993  0.3552  0.3286  0.2955
15737SOL    HW248653   5.686   5.417   9.055  0.6252 -3.8444  0.0666
15738SOL     OW48654   5.691   4.788  10.787  0.1861  0.3307  0.2796
15738SOL    HW148655   5.680   4.693  10.774  0.7625  0.3571 -0.4218
15738SOL    HW248656   5.601   4.821  10.790 -0.0268 -0.2623  0.7235
15739SOL     OW48657   2.168   3.129  11.110  0.2539  0.1562  0.0279
15739SOL    HW148658   2.098   3.162  11.166 -0.6244 -1.1770 -0.2445
15739SOL    HW248659   2.138   3.146  11.021 -1.5137 -3.4834 -0.2934
15740SOL     OW48660   7.149   5.059  10.864  0.1584 -0.2858  0.2058
15740SOL    HW148661   7.151   5.143  10.910 -0.1777 -0.7090  1.0195
15740SOL    HW248662   7.237   5.022  10.879 -0.2008 -0.7802  1.2302
15741SOL     OW48663   6.001   6.779  10.241 -0.1738  0.0024  0.3512
15741SOL    HW148664   5.945   6.712  10.201 -0.1434  0.0360  0.2528
15741SOL    HW248665   5.944   6.856  10.249 -0.1783 -0.0026  0.3652
15742SOL     OW48666   4.269   3.133  11.304 -0.0286 -0.6827 -0.7589
15742SOL    HW148667   4.190   3.083  11.285  0.1080 -1.0643 -0.3167
15742SOL    HW248668   4.286   3.117  11.396 -0.2471  0.5520 -0.4884
15743SOL     OW48669   5.509   5.318   9.767 -0.0359 -0.1798  0.2386
15743SOL    HW148670   5.508   5.262   9.689  1.4192  0.1255 -0.0263
15743SOL    HW248671   5.471   5.264   9.836  1.8589 -1.7480  0.1293
15744SOL     OW48672   4.356   5.383  10.823  0.0476  0.1695  0.1498
15744SOL    HW148673   4.393   5.302  10.787 -0.6645  0.1600 -0.6029
15744SOL    HW248674   4.308   5.422  10.750 -2.8114 -0.6486  1.4249
15745SOL     OW48675   3.339   5.469  12.260  0.1440  0.4431  0.1568
15745SOL    HW148676   3.383   5.444  12.342  1.9076 -2.2095 -1.4494
15745SOL    HW248677   3.398   5.532  12.220 -0.5803  1.5233  0.7485
15746SOL     OW48678   7.075   3.632   9.716 -0.3020  0.4568 -0.5618
15746SOL    HW148679   7.047   3.564   9.655  0.7739  1.5479 -2.3861
15746SOL    HW248680   7.049   3.600   9.802 -0.6292 -1.8055 -1.4390
15747SOL     OW48681   6.742   5.117   9.365  0.6237  0.2959  0.4044
15747SOL    HW148682   6.663   5.107   9.312  0.4397 -1.5313  0.9566
15747SOL    HW248683   6.764   5.210   9.358  0.4765  0.2059 -2.6560
15748SOL     OW48684   2.945   3.204  10.232 -0.2785 -0.0653 -0.3902
15748SOL    HW148685   3.026   3.198  10.282  0.5250  1.7566 -1.3681
15748SOL    HW248686   2.970   3.177  10.143 -1.1983 -1.2539 -0.3160
15749SOL     OW48687   5.396   5.167   9.947  0.8076  0.0487 -0.1374
15749SOL    HW148688   5.375   5.081   9.910  0.5627  0.3415 -0.6987
15749SOL    HW248689   5.315   5.194   9.992  1.3427 -0.6363  1.2893
15750SOL     OW48690   4.247   5.897  11.702 -1.2207  0.5957 -0.0426
15750SOL    HW148691   4.305   5.840  11.752  0.3306  2.4360  0.4097
15750SOL    HW248692   4.169   5.906  11.757 -0.5277  0.6928  0.9731
15751SOL     OW48693   4.729   6.367   9.940  0.2186  0.6709 -0.4662
15751SOL    HW148694   4.717   6.352  10.034 -0.4429  3.2620 -0.0701
15751SOL    HW248695   4.727   6.279   9.902  0.0646 -0.4291  1.8643
15752SOL     OW48696   5.008   6.113  10.114  0.1546 -0.0171 -0.7025
15752SOL    HW148697   5.080   6.052  10.099 -0.2990 -1.1099  1.1414
15752SOL    HW248698   4.940   6.059  10.156 -0.4763  1.6247  0.4895
15753SOL     OW48699   3.136   6.800  10.080  0.6235  0.1415 -0.1608
15753SOL    HW148700   3.219   6.778  10.121 -0.2073  1.3354  2.4023
15753SOL    HW248701   3.070   6.770  10.142 -0.9030 -0.4329 -1.9509
15754SOL     OW48702   7.303   5.040   9.263  0.3390  0.4809  0.2651
15754SOL    HW148703   7.374   4.991   9.221  0.3359 -0.5190  1.3594
15754SOL    HW248704   7.250   4.973   9.306 -1.2735  1.2248 -0.5033
15755SOL     OW48705   3.094   4.189  11.416  0.6138 -0.2940 -0.4237
15755SOL    HW148706   3.011   4.205  11.372  0.4181  1.5744  0.5162
15755SOL    HW248707   3.158   4.183  11.345 -0.0804 -0.1153 -1.0784
15756SOL     OW48708   6.186   5.566   9.862  0.3512  0.2101 -0.6328
15756SOL    HW148709   6.225   5.516   9.934  1.0994 -0.4347 -1.4708
15756SOL    HW248710   6.251   5.633   9.842  0.8011 -0.5076 -1.6501
15757SOL     OW48711   4.337   2.150  10.003  0.4441 -0.6978 -0.1705
15757SOL    HW148712   4.401   2.175   9.936  0.0410  1.2813  0.1441
15757SOL    HW248713   4.391   2.117  10.075  1.2122  1.3690  0.2815
15758SOL     OW48714   4.444   5.302   8.642  0.1697  0.0908 -0.6189
15758SOL    HW148715   4.460   5.208   8.655 -0.4961 -0.2497 -2.0342
15758SOL    HW248716   4.349   5.309   8.639  0.2289  0.6559 -1.4788
15759SOL     OW48717   3.648   6.162   8.971  0.2661  0.0256  0.2998
15759SOL    HW148718   3.632   6.232   9.034  3.1734  0.8385  0.2838
15759SOL    HW248719   3.664   6.208   8.888  1.3023 -0.6860  0.0874
15760SOL     OW48720   4.156   1.995  11.255 -0.2040 -0.4024  0.3463
15760SOL    HW148721   4.216   1.923  11.238 -2.1561 -1.8907 -0.6762
15760SOL    HW248722   4.209   2.074  11.248  2.1161 -1.7066  1.9428
15761SOL     OW48723   3.162   5.752   9.742  0.2133  0.4286  0.2446
15761SOL    HW148724   3.168   5.830   9.687 -3.7205  0.2904 -0.6653
15761SOL    HW248725   3.092   5.771   9.804 -0.8749 -2.2785  0.0202
15762SOL     OW48726   5.094   5.783  10.947  0.1884 -0.2195  0.1897
15762SOL    HW148727   5.132   5.754  10.864 -0.2558 -3.1910  0.9073
15762SOL    HW248728   5.169   5.804  11.002  0.6689 -1.7969  0.1828
15763SOL     OW48729   4.925   4.715  10.135  0.0287  0.0050  0.0628
15763SOL    HW148730   4.858   4.660  10.093 -0.7534  0.6749  0.3937
15763SOL    HW248731   4.875   4.772  10.194  0.6246  2.0464 -1.2913
15764SOL     OW48732   5.638   2.362  10.116  0.0167  0.0634  0.3693
15764SOL    HW148733   5.689   2.440  10.139 -0.7496  0.6252  0.2170
15764SOL    HW248734   5.547   2.392  10.121 -0.2409 -0.3392 -1.4328
15765SOL     OW48735   3.691   4.035   9.998  0.0405 -0.3500  0.0883
15765SOL    HW148736   3.740   3.960   9.966  1.0702 -2.0645  4.8707
15765SOL    HW248737   3.599   4.012   9.983  0.4095 -1.0665 -1.2353
15766SOL     OW48738   4.898   5.520  11.692  0.6441  0.4004  0.9676
15766SOL    HW148739   4.851   5.439  11.672  1.1055  0.1793  0.7763
15766SOL    HW248740   4.925   5.554  11.606 -1.1961  1.7700  0.8663
15767SOL     OW48741   5.017   2.992   9.620  0.2302 -0.3360 -0.2507
15767SOL    HW148742   5.099   3.008   9.665  0.5406 -0.4689 -0.7600
15767SOL    HW248743   4.957   3.059   9.654  1.4543  1.9453 -2.2487
15768SOL     OW48744   3.723   5.748  11.384 -0.3404  0.5589  0.2521
15768SOL    HW148745   3.772   5.805  11.443  1.1258 -0.5176  0.1350
15768SOL    HW248746   3.719   5.797  11.301  1.3808  0.3174 -0.0177
15769SOL     OW48747   5.306   5.956  11.088  0.3807 -0.3337 -0.3674
15769SOL    HW148748   5.299   6.031  11.030  1.3945  0.2682  0.2636
15769SOL    HW248749   5.287   5.991  11.175  0.6272 -0.8484 -0.1009
15770SOL     OW48750   2.993   3.713  11.774  0.5497  0.2860 -0.3001
15770SOL    HW148751   2.987   3.681  11.684  1.4941  2.0306 -1.0298
15770SOL    HW248752   3.033   3.800  11.766 -0.1382  0.8476  1.7309
15771SOL     OW48753   5.925   5.441   8.852 -0.0049  0.2980 -0.3521
15771SOL    HW148754   5.937   5.360   8.804  0.3941  0.3625 -0.3677
15771SOL    HW248755   6.006   5.491   8.836 -0.5271  0.9958 -0.9110
15772SOL     OW48756   5.936   4.492  10.160 -0.1876 -0.0336 -0.5400
15772SOL    HW148757   5.880   4.545  10.217  0.9216  0.3667  0.2150
15772SOL    HW248758   5.885   4.481  10.080 -1.5536 -0.1228  0.3113
15773SOL     OW48759   5.916   5.237  10.704 -0.0970  0.4183 -0.7082
15773SOL    HW148760   5.937   5.330  10.705 -0.0792  0.4144 -0.7681
15773SOL    HW248761   5.844   5.229  10.641  0.0331  0.3618 -0.8483
15774SOL     OW48762   4.080   5.631  10.357 -0.1764 -0.3432 -0.2497
15774SOL    HW148763   3.991   5.616  10.326  0.3510 -0.1448 -1.9419
15774SOL    HW248764   4.136   5.598  10.288  1.0605  0.9352  0.0896
15775SOL     OW48765   1.128   4.528   9.312  0.2066  0.3949 -0.3504
15775SOL    HW148766   1.140   4.544   9.219  0.2331  0.7736 -0.2833
15775SOL    HW248767   1.178   4.448   9.330 -1.0825 -0.5979 -0.9774
15776SOL     OW48768   3.373   5.479  11.731  0.9121 -0.2398  0.0422
15776SOL    HW148769   3.397   5.473  11.638 -0.0044 -0.5208 -0.1943
15776SOL    HW248770   3.322   5.559  11.737  0.1089 -0.7406  0.0874
15777SOL     OW48771   5.574   6.279  10.338 -0.0262  0.0899  0.2946
15777SOL    HW148772   5.668   6.260  10.343 -0.0371 -0.0082  0.1081
15777SOL    HW248773   5.535   6.221  10.404 -0.1249 -0.9712 -0.6699
15778SOL     OW48774   3.974   4.098  10.607  0.2800  0.1458  0.4621
15778SOL    HW148775   4.054   4.073  10.562  0.5322  3.3265 -1.1309
15778SOL    HW248776   3.906   4.044  10.566  1.2897 -1.2524  0.5416
15779SOL     OW48777   4.571   3.355  10.549 -0.0050  0.5410 -0.4651
15779SOL    HW148778   4.541   3.363  10.459 -0.0832  0.7770 -0.4185
15779SOL    HW248779   4.558   3.442  10.587  0.1411  0.4751 -0.2610
15780SOL     OW48780   4.747   3.581  11.063  0.2012 -0.1587 -0.2190
15780SOL    HW148781   4.833   3.604  11.097 -0.3493  0.9109  0.5124
15780SOL    HW248782   4.686   3.618  11.126 -0.7914 -1.3035 -0.4893
15781SOL     OW48783   5.251   3.719  10.235 -0.1303  0.1544 -0.5185
15781SOL    HW148784   5.289   3.671  10.161  0.7544  0.2229 -0.1243
15781SOL    HW248785   5.214   3.798  10.195 -0.1745 -0.0866 -0.9630
15782SOL     OW48786   4.160   6.409   9.953  0.6085 -0.2820 -0.2012
15782SOL    HW148787   4.101   6.334   9.960  0.5634 -0.4149 -1.7127
15782SOL    HW248788   4.195   6.404   9.864 -0.6946  2.4314 -0.9549
15783SOL     OW48789   3.371   3.042  11.361 -0.2187 -0.4297  0.5713
15783SOL    HW148790   3.303   3.079  11.304  1.0423  0.4685 -0.3923
15783SOL    HW248791   3.435   3.005  11.301  0.0247 -1.5399  1.4826
15784SOL     OW48792   4.931   3.179  10.747 -0.4675 -0.2294 -0.2188
15784SOL    HW148793   4.959   3.190  10.838  0.6881 -0.0476 -0.5760
15784SOL    HW248794   4.923   3.268  10.714 -0.3048 -0.3013 -0.4533
15785SOL     OW48795   3.373   5.243   9.440  0.1284  0.5563  0.3692
15785SOL    HW148796   3.369   5.148   9.426  0.0799  0.8689 -2.3000
15785SOL    HW248797   3.455   5.257   9.486  1.0743 -0.6765 -0.8422
15786SOL     OW48798   4.554   5.956   9.771  0.1620 -0.3313  0.0129
15786SOL    HW148799   4.537   5.863   9.789 -2.0888 -0.2830 -1.4778
15786SOL    HW248800   4.565   5.960   9.677  0.1410  0.9371  0.0551
15787SOL     OW48801   5.642   4.093   9.217 -0.2793  0.2280 -0.0863
15787SOL    HW148802   5.708   4.141   9.268 -2.4580  1.5801  1.6411
15787SOL    HW248803   5.627   4.147   9.140 -1.0173  1.1571  0.6846
15788SOL     OW48804   3.878   4.928   9.593  0.2976 -0.0440  0.1225
15788SOL    HW148805   3.810   4.864   9.610  0.4456 -0.0668  0.6643
15788SOL    HW248806   3.917   4.901   9.510 -1.2666  0.7728 -0.9275
15789SOL     OW48807   0.004   4.239  10.209 -0.3428  0.6655  0.4385
15789SOL    HW148808  -0.026   4.281  10.128 -1.4935 -0.1915  0.3986
15789SOL    HW248809   0.087   4.198  10.185 -0.3940  0.8985 -0.1536
15790SOL     OW48810   3.669   5.807  11.758 -0.3967  0.3649 -0.5828
15790SOL    HW148811   3.672   5.898  11.789  0.3711  0.7451 -1.7062
15790SOL    HW248812   3.606   5.809  11.685  1.7780  0.6858 -2.5770
15791SOL     OW48813   6.189   6.263  10.752 -0.4287 -0.2713  0.5334
15791SOL    HW148814   6.149   6.312  10.824 -0.4968  0.6442 -0.1110
15791SOL    HW248815   6.118   6.207  10.719 -0.5029 -0.4129  0.9265
15792SOL     OW48816   4.151   5.773  11.023  0.1673 -0.6654 -0.2393
15792SOL    HW148817   4.239   5.808  11.008 -0.6244  1.0850 -1.1918
15792SOL    HW248818   4.159   5.679  11.009  1.9276 -0.5742 -0.0541
15793SOL     OW48819   6.029   5.885  10.438  0.4875  0.2605  0.3023
15793SOL    HW148820   5.935   5.883  10.458  0.5862  0.5870  0.8301
15793SOL    HW248821   6.056   5.793  10.441  0.1891  0.1648  0.1501
15794SOL     OW48822   4.203   3.109  10.015 -0.7365 -0.2252  0.0417
15794SOL    HW148823   4.291   3.127  10.046 -0.4597 -0.8053 -0.3923
15794SOL    HW248824   4.215   3.064   9.932 -1.4540  0.4207 -0.4348
15795SOL     OW48825   4.235   3.155  12.090  0.5672  0.0642 -0.3677
15795SOL    HW148826   4.276   3.217  12.151  0.1049 -0.3001  0.3363
15795SOL    HW248827   4.233   3.201  12.006 -1.1440  1.6411  0.4661
15796SOL     OW48828   4.679   4.715  11.046 -0.2044 -0.3627  0.3019
15796SOL    HW148829   4.689   4.807  11.019  1.0422 -0.4129  0.5077
15796SOL    HW248830   4.596   4.712  11.092 -1.2713  0.2231 -1.4750
15797SOL     OW48831   4.282   4.912   9.873 -0.2062  0.1163  0.1396
15797SOL    HW148832   4.301   4.982   9.810  0.1746  1.0425  1.2548
15797SOL    HW248833   4.197   4.878   9.846  0.0643  0.3274 -1.0157
15798SOL     OW48834   3.243   4.869  10.112  0.0448 -0.0401  0.0808
15798SOL    HW148835   3.189   4.948  10.103  0.8763  0.3687 -1.6236
15798SOL    HW248836   3.222   4.816  10.035 -0.0898 -1.2565  0.9215
15799SOL     OW48837   4.089   6.108  12.399  0.4100 -0.1591  0.0034
15799SOL    HW148838   4.104   6.014  12.403 -2.5454 -0.6669  2.6253
15799SOL    HW248839   4.104   6.139  12.488  0.1474  1.6642 -0.5440
15800SOL     OW48840   4.191   5.212  10.238  0.2648  0.3039 -0.3406
15800SOL    HW148841   4.141   5.249  10.311  1.9064  0.7058  0.6406
15800SOL    HW248842   4.142   5.134  10.212 -0.7670  0.5917  0.6799
15801SOL     OW48843   4.234   5.874   9.440  0.2242  0.0569 -0.3575
15801SOL    HW148844   4.322   5.903   9.467  0.4526 -0.7351 -0.2250
15801SOL    HW248845   4.247   5.786   9.406  0.1642  1.3512 -4.2371
15802SOL     OW48846   5.419   6.320   9.715  0.0700  0.0721 -0.1001
15802SOL    HW148847   5.497   6.375   9.710  0.1393  0.0708  0.7414
15802SOL    HW248848   5.381   6.341   9.801 -2.2956  2.0014 -1.4786
15803SOL     OW48849   4.050   4.994  10.160  0.3032  0.0961 -0.4069
15803SOL    HW148850   4.067   4.900  10.153 -1.6970 -0.3993  0.6712
15803SOL    HW248851   3.998   5.015  10.082  0.9614  0.3872 -0.7783
15804SOL     OW48852   4.424   3.522  10.009  0.3655  0.3619  0.1093
15804SOL    HW148853   4.355   3.537  10.074  0.3510  0.4825  0.0661
15804SOL    HW248854   4.391   3.564   9.930  0.8336  1.1021  0.2963
15805SOL     OW48855   4.897   6.125  12.032 -0.1093 -0.1745 -0.2485
15805SOL    HW148856   4.852   6.208  12.048  2.0568  1.0348 -0.0203
15805SOL    HW248857   4.859   6.064  12.095  0.2003  1.4249  1.5679
15806SOL     OW48858   4.627   4.072  10.193  0.1724 -0.0297 -0.5718
15806SOL    HW148859   4.647   4.126  10.270 -0.7788  1.8146 -1.5426
15806SOL    HW248860   4.533   4.059  10.197  0.4067 -1.8966 -0.2527
15807SOL     OW48861   7.985   6.422  11.674 -0.0721  0.2398 -0.5030
15807SOL    HW148862   8.043   6.488  11.710 -1.0044  0.5474  0.5058
15807SOL    HW248863   7.903   6.432  11.723 -0.3081 -1.5297 -0.4431
15808SOL     OW48864   4.941   3.967  11.166  0.2351  0.5156  0.2159
15808SOL    HW148865   5.007   3.913  11.208  0.4612 -1.1003 -2.0314
15808SOL    HW248866   4.988   4.044  11.136  1.1816 -0.6592 -1.4416
15809SOL     OW48867   2.756   5.230  10.306  0.2128  0.2317 -0.6741
15809SOL    HW148868   2.782   5.197  10.220 -0.3297  3.9743 -2.4872
15809SOL    HW248869   2.782   5.322  10.305 -0.5851  0.6433  2.8882
15810SOL     OW48870   5.443   5.035  11.814 -0.3220  0.4722  0.3026
15810SOL    HW148871   5.446   5.125  11.782  2.8501  0.0845 -0.9013
15810SOL    HW248872   5.525   5.024  11.862  0.4899 -2.3580 -1.4997
15811SOL     OW48873   3.146   4.799   9.815 -0.0567  0.1069  0.4015
15811SOL    HW148874   3.104   4.752   9.743  1.8806  1.7396 -1.9388
15811SOL    HW248875   3.087   4.872   9.833  0.6225  1.1831 -1.4254
15812SOL     OW48876   5.123   5.145   9.942 -0.7150 -0.1015  0.1357
15812SOL    HW148877   5.095   5.055   9.929 -0.1757 -0.2109 -0.3027
15812SOL    HW248878   5.073   5.195   9.878  0.3533 -0.3532 -0.9424
15813SOL     OW48879   4.563   4.770  10.543  0.2294  0.5678 -0.2744
15813SOL    HW148880   4.539   4.788  10.633  3.2173  1.3646  0.4719
15813SOL    HW248881   4.622   4.694  10.548 -0.9194 -0.4910 -1.7836
15814SOL     OW48882   3.801   5.513   9.652 -0.0256 -0.0800 -0.0682
15814SOL    HW148883   3.893   5.499   9.628  0.6614  0.3679  2.1212
15814SOL    HW248884   3.801   5.594   9.702 -1.9970  1.0923 -1.7955
15815SOL     OW48885   2.838   5.733  11.039 -0.2135 -0.2404  0.5821
15815SOL    HW148886   2.794   5.653  11.010 -0.4327  0.0170  0.2054
15815SOL    HW248887   2.926   5.704  11.063  0.8322 -0.1072 -2.6301
15816SOL     OW48888   4.822   3.828  12.279  0.1983  0.0585  0.2607
15816SOL    HW148889   4.766   3.896  12.316  0.1075  0.1534 -0.0518
15816SOL    HW248890   4.904   3.872  12.257 -0.5961  0.5692 -1.9581
15817SOL     OW48891   4.000   4.653  11.441  0.3768  0.0486 -0.0409
15817SOL    HW148892   4.037   4.572  11.475  0.6574  0.7002  1.2820
15817SOL    HW248893   3.999   4.641  11.346  2.2840 -0.7304 -0.0214
15818SOL     OW48894   5.035   5.127  10.397  0.6720  0.4851  0.2995
15818SOL    HW148895   5.007   5.100  10.310  0.8557 -0.0935  0.4154
15818SOL    HW248896   5.131   5.132  10.390  0.7107  0.1410  0.5447
15819SOL     OW48897   3.998   5.611  11.237  0.3172  0.0889 -0.6789
15819SOL    HW148898   4.062   5.676  11.209  0.7466  0.1449  0.3902
15819SOL    HW248899   3.918   5.634  11.191  1.0601  0.0084 -2.0448
15820SOL     OW48900   5.690   4.480  10.842 -0.2290  0.1192  0.2711
15820SOL    HW148901   5.742   4.432  10.777 -0.6916 -2.6811  1.8121
15820SOL    HW248902   5.605   4.436  10.842 -0.3107  0.1792  2.5651
15821SOL     OW48903   6.097   5.096  10.557 -0.6694 -0.5372  0.0476
15821SOL    HW148904   6.067   5.040  10.486 -1.2380 -0.7359  0.4318
15821SOL    HW248905   6.017   5.117  10.606 -0.3024 -0.3330  0.5723
15822SOL     OW48906   4.100   2.436  10.637  0.4263  0.5772  0.5300
15822SOL    HW148907   4.136   2.524  10.651  0.8011  0.1582  2.4158
15822SOL    HW248908   4.093   2.399  10.725 -4.4720  0.5261  0.3542
15823SOL     OW48909   5.816   4.256   9.393  0.2447  0.6708 -0.3050
15823SOL    HW148910   5.862   4.287   9.315 -0.2639  0.9369 -0.5023
15823SOL    HW248911   5.757   4.327   9.417 -0.4744  0.1233 -0.3841
15824SOL     OW48912   4.317   4.596   9.691  0.1113 -0.0915  0.0187
15824SOL    HW148913   4.243   4.619   9.634  0.2281 -0.9205 -0.4831
15824SOL    HW248914   4.288   4.517   9.736  0.3273  0.1212  0.5310
15825SOL     OW48915   3.497   5.300  11.042 -0.2864 -0.1005  0.2013
15825SOL    HW148916   3.570   5.351  11.078 -0.3526 -1.0120  1.7406
15825SOL    HW248917   3.497   5.219  11.093 -2.0902 -0.3263 -0.0774
15826SOL     OW48918   3.751   4.964  11.120  0.0268 -0.4614  0.4817
15826SOL    HW148919   3.764   4.957  11.025 -1.1467  2.1497  0.0211
15826SOL    HW248920   3.834   4.934  11.157  0.2107 -2.3983 -1.2873
15827SOL     OW48921   4.704   3.232  11.792 -0.4351  0.0379 -0.3489
15827SOL    HW148922   4.772   3.178  11.752 -1.2682 -1.4320  0.1443
15827SOL    HW248923   4.747   3.316  11.810  1.1453 -0.7431 -0.3328
15828SOL     OW48924   5.195   4.233  10.901  0.6578 -0.2960 -0.5894
15828SOL    HW148925   5.142   4.282  10.963  0.9432  0.7564 -1.1506
15828SOL    HW248926   5.139   4.225  10.823  1.2063  0.5925 -1.0895
15829SOL     OW48927   4.460   4.475  10.212 -0.4145  0.0666 -0.5456
15829SOL    HW148928   4.474   4.414  10.140  0.7997  0.0278 -0.2831
15829SOL    HW248929   4.410   4.547  10.173  0.5162  0.2116 -1.5182
15830SOL     OW48930   3.637   3.670  11.459  0.1401  0.1053 -0.2618
15830SOL    HW148931   3.618   3.689  11.367 -1.8000  0.1392  0.1088
15830SOL    HW248932   3.732   3.656  11.461  0.0128 -1.5822 -2.5614
15831SOL     OW48933   2.865   5.153   9.290 -0.1283 -0.1338 -0.1461
15831SOL    HW148934   2.895   5.065   9.312  0.8303  0.1992 -0.1005
15831SOL    HW248935   2.888   5.165   9.198  0.7296  0.4649  0.1387
15832SOL     OW48936   3.330   6.589   9.897 -0.1534 -0.2029 -0.0823
15832SOL    HW148937   3.376   6.556   9.820  0.0230 -0.6213  0.1969
15832SOL    HW248938   3.295   6.673   9.870 -0.3589 -0.4854 -0.7225
15833SOL     OW48939   5.407   5.206   7.491 -0.4435 -0.6463 -0.0682
15833SOL    HW148940   5.448   5.144   7.431 -0.3789  0.2696 -1.0005
15833SOL    HW248941   5.317   5.176   7.498 -0.4817 -0.6999 -0.7232
15834SOL     OW48942   5.524   3.574  11.276  0.0530 -0.0817 -0.2174
15834SOL    HW148943   5.441   3.570  11.229  0.1254 -1.8751 -0.2633
15834SOL    HW248944   5.587   3.604  11.211 -0.7811  2.9938  0.2404
15835SOL     OW48945   2.899   5.434  11.285 -0.1995 -0.2228  0.3010
15835SOL    HW148946   2.821   5.441  11.231 -0.3067  1.4477  0.6106
15835SOL    HW248947   2.904   5.341  11.309 -0.0171 -1.0998 -2.7192
15836SOL     OW48948   6.712   7.237   0.155 -0.1862  0.0071 -0.8440
15836SOL    HW148949   6.650   7.165   0.161 -0.5165  0.3040 -0.6983
15836SOL    HW248950   6.680   7.291   0.084  0.6706 -0.5628 -1.6877
15837SOL     OW48951   5.899   6.307  10.890 -0.9404 -0.1002  0.1802
15837SOL    HW148952   5.921   6.314  10.983 -1.4933  1.0359  0.2470
15837SOL    HW248953   5.812   6.345  10.883 -0.6044  0.5092 -0.9221
15838SOL     OW48954   5.370   4.626  11.213 -0.4313 -0.1296  0.2949
15838SOL    HW148955   5.302   4.598  11.152 -0.1131  0.2937 -0.2629
15838SOL    HW248956   5.416   4.545  11.237  0.4738 -0.1118 -1.2908
15839SOL     OW48957   4.107   6.885  12.007 -0.0560  0.3038 -0.0589
15839SOL    HW148958   4.032   6.858  11.955  0.0315  0.3502 -0.2096
15839SOL    HW248959   4.165   6.930  11.945  0.7625 -0.9726 -0.2718
15840SOL     OW48960   5.674   6.004  10.126 -0.4620 -0.4945  0.2977
15840SOL    HW148961   5.720   5.930  10.087 -0.9410 -0.3838 -0.4866
15840SOL    HW248962   5.671   6.069  10.057 -1.8852 -0.5336  0.3051
15841SOL     OW48963   4.883   5.886  10.527 -0.0469 -0.0931 -0.1831
15841SOL    HW148964   4.968   5.846  10.506  0.2684 -0.1761  1.1538
15841SOL    HW248965   4.824   5.812  10.539  0.5261 -0.2336  2.2479
15842SOL     OW48966   7.239   5.886   9.542  0.3789 -0.3896 -0.1176
15842SOL    HW148967   7.227   5.840   9.459  0.8951 -1.8854  0.6021
15842SOL    HW248968   7.187   5.836   9.605  1.1806 -0.1443  0.7531
15843SOL     OW48969   3.517   3.473  10.790  0.6666  0.0597 -0.3964
15843SOL    HW148970   3.605   3.510  10.780  0.1200  1.2987 -0.7661
15843SOL    HW248971   3.485   3.461  10.701 -0.3387  1.6638 -0.3057
15844SOL     OW48972   4.389   5.949   8.959 -0.2454 -0.4771 -0.1909
15844SOL    HW148973   4.413   6.039   8.981 -1.8384 -0.4395  1.6701
15844SOL    HW248974   4.339   5.956   8.878 -2.7753  0.7605  1.3620
15845SOL     OW48975   4.200   4.443   9.868 -0.8678  0.1604  0.4009
15845SOL    HW148976   4.123   4.392   9.845 -1.1334 -0.0689  1.7067
15845SOL    HW248977   4.268   4.378   9.885 -1.6325  0.0346  3.6438
15846SOL     OW48978   7.567   4.917   9.193 -0.2949  0.3131 -0.0007
15846SOL    HW148979   7.617   4.946   9.270 -0.2302  0.5070 -0.1151
15846SOL    HW248980   7.577   4.989   9.130 -0.3874  0.1752 -0.1720
15847SOL     OW48981   5.911   4.936  10.081 -0.2348  0.0745 -0.2744
15847SOL    HW148982   5.972   4.885  10.027  0.5204 -1.9148  2.2579
15847SOL    HW248983   5.825   4.900  10.061  0.0914 -0.9627  0.1477
15848SOL     OW48984   4.157   6.942  10.457 -0.4812 -0.1700  0.2486
15848SOL    HW148985   4.125   6.960  10.545  2.4162  0.6907  1.2375
15848SOL    HW248986   4.158   7.028  10.414  1.1520 -0.0262  0.5272
15849SOL     OW48987   4.328   4.973  12.045 -0.0950  0.3148 -0.3943
15849SOL    HW148988   4.318   4.977  11.950 -0.3825  2.4649 -0.3225
15849SOL    HW248989   4.391   5.042  12.066  0.0015 -0.1590  0.9766
15850SOL     OW48990   5.873   4.078   8.588  0.2456 -0.5083  0.4742
15850SOL    HW148991   5.964   4.053   8.602 -0.0207 -2.5570 -0.9344
15850SOL    HW248992   5.831   4.065   8.673  0.8331 -1.8627  0.5918
15851SOL     OW48993   5.851   7.020  10.252  0.7175 -0.4610  0.5678
15851SOL    HW148994   5.809   7.053  10.332  1.6680  0.2257  0.7953
15851SOL    HW248995   5.807   7.068  10.181 -0.2953 -1.2435  0.6354
15852SOL     OW48996   3.187   5.409  10.452  0.0639  0.3808  0.0728
15852SOL    HW148997   3.128   5.471  10.495  1.5879  2.0307 -0.0734
15852SOL    HW248998   3.174   5.424  10.358  0.3921  0.4518  0.0363
15853SOL     OW48999   4.794   5.754  11.473 -0.0671  0.2776  0.4426
15853SOL    HW149000   4.748   5.789  11.397  0.5012 -0.2935 -0.1801
15853SOL    HW249001   4.744   5.676  11.497  0.8563 -0.6635 -0.5809
15854SOL     OW49002   4.823   5.659   9.555  0.1284  0.1748 -0.0395
15854SOL    HW149003   4.893   5.597   9.578 -0.1483 -0.7672 -1.5884
15854SOL    HW249004   4.747   5.603   9.536  0.1995  0.8361 -2.6628
15855SOL     OW49005   4.567   6.918   8.969 -0.0935  0.4378  0.2565
15855SOL    HW149006   4.596   6.830   8.947 -0.4795  1.1733 -4.0993
15855SOL    HW249007   4.557   6.917   9.065  2.0793 -3.4724  0.6451
15856SOL     OW49008   4.742   5.624  12.456  0.1028 -0.0159 -0.2549
15856SOL    HW149009   4.676   5.576  12.507 -0.2803  0.2309 -0.5122
15856SOL    HW249010   4.824   5.577  12.473 -0.2025 -0.5496 -0.2300
15857SOL     OW49011   5.406   5.516  10.106  0.1453 -0.0918 -0.0611
15857SOL    HW149012   5.438   5.462  10.178  1.4005  0.2082 -0.3609
15857SOL    HW249013   5.483   5.531  10.051 -0.6613  0.1483 -1.1702
15858SOL     OW49014   3.349   3.544  10.147 -0.8149 -0.7427  0.3378
15858SOL    HW149015   3.433   3.500  10.156 -1.0363 -0.8076  2.6431
15858SOL    HW249016   3.326   3.533  10.055  1.2113 -1.5754 -0.1221
15859SOL     OW49017   2.125   4.491   9.995 -0.4686 -0.3468  0.0755
15859SOL    HW149018   2.195   4.443  10.039 -1.0277 -0.6576  0.6424
15859SOL    HW249019   2.086   4.426   9.935 -0.0467 -0.0744 -0.4983
15860SOL     OW49020   6.014   4.331   9.209 -0.1751  0.4630 -0.6799
15860SOL    HW149021   6.060   4.398   9.259  1.5060 -0.1672 -1.3262
15860SOL    HW249022   6.051   4.248   9.240 -0.9294 -0.0831 -1.1888
15861SOL     OW49023   3.330   6.423  10.678 -0.2708  0.6196  0.0087
15861SOL    HW149024   3.241   6.459  10.682 -0.1730  0.9045 -0.2978
15861SOL    HW249025   3.386   6.499  10.668  0.1771  0.5880  1.9273
15862SOL     OW49026   3.966   4.668  10.723 -0.0168 -0.7171  0.1537
15862SOL    HW149027   3.940   4.580  10.695 -1.0193 -0.3330 -0.1422
15862SOL    HW249028   3.950   4.723  10.646 -1.3047  0.0726  0.9538
15863SOL     OW49029   5.230   2.863  10.446  0.0326  0.0796 -0.4919
15863SOL    HW149030   5.208   2.908  10.527 -1.7108  0.5866 -1.1942
15863SOL    HW249031   5.323   2.843  10.454  0.0095  0.5271  1.4130
15864SOL     OW49032   6.906   4.648  10.311 -0.1459 -0.4745 -0.5339
15864SOL    HW149033   6.918   4.740  10.335 -0.6025 -0.2638 -1.0857
15864SOL    HW249034   6.993   4.618  10.284 -0.2475  0.2135 -1.7277
15865SOL     OW49035   2.607   6.968   8.850 -0.0161  0.1543 -0.0266
15865SOL    HW149036   2.611   7.030   8.776 -2.1968  0.0710 -0.2770
15865SOL    HW249037   2.653   6.890   8.818  0.1435  0.5691 -0.8380
15866SOL     OW49038   3.919   5.082   9.894  0.5279  0.0935  0.3754
15866SOL    HW149039   4.003   5.126   9.878  0.3688  0.8993  1.6251
15866SOL    HW249040   3.860   5.118   9.828  0.0481  2.8519  2.1125
15867SOL     OW49041   5.206   6.247   8.681  0.0600 -0.1328 -0.7120
15867SOL    HW149042   5.117   6.281   8.691 -0.5444 -1.1542 -2.3232
15867SOL    HW249043   5.200   6.181   8.613  1.9223 -0.7988 -0.3139
15868SOL     OW49044   4.422   2.038  10.919  0.1154 -0.6856 -0.1581
15868SOL    HW149045   4.396   1.969  10.981  0.0474  1.2482  2.0829
15868SOL    HW249046   4.343   2.090  10.906  0.7372  0.3562  0.0965
15869SOL     OW49047   4.059   4.467   9.076  0.3135  0.0182  0.6164
15869SOL    HW149048   4.151   4.465   9.050  0.6201 -0.0057  1.6953
15869SOL    HW249049   4.017   4.402   9.019  0.7197  0.8726 -0.7153
15870SOL     OW49050   4.739   5.435  10.873  0.9261 -0.3962 -0.2019
15870SOL    HW149051   4.759   5.393  10.789  1.9190  0.4499 -0.4113
15870SOL    HW249052   4.801   5.396  10.935  0.6187 -0.5632  0.0036
15871SOL     OW49053   3.472   5.821   9.727 -0.0560  0.4195  0.0386
15871SOL    HW149054   3.496   5.819   9.634  2.8333  2.8398  0.5495
15871SOL    HW249055   3.537   5.765   9.770 -0.9877 -0.1884  0.7036
15872SOL     OW49056   3.581   3.912   9.736  0.0349  0.0537  0.5797
15872SOL    HW149057   3.492   3.934   9.707  0.0055 -1.5166 -0.6843
15872SOL    HW249058   3.638   3.963   9.678 -0.0519 -1.6709 -1.1342
15873SOL     OW49059   5.147   3.838  11.292  0.4597  0.1462  0.4841
15873SOL    HW149060   5.242   3.838  11.279  0.5643  1.4239  1.0332
15873SOL    HW249061   5.135   3.882  11.377 -0.6697  1.1280 -0.1456
15874SOL     OW49062   5.432   5.214  10.631  0.6974 -0.0244 -0.7128
15874SOL    HW149063   5.409   5.166  10.551  2.6099  0.7955 -1.8410
15874SOL    HW249064   5.502   5.163  10.671  1.2544  0.6686 -0.7677
15875SOL     OW49065   5.786   5.785  10.008  0.4560 -0.1414 -0.1533
15875SOL    HW149066   5.698   5.753   9.985 -0.4471  0.0342  2.6912
15875SOL    HW249067   5.836   5.779   9.926 -2.7221  1.6925 -2.4791
15876SOL     OW49068   5.013   6.912   9.280 -0.5511 -0.4875  0.2731
15876SOL    HW149069   4.988   6.837   9.226  0.4779 -0.6289 -0.0189
15876SOL    HW249070   5.102   6.894   9.308 -0.7175  0.0643  1.2063
15877SOL     OW49071   4.118   4.056   9.635  0.1217  0.0336  0.2661
15877SOL    HW149072   4.081   4.060   9.547 -0.6700  0.0031  0.5839
15877SOL    HW249073   4.213   4.055   9.622  0.0209 -1.8724 -0.6517
15878SOL     OW49074   6.074   3.650  11.826  0.0527  0.3641 -0.1874
15878SOL    HW149075   6.113   3.673  11.742 -0.4841 -1.0536 -0.8521
15878SOL    HW249076   6.060   3.734  11.869  1.5744  1.0465 -0.9321
15879SOL     OW49077   4.401   6.113  10.702  0.2960  0.6728  0.3440
15879SOL    HW149078   4.431   6.141  10.789  2.7426  0.4173 -0.3341
15879SOL    HW249079   4.414   6.189  10.646 -0.2558  0.5092 -0.0108
15880SOL     OW49080   6.848   5.941  11.148 -0.0390 -0.1221  0.1363
15880SOL    HW149081   6.797   5.881  11.203 -1.2891  1.2039  0.4956
15880SOL    HW249082   6.789   5.962  11.075  0.5762  0.2611 -0.2593
15881SOL     OW49083   5.546   4.303   8.037 -0.0079  0.2766  0.4001
15881SOL    HW149084   5.542   4.396   8.014  0.9373  0.0995 -0.5931
15881SOL    HW249085   5.475   4.263   7.987 -0.1563  0.3975  0.5116
15882SOL     OW49086   3.448   5.114  10.253 -0.6084  0.3894  0.2357
15882SOL    HW149087   3.453   5.053  10.326  0.5040  0.0251 -0.1217
15882SOL    HW249088   3.354   5.123  10.235 -0.9448  1.0400  2.1438
15883SOL     OW49089   6.785   4.692   8.957  0.3260 -0.3282  0.2147
15883SOL    HW149090   6.828   4.613   8.989  1.0267  0.5999  1.6957
15883SOL    HW249091   6.706   4.701   9.012  0.4106  0.1397  0.2713
15884SOL     OW49092   4.987   4.912   9.953 -0.5726 -0.4813  0.2650
15884SOL    HW149093   4.910   4.915   9.896 -0.3734  0.1382  0.0206
15884SOL    HW249094   4.977   4.830  10.002 -1.9080  0.0681  0.9648
15885SOL     OW49095   3.329   6.645  11.087  0.2377 -0.1872 -0.2233
15885SOL    HW149096   3.255   6.697  11.117 -0.5217 -0.8244 -0.9283
15885SOL    HW249097   3.406   6.702  11.099 -0.2211  0.1349  1.4146
15886SOL     OW49098   3.028   5.016  12.042 -0.6760 -0.2768 -0.5166
15886SOL    HW149099   3.074   5.078  11.986 -2.2555  0.8916 -0.5683
15886SOL    HW249100   3.098   4.971  12.090  0.5497  0.7951 -1.2347
15887SOL     OW49101   3.529   6.537   9.688  0.0340  0.3791  0.1559
15887SOL    HW149102   3.539   6.481   9.611 -0.1984  0.3908  0.1169
15887SOL    HW249103   3.545   6.626   9.656  0.4553  0.3299  0.2278
15888SOL     OW49104   6.039   4.414   8.313  0.2889  0.3639  0.0652
15888SOL    HW149105   6.108   4.474   8.342  0.9948 -0.5264  0.3123
15888SOL    HW249106   5.996   4.459   8.241  0.4464  1.3796  0.5818
15889SOL     OW49107   7.332   5.223  11.040  0.2833  0.7074  0.2344
15889SOL    HW149108   7.411   5.267  11.009 -0.5526  0.2033 -2.9897
15889SOL    HW249109   7.359   5.133  11.055  0.2410  0.3690 -1.5382
15890SOL     OW49110   5.169   4.520  11.059  0.3903  0.1180 -1.0238
15890SOL    HW149111   5.119   4.588  11.104 -0.5524 -0.6581 -0.8705
15890SOL    HW249112   5.171   4.548  10.968  0.3387  0.5458 -0.8959
15891SOL     OW49113   3.596   6.122   9.316  0.0824 -0.5441 -0.3768
15891SOL    HW149114   3.578   6.051   9.377 -0.7054  0.3108  0.4045
15891SOL    HW249115   3.682   6.100   9.279  0.6489 -1.0127  1.1346
15892SOL     OW49116   2.799   5.113  10.576 -0.4830 -0.4901  0.4273
15892SOL    HW149117   2.756   5.148  10.498 -1.0573  0.4750  1.1472
15892SOL    HW249118   2.870   5.058  10.542 -1.0601 -0.5285 -0.7678
15893SOL     OW49119   4.461   4.848  10.783  0.0341 -0.6829 -0.2585
15893SOL    HW149120   4.524   4.855  10.855 -1.0970 -1.8500  0.9026
15893SOL    HW249121   4.411   4.930  10.787  0.0710 -0.6814  0.1876
15894SOL     OW49122   3.156   4.901   8.009  0.6288 -0.1620 -0.0099
15894SOL    HW149123   3.148   4.947   7.926  0.4274 -0.3524 -0.0951
15894SOL    HW249124   3.068   4.867   8.027  0.2953  1.1538  1.0153
15895SOL     OW49125   5.834   7.066   8.337 -0.1592  0.9752  0.4858
15895SOL    HW149126   5.874   7.150   8.315 -1.3949  1.4512 -0.0313
15895SOL    HW249127   5.831   7.065   8.433 -0.1461  1.5198  0.4922
15896SOL     OW49128   4.432   4.294  11.849  0.0455 -0.3818 -0.3621
15896SOL    HW149129   4.420   4.209  11.805 -2.8367 -0.9915  1.2758
15896SOL    HW249130   4.385   4.356  11.793 -1.2780 -0.6593  0.3975
15897SOL     OW49131   4.211   7.040  11.184 -0.1679 -0.0526 -0.1355
15897SOL    HW149132   4.224   7.022  11.277 -2.0080  0.2899  0.2363
15897SOL    HW249133   4.245   6.963  11.139  2.2064  0.4391  0.6730
15898SOL     OW49134   4.252   3.743  10.475  0.0084  0.1073 -0.5130
15898SOL    HW149135   4.158   3.731  10.484 -0.2770  1.2849 -1.5489
15898SOL    HW249136   4.262   3.835  10.451  1.3303 -0.3042 -1.6833
15899SOL     OW49137   3.636   3.707  10.169 -0.1774  0.1189 -0.1203
15899SOL    HW149138   3.614   3.616  10.189  1.4605 -0.3438 -0.3059
15899SOL    HW249139   3.648   3.708  10.074  1.0350  0.2209  0.0152
15900SOL     OW49140   4.030   7.082  10.948  0.3354 -0.2461  0.9566
15900SOL    HW149141   3.973   7.007  10.962 -0.6896  0.2792 -0.1749
15900SOL    HW249142   4.087   7.083  11.025 -2.0645 -0.0165  2.8901
15901SOL     OW49143   3.279   7.621   8.981 -0.2441  0.2568  0.4543
15901SOL    HW149144   3.370   7.613   9.009  0.0549 -1.0567 -0.8119
15901SOL    HW249145   3.238   7.540   9.010 -0.8178  0.4906  0.3049
15902SOL     OW49146   4.009   3.830  10.326  0.1432  0.7399  0.2979
15902SOL    HW149147   3.979   3.750  10.284  0.8584  0.8628 -0.4602
15902SOL    HW249148   3.992   3.899  10.262 -0.3391  1.1902  0.8881
15903SOL     OW49149   5.182   4.588  11.780  0.0804 -0.3308 -0.5897
15903SOL    HW149150   5.181   4.514  11.841 -2.3793 -0.1200 -0.2548
15903SOL    HW249151   5.256   4.641  11.808 -0.4943 -0.6532  1.7579
15904SOL     OW49152   4.650   5.345   9.200  0.5124 -0.3288 -0.3182
15904SOL    HW149153   4.627   5.358   9.108 -0.3113  2.3838  0.1785
15904SOL    HW249154   4.724   5.403   9.214  0.6131 -0.7063  0.7675
15905SOL     OW49155   4.396   5.949  11.276 -0.1069  0.0700 -0.1877
15905SOL    HW149156   4.355   6.034  11.259  1.0856  0.5417 -0.8508
15905SOL    HW249157   4.439   5.926  11.194  1.5681 -0.0257  0.6732
15906SOL     OW49158   6.755   3.849  11.029  0.1678  0.0073  0.0615
15906SOL    HW149159   6.743   3.932  10.982 -0.8757 -0.7663 -1.0998
15906SOL    HW249160   6.820   3.869  11.097  0.0757  1.7213 -0.3088
15907SOL     OW49161   4.060   1.427  11.263 -0.1690  1.0304  0.0833
15907SOL    HW149162   4.072   1.522  11.256 -0.4143  1.1013  0.6474
15907SOL    HW249163   4.139   1.390  11.223  0.8290  1.4857  1.5504
15908SOL     OW49164   4.575   3.890   0.409  0.5813 -0.2124  0.5252
15908SOL    HW149165   4.548   3.892   0.501  0.2867  0.0587  0.4367
15908SOL    HW249166   4.495   3.868   0.362 -0.0187  2.5021  0.0919
15909SOL     OW49167   5.130   3.612   0.365  0.5059 -0.0476 -0.4917
15909SOL    HW149168   5.152   3.654   0.282 -1.2390 -0.2138 -1.0774
15909SOL    HW249169   5.060   3.550   0.343 -0.3304  0.2567  1.1767
15910SOL     OW49170   5.659   4.665  11.344  0.1844 -0.1029  0.5789
15910SOL    HW149171   5.648   4.671  11.249 -0.7632  0.0345  0.6919
15910SOL    HW249172   5.698   4.749  11.368 -0.1456  0.1119  0.3807
15911SOL     OW49173   2.643   3.835  11.189  0.2894  0.1947  0.4942
15911SOL    HW149174   2.683   3.769  11.245  0.7933 -2.3048 -2.5553
15911SOL    HW249175   2.709   3.856  11.124 -0.5282  2.4194  0.2699
15912SOL     OW49176   4.989   4.329  11.639  0.1056 -0.7931 -0.1048
15912SOL    HW149177   4.943   4.307  11.720 -1.0102  2.8113  0.4297
15912SOL    HW249178   4.921   4.330  11.572  0.5301 -1.1794 -0.5506
15913SOL     OW49179   3.654   3.683  12.122  0.3324  0.1193 -0.0947
15913SOL    HW149180   3.625   3.729  12.201 -0.8259  2.2839 -1.6624
15913SOL    HW249181   3.724   3.738  12.088  0.4201 -0.4776 -0.8844
15914SOL     OW49182   5.463   3.562  10.864 -0.0112 -0.1114  0.5584
15914SOL    HW149183   5.427   3.641  10.823  1.8568  0.4787 -0.0733
15914SOL    HW249184   5.482   3.504  10.791 -1.2089 -1.1092  1.0121
15915SOL     OW49185   2.794   3.488  11.218 -0.2902  0.3348 -0.0494
15915SOL    HW149186   2.858   3.560  11.221  1.2835 -1.0063  0.5871
15915SOL    HW249187   2.747   3.501  11.136  0.8294  1.3808 -0.5648
15916SOL     OW49188   4.705   4.454  10.804 -0.1232 -0.1153 -0.2193
15916SOL    HW149189   4.640   4.462  10.875 -1.9660 -1.6488 -1.6310
15916SOL    HW249190   4.753   4.374  10.824 -0.0474 -0.0797 -0.2578
15917SOL     OW49191   5.483   3.419  10.635 -0.7440  0.4049 -0.3150
15917SOL    HW149192   5.521   3.470  10.564  1.8522 -0.6664  0.1592
15917SOL    HW249193   5.500   3.328  10.611 -1.5626 -0.0578  0.7632
15918SOL     OW49194   2.834   4.322   9.959  0.7319 -0.0727 -0.0338
15918SOL    HW149195   2.853   4.411   9.989  0.1945  0.0936 -0.1795
15918SOL    HW249196   2.894   4.308   9.886  2.0448 -0.4773  1.0917
15919SOL     OW49197   3.495   2.976   0.167 -0.0883 -0.3650  0.1667
15919SOL    HW149198   3.494   3.067   0.197  1.5966  0.2422 -1.4243
15919SOL    HW249199   3.459   2.980   0.078  0.0635 -1.2377  0.0579
15920SOL     OW49200   3.656   3.954  10.748  0.1856  0.4590  0.3639
15920SOL    HW149201   3.725   3.919  10.691 -0.8928 -1.5171  0.1670
15920SOL    HW249202   3.604   4.010  10.690  0.3218  0.1456 -0.0745
15921SOL     OW49203   3.794   4.212  11.192  0.2480 -0.0434 -0.2728
15921SOL    HW149204   3.779   4.138  11.133 -1.0828 -0.2291  0.2628
15921SOL    HW249205   3.878   4.247  11.165  0.3287 -0.9977 -1.3490
15922SOL     OW49206   2.935   3.796   0.222 -0.4664  0.2591  0.0905
15922SOL    HW149207   2.940   3.706   0.189  0.8826  1.3605 -3.0398
15922SOL    HW249208   3.024   3.817   0.250 -0.7795  0.6592  0.8428
15923SOL     OW49209   2.559   4.901  10.765 -0.0051  0.1569 -0.7747
15923SOL    HW149210   2.611   4.898  10.845  0.1555  2.9537 -0.6661
15923SOL    HW249211   2.624   4.895  10.694  0.0883 -0.0493 -0.6723
15924SOL     OW49212   5.036   3.546  12.374 -0.2176 -0.2746 -0.1419
15924SOL    HW149213   4.982   3.586  12.443  2.3588 -2.1224  3.2504
15924SOL    HW249214   5.083   3.619  12.334  1.7766  0.6624  3.4823
15925SOL     OW49215   5.434   3.057   0.244  0.1114 -0.5780  0.5547
15925SOL    HW149216   5.364   3.030   0.303  0.0736  0.5572  1.0679
15925SOL    HW249217   5.482   3.124   0.293 -1.2447  2.0355 -1.4414
15926SOL     OW49218   4.335   4.012   0.825 -0.1560  0.3480  0.1737
15926SOL    HW149219   4.248   3.973   0.819  0.3058 -0.6567 -0.1966
15926SOL    HW249220   4.393   3.947   0.785  0.7511  1.0496  0.3237
15927SOL     OW49221   3.051   4.000  11.739 -0.0158  0.6270  0.6093
15927SOL    HW149222   3.026   4.002  11.647  1.9645 -0.9667 -0.0438
15927SOL    HW249223   3.141   4.031  11.740  0.2733 -0.1815  1.8745
15928SOL     OW49224   3.681   1.105  12.281 -0.3161  0.3520 -0.1637
15928SOL    HW149225   3.613   1.038  12.276 -1.9722  1.9981 -0.8307
15928SOL    HW249226   3.657   1.168  12.214  1.3797  1.4598  0.2187
15929SOL     OW49227   5.294   2.915   0.444  0.3412 -0.0222  0.4851
15929SOL    HW149228   5.207   2.877   0.433  0.5044 -0.8114  1.7254
15929SOL    HW249229   5.283   2.985   0.508  0.3429  1.0182 -0.6005
15930SOL     OW49230   6.050   4.530  11.136  0.0876 -0.3868 -0.0007
15930SOL    HW149231   6.069   4.443  11.102 -0.8435 -0.5281 -0.1634
15930SOL    HW249232   6.001   4.514  11.217  0.7559 -0.0202  0.4976
15931SOL     OW49233   3.905   5.705  11.993 -0.1693  0.2160  0.0120
15931SOL    HW149234   3.894   5.643  12.066  0.6485  1.0455  0.8775
15931SOL    HW249235   3.911   5.791  12.036  1.1820  0.6347 -0.9465
15932SOL     OW49236   4.197   7.192  11.937 -0.1591  0.5698 -0.2202
15932SOL    HW149237   4.114   7.232  11.961  0.4066  1.8189 -0.3037
15932SOL    HW249238   4.249   7.263  11.899 -0.3913 -0.8901 -3.6893
15933SOL     OW49239   5.000   2.400  10.614 -0.4766  0.2412 -0.2739
15933SOL    HW149240   5.028   2.492  10.611  0.2781  0.1964  2.4555
15933SOL    HW249241   5.074   2.351  10.581 -0.3019  0.5511 -0.3478
15934SOL     OW49242   6.905   4.623  11.559 -0.9518 -0.5389  0.1334
15934SOL    HW149243   6.866   4.556  11.615 -2.1084  0.2991  0.3714
15934SOL    HW249244   6.831   4.659  11.510 -0.0637 -0.8133 -1.5050
15935SOL     OW49245   5.763   6.060   9.741  0.1827  0.1559  0.3205
15935SOL    HW149246   5.715   6.113   9.805 -0.4062 -1.1161  0.9711
15935SOL    HW249247   5.715   6.072   9.659  0.1701  0.7748  0.4181
15936SOL     OW49248   3.513   2.899  11.970 -0.4419  0.4169  0.2234
15936SOL    HW149249   3.432   2.910  11.921 -0.9414  0.9595  1.1509
15936SOL    HW249250   3.527   2.804  11.972 -0.7583  0.3551 -0.4146
15937SOL     OW49251   5.473   4.503  12.459 -0.0375  0.1502  0.1521
15937SOL    HW149252   5.461   4.439  12.529 -1.1777 -0.4735 -0.5829
15937SOL    HW249253   5.469   4.588  12.503  1.2625 -0.2484  1.1059
15938SOL     OW49254   2.984   5.256   1.134 -0.5780 -0.2605 -0.1102
15938SOL    HW149255   2.921   5.303   1.189  0.9013  0.9699  0.6028
15938SOL    HW249256   3.046   5.323   1.106 -0.2544 -1.2119 -1.8112
15939SOL     OW49257   4.495   5.173  12.147 -0.5984 -0.1099  0.1412
15939SOL    HW149258   4.468   5.236  12.214 -2.4542  0.6946 -1.2714
15939SOL    HW249259   4.525   5.227  12.074  1.2155 -0.9770  0.1868
15940SOL     OW49260   3.086   3.882  11.001  0.4743 -0.7665 -0.2412
15940SOL    HW149261   3.131   3.842  11.076  1.3041  0.8319  0.1434
15940SOL    HW249262   3.131   3.846  10.925  1.4942 -0.2493  0.1082
15941SOL     OW49263   5.124   2.270   1.322 -0.0656 -0.4350  0.5375
15941SOL    HW149264   5.086   2.202   1.377  0.4877 -0.4774  0.8803
15941SOL    HW249265   5.087   2.254   1.235  1.2538 -2.1700  0.2395
15942SOL     OW49266   5.166   4.576  10.736 -0.0727 -0.3260  0.2489
15942SOL    HW149267   5.210   4.652  10.774 -0.4171  0.0535 -0.0941
15942SOL    HW249268   5.108   4.613  10.670  2.7302 -1.1166 -2.9374
15943SOL     OW49269   3.538   3.204  11.803 -0.0379 -0.6730  0.6171
15943SOL    HW149270   3.516   3.140  11.871 -0.2906 -0.3296  0.8606
15943SOL    HW249271   3.612   3.253  11.838  0.7832 -1.4722  0.0184
15944SOL     OW49272   4.178   3.397  10.428  0.0715 -0.4755  0.2575
15944SOL    HW149273   4.270   3.422  10.430 -0.5902  2.1411  1.4256
15944SOL    HW249274   4.178   3.307  10.396  2.9546 -0.2531 -0.5748
15945SOL     OW49275   4.860   2.152  12.472  0.6782  0.3004 -0.1592
15945SOL    HW149276   4.833   2.206  12.398  1.9928 -0.7819 -1.4915
15945SOL    HW249277   4.790   2.087  12.481 -1.2620  2.4624  1.8896
15946SOL     OW49278   5.920   5.437   9.972 -1.0313 -0.4997  0.3769
15946SOL    HW149279   5.955   5.358   9.933 -2.5016 -0.1602 -1.8708
15946SOL    HW249280   5.976   5.507   9.940 -1.6362 -0.3281 -0.3476
15947SOL     OW49281   4.879   5.903  11.045 -0.0935  0.2601  0.4024
15947SOL    HW149282   4.951   5.841  11.031 -0.9488 -0.4650 -1.0115
15947SOL    HW249283   4.868   5.946  10.960 -0.7385  1.0195  0.8602
15948SOL     OW49284   5.874   3.516  12.353 -0.0987  0.1881  0.0068
15948SOL    HW149285   5.928   3.593  12.368  1.4462 -0.8858  0.2768
15948SOL    HW249286   5.858   3.515  12.258 -2.4895  2.2655  0.2876
15949SOL     OW49287   4.415   4.170  10.567 -0.8995 -0.1841 -0.6198
15949SOL    HW149288   4.445   4.113  10.637 -1.6868  0.3644  0.1863
15949SOL    HW249289   4.384   4.110  10.499  1.5549 -0.7563 -1.3359
15950SOL     OW49290   3.109   4.548  11.695 -0.1995  0.6497  0.2720
15950SOL    HW149291   3.126   4.639  11.669  0.0059  0.5561  0.0826
15950SOL    HW249292   3.127   4.496  11.617  1.9723  0.1989  1.0097
15951SOL     OW49293   5.384   5.278   0.249  0.5999  0.3679 -0.0895
15951SOL    HW149294   5.325   5.311   0.315  1.3564 -1.5240  1.6504
15951SOL    HW249295   5.338   5.202   0.211  0.0824  1.5410 -1.9623
15952SOL     OW49296   4.415   5.421  11.266  0.0553 -0.3691  0.3300
15952SOL    HW149297   4.332   5.437  11.312 -0.2824  0.4145 -0.5162
15952SOL    HW249298   4.402   5.461  11.180  0.6272 -1.8922 -0.4952
15953SOL     OW49299   4.131   3.574  11.402 -0.2341  0.7965 -0.0699
15953SOL    HW149300   4.064   3.641  11.409 -1.6075 -0.3430 -1.4417
15953SOL    HW249301   4.123   3.522  11.482 -0.6438  0.9798  0.0068
15954SOL     OW49302   4.989   2.911  11.903 -0.3422  0.2930 -0.1326
15954SOL    HW149303   5.075   2.890  11.940 -0.9597 -1.5910  0.3329
15954SOL    HW249304   4.988   2.866  11.819 -0.1883  1.8697 -1.0081
15955SOL     OW49305   3.631   4.312  10.313 -0.0125  0.4527 -0.0522
15955SOL    HW149306   3.573   4.252  10.268  0.0112 -0.8668  1.5623
15955SOL    HW249307   3.579   4.391  10.325 -1.3557 -0.5310  0.9317
15956SOL     OW49308   6.244   3.156   1.475  0.4445 -0.8330 -0.1673
15956SOL    HW149309   6.158   3.197   1.485  1.0058  0.5468 -0.8294
15956SOL    HW249310   6.238   3.109   1.392  0.1556 -1.2042  0.0598
15957SOL     OW49311   3.354   4.623   1.798  0.2767  0.3690 -0.0303
15957SOL    HW149312   3.414   4.629   1.873  0.8082 -3.2128  0.0445
15957SOL    HW249313   3.283   4.567   1.830 -0.4173  0.2946 -1.6497
15958SOL     OW49314   4.942   3.988  11.519  0.1299  0.5317  0.1987
15958SOL    HW149315   4.901   4.056  11.573  0.5013  1.7390 -0.9781
15958SOL    HW249316   5.023   3.967  11.565 -0.1600  0.6322  0.7642
15959SOL     OW49317   5.148   3.821   0.726 -0.9497  0.5107 -0.2490
15959SOL    HW149318   5.123   3.731   0.704 -0.0061  0.2727 -0.4328
15959SOL    HW249319   5.078   3.853   0.782 -0.4561 -0.9837  1.3281
15960SOL     OW49320   3.987   3.466  11.191  0.1554 -0.4254  0.1630
15960SOL    HW149321   4.061   3.490  11.246 -0.4881  0.2098  0.7780
15960SOL    HW249322   3.932   3.410  11.247 -0.1348 -0.3881 -0.0808
15961SOL     OW49323   4.398   4.010  11.945 -0.6168 -0.1501 -0.3229
15961SOL    HW149324   4.447   4.026  12.025 -0.0327 -1.8833 -0.3038
15961SOL    HW249325   4.435   3.930  11.909 -3.6799 -1.8505 -0.0698
15962SOL     OW49326   4.612   2.827  12.257  0.0006  0.2336  0.6159
15962SOL    HW149327   4.528   2.811  12.301 -0.1225 -1.0784 -0.0723
15962SOL    HW249328   4.589   2.845  12.166  0.5101 -1.0411  0.2191
15963SOL     OW49329   3.811   3.881  10.506  0.6019  0.4563  0.0878
15963SOL    HW149330   3.889   3.846  10.463  0.1870 -0.6984  0.2288
15963SOL    HW249331   3.741   3.868  10.443 -0.1176 -1.7342  1.2338
15964SOL     OW49332   4.262   2.511  12.157  0.1292  0.0137  0.1161
15964SOL    HW149333   4.343   2.461  12.164  0.4764  0.2854 -1.6486
15964SOL    HW249334   4.230   2.516  12.247  2.8263  1.1751  1.1296
15965SOL     OW49335   3.663   2.903   0.713  0.1770  0.1224  0.0604
15965SOL    HW149336   3.737   2.956   0.743  0.2739 -0.3259  0.6440
15965SOL    HW249337   3.701   2.840   0.652  0.3319 -0.2941  0.5806
15966SOL     OW49338   5.924   2.842  10.411 -0.4982 -0.0737  0.0893
15966SOL    HW149339   5.964   2.899  10.476 -0.5156 -0.1138  0.1348
15966SOL    HW249340   5.838   2.882  10.394 -1.1990 -0.9873  1.3352
15967SOL     OW49341   4.314   3.811   1.314 -0.0946 -0.4240 -0.0170
15967SOL    HW149342   4.309   3.843   1.224 -1.5804  1.4887  0.6704
15967SOL    HW249343   4.397   3.847   1.347  0.4533 -1.1294 -0.5962
15968SOL     OW49344   5.804   2.493   0.776  0.7177  0.2684  0.0312
15968SOL    HW149345   5.850   2.465   0.697 -0.9397  2.7043 -1.9694
15968SOL    HW249346   5.813   2.589   0.777 -1.2624  0.5127  1.5000
15969SOL     OW49347   5.010   3.286  12.303  0.6666  0.0976  0.3116
15969SOL    HW149348   4.918   3.285  12.329  1.1635  0.0568  2.2631
15969SOL    HW249349   5.039   3.375  12.322  1.5181 -0.4567  1.7443
15970SOL     OW49350   3.942   1.980  10.644 -0.8559 -0.0886 -0.2442
15970SOL    HW149351   4.037   1.971  10.638 -1.0609 -3.3988 -0.4400
15970SOL    HW249352   3.922   2.060  10.594  1.7730  0.6918 -0.1882
15971SOL     OW49353   4.021   3.190  10.854  0.4551 -0.0347  0.6186
15971SOL    HW149354   4.115   3.173  10.844  0.2102 -1.9267  1.0769
15971SOL    HW249355   4.014   3.231  10.940  0.7078 -1.8682  1.5720
15972SOL     OW49356   5.066   3.819  10.670 -0.3651  0.5958 -0.0660
15972SOL    HW149357   5.030   3.842  10.585  2.3098 -1.7744 -2.0170
15972SOL    HW249358   4.995   3.773  10.715 -1.4025  0.7101 -1.5257
15973SOL     OW49359   5.627   4.485  11.879  0.0131 -0.8100  0.2855
15973SOL    HW149360   5.677   4.404  11.864  2.3769  0.7980 -1.3139
15973SOL    HW249361   5.562   4.486  11.808 -0.2228 -1.4145  0.4834
15974SOL     OW49362   5.237   2.878  11.703 -0.1087 -0.3033  0.0120
15974SOL    HW149363   5.176   2.809  11.679  1.0019 -1.6754  0.9309
15974SOL    HW249364   5.237   2.877  11.799  0.3542  0.5747  0.0312
15975SOL     OW49365   3.518   2.447  12.292 -0.0798  0.4955 -0.0715
15975SOL    HW149366   3.521   2.372  12.352  1.2751  0.0985 -0.5888
15975SOL    HW249367   3.606   2.484  12.296 -0.0302  0.6042 -1.6347
15976SOL     OW49368   3.800   2.786  11.312  0.4161  0.3787  0.1121
15976SOL    HW149369   3.716   2.759  11.275  0.1090  0.8243  0.4720
15976SOL    HW249370   3.794   2.882  11.316  1.3329  0.4845 -0.7843
15977SOL     OW49371   5.412   4.396  10.861 -0.1432  0.1186  0.1724
15977SOL    HW149372   5.453   4.325  10.912 -0.8757  0.3387  1.0975
15977SOL    HW249373   5.320   4.369  10.854 -0.6557  1.4108  1.3798
15978SOL     OW49374   3.103   3.529   1.308  0.1165 -0.0727  0.2052
15978SOL    HW149375   3.078   3.505   1.397 -0.9575  0.6611  0.1204
15978SOL    HW249376   3.046   3.477   1.251  1.8161 -1.6677 -0.1280
15979SOL     OW49377   4.046   3.814  12.321 -0.0727 -0.1109 -0.3111
15979SOL    HW149378   3.994   3.760  12.379  0.5794 -2.1658 -1.5425
15979SOL    HW249379   3.995   3.895  12.311 -0.7789 -0.1912  2.0523
15980SOL     OW49380   2.523   3.571   0.448 -0.3021 -0.0637  0.0937
15980SOL    HW149381   2.617   3.557   0.460  0.5202  1.8045 -2.9817
15980SOL    HW249382   2.515   3.606   0.359 -4.0372 -0.9389 -0.0824
15981SOL     OW49383   3.329   4.226  12.148  0.2078  0.1305 -0.4808
15981SOL    HW149384   3.302   4.274  12.226  2.3637 -0.2999  0.5977
15981SOL    HW249385   3.250   4.221  12.094 -1.5443 -0.1482  1.9596
15982SOL     OW49386   4.627   4.551   0.086  0.1591  0.3165  0.1061
15982SOL    HW149387   4.545   4.546   0.036 -0.6233 -1.0353  1.4709
15982SOL    HW249388   4.691   4.505   0.031 -0.2246  0.5369 -0.5333
15983SOL     OW49389   3.521   4.439  11.789  0.1786 -0.4902  0.2456
15983SOL    HW149390   3.540   4.531  11.804  0.5193 -0.5558  0.2404
15983SOL    HW249391   3.470   4.438  11.708  1.7497 -0.4284 -0.8011
15984SOL     OW49392   5.295   4.122  11.903 -0.4054 -0.2232 -0.7906
15984SOL    HW149393   5.365   4.164  11.953 -0.9977  0.7037 -0.7230
15984SOL    HW249394   5.277   4.041  11.951 -0.7656  0.5075  0.3598
15985SOL     OW49395   3.907   4.574  12.274 -0.1852 -0.4332  0.2741
15985SOL    HW149396   3.908   4.567  12.369  2.5917  0.8747  0.4593
15985SOL    HW249397   3.953   4.657  12.256 -2.7495  0.6069 -2.1825
15986SOL     OW49398   4.675   3.389  12.051 -0.4374  0.6036  0.7438
15986SOL    HW149399   4.746   3.441  12.015 -1.0994  0.9245 -0.1179
15986SOL    HW249400   4.691   3.300  12.020 -0.1225  0.5676  1.0008
15987SOL     OW49401   6.145   3.419   1.726  0.2004 -0.4125 -0.1927
15987SOL    HW149402   6.105   3.336   1.752 -2.2962  0.2233 -1.6062
15987SOL    HW249403   6.086   3.486   1.762  2.5762  0.8554  1.6000
15988SOL     OW49404   4.290   4.006  10.379 -0.1194  0.3242 -0.5851
15988SOL    HW149405   4.316   3.977  10.292  0.1746  1.3315 -0.8535
15988SOL    HW249406   4.242   4.088  10.364 -1.0096 -0.0513  0.1196
15989SOL     OW49407   3.422   0.958   1.448 -0.1577  0.4679 -0.2482
15989SOL    HW149408   3.336   0.946   1.487  0.3418 -0.2386  0.6724
15989SOL    HW249409   3.474   1.001   1.516  0.4744  0.0476 -0.4528
15990SOL     OW49410   3.861   4.193   1.549  0.4554  0.2799 -0.4101
15990SOL    HW149411   3.891   4.115   1.502  0.9903 -0.6925  1.4626
15990SOL    HW249412   3.874   4.172   1.642 -0.3548  2.2097  0.1887
15991SOL     OW49413   5.931   2.881  11.231  0.5840  0.0180 -0.2939
15991SOL    HW149414   5.919   2.826  11.153  0.4822  2.0778 -1.8208
15991SOL    HW249415   5.989   2.951  11.201  1.1492  0.4677  1.7392
15992SOL     OW49416   4.837   2.207   1.825  0.0890 -0.3163  0.1248
15992SOL    HW149417   4.894   2.230   1.899  0.7310  0.3023 -0.5432
15992SOL    HW249418   4.892   2.218   1.748 -1.0327  0.6680 -0.5759
15993SOL     OW49419   4.320   4.260   9.675 -0.1390  0.3458  0.4889
15993SOL    HW149420   4.371   4.196   9.625  0.4216  0.5794  0.7494
15993SOL    HW249421   4.268   4.307   9.609 -0.5654 -0.3836  0.3019
15994SOL     OW49422   4.747   3.524   0.547  0.4700  0.4377 -0.5922
15994SOL    HW149423   4.758   3.434   0.579  0.8863 -0.1495 -2.3047
15994SOL    HW249424   4.658   3.526   0.512  0.1642  0.9618  0.1743
15995SOL     OW49425   6.884   5.954   9.350 -0.5995 -0.1294  0.3446
15995SOL    HW149426   6.948   5.948   9.279 -2.4764 -1.4620 -1.3341
15995SOL    HW249427   6.889   6.045   9.379  1.0016  0.1582 -0.7433
15996SOL     OW49428   4.999   4.328   0.688  0.1884 -0.0770  0.3514
15996SOL    HW149429   4.981   4.396   0.753 -1.1872 -0.2907  0.2306
15996SOL    HW249430   4.912   4.294   0.665  0.8511 -1.9509  0.4924
15997SOL     OW49431   5.476   4.322   9.777 -0.2569 -0.2334  0.1687
15997SOL    HW149432   5.404   4.298   9.719 -0.5796  0.4880  0.2633
15997SOL    HW249433   5.540   4.252   9.767 -0.6643 -0.5173 -0.4489
15998SOL     OW49434   3.347   3.787   1.657  0.4411 -0.2426 -0.3555
15998SOL    HW149435   3.424   3.803   1.711  0.4681  0.0323 -0.4797
15998SOL    HW249436   3.292   3.729   1.711  0.7643 -0.4957 -0.2976
15999SOL     OW49437   4.505   2.876   1.222  0.3090 -0.3559 -0.2994
15999SOL    HW149438   4.474   2.873   1.132 -0.6925 -1.4749  0.0597
15999SOL    HW249439   4.554   2.958   1.228 -1.6840  0.9686 -1.1798
16000SOL     OW49440   2.645   3.369   0.877 -0.3732  0.0049  0.6532
16000SOL    HW149441   2.586   3.368   0.802  0.5816  0.4762 -0.1257
16000SOL    HW249442   2.693   3.286   0.872  1.1084  0.8675 -0.4601
16001SOL     OW49443   1.758   7.012   9.795 -0.3771 -0.0499  0.2115
16001SOL    HW149444   1.815   7.057   9.733 -0.6282 -2.0736 -1.6206
16001SOL    HW249445   1.671   7.017   9.756 -0.0805 -3.9675 -1.3596
16002SOL     OW49446   3.269   4.478  11.472 -0.5090 -0.3492 -0.0256
16002SOL    HW149447   3.261   4.391  11.432  0.0190 -0.5728  0.3401
16002SOL    HW249448   3.358   4.506  11.449 -1.2172  0.8003 -1.5237
16003SOL     OW49449   2.721   3.870  11.638  0.2703 -0.0709  0.2699
16003SOL    HW149450   2.760   3.946  11.594 -0.3744  1.0687  1.6067
16003SOL    HW249451   2.796   3.821  11.673  0.6216  0.7536  0.6764
16004SOL     OW49452   4.287   4.321  12.098 -0.5521 -0.1734  0.4765
16004SOL    HW149453   4.320   4.406  12.128 -0.6772 -0.3336  1.0990
16004SOL    HW249454   4.332   4.304  12.016 -0.4713  0.4643  0.3899
16005SOL     OW49455   3.090   4.964   1.002 -0.1062  0.3689  0.3746
16005SOL    HW149456   3.015   5.023   0.994  0.0067  0.4586 -0.0193
16005SOL    HW249457   3.164   5.022   1.024 -0.0822  0.3199  0.4247
16006SOL     OW49458   5.118   3.476  10.380 -0.6008  0.6658 -0.5934
16006SOL    HW149459   5.166   3.539  10.327  2.4035 -0.9880 -0.0842
16006SOL    HW249460   5.153   3.486  10.468  1.1424 -2.5301 -0.7478
16007SOL     OW49461   4.722   2.956   0.005 -0.3848 -0.1127 -0.2052
16007SOL    HW149462   4.690   2.946  -0.084 -1.8055 -2.3310  0.4681
16007SOL    HW249463   4.643   2.962   0.059  0.4082 -0.6170  1.0613
16008SOL     OW49464   2.986   4.697  12.069 -0.1897  0.4204 -0.4590
16008SOL    HW149465   2.997   4.610  12.108 -0.8298  0.3677 -0.3848
16008SOL    HW249466   2.933   4.745  12.132  1.2717  1.3069  0.1262
16009SOL     OW49467   3.568   3.974  11.919  0.1783 -0.3806  0.1189
16009SOL    HW149468   3.548   3.898  11.864  0.1329 -1.5863  1.7290
16009SOL    HW249469   3.600   4.040  11.858 -1.8425 -0.9075 -1.6389
16010SOL     OW49470   4.435   2.200   0.287  0.7408 -0.4163 -0.3496
16010SOL    HW149471   4.386   2.190   0.368  0.4402  1.5709 -0.2366
16010SOL    HW249472   4.523   2.168   0.307  0.3734 -0.9655  0.4101
16011SOL     OW49473   5.785   2.969   0.879 -0.6086  0.1429 -0.0189
16011SOL    HW149474   5.773   3.029   0.805 -0.9950  1.4052  1.0212
16011SOL    HW249475   5.740   3.012   0.952  2.6955  0.7560  1.8722
16012SOL     OW49476   3.888   4.162   0.956 -0.5950 -0.1131  0.4415
16012SOL    HW149477   3.857   4.148   0.866  0.5632 -0.1808  0.0315
16012SOL    HW249478   3.842   4.096   1.007 -0.3260 -0.9305 -0.3336
16013SOL     OW49479   6.909   4.046  11.269  0.1777 -0.6807  0.1814
16013SOL    HW149480   6.969   4.119  11.256 -1.0431  0.5353  1.0887
16013SOL    HW249481   6.878   4.056  11.359  0.4370 -2.6934  0.5371
16014SOL     OW49482   4.579   5.901  10.748  0.4749 -0.1881  0.5012
16014SOL    HW149483   4.656   5.953  10.773 -0.4112  0.3624  2.2012
16014SOL    HW249484   4.512   5.966  10.728 -0.1030 -0.6599  0.8669
16015SOL     OW49485   3.417   4.597  12.251  0.4134 -0.4435 -0.2308
16015SOL    HW149486   3.363   4.598  12.172 -0.9983 -0.0113  0.6919
16015SOL    HW249487   3.439   4.689  12.266 -3.5073  0.2787  2.5127
16016SOL     OW49488   6.845   2.731  12.260  0.7971 -0.0004  0.4436
16016SOL    HW149489   6.859   2.663  12.194  0.7780 -1.1660  1.6027
16016SOL    HW249490   6.802   2.686  12.332  2.6334  0.7586  2.0980
16017SOL     OW49491   3.577   3.767  11.739  0.0947 -0.2161  0.4004
16017SOL    HW149492   3.651   3.805  11.692 -1.8730  0.5430 -2.3468
16017SOL    HW249493   3.552   3.691  11.687 -0.8302 -0.6782  1.4803
16018SOL     OW49494   5.442   2.729  12.416  0.4224 -0.1345  0.1726
16018SOL    HW149495   5.466   2.636  12.410  1.4552  0.1213  0.2422
16018SOL    HW249496   5.357   2.728  12.460 -0.5135 -1.1585 -1.5126
16019SOL     OW49497   3.959   6.236  10.458 -0.9438 -0.0163 -0.5589
16019SOL    HW149498   3.880   6.273  10.418 -1.1002 -0.7610 -0.9677
16019SOL    HW249499   3.980   6.160  10.403 -1.1748 -1.0808  0.7790
16020SOL     OW49500   5.119   5.707   1.184  0.5879  0.4973 -0.1024
16020SOL    HW149501   5.101   5.614   1.174 -1.0071  0.6998  0.6552
16020SOL    HW249502   5.215   5.713   1.181  0.7174 -1.1577 -0.1021
16021SOL     OW49503   6.013   3.359  10.881 -0.1208  0.0142  0.1249
16021SOL    HW149504   6.083   3.300  10.853  0.0437  1.3095 -2.4958
16021SOL    HW249505   5.958   3.370  10.803 -2.0022  0.7843  1.4717
16022SOL     OW49506   3.958   2.102  11.988  0.7834  0.3629 -0.4693
16022SOL    HW149507   4.028   2.041  12.011 -0.3233 -0.3683  1.1094
16022SOL    HW249508   3.890   2.047  11.949 -1.7937 -0.3217  4.1466
16023SOL     OW49509   5.856   5.194   9.810  0.2012  0.5052 -0.1388
16023SOL    HW149510   5.812   5.260   9.756 -0.3150  1.2298  1.1060
16023SOL    HW249511   5.892   5.131   9.748  0.4998  1.8318 -1.3657
16024SOL     OW49512   3.866   4.819   0.517  0.0120  0.0866  0.1114
16024SOL    HW149513   3.781   4.852   0.545 -1.5069 -1.0959 -2.7015
16024SOL    HW249514   3.872   4.732   0.557 -0.4760 -0.1498 -0.3238
16025SOL     OW49515   5.516   4.601   9.821  0.4895  0.3097 -0.3031
16025SOL    HW149516   5.513   4.648   9.738 -1.9952  0.7220 -0.0611
16025SOL    HW249517   5.481   4.514   9.802 -2.1030  1.0552  0.5915
16026SOL     OW49518   3.826   3.897  12.064  0.4057  0.6750 -0.5191
16026SOL    HW149519   3.847   3.953  12.139  1.1057 -0.1874 -0.0502
16026SOL    HW249520   3.775   3.953  12.006  1.6216  1.9939 -0.3551
16027SOL     OW49521   5.215   5.513   9.917 -0.6523  0.4146 -0.2587
16027SOL    HW149522   5.266   5.533   9.996 -1.3681  0.1795  0.2730
16027SOL    HW249523   5.235   5.421   9.899 -0.3529  0.5164 -0.4605
16028SOL     OW49524   5.721   2.052   0.908  0.2176 -0.0287  0.4301
16028SOL    HW149525   5.773   2.107   0.968  1.3616 -0.5824 -0.0122
16028SOL    HW249526   5.673   1.993   0.965  0.3163  0.2913  0.8512
16029SOL     OW49527   4.102   4.673  11.765  0.4041 -0.0436 -0.4877
16029SOL    HW149528   4.117   4.580  11.746  1.7915  0.3850 -1.6753
16029SOL    HW249529   4.008   4.685  11.751  0.2079 -1.2439 -0.3471
16030SOL     OW49530   4.247   3.265  11.048  0.4585  0.3002 -0.4961
16030SOL    HW149531   4.300   3.344  11.039 -2.1860  2.2210 -0.4536
16030SOL    HW249532   4.233   3.255  11.142 -2.1242  1.9865 -0.6143
16031SOL     OW49533   2.888   4.050  11.512 -0.2027 -0.4963 -0.2613
16031SOL    HW149534   2.955   4.114  11.487 -0.5121 -1.2129 -3.3364
16031SOL    HW249535   2.807   4.084  11.475 -0.5027 -2.2215 -1.3103
16032SOL     OW49536   3.648   3.695   9.894 -0.4916  0.1224  0.3744
16032SOL    HW149537   3.596   3.760   9.847 -0.8303  0.8134  1.6698
16032SOL    HW249538   3.586   3.625   9.914 -0.3771 -0.1122 -0.0734
16033SOL     OW49539   3.586   4.815  10.306  0.2794  0.8657  0.4071
16033SOL    HW149540   3.511   4.850  10.353  1.9398  2.0183  2.3598
16033SOL    HW249541   3.635   4.892  10.277 -0.5647  0.2020 -3.1990
16034SOL     OW49542   4.169   2.936  10.692 -0.2374 -0.0109 -0.8625
16034SOL    HW149543   4.174   2.946  10.597 -2.4004  1.1308 -0.9224
16034SOL    HW249544   4.212   3.014  10.726 -0.4000  0.1129 -0.9369
16035SOL     OW49545   7.059   6.860   0.730  0.2621 -0.0963 -0.3925
16035SOL    HW149546   7.073   6.864   0.636  1.4137 -0.5544 -0.2486
16035SOL    HW249547   7.060   6.952   0.758 -1.7487  0.1815 -1.0193
16036SOL     OW49548   4.547   3.534   0.350 -0.1426  0.4557  0.3831
16036SOL    HW149549   4.540   3.442   0.325 -0.4377 -0.2893  3.0125
16036SOL    HW249550   4.584   3.577   0.272  0.1794 -1.8756 -0.8315
16037SOL     OW49551   4.398   3.929   9.795  0.2615 -0.0145  1.2967
16037SOL    HW149552   4.449   4.005   9.770 -0.6601  0.1103 -0.3815
16037SOL    HW249553   4.309   3.962   9.809 -0.8878 -1.0347 -2.3336
16038SOL     OW49554   5.779   2.740  12.109 -0.2566  0.0144 -0.4462
16038SOL    HW149555   5.769   2.729  12.203 -0.2687  0.7369 -0.3590
16038SOL    HW249556   5.873   2.726  12.093 -0.4393 -1.2943 -0.5058
16039SOL     OW49557   3.490   4.126   0.814 -0.2720  0.3750 -0.2780
16039SOL    HW149558   3.499   4.092   0.903 -2.9231 -0.9611 -0.4219
16039SOL    HW249559   3.553   4.076   0.762 -0.7980 -1.0075  0.3641
16040SOL     OW49560   3.976   4.092  11.491  0.3127 -0.1324  0.7553
16040SOL    HW149561   4.008   4.179  11.468 -0.4996  0.2183  0.9231
16040SOL    HW249562   4.026   4.068  11.569  0.1638  0.4129  1.0244
16041SOL     OW49563   2.467   5.878  12.421 -0.2564  0.1114  0.3327
16041SOL    HW149564   2.411   5.803  12.441 -1.4055  1.2129  1.3542
16041SOL    HW249565   2.487   5.916  12.506  0.7226  0.6894 -0.1452
16042SOL     OW49566   4.145   3.836   0.580  0.1273 -0.0786 -0.0090
16042SOL    HW149567   4.224   3.781   0.578  0.6782  0.7057 -0.6570
16042SOL    HW249568   4.165   3.909   0.521 -1.5950 -0.5569 -1.2806
16043SOL     OW49569   5.508   5.681  11.077 -0.2034  0.3335 -0.1477
16043SOL    HW149570   5.413   5.689  11.076 -0.2219  0.1492  0.1325
16043SOL    HW249571   5.529   5.629  10.999 -0.4150 -0.5087  0.3431
16044SOL     OW49572   5.172   4.305   2.011 -0.1971  0.5564  0.5175
16044SOL    HW149573   5.093   4.331   2.059 -0.2643 -1.5121  1.6507
16044SOL    HW249574   5.227   4.263   2.077 -0.0614 -1.9514 -1.0722
16045SOL     OW49575   4.762   3.097  12.167  0.1459  0.6655  0.8825
16045SOL    HW149576   4.843   3.109  12.216  0.1531  1.6187  0.6668
16045SOL    HW249577   4.782   3.029  12.103  0.5799  0.4480  1.2448
16046SOL     OW49578   7.435   4.024   9.204  0.6933  0.2652  0.2720
16046SOL    HW149579   7.358   4.073   9.234 -0.1408 -0.7912 -0.0764
16046SOL    HW249580   7.471   4.077   9.132  0.4107  0.8705  0.5734
16047SOL     OW49581   5.143   4.195   1.715 -0.0794 -0.0393  0.7110
16047SOL    HW149582   5.083   4.238   1.654  1.6466  1.0312 -0.2910
16047SOL    HW249583   5.134   4.245   1.796  0.4806  1.0146  0.1377
16048SOL     OW49584   2.711   3.837  12.498 -0.5199 -0.3333 -0.5518
16048SOL    HW149585   2.745   3.784  12.425 -0.5703 -0.0312 -0.7963
16048SOL    HW249586   2.786   3.848  12.556  0.0161  0.9150 -1.4264
16049SOL     OW49587   2.453   5.714  10.243 -0.7343 -0.3397 -0.0981
16049SOL    HW149588   2.526   5.652  10.239  0.7732  1.0567  2.6161
16049SOL    HW249589   2.461   5.764  10.161  0.3635 -1.2432 -0.5879
16050SOL     OW49590   4.703   3.236  11.311  0.4620  0.0460 -0.0441
16050SOL    HW149591   4.709   3.221  11.217 -1.0318 -0.6776 -0.0476
16050SOL    HW249592   4.794   3.246  11.339  0.8781  1.2205 -1.6879
16051SOL     OW49593   3.970   3.964   1.472  0.0669  0.4927 -0.0240
16051SOL    HW149594   4.029   3.936   1.542 -0.2533  0.9988  0.4530
16051SOL    HW249595   3.950   3.883   1.425  1.3292  0.3496 -0.3537
16052SOL     OW49596   3.656   4.170  11.699  0.0135 -0.3418  0.4135
16052SOL    HW149597   3.591   4.239  11.711  1.3127  1.4324 -1.7705
16052SOL    HW249598   3.740   4.217  11.696  1.0283 -2.1084 -0.3592
16053SOL     OW49599   4.597   3.151  10.709 -0.0116 -0.4393 -0.2348
16053SOL    HW149600   4.689   3.138  10.730  0.0954  0.1206 -0.3370
16053SOL    HW249601   4.596   3.230  10.655 -0.4300 -1.0838 -1.1859
16054SOL     OW49602   4.773   2.114  10.800  0.6086 -0.4522  0.4344
16054SOL    HW149603   4.722   2.170  10.859  1.4135  2.1748 -1.1796
16054SOL    HW249604   4.707   2.060  10.755 -0.4432  0.5562  0.7099
16055SOL     OW49605   5.386   5.901  11.995 -0.0367  0.3066  0.2538
16055SOL    HW149606   5.298   5.909  11.959  0.6273  0.9283 -1.3474
16055SOL    HW249607   5.423   5.989  11.986  1.7458 -0.5848 -1.9579
16056SOL     OW49608   3.518   3.477  11.089 -0.6063  0.2150 -0.3557
16056SOL    HW149609   3.602   3.442  11.118 -1.6664 -0.8166  1.6743
16056SOL    HW249610   3.531   3.496  10.996  1.2512 -1.8355 -0.5991
16057SOL     OW49611   4.186   6.141   9.354 -1.4466  0.2641 -0.1201
16057SOL    HW149612   4.228   6.158   9.269  1.1052  0.3433  1.0589
16057SOL    HW249613   4.201   6.048   9.369  2.0361  0.9473  2.0120
16058SOL     OW49614   5.830   6.567   0.398 -1.0041 -0.1924  0.2646
16058SOL    HW149615   5.771   6.502   0.360 -0.0913 -0.1723 -1.2965
16058SOL    HW249616   5.827   6.641   0.338 -2.1211  1.3170  2.0820
16059SOL     OW49617   5.012   5.199  12.362  0.4864  0.2462 -0.3623
16059SOL    HW149618   4.946   5.136  12.393  0.3605  0.6294  0.1661
16059SOL    HW249619   4.981   5.224  12.275 -0.1565  0.5369 -0.0569
16060SOL     OW49620   2.765   4.967   0.642  0.6964  0.8148 -0.1661
16060SOL    HW149621   2.850   4.957   0.685  1.0524  1.2214 -0.7553
16060SOL    HW249622   2.759   4.894   0.581  1.1895  1.4917 -1.0372
16061SOL     OW49623   4.830   6.330   1.205 -0.2686 -0.2422  0.0821
16061SOL    HW149624   4.817   6.235   1.203  0.5522 -0.3462 -0.8126
16061SOL    HW249625   4.749   6.364   1.243 -0.8985 -1.2480 -0.3087
16062SOL     OW49626   6.019   7.409   1.179  0.6506 -0.1843 -0.2828
16062SOL    HW149627   6.086   7.414   1.247  1.1579 -1.7911 -0.6332
16062SOL    HW249628   5.951   7.353   1.216  0.3318 -0.0284 -0.6231
16063SOL     OW49629   5.614   6.011   1.441 -0.3943 -0.0756 -0.0106
16063SOL    HW149630   5.568   6.079   1.392  1.1902  0.1535 -1.2358
16063SOL    HW249631   5.615   5.936   1.382 -2.6054 -1.4460  1.5301
16064SOL     OW49632   4.909   4.135   0.047 -0.1181  0.5478  0.3250
16064SOL    HW149633   4.927   4.041   0.046 -0.4165  0.4837 -1.2220
16064SOL    HW249634   4.909   4.159   0.140  0.8475 -0.8028  0.6918
16065SOL     OW49635   4.567   5.164   0.132  0.1694 -0.0444  0.1979
16065SOL    HW149636   4.508   5.208   0.071 -1.3471 -0.3354  1.3720
16065SOL    HW249637   4.509   5.106   0.182  1.2815  0.4335  2.1334
16066SOL     OW49638   3.435   6.497   1.362  0.1740 -0.2497 -0.0892
16066SOL    HW149639   3.489   6.508   1.283 -0.9574  0.1653 -0.8204
16066SOL    HW249640   3.360   6.446   1.333  0.6431 -1.7491  1.1550
16067SOL     OW49641   3.781   5.501  11.637 -0.0171  0.4436 -0.4362
16067SOL    HW149642   3.806   5.471  11.550 -0.1575  1.6850 -0.9392
16067SOL    HW249643   3.804   5.594  11.638 -1.7892  0.9296  0.1458
16068SOL     OW49644   4.076   4.325   2.951 -0.5536  0.2730 -0.1723
16068SOL    HW149645   4.021   4.247   2.952  1.6708 -1.3822  0.3607
16068SOL    HW249646   4.112   4.330   3.039  0.5580  1.0050 -0.6475
16069SOL     OW49647   1.644   6.150  11.893 -0.2240 -0.3816 -0.2520
16069SOL    HW149648   1.716   6.104  11.850 -0.7065 -2.6255  1.1724
16069SOL    HW249649   1.672   6.159  11.984 -1.4189 -0.6169  0.1579
16070SOL     OW49650   5.125   7.331   2.145  0.5634  0.9048 -0.2296
16070SOL    HW149651   5.209   7.372   2.123  2.0271 -1.3156  0.8255
16070SOL    HW249652   5.128   7.321   2.240  0.7337 -2.3043 -0.4628
16071SOL     OW49653   1.120   5.949   0.221 -0.1407  0.0708  0.3014
16071SOL    HW149654   1.090   6.039   0.208 -0.3700 -0.1110 -0.5035
16071SOL    HW249655   1.064   5.915   0.291  0.1477  0.6422  0.8153
16072SOL     OW49656   5.575   3.457   1.423 -0.2145 -0.2474  0.2534
16072SOL    HW149657   5.643   3.437   1.359  0.9835 -0.2535  1.4755
16072SOL    HW249658   5.495   3.421   1.385  0.3105  0.3511 -1.5299
16073SOL     OW49659   5.145   5.798   1.686 -0.7666 -0.1669 -0.4124
16073SOL    HW149660   5.211   5.867   1.682  0.5263 -1.4012 -1.9227
16073SOL    HW249661   5.134   5.781   1.779  0.0586  1.0019 -0.0767
16074SOL     OW49662   5.787   7.052   0.262  0.5716 -0.3535  0.0926
16074SOL    HW149663   5.711   7.106   0.239  0.4822 -0.9344 -1.0122
16074SOL    HW249664   5.862   7.103   0.232  0.4866 -0.8214 -0.9557
16075SOL     OW49665   4.160   6.998   0.579  0.6903  0.3455  0.5201
16075SOL    HW149666   4.073   7.000   0.619  0.3142  1.7663 -0.3126
16075SOL    HW249667   4.194   6.911   0.600 -1.4822 -0.7841 -0.3182
16076SOL     OW49668   3.465   6.415  12.347 -0.3768 -0.0706 -0.2747
16076SOL    HW149669   3.435   6.503  12.371 -1.6913  0.1051 -2.3040
16076SOL    HW249670   3.393   6.357  12.372  0.9237 -0.8228  2.0809
16077SOL     OW49671   3.541   7.614   2.993  0.3972 -0.1333 -0.0724
16077SOL    HW149672   3.627   7.627   2.953  0.2440  0.1776 -0.3077
16077SOL    HW249673   3.490   7.690   2.964  0.2443  0.0271  0.6037
16078SOL     OW49674   4.539   6.782  12.447 -0.5813 -0.2169 -0.2033
16078SOL    HW149675   4.516   6.849  12.383 -1.7185  1.6880  2.0353
16078SOL    HW249676   4.454   6.749  12.478 -0.0741 -0.8862  0.5247
16079SOL     OW49677   4.803   5.144   3.192 -0.2574  0.1153 -0.5071
16079SOL    HW149678   4.714   5.114   3.172 -0.9302  2.3154 -1.1935
16079SOL    HW249679   4.859   5.098   3.130 -0.6176 -2.6291  1.0716
16080SOL     OW49680   3.273   4.388  12.367 -0.2064 -0.5408  0.0083
16080SOL    HW149681   3.201   4.451  12.368 -0.1230 -0.4230 -0.9095
16080SOL    HW249682   3.346   4.436  12.328  1.1139  0.1111  3.0006
16081SOL     OW49683   5.778   6.737  11.771  0.3513 -0.3673  0.1520
16081SOL    HW149684   5.772   6.804  11.703 -0.1232 -1.5736 -1.0577
16081SOL    HW249685   5.743   6.779  11.849  0.4521  0.9184 -0.4601
16082SOL     OW49686   2.336   5.563  11.658  0.4591 -0.2439  0.6437
16082SOL    HW149687   2.369   5.504  11.726  0.0878  0.1838  1.2145
16082SOL    HW249688   2.253   5.595  11.694  1.1058  1.3628  0.7873
16083SOL     OW49689   4.284   5.575   1.577 -0.2400  0.0250 -0.0166
16083SOL    HW149690   4.229   5.644   1.613 -1.2461  0.7345 -2.6540
16083SOL    HW249691   4.223   5.516   1.533  0.9033 -0.4082 -1.0795
16084SOL     OW49692   5.179   4.504   0.901  0.0599 -0.4251 -0.3994
16084SOL    HW149693   5.182   4.421   0.854  0.9357 -0.2688 -0.6282
16084SOL    HW249694   5.228   4.565   0.846  1.3605 -0.3158  0.8293
16085SOL     OW49695   4.001   5.041   1.002  0.0048  0.1649  0.2518
16085SOL    HW149696   3.911   5.030   1.033 -0.4988  0.2528 -1.1025
16085SOL    HW249697   4.056   5.024   1.079 -1.0804 -1.7986  0.6445
16086SOL     OW49698   2.966   3.913  12.158  0.2554  0.0407  0.2701
16086SOL    HW149699   3.012   3.990  12.124  1.7833 -1.5420 -1.5072
16086SOL    HW249700   2.884   3.911  12.110  1.2363 -0.6743 -1.4839
16087SOL     OW49701   3.190   7.158   1.601 -0.2700  0.3577 -0.0563
16087SOL    HW149702   3.205   7.065   1.587 -1.5359  0.1623 -0.1425
16087SOL    HW249703   3.242   7.201   1.533  1.1685 -0.2204  0.6378
16088SOL     OW49704   3.980   3.248  11.423 -0.1214 -0.1794 -0.1540
16088SOL    HW149705   4.041   3.219  11.491 -1.9835 -0.6118  1.4196
16088SOL    HW249706   3.927   3.316  11.466 -2.0249 -1.1955 -0.8023
16089SOL     OW49707   3.778   5.425   1.699 -0.0861 -0.3149  0.2794
16089SOL    HW149708   3.806   5.399   1.787 -0.7131 -0.0610  0.5582
16089SOL    HW249709   3.686   5.449   1.709  0.1977  1.0794 -0.1537
16090SOL     OW49710   4.680   6.262   0.640 -0.8088  0.0693 -0.0909
16090SOL    HW149711   4.716   6.225   0.721 -0.8591  0.3389  0.0550
16090SOL    HW249712   4.615   6.325   0.670  0.1892  1.2311 -0.3131
16091SOL     OW49713   4.549   0.016   1.824  0.2329  0.3559 -0.2003
16091SOL    HW149714   4.498   0.005   1.744 -0.1881  1.1951 -0.0628
16091SOL    HW249715   4.624  -0.042   1.813 -1.2894 -1.7701  0.0734
16092SOL     OW49716   3.969   4.351   2.685  0.1463 -0.1389  0.0256
16092SOL    HW149717   3.943   4.286   2.750  0.1686 -0.0487  0.1249
16092SOL    HW249718   3.944   4.312   2.601  0.2968 -0.3405  0.0734
16093SOL     OW49719   5.421   6.831   0.343 -0.3416 -0.3105 -0.3019
16093SOL    HW149720   5.373   6.857   0.264 -0.6169  1.8902  0.5176
16093SOL    HW249721   5.371   6.870   0.414  0.9121 -0.7163  0.8275
16094SOL     OW49722   4.129   6.187   0.906  0.1560  0.0802  1.0224
16094SOL    HW149723   4.171   6.268   0.879 -1.1160  0.7779  1.0409
16094SOL    HW249724   4.115   6.197   1.000  0.8886 -0.6014  1.2169
16095SOL     OW49725   4.900   6.396  11.587 -0.1849  0.1562  0.3244
16095SOL    HW149726   4.809   6.393  11.614 -0.5142  0.3190 -0.7197
16095SOL    HW249727   4.948   6.424  11.665 -1.0267  0.0974  0.8679
16096SOL     OW49728   2.799   5.397   1.313  0.2684  0.3745  0.0812
16096SOL    HW149729   2.829   5.470   1.366 -1.3291 -0.1072  1.7527
16096SOL    HW249730   2.730   5.356   1.365 -0.3488 -1.0453 -1.7364
16097SOL     OW49731   5.331   7.960  11.016 -0.2836 -0.1078  0.3270
16097SOL    HW149732   5.284   7.901  11.075 -1.5830  1.0818  0.5387
16097SOL    HW249733   5.398   8.001  11.071  1.0295 -1.7498  0.0437
16098SOL     OW49734   5.381   5.739   0.800 -0.1520 -0.3108  0.2744
16098SOL    HW149735   5.372   5.657   0.752 -0.3843 -1.2147  1.7958
16098SOL    HW249736   5.475   5.751   0.811 -0.0948 -0.0609 -0.4398
16099SOL     OW49737   4.461   5.904   1.275 -0.1338  0.0127  0.0033
16099SOL    HW149738   4.447   5.914   1.181  1.3628 -0.2156 -0.2590
16099SOL    HW249739   4.468   5.810   1.289  2.2579  0.1137 -0.1022
16100SOL     OW49740   4.725   5.943   1.527 -0.1557 -0.0200 -0.6329
16100SOL    HW149741   4.713   5.878   1.458 -1.2540 -1.0104  0.4342
16100SOL    HW249742   4.732   5.892   1.608 -1.1431  1.1672  0.2562
16101SOL     OW49743   3.486   5.789   0.724  0.2236 -0.2736  0.7001
16101SOL    HW149744   3.579   5.807   0.739  0.3761 -0.8685  0.4924
16101SOL    HW249745   3.465   5.721   0.788 -1.0686  2.5308  3.5209
16102SOL     OW49746   4.162   3.456  10.744  0.4789  0.6017 -0.3459
16102SOL    HW149747   4.136   3.431  10.655  0.7915 -0.4751 -0.1565
16102SOL    HW249748   4.084   3.440  10.797  0.4469  0.7586 -0.3464
16103SOL     OW49749   3.311   4.839  11.318  0.0899  0.2534  0.7004
16103SOL    HW149750   3.257   4.806  11.390 -0.8300  1.7207  0.7301
16103SOL    HW249751   3.304   4.772  11.250 -0.0468 -0.5587  1.4943
16104SOL     OW49752   3.735   5.728   1.879  0.4274 -0.1541 -0.2596
16104SOL    HW149753   3.761   5.672   1.953  0.7186 -1.0562 -1.0351
16104SOL    HW249754   3.641   5.743   1.892  0.3387 -0.8486 -0.0549
16105SOL     OW49755   4.065   4.431  11.600  0.1089 -0.2666  0.4629
16105SOL    HW149756   4.011   4.365  11.644  1.3353 -1.2348  0.5634
16105SOL    HW249757   4.119   4.382  11.540  1.9139  0.4817  1.3996
16106SOL     OW49758   4.392   4.124   2.729 -0.4351  0.5074  0.6533
16106SOL    HW149759   4.363   4.188   2.794  1.4369  0.5782  1.4993
16106SOL    HW249760   4.472   4.087   2.767 -0.8740 -1.5526 -0.3175
16107SOL     OW49761   5.657   7.859  11.847 -0.0111 -0.1172  0.7076
16107SOL    HW149762   5.654   7.777  11.898 -0.3304  0.5764  1.8358
16107SOL    HW249763   5.640   7.928  11.911  3.8831  1.1943  0.5460
16108SOL     OW49764   2.894   5.178  11.331 -0.1390  0.0482  0.9420
16108SOL    HW149765   2.849   5.096  11.311  0.5868 -0.0897 -0.2119
16108SOL    HW249766   2.986   5.155  11.333  0.0796  0.8504  0.5219
16109SOL     OW49767   3.874   7.549  12.148  0.4203  0.8925  0.4685
16109SOL    HW149768   3.810   7.592  12.091  1.2231  0.9465 -0.4219
16109SOL    HW249769   3.959   7.576  12.113  0.9387 -0.1922  0.8470
16110SOL     OW49770   3.740   6.704   0.653 -0.4629  0.1398 -0.1690
16110SOL    HW149771   3.691   6.624   0.635  2.0428 -1.3015 -1.1103
16110SOL    HW249772   3.827   6.673   0.678 -0.0082  2.5512  1.5472
16111SOL     OW49773   4.494   4.384   2.036  0.1717  0.2493  0.4968
16111SOL    HW149774   4.413   4.413   2.080  0.5823 -0.7594  1.9973
16111SOL    HW249775   4.488   4.288   2.037  0.4570  0.1810 -1.2440
16112SOL     OW49776   3.752   6.083   3.346  0.2458  0.2898 -0.2922
16112SOL    HW149777   3.815   6.056   3.279 -1.6481 -1.8369 -1.3274
16112SOL    HW249778   3.739   6.006   3.400 -0.0088  1.2916  1.1368
16113SOL     OW49779   4.520   4.336  11.382 -0.2806  0.1437  0.7696
16113SOL    HW149780   4.513   4.288  11.465 -0.5569 -1.4830 -0.1597
16113SOL    HW249781   4.496   4.272  11.315  0.6060  1.2216 -0.6303
16114SOL     OW49782   2.782   5.139   1.763 -0.2327 -0.3861 -0.1631
16114SOL    HW149783   2.724   5.179   1.828  2.0027  1.9131  0.5880
16114SOL    HW249784   2.839   5.082   1.813  0.8145  0.5852 -0.2101
16115SOL     OW49785   2.650   7.899   1.790  0.0119  0.3981  0.0703
16115SOL    HW149786   2.619   7.884   1.701 -0.2806 -0.0891  0.2519
16115SOL    HW249787   2.738   7.861   1.792  0.9659  2.3806 -0.6428
16116SOL     OW49788   4.593   6.888   1.317 -0.0664  0.0266 -0.9199
16116SOL    HW149789   4.543   6.917   1.393  0.2494  1.3661 -1.1819
16116SOL    HW249790   4.548   6.929   1.243  1.5183  1.5191 -1.1356
16117SOL     OW49791   4.609   5.970  11.730 -0.3653  0.1897  0.2986
16117SOL    HW149792   4.674   6.040  11.737  0.0450 -0.2025  0.4615
16117SOL    HW249793   4.652   5.903  11.676  0.1161 -0.8951  1.9367
16118SOL     OW49794   4.688   0.495   0.099  0.0566  0.1575  0.1086
16118SOL    HW149795   4.661   0.584   0.075  2.7942  0.9575 -0.3625
16118SOL    HW249796   4.692   0.448   0.016  1.8764  0.6461 -0.1357
16119SOL     OW49797   4.401   5.649   0.125  0.4504  0.0045  0.2304
16119SOL    HW149798   4.441   5.591   0.189  0.4473 -0.3235 -0.0615
16119SOL    HW249799   4.414   5.737   0.160  0.6034 -0.1629  0.5912
16120SOL     OW49800   3.514   3.995  12.171 -0.1842  0.9656 -0.4026
16120SOL    HW149801   3.549   3.986  12.082 -0.4346 -1.9244 -0.3330
16120SOL    HW249802   3.435   4.048  12.161  0.6570  2.0242 -1.6303
16121SOL     OW49803   5.286   0.606  11.701 -0.5067 -0.6471 -0.5492
16121SOL    HW149804   5.244   0.673  11.756  0.2194 -0.1220 -0.6147
16121SOL    HW249805   5.244   0.614  11.616 -0.4422 -0.2850 -0.5476
16122SOL     OW49806   4.802   0.264   0.238 -0.3687  0.5671  0.1503
16122SOL    HW149807   4.800   0.360   0.241 -0.0835  0.6147 -0.8702
16122SOL    HW249808   4.854   0.239   0.314  0.1904  1.2530  0.0078
16123SOL     OW49809   2.419   6.704  12.453 -0.4150 -0.1813 -0.2124
16123SOL    HW149810   2.401   6.646  12.526  0.5901  0.7458  0.8136
16123SOL    HW249811   2.390   6.790  12.483  0.0272  0.2140 -0.8913
16124SOL     OW49812   7.220   7.864   1.484 -0.0394 -0.3263 -0.6188
16124SOL    HW149813   7.314   7.865   1.497 -0.2217 -0.8658  1.0023
16124SOL    HW249814   7.192   7.954   1.502  0.1081 -0.3040 -0.4983
16125SOL     OW49815   3.065   4.876  12.394 -0.4691 -0.0612  0.7624
16125SOL    HW149816   3.136   4.905  12.337 -1.7256  0.7501 -0.4461
16125SOL    HW249817   2.998   4.944  12.386 -1.5290 -0.9651  1.6082
16126SOL     OW49818   4.650   5.957   2.533 -0.6345 -0.0251 -0.0400
16126SOL    HW149819   4.693   6.038   2.561  0.7605 -0.6107 -0.4241
16126SOL    HW249820   4.577   5.986   2.479 -0.5614  0.9929  0.3859
16127SOL     OW49821   3.066   7.805   0.194  0.1802 -0.0061 -0.4210
16127SOL    HW149822   3.081   7.779   0.285  1.2059  2.4663  0.1804
16127SOL    HW249823   3.151   7.797   0.152 -0.1297 -0.4070 -0.9836
16128SOL     OW49824   5.699   7.792   2.085 -0.3947  0.0390  0.3734
16128SOL    HW149825   5.662   7.704   2.078 -0.2038  0.0556 -1.0580
16128SOL    HW249826   5.640   7.847   2.033 -0.3360  0.7206  1.0033
16129SOL     OW49827   2.939   0.005   1.291  0.2690  0.0646 -0.4940
16129SOL    HW149828   2.888   0.084   1.273  0.1156 -0.0279 -0.4599
16129SOL    HW249829   2.929  -0.048   1.212 -0.7353 -0.5210  0.0051
16130SOL     OW49830   4.505   5.187  11.140  0.1361 -0.0552 -0.5346
16130SOL    HW149831   4.434   5.185  11.076 -1.2384  0.3912  0.9034
16130SOL    HW249832   4.478   5.253  11.203  2.4327  0.9920 -0.5684
16131SOL     OW49833   2.055   4.832   1.021 -0.2244 -0.1282 -0.3837
16131SOL    HW149834   2.018   4.920   1.013 -0.5029 -0.2106 -0.0260
16131SOL    HW249835   2.036   4.806   1.111  2.3224  0.5667  0.4258
16132SOL     OW49836   3.982   4.855  11.269  0.5047  0.2409 -0.0215
16132SOL    HW149837   4.047   4.925  11.267  0.3546  0.4152  0.7705
16132SOL    HW249838   4.001   4.807  11.350  0.0683 -0.1097 -0.1233
16133SOL     OW49839   3.296   4.896   0.312 -0.4011 -0.0333 -0.4839
16133SOL    HW149840   3.348   4.837   0.366 -2.5140  0.0971  1.9244
16133SOL    HW249841   3.237   4.838   0.263  1.3949 -0.1402 -2.6613
16134SOL     OW49842   4.119   6.185  12.108  0.7632 -0.2771  0.5519
16134SOL    HW149843   4.076   6.271  12.101  0.6499 -0.3997 -0.3178
16134SOL    HW249844   4.191   6.200  12.169 -0.3651 -0.0105  1.8571
16135SOL     OW49845   3.094   6.771   2.267 -0.3377  0.3986 -0.2491
16135SOL    HW149846   3.127   6.705   2.328 -0.2758  0.1131 -0.5908
16135SOL    HW249847   3.027   6.818   2.316  0.0525  0.4913  0.2050
16136SOL     OW49848   6.006   6.781   2.583 -0.0226  0.9592 -0.3285
16136SOL    HW149849   6.021   6.690   2.554 -2.6228 -0.6274  2.7516
16136SOL    HW249850   6.067   6.793   2.655  0.7621  1.9912 -1.1235
16137SOL     OW49851   4.155   6.626   1.573  0.3667  0.0128  0.6925
16137SOL    HW149852   4.167   6.640   1.479 -2.3730 -0.4424  0.1795
16137SOL    HW249853   4.184   6.535   1.587 -0.2321 -0.2882  0.0429
16138SOL     OW49854   6.114   7.916   2.202  0.5781  0.4751 -0.7465
16138SOL    HW149855   6.111   7.920   2.106  0.5223 -2.2337 -0.9143
16138SOL    HW249856   6.164   7.837   2.221 -0.0759  0.5411  1.4689
16139SOL     OW49857   6.207   5.240   0.382  0.2702 -0.0130  0.3471
16139SOL    HW149858   6.181   5.273   0.468 -1.0351  0.7442 -0.3103
16139SOL    HW249859   6.256   5.160   0.401 -0.5197 -0.1876  1.7668
16140SOL     OW49860   3.203   4.898   3.887  0.3746 -0.2993  0.7278
16140SOL    HW149861   3.227   4.900   3.794  0.2256 -0.4442  0.6858
16140SOL    HW249862   3.283   4.867   3.931  0.4191 -0.3109  0.6396
16141SOL     OW49863   2.797   4.496   0.359 -0.4632 -0.3500 -0.5298
16141SOL    HW149864   2.750   4.580   0.356 -1.1450 -0.7247 -0.7013
16141SOL    HW249865   2.862   4.507   0.427  0.3733  0.7927 -1.4677
16142SOL     OW49866   3.412   5.048  11.137  0.5162 -0.1754 -0.1982
16142SOL    HW149867   3.396   4.971  11.083  1.1436  0.2250 -0.9756
16142SOL    HW249868   3.455   5.013  11.215  0.4795 -0.6577 -0.3864
16143SOL     OW49869   5.653   5.665   1.188 -0.0486  0.4264 -0.2138
16143SOL    HW149870   5.691   5.703   1.109  0.7498 -0.2331 -0.1617
16143SOL    HW249871   5.726   5.619   1.230 -0.5616  0.4129  0.6862
16144SOL     OW49872   5.098   7.200   1.900 -0.4574  0.3231 -0.1031
16144SOL    HW149873   5.120   7.245   1.981 -0.6837 -0.0359  0.1623
16144SOL    HW249874   5.155   7.123   1.899 -0.9860 -0.0735  0.0891
16145SOL     OW49875   3.800   5.542   1.137 -0.2056  0.7487  0.6592
16145SOL    HW149876   3.792   5.561   1.230 -0.2507  1.8651  0.4426
16145SOL    HW249877   3.710   5.535   1.106 -0.2305 -2.1877  1.1540
16146SOL     OW49878   4.286   6.783   0.678 -0.0918 -0.1316  0.0868
16146SOL    HW149879   4.356   6.810   0.738 -0.3213 -0.4908  0.5270
16146SOL    HW249880   4.237   6.717   0.727  0.5904 -1.5243 -1.0222
16147SOL     OW49881   4.576   7.143   0.306  0.0814 -0.5524  0.0224
16147SOL    HW149882   4.639   7.074   0.287  0.4676 -0.7554  1.8709
16147SOL    HW249883   4.498   7.119   0.256  1.2356 -0.6166 -1.8246
16148SOL     OW49884   5.165   6.532   1.524 -0.2609 -0.2192  0.1786
16148SOL    HW149885   5.135   6.616   1.487 -0.7871 -1.0464 -1.3623
16148SOL    HW249886   5.234   6.504   1.464  0.1215 -0.7585  0.8650
16149SOL     OW49887   4.073   5.917  11.309 -0.3046 -0.2529 -0.5216
16149SOL    HW149888   4.021   5.923  11.228 -0.1092 -0.0987 -0.6359
16149SOL    HW249889   4.163   5.904  11.279 -0.2652 -0.4484 -0.3235
16150SOL     OW49890   1.425   4.694   9.814  0.0528  0.4705 -0.1132
16150SOL    HW149891   1.417   4.622   9.752  0.0149 -0.5134  1.0094
16150SOL    HW249892   1.515   4.724   9.803  0.3060 -0.2479 -0.0665
16151SOL     OW49893   4.677   7.429   1.222 -0.7422 -0.3437 -0.3962
16151SOL    HW149894   4.664   7.360   1.157  1.3216 -2.3266  1.1345
16151SOL    HW249895   4.631   7.398   1.300  1.1059 -0.5814  0.6485
16152SOL     OW49896   4.953   7.432   2.740 -0.5430  0.2577  0.2837
16152SOL    HW149897   4.934   7.357   2.796 -1.0820 -0.4774 -0.8550
16152SOL    HW249898   4.928   7.508   2.793 -2.3888 -0.4771  0.5467
16153SOL     OW49899   7.188   7.015   2.304 -0.5742  0.2229 -0.4322
16153SOL    HW149900   7.105   6.971   2.286  1.0155 -2.5560 -1.7212
16153SOL    HW249901   7.175   7.105   2.276 -2.0672 -0.9949 -4.3101
16154SOL     OW49902   4.804   6.074   0.830 -0.5073  0.0305 -0.2511
16154SOL    HW149903   4.865   6.053   0.759  0.7356 -1.0457  1.0660
16154SOL    HW249904   4.785   5.990   0.871 -1.1693  0.6272  0.7058
16155SOL     OW49905   6.348   7.006   0.999 -0.5641  0.1497  0.3584
16155SOL    HW149906   6.390   7.056   1.069 -0.0747 -3.3599  2.8808
16155SOL    HW249907   6.409   6.934   0.982 -3.3064 -2.4733  0.7334
16156SOL     OW49908   3.194   5.660   0.122  0.0400 -0.0996 -0.1885
16156SOL    HW149909   3.119   5.601   0.119  0.0581 -0.2364  1.2228
16156SOL    HW249910   3.161   5.739   0.166  0.7361 -0.2198  0.5860
16157SOL     OW49911   4.153   6.298   1.554  0.2355 -0.4747 -0.1059
16157SOL    HW149912   4.228   6.256   1.512 -0.2837 -0.5210 -0.9993
16157SOL    HW249913   4.098   6.226   1.584 -0.1761 -0.4395 -0.7698
16158SOL     OW49914   6.365   6.463   0.458 -0.7334  0.2215  0.4064
16158SOL    HW149915   6.305   6.525   0.417 -0.2759 -0.6911 -1.7425
16158SOL    HW249916   6.429   6.518   0.502 -2.5028  1.2153  1.9152
16159SOL     OW49917   2.968   5.740  11.912 -0.0300  0.0805  0.2319
16159SOL    HW149918   2.906   5.810  11.893  0.0750 -0.0500 -0.6303
16159SOL    HW249919   2.998   5.758  12.001 -1.3240  0.1197  0.6839
16160SOL     OW49920   5.476   7.247   1.484  0.4613 -0.0077  0.1088
16160SOL    HW149921   5.441   7.335   1.483  0.6873  0.0781 -1.0057
16160SOL    HW249922   5.539   7.248   1.557  1.7205  1.2618 -0.9478
16161SOL     OW49923   4.332   5.595   0.707  0.7842 -0.2781  0.9109
16161SOL    HW149924   4.332   5.636   0.621 -0.5024  1.1641  1.5624
16161SOL    HW249925   4.264   5.528   0.703  1.5951 -1.1004  0.4399
16162SOL     OW49926   3.485   5.492   0.505  0.9968 -0.3702 -0.1774
16162SOL    HW149927   3.573   5.517   0.478  1.1234  0.7311  1.1296
16162SOL    HW249928   3.441   5.467   0.424  2.4778 -0.8612 -0.8617
16163SOL     OW49929   2.713   4.151   0.066 -0.4506  0.2683 -0.0288
16163SOL    HW149930   2.740   4.077   0.012 -0.4702  0.6135 -0.5224
16163SOL    HW249931   2.790   4.207   0.071 -0.3723  0.1148  0.5179
16164SOL     OW49932   5.134   5.803   0.426 -0.5281 -0.2672  0.3518
16164SOL    HW149933   5.041   5.787   0.440 -0.6299 -1.4063 -1.2543
16164SOL    HW249934   5.137   5.862   0.351  0.0343  0.3750  0.8759
16165SOL     OW49935   3.560   0.445   3.669 -0.1500  0.6833  0.0668
16165SOL    HW149936   3.500   0.440   3.743 -0.9209 -1.1149 -0.6388
16165SOL    HW249937   3.507   0.478   3.596 -0.1790 -0.4321 -0.4308
16166SOL     OW49938   4.935   4.442   2.134  0.3874  0.3886  0.4978
16166SOL    HW149939   4.886   4.394   2.200  2.1821 -0.8646  0.9858
16166SOL    HW249940   4.868   4.486   2.081 -1.1573 -0.0334  2.0231
16167SOL     OW49941   3.228   0.429   2.212  0.0310  0.3242 -0.4032
16167SOL    HW149942   3.134   0.427   2.196  0.0297  1.5953 -0.7000
16167SOL    HW249943   3.260   0.500   2.156  1.2347 -0.3850 -0.6502
16168SOL     OW49944   4.685   6.361   2.327 -0.9711  0.6624 -0.1939
16168SOL    HW149945   4.605   6.407   2.354 -2.3327 -0.6475 -1.7325
16168SOL    HW249946   4.756   6.420   2.351 -2.3844  1.8270  1.3553
16169SOL     OW49947   4.465   6.261   1.767  0.0590  0.0285 -0.4485
16169SOL    HW149948   4.469   6.333   1.831  0.4077  0.4095 -0.8940
16169SOL    HW249949   4.455   6.182   1.821 -1.1125  0.4733  0.0080
16170SOL     OW49950   5.593   6.019   1.974 -0.0809 -0.4308  0.3619
16170SOL    HW149951   5.616   5.963   2.049 -2.0231 -1.3058  0.3587
16170SOL    HW249952   5.498   6.028   1.979  0.0833  2.4998  0.0579
16171SOL     OW49953   5.501   3.678   1.848  0.0950 -0.6519  0.1010
16171SOL    HW149954   5.439   3.717   1.787  1.9712 -1.2489 -2.3323
16171SOL    HW249955   5.550   3.615   1.796  2.3766 -0.6058  2.0095
16172SOL     OW49956   4.303   6.593   2.278 -0.2827 -0.0361 -0.7238
16172SOL    HW149957   4.217   6.619   2.310 -0.6443 -1.3535 -0.5921
16172SOL    HW249958   4.290   6.575   2.185 -0.7140 -2.4339 -0.2668
16173SOL     OW49959   4.842   4.837   0.863 -0.1364  0.2983  0.3524
16173SOL    HW149960   4.789   4.866   0.938  1.2843  0.7318  1.2324
16173SOL    HW249961   4.930   4.870   0.882  0.5265 -0.6604 -0.9133
16174SOL     OW49962   3.501   5.570  11.176  0.4987 -0.1445 -0.4232
16174SOL    HW149963   3.407   5.553  11.191  0.6039  0.1516  0.6641
16174SOL    HW249964   3.503   5.635  11.106 -0.1685  0.7865  0.3948
16175SOL     OW49965   3.816   4.357   1.844  0.1941 -0.2441 -0.6191
16175SOL    HW149966   3.770   4.398   1.918  0.5706 -0.9697  0.0388
16175SOL    HW249967   3.746   4.333   1.783 -0.3687 -1.5976  0.4973
16176SOL     OW49968   3.011   6.039   0.939  0.7925 -0.1606 -0.2461
16176SOL    HW149969   3.061   5.964   0.908  0.5159  0.2004 -1.6233
16176SOL    HW249970   3.034   6.110   0.879 -1.1490  0.0893 -0.7812
16177SOL     OW49971   3.452   6.218  12.093  0.2152 -0.2264  0.2781
16177SOL    HW149972   3.362   6.249  12.101  1.0341  2.0877  1.5634
16177SOL    HW249973   3.462   6.154  12.163 -0.1211  0.3771  0.8919
16178SOL     OW49974   4.868   7.595   2.563 -0.6881  0.0057 -0.0175
16178SOL    HW149975   4.890   7.527   2.627 -0.0830 -1.2278 -1.4821
16178SOL    HW249976   4.921   7.670   2.588 -1.4788  0.0367  1.7184
16179SOL     OW49977   1.818   5.001  11.755  0.3033  0.2562  0.2086
16179SOL    HW149978   1.770   5.081  11.777 -1.2706  0.0506 -2.1241
16179SOL    HW249979   1.756   4.931  11.776 -0.2070 -0.0576 -2.1102
16180SOL     OW49980   5.434   3.979   1.205  0.6654 -0.0782 -0.0314
16180SOL    HW149981   5.355   3.984   1.152  1.7625 -0.9219 -1.8282
16180SOL    HW249982   5.415   3.911   1.270 -0.1214 -0.1854 -0.3644
16181SOL     OW49983   5.465   4.709   0.107 -0.4414  0.1066 -0.3315
16181SOL    HW149984   5.512   4.782   0.147 -0.8837  0.0046  0.4000
16181SOL    HW249985   5.373   4.736   0.106 -0.4537  0.0638 -1.2089
16182SOL     OW49986   2.213   4.130   2.054  0.1812 -0.2490  0.0040
16182SOL    HW149987   2.251   4.042   2.050  1.0371  0.0923  0.3139
16182SOL    HW249988   2.170   4.135   2.139  0.4612 -0.2425  0.1464
16183SOL     OW49989   5.271   1.326   0.908 -0.4826  0.8232  0.1712
16183SOL    HW149990   5.234   1.396   0.855  0.4999  1.2210 -0.0158
16183SOL    HW249991   5.199   1.264   0.921 -0.6439  0.4926 -1.9788
16184SOL     OW49992   4.209   6.073   2.649 -0.0752 -0.6066 -0.2410
16184SOL    HW149993   4.150   6.065   2.723 -0.8133  1.2471 -0.5626
16184SOL    HW249994   4.257   6.154   2.666 -1.1672  0.5741 -2.3366
16185SOL     OW49995   5.911   5.292   0.053  0.1912  0.0368  0.7478
16185SOL    HW149996   5.821   5.262   0.061 -0.1035  0.8774  0.6682
16185SOL    HW249997   5.911   5.349  -0.024  0.6799  0.4176  1.0182
16186SOL     OW49998   5.436   7.814  12.395 -0.1009  0.3929  0.1731
16186SOL    HW149999   5.369   7.795  12.329 -0.8184  1.1959  0.6448
16186SOL    HW250000   5.400   7.779  12.476  0.5856 -0.2047  0.2296
16187SOL     OW50001   5.221   7.262   1.198  0.1778 -0.8059 -0.0931
16187SOL    HW150002   5.152   7.196   1.194 -0.7242  0.1243 -0.4533
16187SOL    HW250003   5.198   7.316   1.274 -0.0748  0.1222 -0.8181
16188SOL     OW50004   4.009   5.734   1.422  0.1454 -0.1358  0.0703
16188SOL    HW150005   3.935   5.712   1.480  0.1223  0.3017  0.2110
16188SOL    HW250006   4.062   5.654   1.420 -1.6407 -1.3991 -2.0824
16189SOL     OW50007   3.844   4.101   2.489 -0.4078  0.2079  0.4653
16189SOL    HW150008   3.883   4.016   2.469 -3.1779 -0.8785 -0.8805
16189SOL    HW250009   3.841   4.146   2.405 -2.0593  0.1830  0.4744
16190SOL     OW50010   3.624   5.430   2.301 -0.2446  0.1723  0.7240
16190SOL    HW150011   3.668   5.442   2.385 -0.7776 -1.8058  1.3426
16190SOL    HW250012   3.593   5.339   2.303 -0.6237  0.2013 -1.4498
16191SOL     OW50013   3.079   5.866   0.275 -0.4808  0.0499  0.6230
16191SOL    HW150014   3.148   5.932   0.282 -0.0253 -0.2917 -0.3533
16191SOL    HW250015   2.999   5.911   0.302  0.0465  0.5911  1.3041
16192SOL     OW50016   3.449   5.333  12.477  0.3521  0.2737 -0.2785
16192SOL    HW150017   3.389   5.271  12.518 -1.6250  0.6479 -2.4162
16192SOL    HW250018   3.483   5.386  12.550  0.7274 -2.0780  1.3820
16193SOL     OW50019   5.849   7.694   0.952  0.3391 -0.0950 -0.1291
16193SOL    HW150020   5.913   7.629   0.922 -0.5718  0.0826 -2.7480
16193SOL    HW250021   5.769   7.672   0.904 -0.2021  2.4749 -0.5214
16194SOL     OW50022   3.773   5.242   0.625 -0.4471 -0.4404  0.4399
16194SOL    HW150023   3.692   5.286   0.652 -1.4633 -1.8914 -0.1248
16194SOL    HW250024   3.746   5.152   0.606  1.1217 -0.7099 -0.6772
16195SOL     OW50025   1.957   5.090   1.033  0.6790 -0.2526 -0.1973
16195SOL    HW150026   1.862   5.102   1.028  0.6225 -1.0516 -1.4133
16195SOL    HW250027   1.993   5.178   1.034 -0.0115  0.0556 -1.2810
16196SOL     OW50028   3.249   6.057   1.149  0.8171  0.6108 -0.6924
16196SOL    HW150029   3.241   5.963   1.131 -1.1770  0.4210  0.8430
16196SOL    HW250030   3.211   6.099   1.071  1.9868  0.1864 -1.5151
16197SOL     OW50031   5.478   6.136   0.643 -0.3297 -0.6448  0.3433
16197SOL    HW150032   5.499   6.059   0.696  0.1561 -1.3741 -0.8820
16197SOL    HW250033   5.443   6.101   0.561 -0.0431  0.4399 -0.2642
16198SOL     OW50034   5.877   5.028  12.357  0.3315 -0.1706  0.0143
16198SOL    HW150035   5.829   5.097  12.403 -0.0523 -0.2720 -0.2292
16198SOL    HW250036   5.853   5.040  12.265  1.8451  0.6518 -0.3166
16199SOL     OW50037   6.034   7.853  11.968 -0.2662 -0.2763  0.0609
16199SOL    HW150038   6.110   7.851  12.026 -0.0875  0.0160 -0.1569
16199SOL    HW250039   6.070   7.834  11.881 -0.4311 -0.0877 -0.0501
16200SOL     OW50040   3.959   6.368   1.858 -0.7211  0.3128  0.0796
16200SOL    HW150041   3.877   6.415   1.839 -0.6774  1.2830  2.0400
16200SOL    HW250042   3.949   6.338   1.948  1.2945  0.9057  0.5487
16201SOL     OW50043   4.071   6.117   0.438 -0.2620  0.0443  0.2008
16201SOL    HW150044   4.036   6.102   0.526  0.0262 -0.2888  0.2612
16201SOL    HW250045   4.165   6.133   0.452 -0.2704  0.2922 -0.0183
16202SOL     OW50046   5.787   1.054   0.278 -0.4242  0.1796  0.2160
16202SOL    HW150047   5.703   1.098   0.259 -0.4124  0.4760  0.8022
16202SOL    HW250048   5.852   1.105   0.230 -0.5996 -0.1916 -0.4323
16203SOL     OW50049   4.327   5.126  12.416  0.3191  0.0955 -0.0353
16203SOL    HW150050   4.244   5.092  12.384 -0.0166 -0.5137  1.4050
16203SOL    HW250051   4.393   5.080  12.365 -0.1049 -2.9894  1.9083
16204SOL     OW50052   1.528   6.348  12.339 -0.1701 -0.2753 -0.3521
16204SOL    HW150053   1.450   6.300  12.367 -1.1102 -0.4930 -3.0916
16204SOL    HW250054   1.569   6.291  12.274  1.6147  0.3919  0.1324
16205SOL     OW50055   5.027   7.455   0.649  0.0921 -0.4122 -0.5832
16205SOL    HW150056   5.028   7.419   0.737  0.8348  1.1313  0.0891
16205SOL    HW250057   5.100   7.412   0.604 -1.9896 -3.3076 -1.4237
16206SOL     OW50058   3.491   5.660   0.047  0.3772 -0.4128  0.1215
16206SOL    HW150059   3.539   5.679   0.128 -0.7845  1.5762  0.4205
16206SOL    HW250060   3.399   5.673   0.070 -0.0419 -0.6276 -1.3261
16207SOL     OW50061   4.989   6.945   2.092 -0.2464  0.1021 -0.1361
16207SOL    HW150062   5.012   7.028   2.134 -0.5683  0.6229 -0.9554
16207SOL    HW250063   5.072   6.899   2.080  0.1511  1.0304 -1.1477
16208SOL     OW50064   4.354   6.767   1.067 -0.0874 -0.1912 -0.9291
16208SOL    HW150065   4.302   6.700   1.112  1.2292  0.2813  1.4847
16208SOL    HW250066   4.304   6.848   1.078  2.0611  0.8531  3.8330
16209SOL     OW50067   3.851   5.465   0.797 -0.6409 -0.0430  0.1042
16209SOL    HW150068   3.822   5.404   0.730  0.0071  2.0420 -2.2392
16209SOL    HW250069   3.879   5.410   0.870  0.5066 -2.5456 -2.0840
16210SOL     OW50070   3.976   7.462   0.944 -0.4222  0.1804  0.0610
16210SOL    HW150071   4.040   7.534   0.941 -0.3742  0.2472  1.5791
16210SOL    HW250072   3.894   7.501   0.916 -0.2925  0.7170  0.4116
16211SOL     OW50073   4.544   4.595   0.529 -0.3965 -0.6858 -0.3152
16211SOL    HW150074   4.629   4.630   0.554 -0.7576 -0.2173  0.2909
16211SOL    HW250075   4.483   4.667   0.547 -0.7780 -0.5994 -1.8314
16212SOL     OW50076   4.701   4.829   0.597  0.3939  0.0046 -0.3040
16212SOL    HW150077   4.742   4.768   0.658 -0.3497 -1.0569 -0.8399
16212SOL    HW250078   4.668   4.899   0.653  0.2111 -0.6738  0.4576
16213SOL     OW50079   3.959   7.150   1.827 -0.4655 -0.3356 -0.3306
16213SOL    HW150080   3.934   7.159   1.735 -0.4714  1.5955 -0.1716
16213SOL    HW250081   4.052   7.127   1.824  0.0698  1.6750 -0.8508
16214SOL     OW50082   4.711   7.488   1.785 -0.0893  0.7419  0.3120
16214SOL    HW150083   4.803   7.509   1.771 -0.4160  1.2862 -1.1723
16214SOL    HW250084   4.689   7.533   1.867  0.8249  1.0041  0.4292
16215SOL     OW50085   4.985   7.052   0.536 -0.5645  0.2253 -1.2675
16215SOL    HW150086   4.960   7.111   0.465  0.3101  0.2701 -1.5424
16215SOL    HW250087   5.080   7.051   0.534 -0.4244  1.6081  1.0276
16216SOL     OW50088   4.591   6.490   1.930 -0.4904  0.1021 -0.4904
16216SOL    HW150089   4.672   6.535   1.907 -0.9974 -0.0449 -2.9324
16216SOL    HW250090   4.608   6.448   2.014  1.4839  1.1594 -0.3164
16217SOL     OW50091   4.400   5.968   1.027 -0.2541  0.0727  0.9697
16217SOL    HW150092   4.318   5.962   0.978  0.6318 -1.0579 -0.4643
16217SOL    HW250093   4.433   6.055   1.006 -1.1373  0.5940  1.6759
16218SOL     OW50094   5.651   0.359   0.896 -0.6533 -0.4760  0.4561
16218SOL    HW150095   5.614   0.332   0.980  0.2390  1.1633  1.4305
16218SOL    HW250096   5.723   0.418   0.919  0.0429 -0.4942 -1.4551
16219SOL     OW50097   5.518   0.013   0.418 -0.1942 -0.5483  0.4159
16219SOL    HW150098   5.507  -0.038   0.498  1.1872 -1.0157  0.3448
16219SOL    HW250099   5.429   0.036   0.391 -0.6754  0.1249  2.3957
16220SOL     OW50100   3.817   5.302  12.100  0.0490 -0.0532  0.1887
16220SOL    HW150101   3.839   5.382  12.148  0.3343  0.8112 -1.3368
16220SOL    HW250102   3.836   5.322  12.009 -1.5753 -1.2786 -0.4625
16221SOL     OW50103   3.048   6.790  12.009  0.1955 -0.3319 -0.2987
16221SOL    HW150104   3.043   6.851  12.083 -1.3705 -1.7646  0.8244
16221SOL    HW250105   2.957   6.770  11.987  0.6574 -1.1596 -1.5920
16222SOL     OW50106   5.000   5.997   0.648 -0.0487  0.1081 -0.5889
16222SOL    HW150107   5.084   6.020   0.688 -0.2977 -1.1064  0.6927
16222SOL    HW250108   4.999   6.047   0.566  0.6222  2.4105  0.7257
16223SOL     OW50109   3.573   3.435  12.484 -0.6550  0.2827  0.3685
16223SOL    HW150110   3.598   3.345  12.501 -1.6144 -0.0234  0.2381
16223SOL    HW250111   3.601   3.452  12.394 -0.4471  0.1286  0.4046
16224SOL     OW50112   5.326   6.947   1.226 -0.5394  0.1847  0.2724
16224SOL    HW150113   5.265   6.985   1.290  1.2666  1.5129  1.2814
16224SOL    HW250114   5.357   7.022   1.175  1.7554 -0.1398  1.1145
16225SOL     OW50115   4.172   7.288   0.599 -0.3728 -0.1776  0.2861
16225SOL    HW150116   4.173   7.193   0.613 -0.4783 -0.1836  0.2558
16225SOL    HW250117   4.223   7.301   0.519  0.2116 -0.1453  0.6572
16226SOL     OW50118   6.044   6.766   3.803  0.2065  0.0089 -0.3053
16226SOL    HW150119   6.013   6.681   3.772  0.7338  0.4369 -2.1554
16226SOL    HW250120   6.115   6.745   3.864 -1.5160 -0.8953  1.4631
16227SOL     OW50121   3.149   6.132  11.856 -0.5687 -0.1493  0.0768
16227SOL    HW150122   3.122   6.198  11.793  0.0737 -0.4493 -0.5361
16227SOL    HW250123   3.168   6.181  11.936  1.8622  0.7384 -0.9342
16228SOL     OW50124   2.911   6.470   0.411  0.1216  0.4631  0.4692
16228SOL    HW150125   2.839   6.416   0.443 -0.3316  1.5898  1.4546
16228SOL    HW250126   2.872   6.521   0.339  0.8058 -1.1677 -1.1191
16229SOL     OW50127   3.044   5.654   0.499  0.3863 -0.2457  0.4587
16229SOL    HW150128   3.038   5.705   0.418  0.1807  0.7232  1.0687
16229SOL    HW250129   3.138   5.642   0.512  0.4786  0.6398  0.6963
16230SOL     OW50130   5.903   6.834   0.860  0.8634  0.0036  0.1592
16230SOL    HW150131   5.908   6.760   0.799  0.7693  1.0351 -1.1269
16230SOL    HW250132   5.992   6.843   0.894  0.5496 -1.7580  1.6942
16231SOL     OW50133   3.362   7.482  12.441 -0.7585 -0.3273  0.0678
16231SOL    HW150134   3.438   7.528  12.406  0.2903 -1.4936  0.7555
16231SOL    HW250135   3.394   7.395  12.464 -2.4056 -1.0086 -0.0427
16232SOL     OW50136   5.372   5.393   1.544  0.1897  0.1551  0.2822
16232SOL    HW150137   5.399   5.449   1.617 -0.3803 -0.0993  0.6964
16232SOL    HW250138   5.307   5.446   1.497  1.3641  0.7564 -0.6970
16233SOL     OW50139   3.695   4.588   1.571 -0.2224 -0.2036 -0.8227
16233SOL    HW150140   3.675   4.514   1.628 -1.9288  0.6579 -0.1928
16233SOL    HW250141   3.643   4.660   1.609  2.9220  1.8913 -0.1259
16234SOL     OW50142   3.839   6.780  12.277 -0.0865 -0.3525  0.2134
16234SOL    HW150143   3.909   6.738  12.327  0.1141 -0.4495 -0.1504
16234SOL    HW250144   3.782   6.707  12.250  0.0581 -0.3516 -0.0969
16235SOL     OW50145   4.823   3.799   0.471 -0.4834 -0.2377 -0.8726
16235SOL    HW150146   4.741   3.835   0.439 -0.5619  0.1057 -0.3070
16235SOL    HW250147   4.806   3.705   0.481 -1.6530  0.1596  1.6579
16236SOL     OW50148   4.897   6.373   0.527 -0.4247  0.0573 -0.1986
16236SOL    HW150149   4.825   6.340   0.581  1.8035 -1.2881  2.1852
16236SOL    HW250150   4.935   6.444   0.579  0.1274  0.5904 -1.3037
16237SOL     OW50151   3.685   0.096  12.135 -0.2150 -0.3219 -0.7208
16237SOL    HW150152   3.687   0.117  12.042  1.0021  1.6665 -0.3185
16237SOL    HW250153   3.599   0.125  12.165 -0.4507 -0.5840 -1.1297
16238SOL     OW50154   4.647   0.264   3.485 -0.6801  0.0012  0.0062
16238SOL    HW150155   4.675   0.184   3.530 -0.5186 -0.0910 -0.2582
16238SOL    HW250156   4.679   0.254   3.395  0.6072  0.9965  0.3172
16239SOL     OW50157   4.193   6.898   2.509  0.1309 -0.2052 -0.1158
16239SOL    HW150158   4.253   6.945   2.451  0.1678 -0.6038 -0.4039
16239SOL    HW250159   4.176   6.959   2.581  0.3789  0.1489 -0.3575
16240SOL     OW50160   5.359   3.918   0.340  0.5344 -0.2190 -0.4654
16240SOL    HW150161   5.307   3.995   0.319  0.1968 -0.5278 -0.7770
16240SOL    HW250162   5.350   3.861   0.263 -1.1939 -1.6348  0.6929
16241SOL     OW50163   4.117   7.831   2.303  0.1742  0.0361  0.5929
16241SOL    HW150164   4.101   7.911   2.252 -1.0481  0.4643  1.5885
16241SOL    HW250165   4.031   7.788   2.306  0.5593 -0.7074  1.0679
16242SOL     OW50166   5.509   6.398  11.610 -0.4226  0.3766 -0.1624
16242SOL    HW150167   5.500   6.493  11.604 -0.4459  0.3326 -0.8659
16242SOL    HW250168   5.557   6.374  11.531 -1.8539 -0.3833 -0.8274
16243SOL     OW50169   5.197   4.754   0.136  0.2379 -0.5576 -0.2251
16243SOL    HW150170   5.131   4.687   0.114 -0.4528 -0.3396  1.0763
16243SOL    HW250171   5.145   4.830   0.163  0.9068 -1.1604  3.2478
16244SOL     OW50172   5.502   0.078  12.476  0.5878 -0.2712  0.0644
16244SOL    HW150173   5.532  -0.009  12.449  0.6847 -0.4302  0.6770
16244SOL    HW250174   5.568   0.108  12.539  0.5890  0.2737 -0.1849
16245SOL     OW50175   6.043   7.058   2.031 -0.6990  0.4473 -0.9903
16245SOL    HW150176   6.004   7.043   2.117  0.6608 -2.2848 -0.7586
16245SOL    HW250177   6.005   6.990   1.975 -1.0889  1.7859 -2.4327
16246SOL     OW50178   5.285   7.335   0.936 -0.0335 -0.0096 -0.2992
16246SOL    HW150179   5.289   7.303   1.026 -1.3839 -1.0273 -0.5658
16246SOL    HW250180   5.191   7.340   0.916  0.2258  0.8024 -1.4446
16247SOL     OW50181   2.277   7.416   0.610 -0.5032  0.2602  0.2119
16247SOL    HW150182   2.248   7.370   0.531  1.4648  0.1806 -0.5345
16247SOL    HW250183   2.295   7.347   0.674 -0.9889  0.2420  0.3281
16248SOL     OW50184   3.876   7.016   0.121  0.5486 -0.4823 -0.2521
16248SOL    HW150185   3.882   7.008   0.216 -0.9054  0.2055 -0.0829
16248SOL    HW250186   3.962   6.987   0.089  0.6808 -1.7704  1.1858
16249SOL     OW50187   4.894   5.331   1.316  0.0747  0.9894  0.1306
16249SOL    HW150188   4.811   5.357   1.356 -0.3761 -0.0604 -0.0841
16249SOL    HW250189   4.954   5.320   1.389 -0.6075 -0.4531  0.4993
16250SOL     OW50190   4.151   5.014  12.237  0.9295 -0.3059 -0.2159
16250SOL    HW150191   4.088   5.059  12.180  1.3080  0.0767 -0.3353
16250SOL    HW250192   4.202   4.959  12.178  0.5059 -0.8633 -0.0761
16251SOL     OW50193   6.013   7.209   0.158 -0.0091  0.0759 -0.1801
16251SOL    HW150194   6.018   7.259   0.239 -1.5539  0.7676 -0.4797
16251SOL    HW250195   6.092   7.235   0.109  0.5632  0.1957  0.7683
16252SOL     OW50196   3.579   5.518   2.053  0.4078  0.0279  0.0875
16252SOL    HW150197   3.484   5.514   2.062  0.3766  0.1922 -0.1621
16252SOL    HW250198   3.613   5.478   2.134  0.1224 -0.9079 -0.2446
16253SOL     OW50199   3.846   0.107   1.295 -0.1244 -0.0836  0.0177
16253SOL    HW150200   3.882   0.170   1.358  1.7583  0.6522 -1.6778
16253SOL    HW250201   3.878   0.022   1.326 -0.8415  0.0169  1.0963
16254SOL     OW50202   5.271   6.047   1.529 -0.1066 -0.0765  0.3753
16254SOL    HW150203   5.183   6.077   1.550  0.3549  1.7929 -0.1638
16254SOL    HW250204   5.296   6.097   1.451  1.3749 -0.6876  0.4150
16255SOL     OW50205   4.281   6.388   0.848 -0.1863  0.7272 -0.2346
16255SOL    HW150206   4.363   6.415   0.807 -0.6230  0.4930 -1.2898
16255SOL    HW250207   4.223   6.463   0.836 -0.4751  0.4616 -0.5001
16256SOL     OW50208   4.076   5.810  12.487  0.3509  0.0720  0.4634
16256SOL    HW150209   4.132   5.830  12.562  0.2452 -1.2484  0.9360
16256SOL    HW250210   4.137   5.779  12.420  0.4231  1.0475  0.0667
16257SOL     OW50211   5.864   7.681  12.061 -0.2272  0.1451 -0.0639
16257SOL    HW150212   5.899   7.607  12.012  3.4883 -0.0639  2.4621
16257SOL    HW250213   5.917   7.756  12.034 -0.5508  0.7779  0.9705
16258SOL     OW50214   3.426   4.243  11.552  0.1070 -0.3324  0.6487
16258SOL    HW150215   3.389   4.159  11.581 -0.6426 -0.2567 -0.0782
16258SOL    HW250216   3.401   4.250  11.460  1.4396  0.0033  0.2870
16259SOL     OW50217   4.532   6.660   0.908 -0.5176 -0.0085 -0.0775
16259SOL    HW150218   4.542   6.747   0.871 -1.1522  0.2452  0.3232
16259SOL    HW250219   4.490   6.675   0.993  0.5560 -0.5974  0.5808
16260SOL     OW50220   3.788   6.490   2.316  0.3051  0.1399  0.0770
16260SOL    HW150221   3.795   6.505   2.410  1.8519  1.0952 -0.1419
16260SOL    HW250222   3.817   6.573   2.277 -0.2574 -0.2582 -1.2397
16261SOL     OW50223   4.153   4.116  11.949  0.3714 -0.3280  0.2283
16261SOL    HW150224   4.232   4.066  11.970  0.5144  0.2879  1.2017
16261SOL    HW250225   4.155   4.190  12.009  0.2480  0.9648 -1.3083
16262SOL     OW50226   6.116   4.906   1.828  0.0499 -0.1672 -0.0281
16262SOL    HW150227   6.049   4.943   1.771 -1.0115 -0.5635  0.9241
16262SOL    HW250228   6.097   4.812   1.830  0.8670 -0.3413 -0.0358
16263SOL     OW50229   5.963   5.893   1.338  0.0469 -0.1809  0.5419
16263SOL    HW150230   5.936   5.831   1.406 -0.1573  0.1641  0.7815
16263SOL    HW250231   5.962   5.843   1.257  0.4988 -0.6545  0.8244
16264SOL     OW50232   4.481   3.713   0.034  0.3539 -0.6506  0.3983
16264SOL    HW150233   4.558   3.657   0.045  0.7388 -0.8560 -2.5824
16264SOL    HW250234   4.415   3.656  -0.006 -0.2085  0.3005 -0.0709
16265SOL     OW50235   4.479   3.815   0.685  0.3580 -0.4023  0.1391
16265SOL    HW150236   4.510   3.745   0.744  1.6186 -1.1849 -1.3871
16265SOL    HW250237   4.440   3.768   0.611  0.0614  0.5379 -0.3071
16266SOL     OW50238   5.674   5.716   0.876  0.0935 -0.3646  0.0016
16266SOL    HW150239   5.684   5.669   0.793  0.1335  0.0760 -0.2429
16266SOL    HW250240   5.701   5.805   0.857  1.6357 -0.6065  0.8889
16267SOL     OW50241   4.824   6.937  12.219 -0.4236 -0.2216 -0.5095
16267SOL    HW150242   4.764   6.865  12.198 -0.2913  0.0723 -1.9821
16267SOL    HW250243   4.766   7.012  12.233 -0.4310 -0.0432 -1.4750
16268SOL     OW50244   5.030   6.959   2.814 -0.1431 -0.6100  0.2597
16268SOL    HW150245   4.963   7.028   2.816  1.2529  1.3674 -4.6656
16268SOL    HW250246   5.011   6.911   2.733  3.4665 -0.8723 -0.5723
16269SOL     OW50247   4.789   6.169   1.790  0.0993 -0.0892 -0.2734
16269SOL    HW150248   4.713   6.111   1.784 -0.9884  1.3430 -0.9649
16269SOL    HW250249   4.774   6.219   1.870 -1.1080  2.0129 -1.7071
16270SOL     OW50250   4.985   5.807   1.425  0.6962  0.0501 -0.2980
16270SOL    HW150251   5.022   5.802   1.513 -0.6543 -1.2823  0.2336
16270SOL    HW250252   5.041   5.751   1.372  1.1520  0.3772 -0.1729
16271SOL     OW50253   3.909   5.664   3.638  0.2385 -0.7957  0.0750
16271SOL    HW150254   3.884   5.595   3.700  1.3321 -1.5509 -0.2952
16271SOL    HW250255   3.958   5.618   3.570 -0.8098  0.0423 -1.2903
16272SOL     OW50256   4.562   5.613   2.612 -0.5460 -0.1822  0.0026
16272SOL    HW150257   4.616   5.682   2.651  2.1198 -1.8839 -0.3584
16272SOL    HW250258   4.566   5.629   2.518 -0.3257 -0.5335 -0.0511
16273SOL     OW50259   4.537   5.293   1.880 -0.0205  0.9101 -0.2363
16273SOL    HW150260   4.555   5.380   1.914 -1.4747  0.9340  0.5277
16273SOL    HW250261   4.450   5.272   1.912  0.9979 -1.5843  1.2301
16274SOL     OW50262   3.437   5.207   1.977 -0.4302 -0.4128 -0.3020
16274SOL    HW150263   3.529   5.187   1.960 -0.2233  0.6912 -0.4976
16274SOL    HW250264   3.431   5.209   2.073 -0.3162 -0.7368 -0.2849
16275SOL     OW50265   3.293   7.284   3.631 -0.0585 -0.0359  0.2191
16275SOL    HW150266   3.313   7.213   3.570  0.6036  0.9104 -0.6811
16275SOL    HW250267   3.206   7.262   3.664  0.1141 -1.2533 -0.0544
16276SOL     OW50268   4.238   7.123   1.872  0.1478 -0.6377 -0.2512
16276SOL    HW150269   4.271   7.178   1.801  1.4365  0.2482  0.9872
16276SOL    HW250270   4.277   7.037   1.857 -0.9623 -0.9499 -1.5519
16277SOL     OW50271   3.647   4.899   2.383  0.1886  0.0828 -0.0097
16277SOL    HW150272   3.557   4.885   2.413 -0.3015  2.9901  0.1024
16277SOL    HW250273   3.699   4.903   2.463  0.2291 -0.3254 -0.0123
16278SOL     OW50274   1.921   5.240   2.309  0.1622  0.9116  0.0975
16278SOL    HW150275   1.987   5.175   2.334 -0.0696  0.8989  0.6782
16278SOL    HW250276   1.961   5.286   2.234  0.9601  1.1095  0.6301
16279SOL     OW50277   4.554   6.133   3.492  0.5142  0.0509  0.3780
16279SOL    HW150278   4.521   6.176   3.571  0.1186 -0.9763  0.7862
16279SOL    HW250279   4.479   6.085   3.457  0.5252  0.9576 -0.9668
16280SOL     OW50280   4.533   7.905   2.672  0.2304 -0.1757 -0.1698
16280SOL    HW150281   4.454   7.886   2.622  0.2644  0.5379 -0.5126
16280SOL    HW250282   4.556   7.822   2.714  1.4909 -1.4258 -3.1016
16281SOL     OW50283   6.173   6.052   3.843  0.2753 -0.0530 -0.8633
16281SOL    HW150284   6.096   5.996   3.836 -0.3240  0.7677 -1.1146
16281SOL    HW250285   6.242   5.995   3.875 -0.6508 -0.6216  0.1974
16282SOL     OW50286   3.017   4.992   3.051 -0.1052 -0.3198 -0.2966
16282SOL    HW150287   3.108   4.974   3.027 -0.3348 -2.3602  0.1116
16282SOL    HW250288   3.001   4.935   3.127 -1.5226  0.5262  0.0818
16283SOL     OW50289   5.659   5.039   4.318  0.2687 -0.4708  0.0176
16283SOL    HW150290   5.615   5.003   4.395  0.3721 -0.5269  0.0512
16283SOL    HW250291   5.721   5.103   4.355 -0.5415  0.3966 -0.0930
16284SOL     OW50292   4.238   6.417   1.811 -0.0767 -0.1754  0.0908
16284SOL    HW150293   4.152   6.375   1.811  0.3712 -1.1417 -0.5788
16284SOL    HW250294   4.277   6.390   1.728  1.3748 -0.8094  0.9455
16285SOL     OW50295   3.691   5.865   2.907  0.3436 -0.1387 -0.4687
16285SOL    HW150296   3.675   5.953   2.941 -0.1685 -0.1678 -0.6201
16285SOL    HW250297   3.644   5.807   2.966  1.7627 -0.4400  0.4121
16286SOL     OW50298   4.432   6.036   2.378  0.2399 -0.2825 -0.0736
16286SOL    HW150299   4.362   5.978   2.348 -1.3604  1.6889 -0.3690
16286SOL    HW250300   4.500   6.027   2.311 -0.4859 -0.9185 -0.7573
16287SOL     OW50301   4.113   5.942   1.542  0.2242  0.0414 -0.7556
16287SOL    HW150302   4.048   5.978   1.602  0.2450  2.4261 -2.0558
16287SOL    HW250303   4.069   5.868   1.501 -0.7670  0.0865  0.1787
16288SOL     OW50304   5.881   7.338   3.629  0.0378 -0.0589 -0.0577
16288SOL    HW150305   5.867   7.427   3.661  1.0642  0.1410 -0.1271
16288SOL    HW250306   5.967   7.340   3.588  0.6681 -1.3798  1.0880
16289SOL     OW50307   4.050   5.085   1.721  0.0093  0.9486 -0.0939
16289SOL    HW150308   3.988   5.021   1.757 -0.8639  0.0413 -2.9351
16289SOL    HW250309   4.134   5.039   1.722 -0.7056 -0.6074 -2.6186
16290SOL     OW50310   5.934   6.086   2.933  0.0295  0.1824 -0.3346
16290SOL    HW150311   5.881   6.009   2.955  0.1796 -0.1905 -1.2260
16290SOL    HW250312   6.015   6.049   2.898  1.1177  0.7341  1.4581
16291SOL     OW50313   6.300   6.391   1.643 -0.0153 -0.3432 -0.1245
16291SOL    HW150314   6.366   6.336   1.686 -1.2093 -1.7261  0.0287
16291SOL    HW250315   6.231   6.402   1.708  0.2919  1.6143 -0.0690
16292SOL     OW50316   4.160   0.900   3.503  0.0511 -0.3443  0.1118
16292SOL    HW150317   4.133   0.882   3.593 -0.1205  0.1364  0.1590
16292SOL    HW250318   4.192   0.990   3.505 -0.8278  0.0051 -0.4908
16293SOL     OW50319   4.423   0.043   1.554 -0.5674  0.4167 -0.3202
16293SOL    HW150320   4.384   0.103   1.490 -1.0935  0.3170 -0.0992
16293SOL    HW250321   4.425  -0.042   1.511  1.5322  0.8466 -1.1855
16294SOL     OW50322   5.975   7.560   1.524  0.0296  0.1869 -0.0007
16294SOL    HW150323   6.035   7.511   1.581  0.8901  0.1553 -0.8930
16294SOL    HW250324   5.910   7.597   1.583  0.5499 -0.3344  0.9271
16295SOL     OW50325   4.255   0.149   2.539  0.2665 -0.2976 -0.2378
16295SOL    HW150326   4.267   0.211   2.467  0.8511  0.3329  0.3782
16295SOL    HW250327   4.273   0.063   2.501  1.8791  0.1422 -0.5568
16296SOL     OW50328   3.394   5.896   4.219  0.0216 -0.0071  0.1656
16296SOL    HW150329   3.381   5.954   4.144 -2.5944 -0.8443 -0.1132
16296SOL    HW250330   3.409   5.810   4.180  0.4917 -0.1431  0.6246
16297SOL     OW50331   2.272   5.757   2.157 -0.0251 -0.0308 -0.8513
16297SOL    HW150332   2.256   5.698   2.083 -0.4465  0.7358 -1.3992
16297SOL    HW250333   2.224   5.718   2.230  1.1186 -1.2678 -0.7351
16298SOL     OW50334   4.191   6.387   3.805 -0.6714 -0.0529 -0.2576
16298SOL    HW150335   4.155   6.465   3.846  0.4280  0.7522 -0.8023
16298SOL    HW250336   4.205   6.326   3.877 -0.0165  0.8428  0.3853
16299SOL     OW50337   4.964   3.972   2.865 -0.2222 -0.0911  0.0280
16299SOL    HW150338   4.876   3.980   2.829 -0.3627  2.5074  0.7993
16299SOL    HW250339   4.954   3.989   2.958  1.2686  1.7938 -0.1134
16300SOL     OW50340   3.531   6.999   3.231  0.4825  0.1144 -0.0274
16300SOL    HW150341   3.515   6.922   3.286 -0.5321 -0.0522 -0.5177
16300SOL    HW250342   3.604   6.974   3.174 -0.2515 -0.7502 -0.6230
16301SOL     OW50343   4.092   6.833   1.712  0.4111 -0.2306  0.2109
16301SOL    HW150344   4.106   6.757   1.657  0.1367 -0.3071  0.2450
16301SOL    HW250345   4.177   6.849   1.753  0.4816 -0.4867  0.1662
16302SOL     OW50346   6.873   7.036   3.992 -0.1338 -0.6388  0.3597
16302SOL    HW150347   6.947   7.077   4.037  0.3384 -1.0141 -0.0679
16302SOL    HW250348   6.887   7.056   3.900 -0.0645 -1.4917  0.1785
16303SOL     OW50349   6.351   7.260   3.837 -0.0673  0.6339 -0.1883
16303SOL    HW150350   6.267   7.259   3.882 -0.3387 -1.8368 -0.6159
16303SOL    HW250351   6.416   7.267   3.907 -0.5689 -0.2133  0.3724
16304SOL     OW50352   5.548   0.807   1.183  0.3825  0.1741 -0.4242
16304SOL    HW150353   5.472   0.822   1.240  0.8809  0.0092  0.3027
16304SOL    HW250354   5.612   0.872   1.211  0.1851  0.9415 -1.6741
16305SOL     OW50355   5.130   7.274   3.009  0.2950  0.2527 -0.9002
16305SOL    HW150356   5.139   7.250   3.101  0.6309 -1.9245 -1.4611
16305SOL    HW250357   5.044   7.242   2.984 -0.0153  1.3104 -1.2271
16306SOL     OW50358   3.506   7.734   1.579 -0.6196 -0.3079 -0.0970
16306SOL    HW150359   3.420   7.704   1.607 -0.4495 -0.4178  0.3155
16306SOL    HW250360   3.551   7.654   1.551  0.2755 -0.6594  2.1727
16307SOL     OW50361   5.274   6.361   3.570 -0.1871 -0.0830  0.2897
16307SOL    HW150362   5.361   6.399   3.564  0.4527 -1.3014  1.4580
16307SOL    HW250363   5.272   6.318   3.656 -1.8823 -0.1986  0.2253
16308SOL     OW50364   7.615   5.698   0.671 -0.5423 -0.4542 -0.0965
16308SOL    HW150365   7.696   5.648   0.678 -1.3083 -1.7625 -0.2112
16308SOL    HW250366   7.636   5.772   0.614  0.6495 -0.5552  0.1869
16309SOL     OW50367   4.187   6.707   3.803  0.2460  0.5605  0.8309
16309SOL    HW150368   4.128   6.781   3.819 -1.8554 -1.0911  1.0037
16309SOL    HW250369   4.219   6.720   3.714 -2.7776 -0.0397 -0.4470
16310SOL     OW50370   6.171   6.490   3.827 -0.1021  0.6147 -0.0445
16310SOL    HW150371   6.254   6.532   3.806  0.1816 -0.8197 -2.1004
16310SOL    HW250372   6.182   6.457   3.916 -0.2590  4.5180  1.6148
16311SOL     OW50373   6.297   5.706   3.817  0.2392 -0.2000 -0.3961
16311SOL    HW150374   6.288   5.632   3.877  0.7648 -0.7960 -1.0333
16311SOL    HW250375   6.353   5.768   3.863 -2.4203  1.1027  1.3185
16312SOL     OW50376   5.081   6.026   2.451 -0.0087 -0.1203  0.3439
16312SOL    HW150377   5.080   5.961   2.380 -0.9475  1.4053 -1.1287
16312SOL    HW250378   5.142   6.093   2.421 -0.3533  0.5053  1.0230
16313SOL     OW50379   2.494   5.438   2.087 -0.4263  0.0253 -0.0749
16313SOL    HW150380   2.498   5.389   2.169 -0.4403 -1.1175 -0.7287
16313SOL    HW250381   2.569   5.497   2.091 -0.2208 -0.2678  0.6148
16314SOL     OW50382   3.679   7.086   3.590  0.1426 -0.8072 -0.0067
16314SOL    HW150383   3.690   7.020   3.657  0.5168 -0.5345  0.2038
16314SOL    HW250384   3.761   7.136   3.591 -0.3279 -0.0102  0.2035
16315SOL     OW50385   4.118   0.137   5.599 -0.4614  0.7386  0.0014
16315SOL    HW150386   4.090   0.050   5.627  2.0845  0.4995  2.3568
16315SOL    HW250387   4.081   0.197   5.664  1.0272  0.8638  0.7914
16316SOL     OW50388   3.406   5.308   1.636  0.2035 -0.0820 -0.3457
16316SOL    HW150389   3.471   5.251   1.593  0.2791  0.7121 -1.3393
16316SOL    HW250390   3.458   5.383   1.667 -0.0461 -0.0583  0.0110
16317SOL     OW50391   5.276   5.390   2.321  0.0744 -0.4357  0.3028
16317SOL    HW150392   5.264   5.378   2.227 -1.8525  0.8402  0.3221
16317SOL    HW250393   5.256   5.305   2.360  2.0872 -1.3152 -0.4754
16318SOL     OW50394   4.280   6.100   1.388 -0.6543 -0.0538 -0.1381
16318SOL    HW150395   4.353   6.046   1.358 -0.7195 -1.6484  2.3149
16318SOL    HW250396   4.240   6.050   1.459 -2.9675  1.6495 -0.1087
16319SOL     OW50397   3.314   6.477   1.781  0.2169 -0.0660 -0.4020
16319SOL    HW150398   3.393   6.522   1.751  0.6541 -1.0329 -0.7649
16319SOL    HW250399   3.334   6.384   1.769 -0.6252 -0.3626  0.3962
16320SOL     OW50400   5.015   6.349   2.554  0.2967 -0.0546  0.3305
16320SOL    HW150401   5.093   6.339   2.499 -0.1803 -0.7340 -0.2376
16320SOL    HW250402   5.050   6.372   2.641  1.2171 -1.5559  0.4030
16321SOL     OW50403   2.662   6.870   3.264  0.4218 -0.0863  0.0225
16321SOL    HW150404   2.681   6.810   3.191  0.6760 -0.9521  0.7784
16321SOL    HW250405   2.743   6.872   3.315  0.0846  0.1046  0.5617
16322SOL     OW50406   6.245   6.805   3.533 -0.2768  0.1313  0.2955
16322SOL    HW150407   6.165   6.774   3.492  1.2880 -2.7655 -0.8402
16322SOL    HW250408   6.215   6.848   3.613 -3.0550  1.2403 -1.1806
16323SOL     OW50409   3.237   3.637   2.128 -0.4267  0.6192 -0.0675
16323SOL    HW150410   3.329   3.611   2.132  0.0088  1.7661 -1.8715
16323SOL    HW250411   3.196   3.589   2.201  1.2738 -1.0988 -0.1611
16324SOL     OW50412   4.957   5.144   2.961  0.2796 -0.0145 -0.2241
16324SOL    HW150413   4.971   5.203   2.887  2.1283 -0.0538  0.0335
16324SOL    HW250414   5.000   5.062   2.935  0.0231 -0.3796  0.4690
16325SOL     OW50415   3.586   6.800   2.017  0.4104 -0.7312 -0.0628
16325SOL    HW150416   3.504   6.778   2.063 -0.4997  1.3761 -0.5408
16325SOL    HW250417   3.629   6.862   2.076 -0.7267  1.9411 -1.8452
16326SOL     OW50418   5.452   5.702   1.390  0.1362  0.0222  0.2142
16326SOL    HW150419   5.435   5.735   1.301 -0.8604  1.1992  0.8103
16326SOL    HW250420   5.542   5.668   1.386 -0.0031 -0.2307 -1.3193
16327SOL     OW50421   3.113   5.984   4.671 -0.0281  0.6648  0.0121
16327SOL    HW150422   3.040   6.040   4.698 -0.3580  0.7497 -0.9840
16327SOL    HW250423   3.096   5.900   4.714 -0.0070  1.0597  0.8103
16328SOL     OW50424   5.772   1.272   1.910 -0.2157 -0.3559  0.3435
16328SOL    HW150425   5.780   1.350   1.965 -1.0361  0.2848 -0.4187
16328SOL    HW250426   5.707   1.218   1.955 -2.4966  1.1175 -1.0075
16329SOL     OW50427   2.425   0.822   2.371 -0.1015  0.1167  0.4860
16329SOL    HW150428   2.402   0.841   2.462 -1.5837  0.4148  0.0642
16329SOL    HW250429   2.357   0.761   2.341 -0.7345  1.4895 -0.9897
16330SOL     OW50430   4.554   6.838   2.637  0.2473  0.2440 -0.2090
16330SOL    HW150431   4.591   6.900   2.574  1.1107  0.5100  0.5318
16330SOL    HW250432   4.467   6.873   2.657  1.1784  1.9540  1.1304
16331SOL     OW50433   4.572   7.004   2.131 -0.0834 -0.1130  0.4888
16331SOL    HW150434   4.496   6.948   2.150  0.1343 -0.7351 -0.4138
16331SOL    HW250435   4.637   6.944   2.094 -0.7086  1.0646 -2.8609
16332SOL     OW50436   5.076   6.775   3.262 -0.0309  0.5969 -0.1435
16332SOL    HW150437   5.100   6.791   3.171 -0.4265  0.1771 -0.3244
16332SOL    HW250438   4.992   6.820   3.273  0.4029  1.3313  0.2433
16333SOL     OW50439   3.404   4.630   0.865 -0.0950 -0.2468  0.2057
16333SOL    HW150440   3.492   4.639   0.903  0.0378  2.2965 -0.5131
16333SOL    HW250441   3.371   4.547   0.900  1.4358  0.1480  2.9060
16334SOL     OW50442   5.743   5.854   4.525 -0.0648 -0.0108  0.0423
16334SOL    HW150443   5.649   5.846   4.508  0.4299 -0.9524 -2.6592
16334SOL    HW250444   5.781   5.878   4.441  2.1172  0.6409  1.1429
16335SOL     OW50445   4.155   3.820   2.862 -0.1935 -0.0579 -0.1179
16335SOL    HW150446   4.068   3.792   2.891 -0.1954  1.0723  1.0659
16335SOL    HW250447   4.180   3.889   2.923  1.1983  0.2148 -0.9389
16336SOL     OW50448   4.944   6.084   2.963 -0.0093 -0.1803 -0.4728
16336SOL    HW150449   5.019   6.075   3.023 -1.0556  0.3854  0.9649
16336SOL    HW250450   4.958   6.168   2.920  0.9078 -0.7250 -1.2969
16337SOL     OW50451   4.886   0.287   3.804  0.1834  0.1351 -0.0665
16337SOL    HW150452   4.838   0.260   3.883 -1.6947 -0.8194 -1.4639
16337SOL    HW250453   4.951   0.218   3.791  0.2198  0.0750  0.3967
16338SOL     OW50454   3.989   5.796   4.950  0.2269 -0.5855  0.7802
16338SOL    HW150455   3.972   5.866   4.887  2.1091  0.1391  1.0265
16338SOL    HW250456   4.028   5.726   4.899  0.2373 -0.6547  0.8818
16339SOL     OW50457   4.969   6.340   2.891  0.1734 -0.2072  0.2932
16339SOL    HW150458   4.877   6.344   2.866 -0.1330 -1.4398  1.1263
16339SOL    HW250459   4.991   6.430   2.915 -0.8722  0.0642  0.2761
16340SOL     OW50460   6.496   5.385   3.836  0.5266 -0.3895  0.5604
16340SOL    HW150461   6.535   5.305   3.870  0.6838 -0.4427  0.2552
16340SOL    HW250462   6.415   5.357   3.794  0.6895 -0.4225  0.2603
16341SOL     OW50463   4.819   4.383   2.340  0.2992 -0.1145 -0.7359
16341SOL    HW150464   4.866   4.333   2.407  1.1095  0.6351 -0.7345
16341SOL    HW250465   4.732   4.397   2.378  0.7776  0.3831  0.2143
16342SOL     OW50466   3.754   0.294   2.141  0.4468  0.4031 -0.0217
16342SOL    HW150467   3.802   0.236   2.200 -2.3077 -2.3447 -0.2093
16342SOL    HW250468   3.663   0.288   2.170 -0.4175  2.1775 -2.0600
16343SOL     OW50469   3.849   7.585   1.483 -0.4229 -0.0836 -0.3620
16343SOL    HW150470   3.898   7.576   1.402  0.1649  2.2262 -0.3430
16343SOL    HW250471   3.913   7.619   1.546 -1.3210  0.0341  0.5188
16344SOL     OW50472   3.919   5.518   3.379  0.3831  0.2352 -1.3488
16344SOL    HW150473   3.926   5.426   3.351 -0.6889  0.1518 -1.4000
16344SOL    HW250474   4.001   5.558   3.351  0.7825 -0.6633 -1.5103
16345SOL     OW50475   5.276   7.553   2.963 -0.4352  0.4200 -0.7080
16345SOL    HW150476   5.272   7.644   2.991  1.0891 -0.0155  1.0907
16345SOL    HW250477   5.229   7.505   3.032 -0.0818 -0.2914 -0.9585
16346SOL     OW50478   6.250   7.719   3.910  0.7459  0.8378  0.2283
16346SOL    HW150479   6.214   7.802   3.940  0.7051  0.5005  1.1628
16346SOL    HW250480   6.316   7.696   3.976 -1.0880 -1.1497  1.5319
16347SOL     OW50481   3.361   7.374   1.134  0.0126  0.2267 -0.5585
16347SOL    HW150482   3.374   7.467   1.155 -3.5158  0.5485  0.8088
16347SOL    HW250483   3.344   7.372   1.040 -1.1248  1.1786 -0.3957
16348SOL     OW50484   5.613   5.279   2.115 -0.4657 -0.1120 -0.1917
16348SOL    HW150485   5.556   5.202   2.116  1.9811 -2.0624  0.8532
16348SOL    HW250486   5.702   5.243   2.121  0.7977  2.8248  0.6960
16349SOL     OW50487   3.567   5.235   3.443  0.1642  0.0542 -0.2355
16349SOL    HW150488   3.615   5.152   3.448  1.0219  0.5643  0.3652
16349SOL    HW250489   3.540   5.252   3.534 -0.2429  0.3017 -0.4002
16350SOL     OW50490   3.653   6.137   1.323  0.3773  0.3285 -0.1603
16350SOL    HW150491   3.637   6.050   1.359 -0.3748  0.4003 -0.3096
16350SOL    HW250492   3.662   6.193   1.400  2.0396 -0.0576 -0.0302
16351SOL     OW50493   4.238   4.803   2.345 -0.5223  0.0456  0.1548
16351SOL    HW150494   4.310   4.833   2.400 -0.4600  1.0889 -0.4520
16351SOL    HW250495   4.231   4.709   2.361  1.5163 -0.2282 -0.3998
16352SOL     OW50496   3.293   4.817   2.189  0.2209  0.0609  0.0417
16352SOL    HW150497   3.347   4.790   2.263 -1.1239 -1.8094  0.4148
16352SOL    HW250498   3.327   4.768   2.115  1.6845  2.0729 -0.6904
16353SOL     OW50499   4.998   2.674   1.497 -0.3752 -0.2146 -0.0086
16353SOL    HW150500   4.951   2.754   1.523  3.1995  2.1449 -0.1942
16353SOL    HW250501   5.000   2.678   1.402  2.9518  1.6822 -0.0064
16354SOL     OW50502   5.349   6.774   2.540  0.0183 -0.2571  0.4821
16354SOL    HW150503   5.443   6.766   2.554  0.1892  1.2950  0.4139
16354SOL    HW250504   5.310   6.711   2.600  1.0482  0.0677  1.5174
16355SOL     OW50505   6.378   5.525   4.042  0.6386  0.1520 -0.3711
16355SOL    HW150506   6.436   5.539   4.116  0.3859 -1.0346  0.0624
16355SOL    HW250507   6.436   5.500   3.970  0.8719  1.2112 -0.5736
16356SOL     OW50508   6.069   7.428   1.753  0.1049 -0.3151 -0.2740
16356SOL    HW150509   5.998   7.374   1.789  1.8481 -2.0041  0.8313
16356SOL    HW250510   6.083   7.496   1.818 -0.3983 -0.0399 -0.4448
16357SOL     OW50511   5.272   6.156  12.224  0.0749  0.2327 -0.1437
16357SOL    HW150512   5.302   6.133  12.136  0.4497 -0.2351  0.1032
16357SOL    HW250513   5.199   6.095  12.241  0.4115 -0.1029  0.1135
16358SOL     OW50514   4.084   0.778   2.274 -0.1729  0.3835 -0.2213
16358SOL    HW150515   4.147   0.837   2.315 -2.4587  1.6776  1.6668
16358SOL    HW250516   4.015   0.767   2.340 -0.7253 -3.0336 -1.1726
16359SOL     OW50517   4.058   7.672   1.610  0.1447  0.3771  0.3864
16359SOL    HW150518   4.140   7.640   1.571  0.3216  0.5912  0.5875
16359SOL    HW250519   4.084   7.745   1.666 -0.0551 -0.1879  1.2346
16360SOL     OW50520   5.434   2.969   1.184  0.0140 -0.0567  0.2207
16360SOL    HW150521   5.359   2.922   1.148  0.5382 -1.2652  0.6670
16360SOL    HW250522   5.439   2.940   1.275  0.9311  0.1170  0.2336
16361SOL     OW50523   3.391   5.779   2.547 -0.4646  0.0900 -0.5452
16361SOL    HW150524   3.364   5.687   2.543 -0.3098  0.0868 -2.2048
16361SOL    HW250525   3.435   5.788   2.632 -1.0054 -1.2059 -0.1031
16362SOL     OW50526   5.074   6.082   1.324  0.1623 -0.2771  1.0569
16362SOL    HW150527   5.012   6.104   1.395 -0.1836 -1.8870  1.2808
16362SOL    HW250528   5.111   5.998   1.350  0.1409 -0.8258 -0.6120
16363SOL     OW50529   5.697   5.480   2.447 -0.0075  0.5482 -0.0073
16363SOL    HW150530   5.615   5.526   2.467 -2.0434 -2.0838 -1.6731
16363SOL    HW250531   5.714   5.427   2.525 -0.4728  0.3228 -0.0568
16364SOL     OW50532   4.137   5.475   1.893 -0.3453  0.1408  0.4573
16364SOL    HW150533   4.151   5.498   1.985  1.6983 -1.0284  0.4856
16364SOL    HW250534   4.138   5.559   1.847  1.0553  0.5731  1.2344
16365SOL     OW50535   5.530   6.434   3.121 -0.3549  0.1287  0.0464
16365SOL    HW150536   5.569   6.442   3.034 -0.8826  0.5349 -0.1583
16365SOL    HW250537   5.491   6.520   3.137  0.1529  0.2111  0.8862
16366SOL     OW50538   5.683   6.967   2.194  0.7652 -0.4527  0.0588
16366SOL    HW150539   5.689   6.949   2.101  3.0152  2.9976 -0.6755
16366SOL    HW250540   5.669   6.881   2.235  1.2955 -2.2999 -3.2945
16367SOL     OW50541   5.012   5.884   4.258  0.0246  0.1537 -0.1373
16367SOL    HW150542   5.038   5.841   4.340 -3.2751 -0.6116  0.6567
16367SOL    HW250543   5.032   5.820   4.190  1.9365  0.4313  0.0892
16368SOL     OW50544   3.254   7.480   2.914 -0.1310 -0.3062  0.2964
16368SOL    HW150545   3.277   7.390   2.894 -2.0803 -1.0490  1.1994
16368SOL    HW250546   3.188   7.503   2.849  0.0569  0.3431  0.3251
16369SOL     OW50547   4.727   6.518   3.086 -0.0846 -0.0998 -0.4162
16369SOL    HW150548   4.719   6.497   3.179  0.3314  2.1484  0.1843
16369SOL    HW250549   4.642   6.555   3.062  0.5805  1.6732 -0.2193
16370SOL     OW50550   5.129   4.421   3.735 -0.1904  0.0607 -0.6522
16370SOL    HW150551   5.187   4.467   3.673  0.9523  0.4682  0.6611
16370SOL    HW250552   5.093   4.491   3.790  1.9248 -0.5365  1.6770
16371SOL     OW50553   4.838   7.177   3.334  0.0829  0.3165 -0.3053
16371SOL    HW150554   4.929   7.201   3.314  0.2361 -0.3816 -0.4710
16371SOL    HW250555   4.829   7.087   3.301 -0.9762  0.7414 -1.2434
16372SOL     OW50556   3.090   7.671   2.787  0.2841 -0.4622 -0.3133
16372SOL    HW150557   3.118   7.762   2.781 -1.5731  0.0963 -1.3732
16372SOL    HW250558   3.072   7.645   2.696 -4.2119 -0.1305  0.2452
16373SOL     OW50559   2.962   7.317   1.635 -0.0328 -0.2623 -0.0727
16373SOL    HW150560   2.908   7.245   1.666 -0.8314  0.3481 -0.0215
16373SOL    HW250561   3.044   7.276   1.607 -0.2336 -1.1062  0.5489
16374SOL     OW50562   4.469   7.837   2.963  0.3151 -0.4014  0.0320
16374SOL    HW150563   4.544   7.888   2.993  0.3491 -0.9890  0.9616
16374SOL    HW250564   4.456   7.770   3.030 -1.7411  0.3718  0.5078
16375SOL     OW50565   4.352   6.546   4.072  0.2532  0.2914 -0.1019
16375SOL    HW150566   4.261   6.529   4.099 -0.1002 -2.7306 -2.5595
16375SOL    HW250567   4.352   6.530   3.978  3.4057 -0.1043 -0.1326
16376SOL     OW50568   3.993   5.934  12.138 -0.4038 -0.0373  0.2152
16376SOL    HW150569   3.975   5.908  12.228 -0.6587  0.8829  0.4427
16376SOL    HW250570   4.026   6.024  12.146  2.3422 -0.8901 -0.3557
16377SOL     OW50571   2.205   5.855   2.477 -0.3382 -0.9475 -0.4768
16377SOL    HW150572   2.246   5.822   2.557  1.0220 -0.7506 -1.0697
16377SOL    HW250573   2.160   5.779   2.440  0.7081 -1.5301 -0.5640
16378SOL     OW50574   4.186   6.362   3.539 -0.2365 -0.1934  0.8673
16378SOL    HW150575   4.207   6.375   3.632  0.0443 -0.2723  0.8168
16378SOL    HW250576   4.183   6.267   3.528  0.1480 -0.1907  0.7065
16379SOL     OW50577   4.557   6.016   3.935 -0.4857  0.6199 -0.0756
16379SOL    HW150578   4.504   5.943   3.968 -0.7555 -0.0346 -1.8181
16379SOL    HW250579   4.642   5.976   3.916 -0.2074  1.0698  0.2247
16380SOL     OW50580   3.364   6.469   3.834 -0.2631  0.0849 -0.2636
16380SOL    HW150581   3.406   6.554   3.818 -0.1293 -0.2638 -1.8757
16380SOL    HW250582   3.298   6.488   3.901 -0.6649  1.6032 -1.0392
16381SOL     OW50583   4.690   6.293   4.342 -0.4230 -0.7787 -0.3434
16381SOL    HW150584   4.696   6.351   4.417 -0.1991 -1.4641  0.1746
16381SOL    HW250585   4.619   6.233   4.364  0.3002 -1.6110 -0.2326
16382SOL     OW50586   4.904   5.837   2.548  0.1710  0.0116 -0.1338
16382SOL    HW150587   4.812   5.864   2.541  0.1284 -0.0480  0.1793
16382SOL    HW250588   4.953   5.907   2.504  0.0885  0.7841  0.9672
16383SOL     OW50589   7.615   5.407   4.525  0.1289  0.0439  0.2292
16383SOL    HW150590   7.644   5.480   4.582 -0.3942 -0.0405  0.6086
16383SOL    HW250591   7.524   5.428   4.504 -1.1188 -2.0460  2.9355
16384SOL     OW50592   5.601   4.879   2.327  0.3446  0.4779  0.0456
16384SOL    HW150593   5.680   4.932   2.320  0.5245  0.0346 -1.8501
16384SOL    HW250594   5.562   4.881   2.240  0.3610 -2.4596 -0.1479
16385SOL     OW50595   3.782   6.584   1.846 -0.0108 -0.2355 -1.2459
16385SOL    HW150596   3.707   6.606   1.901 -0.5273  0.0565 -2.0395
16385SOL    HW250597   3.855   6.634   1.883  0.1376 -1.5463  0.3535
16386SOL     OW50598   2.967   7.870   2.508 -0.0249  0.2819 -0.0359
16386SOL    HW150599   2.986   7.778   2.526 -1.7782 -0.7044 -2.7163
16386SOL    HW250600   2.954   7.908   2.595 -1.6270 -2.5732  1.1314
16387SOL     OW50601   3.934   6.464   2.799  0.8559  0.2812 -0.1855
16387SOL    HW150602   4.016   6.460   2.749  1.6734  0.5802  1.0979
16387SOL    HW250603   3.960   6.493   2.886 -0.3961 -1.2515  0.7523
16388SOL     OW50604   5.558   4.210   5.818 -0.1401  0.1253 -0.2306
16388SOL    HW150605   5.470   4.200   5.782 -0.8822  3.7964  0.1563
16388SOL    HW250606   5.545   4.252   5.903  1.9436 -1.5467  1.0343
16389SOL     OW50607   3.517   4.942   2.854  0.3627  0.1180  0.6806
16389SOL    HW150608   3.560   4.928   2.769  1.8900  1.4364  1.1901
16389SOL    HW250609   3.512   4.854   2.893  0.7854 -0.3312 -0.2414
16390SOL     OW50610   3.797   6.574   2.572 -0.4101 -0.3286  0.0112
16390SOL    HW150611   3.742   6.649   2.595 -0.1009 -0.4123  1.0554
16390SOL    HW250612   3.810   6.527   2.655  1.3423 -0.2367 -0.1749
16391SOL     OW50613   5.116   6.210   1.100  0.8277 -0.0005 -0.2643
16391SOL    HW150614   5.096   6.151   1.027 -1.4987  0.3585  0.0204
16391SOL    HW250615   5.111   6.154   1.178  2.0639 -0.1129 -0.2402
16392SOL     OW50616   3.177   5.930   4.399 -0.0197  0.1722 -0.0168
16392SOL    HW150617   3.182   5.959   4.490 -0.8139  2.6474 -0.6942
16392SOL    HW250618   3.264   5.893   4.381  0.3878  0.2991  1.5171
16393SOL     OW50619   5.999   6.783   3.378  0.3016 -0.2629  0.7840
16393SOL    HW150620   5.911   6.756   3.403  0.3757 -1.7489 -0.4447
16393SOL    HW250621   6.034   6.709   3.328  0.9901  1.5759 -1.6552
16394SOL     OW50622   3.602   7.164   6.835  0.3941 -0.4638  0.5239
16394SOL    HW150623   3.558   7.222   6.898 -0.6983 -0.1567 -0.4911
16394SOL    HW250624   3.684   7.209   6.816 -0.3835  0.7350 -0.1512
16395SOL     OW50625   6.157   6.823   0.945  0.1543  0.0361  0.3919
16395SOL    HW150626   6.215   6.891   0.979  1.8893 -1.3961  0.3946
16395SOL    HW250627   6.211   6.745   0.941 -1.4487 -1.0665 -0.8172
16396SOL     OW50628   4.714   4.917   1.833  0.5211  0.6206 -0.3630
16396SOL    HW150629   4.788   4.937   1.891  0.8942 -1.6023  0.0554
16396SOL    HW250630   4.642   4.896   1.893  0.2249  0.5805 -0.7330
16397SOL     OW50631   4.273   7.063   3.068 -0.1628  0.1066  0.0950
16397SOL    HW150632   4.344   7.001   3.080  0.7598  0.3909 -2.9635
16397SOL    HW250633   4.218   7.023   2.999 -0.5253  1.8335 -0.6660
16398SOL     OW50634   3.315   6.081   3.563 -0.1192  0.3218 -0.3731
16398SOL    HW150635   3.299   6.128   3.645 -0.1187 -0.4958  0.1029
16398SOL    HW250636   3.328   5.990   3.589  0.3185  0.1201 -1.2408
16399SOL     OW50637   3.765   7.720   2.867 -0.2095  0.0164  0.3337
16399SOL    HW150638   3.699   7.769   2.818 -0.1971  0.0304  0.3309
16399SOL    HW250639   3.823   7.787   2.904 -0.0813 -0.0042  0.1710
16400SOL     OW50640   7.852   6.154   4.549 -0.3522 -0.6680 -0.5646
16400SOL    HW150641   7.823   6.194   4.467 -1.0317 -1.4448 -0.7183
16400SOL    HW250642   7.849   6.060   4.532  1.3602 -0.8066 -0.2611
16401SOL     OW50643   3.343   5.904   3.186 -0.3595  0.4442 -0.5987
16401SOL    HW150644   3.420   5.956   3.162  0.4385  1.2535  3.0240
16401SOL    HW250645   3.372   5.852   3.261 -2.4103 -1.9693 -1.3432
16402SOL     OW50646   2.334   6.846   3.208  0.0918  0.1692 -0.3064
16402SOL    HW150647   2.427   6.863   3.220  0.0988 -0.0338 -0.0730
16402SOL    HW250648   2.308   6.904   3.136  0.4796 -0.0535 -0.6265
16403SOL     OW50649   3.192   6.453   0.750 -0.7991 -0.2085  0.2415
16403SOL    HW150650   3.165   6.363   0.736 -1.7503  0.3865 -2.2575
16403SOL    HW250651   3.199   6.491   0.662 -1.4650  2.4378  1.2224
16404SOL     OW50652   4.214   5.747   0.916  0.0610 -0.2947 -0.2956
16404SOL    HW150653   4.252   5.709   0.995  1.0488  0.5511 -0.3328
16404SOL    HW250654   4.236   5.686   0.846  2.7975  0.9095 -0.5867
16405SOL     OW50655   7.091   6.557   3.647  0.5434  0.8620 -0.6376
16405SOL    HW150656   6.997   6.539   3.639  0.8735 -0.8073 -1.1350
16405SOL    HW250657   7.103   6.580   3.739 -0.2098  0.0754 -0.3226
16406SOL     OW50658   4.760   5.230   5.616 -0.2666 -0.0463 -0.1638
16406SOL    HW150659   4.699   5.188   5.556  0.1316 -0.6717 -0.1436
16406SOL    HW250660   4.757   5.176   5.695 -1.1286  1.0324  0.5656
16407SOL     OW50661   3.758   7.273   5.480  0.1870 -0.1019 -0.2824
16407SOL    HW150662   3.828   7.241   5.538  0.9731  0.1916 -1.0450
16407SOL    HW250663   3.791   7.255   5.391 -0.4957  0.4757 -0.6612
16408SOL     OW50664   6.761   5.499   2.863 -0.2025 -0.1867 -0.1302
16408SOL    HW150665   6.753   5.594   2.860  1.6986 -0.0274 -1.5038
16408SOL    HW250666   6.793   5.480   2.952  1.4193  0.6687 -0.5015
16409SOL     OW50667   3.336   5.100   1.022  0.6249 -0.4164 -0.3443
16409SOL    HW150668   3.397   5.147   1.080  0.5741 -0.2417 -0.4320
16409SOL    HW250669   3.371   5.011   1.018  0.8677 -0.3204 -0.3840
16410SOL     OW50670   6.862   5.787   2.243  0.4369  0.1557  0.2955
16410SOL    HW150671   6.882   5.706   2.290  1.0087 -0.0217 -0.2539
16410SOL    HW250672   6.767   5.797   2.253  0.6553  0.6794  2.3923
16411SOL     OW50673   5.120   0.136   4.042  1.1413  0.3998 -0.2728
16411SOL    HW150674   5.109   0.118   3.949  0.0914  0.0972 -0.1035
16411SOL    HW250675   5.108   0.051   4.085  0.8037  0.6694  0.1900
16412SOL     OW50676   5.531   4.694   2.561  0.2356  0.0336 -0.5486
16412SOL    HW150677   5.466   4.638   2.519  0.8352 -0.8138 -0.4007
16412SOL    HW250678   5.575   4.738   2.489 -0.2016  0.2649 -0.6753
16413SOL     OW50679   4.085   7.253   3.895 -0.0761  0.4895 -0.0280
16413SOL    HW150680   4.162   7.227   3.945 -0.0798  1.8031  0.6980
16413SOL    HW250681   4.029   7.297   3.959 -1.4073 -0.3595 -0.5633
16414SOL     OW50682   2.604   4.939   1.713 -0.4685 -0.0005  0.2641
16414SOL    HW150683   2.662   5.008   1.746  0.2956  0.2481 -1.4750
16414SOL    HW250684   2.568   4.975   1.631  1.9492 -2.5215 -2.1428
16415SOL     OW50685   3.859   0.333   4.136 -0.0891  0.1171 -0.9981
16415SOL    HW150686   3.801   0.352   4.063 -0.4292  0.6632 -0.6011
16415SOL    HW250687   3.808   0.357   4.214  0.1575 -0.7315 -0.5670
16416SOL     OW50688   5.419   7.385   4.326  0.3166  0.0665 -0.9891
16416SOL    HW150689   5.371   7.315   4.281  0.4059 -0.2864 -0.5449
16416SOL    HW250690   5.404   7.463   4.273 -0.9173  0.0032 -0.7573
16417SOL     OW50691   3.872   6.703   3.620 -0.0873  0.6062 -0.3305
16417SOL    HW150692   3.844   6.617   3.651 -1.4344  0.3372 -2.0930
16417SOL    HW250693   3.947   6.684   3.563  0.5807  0.7962  0.4590
16418SOL     OW50694   4.136   5.835   2.177  0.7338  0.7609 -0.2548
16418SOL    HW150695   4.068   5.903   2.171  0.1615  0.2602  0.3001
16418SOL    HW250696   4.186   5.859   2.255  1.3754  1.2822 -0.8202
16419SOL     OW50697   4.542   7.207   2.648  0.0807 -0.2764  0.1824
16419SOL    HW150698   4.600   7.177   2.577  2.0967 -1.5887  2.2440
16419SOL    HW250699   4.584   7.287   2.680 -1.3396  0.8457 -0.6282
16420SOL     OW50700   3.011   6.418   2.656 -0.4004  0.0257  0.8423
16420SOL    HW150701   2.956   6.418   2.735  0.1688  0.2374  1.2443
16420SOL    HW250702   2.989   6.335   2.613  0.2327 -0.7396  1.9138
16421SOL     OW50703   2.901   5.846   3.766  0.2343  0.0223 -0.7215
16421SOL    HW150704   2.812   5.845   3.730 -0.0578 -2.3921 -0.1026
16421SOL    HW250705   2.952   5.794   3.704  0.4380 -1.4193  0.6030
16422SOL     OW50706   3.232   5.831   1.455  0.7868 -0.1292  0.0237
16422SOL    HW150707   3.227   5.855   1.362  0.6326  0.2513  0.1278
16422SOL    HW250708   3.196   5.907   1.501 -2.3834 -1.5672  0.2426
16423SOL     OW50709   4.304   0.158   1.937  0.2396  0.6820  0.2653
16423SOL    HW150710   4.257   0.185   1.859 -1.7451 -1.8567  0.4600
16423SOL    HW250711   4.385   0.119   1.904  0.1232  1.0155 -0.4170
16424SOL     OW50712   2.293   7.410   3.263 -0.1618  0.6394  0.3979
16424SOL    HW150713   2.281   7.337   3.324  1.6212  0.0770  0.1231
16424SOL    HW250714   2.204   7.436   3.240 -0.8713  0.2024  2.4316
16425SOL     OW50715   5.129   7.180   3.278 -0.0178  0.1603  0.1481
16425SOL    HW150716   5.174   7.095   3.277 -1.2034 -0.5110  0.9777
16425SOL    HW250717   5.164   7.225   3.354 -1.1479 -0.6317  1.1907
16426SOL     OW50718   4.852   7.826   4.588 -0.3854  0.3914  0.1487
16426SOL    HW150719   4.792   7.760   4.553 -0.0439 -0.0239  0.3401
16426SOL    HW250720   4.828   7.833   4.681  0.9166 -0.9733  0.6287
16427SOL     OW50721   4.138   6.857   2.877  0.5203 -0.5714  0.1682
16427SOL    HW150722   4.192   6.779   2.868 -1.6019 -2.1356  0.2042
16427SOL    HW250723   4.086   6.842   2.956  0.4770  1.1728  0.5227
16428SOL     OW50724   4.136   6.424   2.633 -0.5063 -0.4768  0.5157
16428SOL    HW150725   4.108   6.483   2.563 -2.8818 -0.3389  1.4925
16428SOL    HW250726   4.186   6.355   2.588  0.8632  1.3052 -0.8543
16429SOL     OW50727   5.590   5.781   3.970  0.1440  0.2594 -0.3081
16429SOL    HW150728   5.663   5.719   3.972  0.2682  0.4091 -0.1998
16429SOL    HW250729   5.512   5.726   3.961 -0.0234 -0.1210  2.6683
16430SOL     OW50730   3.870   7.466   2.910  0.3436  0.6165  0.0993
16430SOL    HW150731   3.841   7.550   2.874  1.9277  1.1062 -0.1518
16430SOL    HW250732   3.959   7.484   2.942  0.4425 -0.7975  0.6766
16431SOL     OW50733   3.831   7.527   2.504  0.1539  0.1416  0.6369
16431SOL    HW150734   3.781   7.452   2.535 -1.1535  1.1294  1.0297
16431SOL    HW250735   3.922   7.501   2.515 -0.1508 -2.3556 -1.6141
16432SOL     OW50736   3.339   6.885   5.229  0.2418 -0.7454  0.1787
16432SOL    HW150737   3.380   6.799   5.225 -0.3153 -1.0349  0.5908
16432SOL    HW250738   3.408   6.946   5.203  1.3250 -1.0885  2.1187
16433SOL     OW50739   4.429   7.310   3.350  0.5529  0.3456  0.6022
16433SOL    HW150740   4.473   7.260   3.419 -0.5143 -0.4619  0.7308
16433SOL    HW250741   4.477   7.288   3.270  0.5864 -0.2687  0.7878
16434SOL     OW50742   2.858   5.023   2.370 -0.4827 -0.1225  0.2119
16434SOL    HW150743   2.771   5.011   2.331 -0.3815 -0.3805  0.0656
16434SOL    HW250744   2.917   4.977   2.310 -0.1220  0.8962 -0.2416
16435SOL     OW50745   2.925   6.983   3.897 -0.0973  0.2431  0.4742
16435SOL    HW150746   2.898   6.895   3.872  2.3657 -0.5148  0.2495
16435SOL    HW250747   2.852   7.016   3.950 -2.3723 -0.7623 -1.8294
16436SOL     OW50748   5.588   6.126   5.129 -0.4165 -0.1928 -0.0959
16436SOL    HW150749   5.597   6.067   5.204 -3.0260  1.7564  1.9314
16436SOL    HW250750   5.578   6.213   5.167 -0.8888  1.0400 -2.7692
16437SOL     OW50751   5.202   6.527   3.094  0.1965 -0.0597  0.2805
16437SOL    HW150752   5.263   6.569   3.154 -1.4613  0.5569  1.5889
16437SOL    HW250753   5.200   6.435   3.122 -1.3929  0.4358  1.9581
16438SOL     OW50754   4.709   3.948   2.755 -0.5034 -0.3792  0.4216
16438SOL    HW150755   4.698   4.026   2.809  1.0752  0.1298  0.0519
16438SOL    HW250756   4.673   3.877   2.808  0.7024  0.1592  2.0407
16439SOL     OW50757   3.846   6.291   1.168  0.1242 -0.0659 -0.1934
16439SOL    HW150758   3.914   6.226   1.149 -1.9451 -1.5939 -3.1506
16439SOL    HW250759   3.775   6.240   1.208  0.5996  1.5163  2.9497
16440SOL     OW50760   6.386   5.898   3.990  0.0019  0.2452 -0.2949
16440SOL    HW150761   6.481   5.900   3.982 -0.0717  1.9434 -1.2102
16440SOL    HW250762   6.370   5.859   4.076  1.4626 -1.1810 -0.6185
16441SOL     OW50763   4.111   6.606   4.217 -0.4468 -0.2464 -0.3184
16441SOL    HW150764   4.120   6.656   4.298 -0.9135  1.3566 -1.2024
16441SOL    HW250765   4.048   6.656   4.165 -0.9117 -1.7675 -1.2757
16442SOL     OW50766   4.523   7.475   5.900 -0.6004  0.0629  0.6224
16442SOL    HW150767   4.504   7.550   5.956 -1.7635  0.4791 -0.2960
16442SOL    HW250768   4.521   7.400   5.959 -1.7695  0.4946  1.1717
16443SOL     OW50769   4.819   6.636   1.885 -0.4803  0.2776 -0.5037
16443SOL    HW150770   4.799   6.718   1.931 -2.1416 -0.7628  0.7420
16443SOL    HW250771   4.857   6.664   1.802 -0.0170  2.2871  0.3239
16444SOL     OW50772   2.568   6.296  12.230  0.5669  0.2948 -0.1588
16444SOL    HW150773   2.560   6.225  12.167  0.5308  0.7061 -0.6270
16444SOL    HW250774   2.500   6.358  12.206 -0.4237 -0.2123  1.2095
16445SOL     OW50775   5.708   6.974   3.629  0.4201  0.2592 -0.2205
16445SOL    HW150776   5.783   7.019   3.591  2.7211 -0.5676  2.8933
16445SOL    HW250777   5.746   6.917   3.697 -2.9276 -1.2671  0.5880
16446SOL     OW50778   3.059   5.489  12.231 -0.4235 -0.0988 -0.3751
16446SOL    HW150779   3.027   5.444  12.153  0.7085 -1.9288  0.1608
16446SOL    HW250780   3.140   5.443  12.254 -0.5644  0.5860  1.6863
16447SOL     OW50781   5.320   5.767   3.350 -0.7882 -0.4535  0.9392
16447SOL    HW150782   5.386   5.741   3.286 -2.0501 -1.8227  0.1329
16447SOL    HW250783   5.304   5.860   3.332  0.8741 -0.0922  1.1507
16448SOL     OW50784   3.868   6.856   1.886 -0.5141 -0.4851  0.0712
16448SOL    HW150785   3.924   6.845   1.809 -0.3723  0.9599 -0.0466
16448SOL    HW250786   3.875   6.948   1.908 -1.8866 -0.5313  0.8027
16449SOL     OW50787   4.101   7.671   3.907  0.2411 -0.1414 -0.6839
16449SOL    HW150788   4.043   7.738   3.943  0.5401 -0.4128  0.3703
16449SOL    HW250789   4.043   7.601   3.877 -0.1119  0.8284 -2.3874
16450SOL     OW50790   3.563   5.933   2.226 -0.4521 -0.1755 -0.2013
16450SOL    HW150791   3.561   6.010   2.284 -1.4969  0.9028 -1.6024
16450SOL    HW250792   3.508   5.869   2.271  1.1858 -0.5227  1.4520
16451SOL     OW50793   6.163   0.529   5.452 -0.5920 -0.1692  0.1361
16451SOL    HW150794   6.194   0.590   5.519  0.1491  0.7085 -0.9794
16451SOL    HW250795   6.120   0.584   5.387 -0.4166 -0.8978 -0.6122
16452SOL     OW50796   4.042   7.895   2.029  0.1643  0.1418 -0.1875
16452SOL    HW150797   4.012   7.883   1.939  0.3020  0.7111 -0.3128
16452SOL    HW250798   3.966   7.931   2.075 -0.2712 -1.2349  0.2038
16453SOL     OW50799   5.953   7.021   3.537  0.4065 -0.0740  0.5949
16453SOL    HW150800   5.961   6.978   3.451 -1.9411  1.3220 -0.4000
16453SOL    HW250801   5.946   7.114   3.517 -0.2401  0.2814  2.3239
16454SOL     OW50802   3.462   5.817   1.945  0.0676 -0.9502  0.2846
16454SOL    HW150803   3.386   5.757   1.943  0.0725 -0.9786  0.8227
16454SOL    HW250804   3.430   5.894   1.992 -0.1461 -0.2247 -1.0009
16455SOL     OW50805   3.650   5.523   1.384  0.0927 -0.0503 -0.1894
16455SOL    HW150806   3.655   5.466   1.461  1.4701  0.6517  0.2673
16455SOL    HW250807   3.586   5.590   1.408 -0.2264 -0.3986 -0.0500
16456SOL     OW50808   6.871   5.353   3.695 -0.3449  0.1184  0.0937
16456SOL    HW150809   6.801   5.417   3.680  0.3074  0.6414 -0.8139
16456SOL    HW250810   6.932   5.398   3.753 -0.8607 -0.4299  1.0905
16457SOL     OW50811   6.765   6.717   3.890  0.3569  0.0414 -0.4756
16457SOL    HW150812   6.755   6.741   3.798  0.0153  2.2294  0.0802
16457SOL    HW250813   6.747   6.798   3.938 -1.6823 -1.5353  1.6532
16458SOL     OW50814   4.393   5.827   1.677 -0.0625 -0.7341 -0.1676
16458SOL    HW150815   4.344   5.864   1.604 -0.1810 -0.9914 -0.2204
16458SOL    HW250816   4.326   5.788   1.734 -0.0290 -0.0143  0.3890
16459SOL     OW50817   4.402   7.478   1.091 -0.0341 -0.5128 -0.4808
16459SOL    HW150818   4.404   7.388   1.123  0.9194 -0.4470 -0.3431
16459SOL    HW250819   4.326   7.517   1.135 -0.0601 -1.0586 -0.0349
16460SOL     OW50820   2.328   6.695   2.936 -0.5628 -0.1724  0.0908
16460SOL    HW150821   2.289   6.728   2.855 -0.3103  0.8105  0.3576
16460SOL    HW250822   2.254   6.687   2.997 -0.3949  1.8917  0.6656
16461SOL     OW50823   6.148   6.605   0.331 -0.1505 -0.0489 -0.5689
16461SOL    HW150824   6.105   6.675   0.282  0.4933 -0.9108 -2.4764
16461SOL    HW250825   6.085   6.533   0.329 -0.2968  0.0452  0.2874
16462SOL     OW50826   6.387   6.887   3.331  0.0639  0.2586 -0.4703
16462SOL    HW150827   6.478   6.859   3.344  0.3537  1.5321  0.4862
16462SOL    HW250828   6.343   6.863   3.412  0.1022  1.6067 -0.0119
16463SOL     OW50829   3.476   4.534   2.584  0.1667  0.0211  0.0092
16463SOL    HW150830   3.515   4.449   2.565  0.4547  0.0119  0.6101
16463SOL    HW250831   3.450   4.528   2.676 -0.5758  0.2921 -0.1734
16464SOL     OW50832   2.884   7.536   2.923  0.6052  0.3059  0.2537
16464SOL    HW150833   2.938   7.584   2.860  1.6177 -1.6227 -0.4066
16464SOL    HW250834   2.918   7.447   2.922 -1.4268 -0.5503  1.2014
16465SOL     OW50835   3.808   7.519   3.446  0.3961 -0.0809 -0.2018
16465SOL    HW150836   3.766   7.493   3.527  1.7838  0.8203  0.8611
16465SOL    HW250837   3.845   7.439   3.410  0.7825 -0.3179  0.6938
16466SOL     OW50838   4.745   4.353   1.744 -0.3774 -0.3500 -0.2612
16466SOL    HW150839   4.671   4.316   1.695 -0.6985  1.1046 -0.9265
16466SOL    HW250840   4.818   4.349   1.683 -0.4576  0.2695 -0.3993
16467SOL     OW50841   3.901   4.125   3.802 -0.2540 -0.4191 -0.1083
16467SOL    HW150842   3.924   4.182   3.874  0.9160  1.6456 -2.0020
16467SOL    HW250843   3.983   4.082   3.778 -0.5465 -0.7839 -0.4692
16468SOL     OW50844   4.536   7.000   3.680  0.2258 -0.0759  0.1851
16468SOL    HW150845   4.625   7.007   3.645  0.3725  0.1305  0.5829
16468SOL    HW250846   4.521   7.085   3.723 -1.0973  0.8661 -1.9906
16469SOL     OW50847   3.480   6.187   3.831 -0.1588  0.4294  0.1806
16469SOL    HW150848   3.474   6.281   3.818  1.1408  0.6913  1.2770
16469SOL    HW250849   3.450   6.172   3.921 -2.8234 -0.5534 -0.7804
16470SOL     OW50850   2.198   5.653   1.135  0.3210 -0.0079  0.0363
16470SOL    HW150851   2.119   5.701   1.113 -0.0716  0.1059  1.5880
16470SOL    HW250852   2.239   5.704   1.205  1.3062 -0.5285 -0.1428
16471SOL     OW50853   4.205   6.047   3.789 -0.1339 -0.0471 -0.0964
16471SOL    HW150854   4.173   5.963   3.821  0.0171  0.6302  1.9736
16471SOL    HW250855   4.244   6.089   3.865 -1.7196  2.6293 -0.6023
16472SOL     OW50856   5.332   4.599   1.169  0.3332  0.2843  0.4538
16472SOL    HW150857   5.252   4.599   1.117  0.5510 -2.2179 -0.0226
16472SOL    HW250858   5.302   4.586   1.259  0.1710 -0.3482  0.3135
16473SOL     OW50859   3.316   5.550   0.857  0.1772 -0.1738 -0.3889
16473SOL    HW150860   3.272   5.467   0.874  1.4430 -1.0481 -1.1894
16473SOL    HW250861   3.279   5.579   0.773 -0.5273  0.2662  0.0673
16474SOL     OW50862   3.150   6.574   2.451 -0.9979  0.3412  0.2855
16474SOL    HW150863   3.076   6.515   2.466 -0.5038 -0.0447  1.3071
16474SOL    HW250864   3.185   6.592   2.538 -1.1830  2.2360  0.0112
16475SOL     OW50865   5.375   5.718   1.095  0.2304 -0.3415 -0.1735
16475SOL    HW150866   5.446   5.655   1.104 -1.0591 -1.7285  0.7862
16475SOL    HW250867   5.353   5.717   1.002  1.6678  0.3772 -0.5466
16476SOL     OW50868   4.591   4.594   2.590 -0.4565 -0.1401 -0.1023
16476SOL    HW150869   4.530   4.662   2.620 -0.3120 -0.2359  0.4141
16476SOL    HW250870   4.542   4.547   2.522 -0.4733  0.6220 -0.6278
16477SOL     OW50871   6.223   0.641   1.482 -0.1597  0.2675  0.3646
16477SOL    HW150872   6.299   0.582   1.486 -0.5431 -0.2926 -0.3487
16477SOL    HW250873   6.205   0.650   1.388 -1.7428 -0.6204  0.5474
16478SOL     OW50874   3.734   5.596   0.434 -0.2653 -0.3800  0.3456
16478SOL    HW150875   3.808   5.625   0.380 -2.1768  3.5380 -0.5645
16478SOL    HW250876   3.762   5.613   0.523  0.2655  0.2067  0.0772
16479SOL     OW50877   4.807   5.850   2.866  0.2536 -0.4808 -0.2811
16479SOL    HW150878   4.851   5.925   2.906 -1.6592  0.1706  0.7652
16479SOL    HW250879   4.821   5.861   2.772 -0.2614  1.4092 -0.1762
16480SOL     OW50880   2.446   5.110   4.480 -0.1878 -0.4294 -0.0930
16480SOL    HW150881   2.461   5.044   4.413  0.9234  1.2736 -1.6338
16480SOL    HW250882   2.526   5.108   4.533  0.1083  0.0657 -0.5129
16481SOL     OW50883   3.514   6.073   5.304  0.3496 -0.0422 -0.0467
16481SOL    HW150884   3.434   6.046   5.350  0.0635 -0.0529 -0.5391
16481SOL    HW250885   3.482   6.120   5.227  0.8151 -0.3782 -0.4471
16482SOL     OW50886   4.229   7.915   3.133 -0.4591  0.6291 -0.3166
16482SOL    HW150887   4.321   7.893   3.120 -1.1066 -1.1065 -2.7822
16482SOL    HW250888   4.209   7.886   3.221  1.2060  0.5144  0.0586
16483SOL     OW50889   4.139   7.340   5.235  0.0163 -0.4509 -0.3671
16483SOL    HW150890   4.123   7.397   5.160  0.3031 -3.0629 -2.6050
16483SOL    HW250891   4.124   7.395   5.311 -1.2493  2.1232 -2.3207
16484SOL     OW50892   4.136   7.205   4.784  0.5902 -0.0159 -0.3067
16484SOL    HW150893   4.177   7.118   4.782 -0.5213 -0.5847  0.3915
16484SOL    HW250894   4.087   7.211   4.702  1.5577  0.4228 -0.8684
16485SOL     OW50895   5.417   6.684   3.196 -0.5899 -0.3693  0.0768
16485SOL    HW150896   5.477   6.715   3.264 -0.9260  1.7064 -0.4876
16485SOL    HW250897   5.391   6.764   3.149 -2.7203 -1.3512 -0.5557
16486SOL     OW50898   4.965   6.062   3.274 -0.8366 -0.0366 -0.2472
16486SOL    HW150899   4.893   6.062   3.336 -0.2221  0.8354  0.4865
16486SOL    HW250900   5.007   6.148   3.284  0.6355 -0.7097 -0.2449
16487SOL     OW50901   1.858   5.920   4.878  0.4268 -0.4585  0.2067
16487SOL    HW150902   1.794   5.891   4.943  0.0220  0.6889  0.3391
16487SOL    HW250903   1.916   5.978   4.926  0.4320 -0.0084 -0.3391
16488SOL     OW50904   4.170   5.021   4.987  0.4084 -0.1921  0.0732
16488SOL    HW150905   4.085   5.057   5.016  0.3856  0.1570 -0.4201
16488SOL    HW250906   4.155   4.926   4.982  0.2021 -0.1862  0.5022
16489SOL     OW50907   3.487   6.407   2.664  0.2396 -0.1680  0.0104
16489SOL    HW150908   3.415   6.345   2.680  1.9262 -2.1640  0.2286
16489SOL    HW250909   3.559   6.375   2.718  0.7356  2.9911  1.4519
16490SOL     OW50910   3.728   6.426   6.528 -0.1037  0.5389  0.0984
16490SOL    HW150911   3.758   6.408   6.439 -1.8011  0.0905 -0.4030
16490SOL    HW250912   3.739   6.343   6.574  1.9630  1.0813  0.7145
16491SOL     OW50913   3.243   6.681   5.903  0.5449 -0.7450 -0.2562
16491SOL    HW150914   3.328   6.724   5.909  1.5101 -2.5849 -0.2697
16491SOL    HW250915   3.180   6.749   5.929  2.1078  0.2967  0.9635
16492SOL     OW50916   5.082   5.678   4.462 -0.5980  0.1107  0.6195
16492SOL    HW150917   5.111   5.658   4.551 -1.3875 -0.4399  0.7648
16492SOL    HW250918   5.011   5.616   4.445  0.5581 -0.8552 -0.9752
16493SOL     OW50919   3.915   6.753   4.053  0.3695  0.1757 -0.4319
16493SOL    HW150920   3.942   6.760   3.961  2.2385  0.0074  0.0712
16493SOL    HW250921   3.892   6.842   4.078 -3.8671 -0.2227 -2.0328
16494SOL     OW50922   5.046   6.622   4.384 -0.4699 -0.1408 -0.0106
16494SOL    HW150923   5.112   6.621   4.314  1.5842  2.3167  1.7223
16494SOL    HW250924   4.979   6.683   4.353 -0.6044 -0.5852 -0.6296
16495SOL     OW50925   4.119   7.148   3.262  0.2932 -0.1528  0.3079
16495SOL    HW150926   4.154   7.235   3.282  1.1081 -0.6038  0.9321
16495SOL    HW250927   4.163   7.122   3.182 -0.4323  0.2601 -0.2390
16496SOL     OW50928   3.994   5.865   4.256 -0.4850  0.1333  0.3411
16496SOL    HW150929   3.938   5.877   4.332 -1.4357 -0.9328 -0.1551
16496SOL    HW250930   3.938   5.821   4.192  0.7027 -0.2998 -0.4340
16497SOL     OW50931   2.108   6.961   5.881  0.3455 -0.0302 -0.1442
16497SOL    HW150932   2.050   6.918   5.817 -1.8544  1.4272  0.7560
16497SOL    HW250933   2.164   6.890   5.913 -1.2883 -1.6598 -0.6897
16498SOL     OW50934   2.771   7.111   6.224 -0.1075  0.3188  0.4484
16498SOL    HW150935   2.731   7.183   6.273  0.7623  1.6936 -0.8081
16498SOL    HW250936   2.758   7.133   6.132  0.6403 -0.8726  0.0263
16499SOL     OW50937   4.705   0.655   5.122 -0.1450 -0.1809 -0.1752
16499SOL    HW150938   4.677   0.639   5.032 -2.6476 -1.0347  0.6891
16499SOL    HW250939   4.733   0.569   5.154 -1.9347 -0.4798  0.6856
16500SOL     OW50940   3.512   6.655   5.186  0.0002 -0.4222 -0.3758
16500SOL    HW150941   3.579   6.601   5.144  1.7845  1.9957 -0.9092
16500SOL    HW250942   3.542   6.664   5.277  0.1109  0.1887 -0.4648
16501SOL     OW50943   5.545   7.308   5.612  0.5142  0.1634 -0.1562
16501SOL    HW150944   5.501   7.387   5.580  0.0097 -0.7029 -1.6831
16501SOL    HW250945   5.622   7.299   5.557  0.6947 -0.2823  0.1660
16502SOL     OW50946   5.070   7.078   3.645 -0.2731  0.0769  0.0854
16502SOL    HW150947   5.101   7.099   3.557 -3.7953 -1.3172 -1.6654
16502SOL    HW250948   5.136   7.017   3.679  2.4807  2.5446 -0.4510
16503SOL     OW50949   4.750   6.930   6.210 -0.0282  0.4734  0.6121
16503SOL    HW150950   4.788   6.848   6.180 -0.7115 -0.3277  1.8399
16503SOL    HW250951   4.772   6.994   6.142 -1.7253 -1.2680 -1.7480
16504SOL     OW50952   4.498   0.163   4.071  0.1211  0.2377 -0.2481
16504SOL    HW150953   4.529   0.253   4.063 -1.0421  0.6706 -0.0674
16504SOL    HW250954   4.439   0.165   4.147  1.6881 -1.1413  1.0933
16505SOL     OW50955   4.993   5.939   3.622  0.1134 -0.1887  0.1663
16505SOL    HW150956   4.973   5.850   3.593 -0.4249 -0.5487  1.5720
16505SOL    HW250957   4.918   5.991   3.593  0.1545 -0.2949 -0.1411
16506SOL     OW50958   5.000   7.201   4.972  0.5049  0.1217  0.2283
16506SOL    HW150959   5.007   7.280   4.919  1.9821  0.0117  0.2250
16506SOL    HW250960   4.946   7.227   5.047  2.3945  1.6577  1.1376
16507SOL     OW50961   5.022   5.842   4.786  0.2268 -0.4068  0.1527
16507SOL    HW150962   4.929   5.825   4.772 -0.1459  1.5597 -0.0375
16507SOL    HW250963   5.026   5.892   4.867  1.0534  0.0659 -0.1619
16508SOL     OW50964   3.485   7.505   3.285  0.0057  0.5317  0.0243
16508SOL    HW150965   3.501   7.423   3.332  0.4313  0.1125 -0.8288
16508SOL    HW250966   3.548   7.503   3.213 -1.0070  0.8996 -0.8863
16509SOL     OW50967   2.940   5.896   5.923  0.2825 -0.2032 -0.5327
16509SOL    HW150968   2.939   5.806   5.956 -2.0184  0.1701  0.5881
16509SOL    HW250969   2.887   5.893   5.843 -0.7920  0.3620  0.1513
16510SOL     OW50970   3.899   4.112   3.217  0.7410  0.1610  0.4453
16510SOL    HW150971   3.932   4.120   3.307  1.0067  0.7448  0.3025
16510SOL    HW250972   3.860   4.025   3.214  1.3703 -0.1474  0.9183
16511SOL     OW50973   4.637   5.998   6.215 -0.3107  0.4336 -0.3636
16511SOL    HW150974   4.556   5.947   6.217  0.4098 -0.7395  0.3853
16511SOL    HW250975   4.669   5.996   6.305  0.6798  0.6458 -0.6963
16512SOL     OW50976   6.084   5.650   4.576  0.4386 -0.4400  0.6285
16512SOL    HW150977   6.043   5.737   4.580 -2.2935 -1.4805 -1.6622
16512SOL    HW250978   6.048   5.603   4.651  0.7317 -0.0884  0.9967
16513SOL     OW50979   5.036   0.338   5.009 -0.4296  0.3727  0.6962
16513SOL    HW150980   5.032   0.424   5.052  4.7834  0.3156  1.9877
16513SOL    HW250981   5.054   0.359   4.917  0.5161  0.7600  0.9498
16514SOL     OW50982   3.969   5.424   7.311  0.2179 -0.1450 -0.5396
16514SOL    HW150983   4.049   5.433   7.260 -0.2511  2.5741 -0.9571
16514SOL    HW250984   3.900   5.457   7.253 -0.5393  1.6240  1.2329
16515SOL     OW50985   4.657   7.904   3.290 -0.0526 -0.3095 -0.5595
16515SOL    HW150986   4.722   7.974   3.293  0.2854 -0.6152 -0.7355
16515SOL    HW250987   4.603   7.917   3.368 -0.4867  0.6240 -0.9888
16516SOL     OW50988   4.145   5.848   5.470  0.0936 -0.1410 -0.2652
16516SOL    HW150989   4.081   5.789   5.510  1.1993 -1.6683 -0.6592
16516SOL    HW250990   4.169   5.908   5.540 -1.9674  0.6964 -0.1912
16517SOL     OW50991   3.504   6.689   3.783 -0.3084 -0.0594 -0.1195
16517SOL    HW150992   3.526   6.736   3.863 -0.4222 -2.3337  1.3355
16517SOL    HW250993   3.589   6.669   3.743 -0.2745  2.0408 -1.2487
16518SOL     OW50994   5.062   5.937   3.866  0.0521 -0.4085  0.2925
16518SOL    HW150995   5.036   5.920   3.775 -0.5672 -1.5652  0.6731
16518SOL    HW250996   5.156   5.952   3.862 -0.0338 -0.0578 -0.5881
16519SOL     OW50997   4.733   6.334   3.730  0.3815  0.0233  0.3086
16519SOL    HW150998   4.816   6.291   3.709 -0.0739  0.5685 -3.1077
16519SOL    HW250999   4.753   6.427   3.723 -0.1036  0.2447  1.5411
16520SOL     OW51000   4.210   6.694   4.465  0.4564  0.2110  0.3040
16520SOL    HW151001   4.300   6.722   4.450  0.1386  1.2519  0.3032
16520SOL    HW251002   4.214   6.645   4.548  1.0062  0.2772  0.3192
16521SOL     OW51003   5.593   6.501   5.664  0.3440  0.3504  0.0998
16521SOL    HW151004   5.503   6.496   5.632 -0.8493 -0.2307  3.1532
16521SOL    HW251005   5.608   6.594   5.681  1.4673  0.8495 -3.0838
16522SOL     OW51006   5.347   0.312   5.254  0.5202 -0.7224  0.3008
16522SOL    HW151007   5.436   0.319   5.220  0.6049 -1.4286  0.3564
16522SOL    HW251008   5.323   0.220   5.239  0.2020 -0.8067  1.2531
16523SOL     OW51009   3.294   5.618   2.785 -0.1170  0.1559 -0.2396
16523SOL    HW151010   3.230   5.681   2.751  0.4092  0.3165 -0.9660
16523SOL    HW251011   3.293   5.630   2.880 -1.3983 -0.0738 -0.2133
16524SOL     OW51012   4.014   6.928   3.821 -0.0714 -0.2476 -0.2878
16524SOL    HW151013   3.944   6.954   3.881  0.4787  0.6860 -0.0293
16524SOL    HW251014   4.013   6.995   3.752  1.1878  0.3534  0.2434
16525SOL     OW51015   4.248   7.911   4.164  0.2938 -0.2536  0.1572
16525SOL    HW151016   4.184   7.854   4.122 -0.4874  1.0465 -0.4784
16525SOL    HW251017   4.202   7.993   4.178  0.9707 -0.1907  2.3234
16526SOL     OW51018   4.262   6.843   6.281  0.2337 -0.0367 -0.0016
16526SOL    HW151019   4.333   6.833   6.218  1.2877  1.4522  0.8732
16526SOL    HW251020   4.188   6.876   6.230  0.7046  0.0195 -0.6441
16527SOL     OW51021   6.221   0.049   2.979 -0.0054 -0.1615 -0.1569
16527SOL    HW151022   6.290   0.113   2.962 -0.7192  0.2419 -1.7779
16527SOL    HW251023   6.267  -0.034   2.988  0.9040  0.4926  1.5841
16528SOL     OW51024   5.131   5.322   6.140  0.2965  0.0630  0.7498
16528SOL    HW151025   5.096   5.296   6.055  0.2162 -0.4992  0.9519
16528SOL    HW251026   5.064   5.296   6.203  0.0004  1.2114  0.9175
16529SOL     OW51027   5.366   6.669   3.825  0.2264 -0.1082 -0.1810
16529SOL    HW151028   5.356   6.625   3.741  0.0742  0.5710 -0.5214
16529SOL    HW251029   5.277   6.678   3.859  0.1903  0.4974 -0.4122
16530SOL     OW51030   5.560   6.219   4.590  0.6331 -0.3976 -0.1456
16530SOL    HW151031   5.495   6.289   4.581  0.4844 -0.3140  1.3941
16530SOL    HW251032   5.536   6.156   4.522  0.4438  0.7622 -1.2095
16531SOL     OW51033   4.351   0.789   6.982 -0.2742 -0.0301  0.4859
16531SOL    HW151034   4.296   0.852   7.028  0.3693 -0.1901  1.5016
16531SOL    HW251035   4.369   0.722   7.047 -2.1364 -2.0768 -0.9674
16532SOL     OW51036   6.429   7.147   5.910  0.1819 -0.7572  0.0736
16532SOL    HW151037   6.350   7.138   5.963  0.4576 -0.4655  0.5455
16532SOL    HW251038   6.416   7.087   5.837 -0.7923 -0.1905 -0.2370
16533SOL     OW51039   7.435   4.947   4.503 -0.3951  0.3364 -0.2157
16533SOL    HW151040   7.462   5.026   4.456  1.7293  0.1188  0.5431
16533SOL    HW251041   7.388   4.896   4.438 -0.0924  1.3548 -1.2731
16534SOL     OW51042   4.214   6.025   4.358 -0.4819  0.2794 -0.3065
16534SOL    HW151043   4.141   5.967   4.339  0.8308 -1.6216  0.1641
16534SOL    HW251044   4.192   6.066   4.442 -0.9559 -0.3463 -0.1235
16535SOL     OW51045   3.584   5.695   3.088 -0.7928  0.4008 -0.2583
16535SOL    HW151046   3.619   5.703   3.176 -1.7943  2.7757 -0.0045
16535SOL    HW251047   3.498   5.655   3.100 -0.5567 -0.1144 -0.2659
16536SOL     OW51048   5.615   0.299   5.164 -0.1838  0.6257 -0.1475
16536SOL    HW151049   5.680   0.323   5.230 -1.9373  0.6328  1.6683
16536SOL    HW251050   5.614   0.203   5.166 -1.5708  0.6256  1.3016
16537SOL     OW51051   3.002   6.558   4.690  0.4202 -0.2514 -0.6355
16537SOL    HW151052   2.930   6.616   4.666  1.0230 -0.4326 -3.0667
16537SOL    HW251053   3.077   6.617   4.702 -0.1836  0.0361  2.6980
16538SOL     OW51054   4.791   6.144   4.596  0.0946  0.2158  0.1242
16538SOL    HW151055   4.745   6.072   4.640 -0.5104  0.3154 -0.3294
16538SOL    HW251056   4.792   6.118   4.504 -2.3499  1.9033 -0.4595
16539SOL     OW51057   4.115   5.336   4.555  0.2001  0.1972 -0.1187
16539SOL    HW151058   4.052   5.283   4.604 -0.3329  0.4993 -0.4566
16539SOL    HW251059   4.180   5.363   4.620 -0.7382  0.9641  0.5237
16540SOL     OW51060   5.561   6.499   5.025 -0.0735 -0.1959  0.0077
16540SOL    HW151061   5.481   6.499   4.972  0.2391  1.8846 -0.5205
16540SOL    HW251062   5.553   6.576   5.081  0.6308 -1.1392  1.4507
16541SOL     OW51063   4.191   0.823   5.005  0.0465  0.5506  0.0591
16541SOL    HW151064   4.273   0.794   5.046 -0.7221 -1.7147  0.0989
16541SOL    HW251065   4.199   0.919   5.002  2.4178  0.4428  0.6208
16542SOL     OW51066   5.862   5.835   3.253  0.6687 -0.5280 -0.0455
16542SOL    HW151067   5.793   5.779   3.287 -0.0398 -0.0367 -0.6481
16542SOL    HW251068   5.819   5.918   3.235  1.7706  0.3563  1.1863
16543SOL     OW51069   3.020   6.629   6.220  0.1031 -0.5257 -0.4112
16543SOL    HW151070   2.955   6.623   6.290  0.3101 -0.3258 -0.2014
16543SOL    HW251071   3.047   6.539   6.205 -0.1733 -0.6024 -0.4525
16544SOL     OW51072   4.146   6.267   5.773  0.2359 -0.1726  0.1688
16544SOL    HW151073   4.055   6.273   5.744 -0.1602  1.9624  1.5973
16544SOL    HW251074   4.197   6.298   5.699 -0.3187  0.0478 -0.1318
16545SOL     OW51075   2.480   4.993   3.976 -0.0692 -0.4902 -0.0399
16545SOL    HW151076   2.523   4.908   3.965  2.0513  0.1301  2.3878
16545SOL    HW251077   2.408   4.975   4.037 -1.9665 -1.0898 -2.2947
16546SOL     OW51078   4.749   6.453   4.549  0.4935  0.2839  0.0409
16546SOL    HW151079   4.711   6.377   4.593  0.4238  1.6007  2.3914
16546SOL    HW251080   4.844   6.443   4.562  0.5658  0.0859 -0.5838
16547SOL     OW51081   6.869   6.608   1.884  0.3561  0.5497  0.1747
16547SOL    HW151082   6.937   6.606   1.817  0.2474 -0.9350  0.0804
16547SOL    HW251083   6.799   6.553   1.850 -0.0641  0.4702  1.1319
16548SOL     OW51084   4.533   6.537   4.774  0.0496 -0.5500 -0.5407
16548SOL    HW151085   4.579   6.484   4.840 -3.0647 -1.2422  1.2740
16548SOL    HW251086   4.486   6.473   4.721  0.4772  0.1647 -1.8119
16549SOL     OW51087   4.187   6.200   4.571  0.2452  0.2834 -0.1193
16549SOL    HW151088   4.156   6.194   4.661  0.6636  0.6706  0.0562
16549SOL    HW251089   4.186   6.294   4.552  0.9910  0.2792 -0.2152
16550SOL     OW51090   4.009   5.432   4.917  0.3312 -0.2210  0.4498
16550SOL    HW151091   3.991   5.470   4.831  3.1780  0.4508  0.0679
16550SOL    HW251092   4.096   5.394   4.909  0.2795 -0.9873  2.7970
16551SOL     OW51093   3.741   6.139   4.142 -0.1190 -1.0214  0.5884
16551SOL    HW151094   3.663   6.110   4.191 -1.0751 -1.3433 -1.0517
16551SOL    HW251095   3.758   6.068   4.080  0.9219 -0.5252  0.2805
16552SOL     OW51096   3.706   5.091   3.196  0.4033  0.2426 -0.2043
16552SOL    HW151097   3.715   5.087   3.291  0.7017 -0.0880 -0.2445
16552SOL    HW251098   3.779   5.146   3.167  0.2780  0.3922 -0.2370
16553SOL     OW51099   3.943   4.688   2.053 -0.2777 -0.3823  0.5029
16553SOL    HW151100   3.851   4.689   2.079 -0.6502  0.4427 -0.7846
16553SOL    HW251101   3.981   4.616   2.104 -1.7042 -0.9701  0.7985
16554SOL     OW51102   4.714   1.286   3.972 -0.3265 -0.0828  0.0254
16554SOL    HW151103   4.673   1.275   3.886 -1.1409  0.9237  0.2595
16554SOL    HW251104   4.799   1.242   3.964 -0.8468 -0.9616 -0.9363
16555SOL     OW51105   1.431   5.048   0.934  0.1599 -0.5082 -0.0342
16555SOL    HW151106   1.386   5.008   0.860  0.6874  1.2026 -1.3612
16555SOL    HW251107   1.399   5.001   1.010 -2.4374 -0.5990 -1.0905
16556SOL     OW51108   5.137   7.934   4.250 -0.4264  0.7180 -0.5053
16556SOL    HW151109   5.098   7.967   4.331  0.5782  1.1705 -0.1852
16556SOL    HW251110   5.229   7.918   4.272 -0.0091  1.3587 -1.6838
16557SOL     OW51111   4.657   6.272   5.356  0.3390 -0.5023 -0.3836
16557SOL    HW151112   4.657   6.356   5.401 -1.0766 -0.0844 -1.0941
16557SOL    HW251113   4.686   6.209   5.422  2.9200  0.6917 -0.2455
16558SOL     OW51114   7.032   7.952   7.341  0.0109  0.6228 -0.4385
16558SOL    HW151115   7.090   8.025   7.317 -1.0663  0.9044 -2.4131
16558SOL    HW251116   6.945   7.981   7.316 -1.2500  0.5732  3.3056
16559SOL     OW51117   4.462   5.369   4.309 -0.4968 -0.2544 -0.5784
16559SOL    HW151118   4.433   5.283   4.337 -0.6782  0.4395  1.5231
16559SOL    HW251119   4.426   5.429   4.374 -0.8747  1.4978 -2.3145
16560SOL     OW51120   3.170   6.337   4.757  0.8272  0.5361  0.0904
16560SOL    HW151121   3.105   6.404   4.736 -0.1867 -0.5775 -0.4715
16560SOL    HW251122   3.148   6.310   4.847  0.5719  0.2372 -0.0594
16561SOL     OW51123   5.491   4.197   1.932  0.3703 -0.9497 -0.3323
16561SOL    HW151124   5.526   4.214   1.844  0.4681  1.2689  0.0728
16561SOL    HW251125   5.441   4.116   1.923  1.4229 -1.4556 -2.1190
16562SOL     OW51126   4.143   5.366   3.324  0.1099 -0.6167  0.6138
16562SOL    HW151127   4.179   5.449   3.356  1.1076 -0.0323 -1.7779
16562SOL    HW251128   4.195   5.299   3.368  0.6426  0.0974  1.0952
16563SOL     OW51129   5.627   5.563   2.200  0.4077  0.0490 -0.1587
16563SOL    HW151130   5.651   5.540   2.290 -0.8155  1.5554  0.6109
16563SOL    HW251131   5.600   5.481   2.160 -0.6543 -0.4127  1.4110
16564SOL     OW51132   3.945   5.242   3.152  0.3397  0.0916 -0.6202
16564SOL    HW151133   4.021   5.253   3.209 -1.2461  2.7409  1.1814
16564SOL    HW251134   3.978   5.258   3.064  2.2919 -1.2529 -0.2036
16565SOL     OW51135   4.365   7.514   3.925  0.3320  0.1526 -0.2087
16565SOL    HW151136   4.271   7.533   3.928 -0.0731 -1.7303  0.7251
16565SOL    HW251137   4.404   7.590   3.883 -1.6591  0.8038 -0.9737
16566SOL     OW51138   7.181   6.619   5.065  0.0397  0.4790 -0.2168
16566SOL    HW151139   7.264   6.592   5.104 -0.7371 -1.0297  0.4723
16566SOL    HW251140   7.182   6.714   5.072  1.2250  0.4297  0.8007
16567SOL     OW51141   7.272   6.299   6.014  0.2345 -0.2399 -0.3160
16567SOL    HW151142   7.283   6.319   6.107  1.0854 -1.4045 -0.1598
16567SOL    HW251143   7.279   6.385   5.971  3.8350 -0.0569  0.3294
16568SOL     OW51144   6.468   5.633   3.438  0.3304  0.3291 -0.0711
16568SOL    HW151145   6.382   5.655   3.475  0.3420  0.7664 -0.2905
16568SOL    HW251146   6.498   5.715   3.398 -0.1600 -0.3679 -1.9827
16569SOL     OW51147   3.854   7.395   3.775  0.3278 -0.3439 -0.1701
16569SOL    HW151148   3.870   7.432   3.862  0.3497  2.5894 -1.3052
16569SOL    HW251149   3.759   7.400   3.763  0.1028 -2.5151  0.3436
16570SOL     OW51150   6.463   5.964   6.828  0.3354  0.0780 -0.3646
16570SOL    HW151151   6.446   5.960   6.734  2.0573  1.4207 -0.7972
16570SOL    HW251152   6.554   5.934   6.837  1.1920  2.6417  0.4488
16571SOL     OW51153   4.732   5.486   3.420  0.0256 -0.2262  0.5364
16571SOL    HW151154   4.769   5.425   3.483 -1.4980 -2.6774 -0.7705
16571SOL    HW251155   4.767   5.457   3.335 -0.2218  1.1619 -0.0687
16572SOL     OW51156   3.147   4.084   2.710 -0.3089  0.0593 -0.0866
16572SOL    HW151157   3.241   4.098   2.709 -0.3004  0.0229 -1.1492
16572SOL    HW251158   3.115   4.134   2.785  0.4014  1.0940 -0.4671
16573SOL     OW51159   4.342   7.823   6.247  0.0313 -0.1284  0.3955
16573SOL    HW151160   4.365   7.732   6.229 -1.9708 -0.8018  0.9677
16573SOL    HW251161   4.324   7.826   6.341 -0.3933  0.7642  0.3010
16574SOL     OW51162   6.365   6.546   3.439  0.1888  0.2891  0.2253
16574SOL    HW151163   6.376   6.590   3.523  1.4358 -0.7413  0.6385
16574SOL    HW251164   6.279   6.504   3.445  0.5779 -0.4072  1.3217
16575SOL     OW51165   5.330   7.053   4.278  0.0540 -0.0097  0.3994
16575SOL    HW151166   5.378   7.061   4.360 -2.0727 -0.0891  1.7273
16575SOL    HW251167   5.252   7.108   4.291  0.2310  0.9479 -2.0411
16576SOL     OW51168   5.093   4.694   4.828 -0.2103 -0.3234 -0.4784
16576SOL    HW151169   5.053   4.630   4.886 -0.2892 -0.0422 -0.2176
16576SOL    HW251170   5.112   4.646   4.748 -0.5069 -0.6068 -0.3794
16577SOL     OW51171   5.481   7.682   4.177  0.2776  0.4172  0.1812
16577SOL    HW151172   5.555   7.731   4.140 -1.7371  1.9315 -2.1611
16577SOL    HW251173   5.473   7.716   4.266  0.9050  2.0714 -0.3349
16578SOL     OW51174   6.188   5.800   4.939 -0.1358 -0.3141 -0.1216
16578SOL    HW151175   6.235   5.795   4.856  1.7494 -1.3340  0.9464
16578SOL    HW251176   6.130   5.724   4.939 -1.8381  0.9070 -1.4101
16579SOL     OW51177   3.637   7.527   4.002 -0.6711  0.2277 -0.2239
16579SOL    HW151178   3.571   7.483   3.948 -0.6938 -2.0237  1.4789
16579SOL    HW251179   3.603   7.519   4.091 -0.0199  2.7002  0.3052
16580SOL     OW51180   5.006   6.568   3.638 -0.0874  0.4129 -0.5934
16580SOL    HW151181   5.022   6.524   3.555 -0.9315 -0.7575 -0.1638
16580SOL    HW251182   5.025   6.501   3.704  0.4776  1.2945  0.1526
16581SOL     OW51183   3.872   0.890   4.532 -0.5121  0.7096  0.0833
16581SOL    HW151184   3.925   0.861   4.606 -0.0972 -0.9045 -0.8075
16581SOL    HW251185   3.921   0.963   4.494 -0.3138  1.0023  0.8875
16582SOL     OW51186   4.234   7.209   6.141  0.1584  0.5564 -0.0131
16582SOL    HW151187   4.145   7.218   6.174  0.2665 -0.7884  0.7241
16582SOL    HW251188   4.235   7.124   6.097  1.3813 -0.0301  1.0683
16583SOL     OW51189   2.667   6.591   3.116 -0.1722  0.0690  0.2820
16583SOL    HW151190   2.762   6.599   3.110 -0.1693  1.0160  1.3159
16583SOL    HW251191   2.632   6.657   3.056 -0.1648  0.3104  0.5387
16584SOL     OW51192   5.505   7.332   4.570  0.0178  0.6185 -0.2287
16584SOL    HW151193   5.460   7.346   4.487 -2.6495 -2.0197  0.5893
16584SOL    HW251194   5.488   7.240   4.592  2.6388  0.5426  2.1215
16585SOL     OW51195   5.285   6.104   4.471 -0.4320 -0.1666  0.3076
16585SOL    HW151196   5.270   6.092   4.565 -1.3054  0.1199  0.2155
16585SOL    HW251197   5.207   6.150   4.440 -0.2180 -0.3831 -0.5859
16586SOL     OW51198   3.086   1.156   6.714 -0.4338 -0.1212  0.2848
16586SOL    HW151199   3.043   1.082   6.671  1.2043 -0.8476 -0.1771
16586SOL    HW251200   3.120   1.209   6.643 -1.6607  1.1561  0.6147
16587SOL     OW51201   5.379   5.843   4.508 -0.4545 -0.3695 -0.3101
16587SOL    HW151202   5.335   5.827   4.591  0.2682 -1.3234 -0.0918
16587SOL    HW251203   5.339   5.922   4.474 -0.3949  0.3394  1.2017
16588SOL     OW51204   3.602   7.389   3.697 -0.0022  0.8249 -0.0028
16588SOL    HW151205   3.583   7.296   3.708  1.5904  0.4776  0.1184
16588SOL    HW251206   3.525   7.425   3.654 -1.2209 -0.2673  1.2053
16589SOL     OW51207   4.490   5.172   5.747  0.9330 -0.7172 -0.6251
16589SOL    HW151208   4.425   5.127   5.801 -0.3347  0.2729 -1.2419
16589SOL    HW251209   4.486   5.128   5.663  0.5998 -0.2766 -0.8475
16590SOL     OW51210   5.900   6.954   5.482  0.6529  0.2843  0.0942
16590SOL    HW151211   5.861   7.012   5.416  0.1719  0.9499  0.9327
16590SOL    HW251212   5.992   6.979   5.484  1.3212 -1.6374 -2.2545
16591SOL     OW51213   4.172   5.626   4.387 -0.0785  0.6970  0.3197
16591SOL    HW151214   4.221   5.580   4.455  0.0516  0.0405 -0.2070
16591SOL    HW251215   4.118   5.689   4.435 -1.5516 -1.1604  1.2298
16592SOL     OW51216   4.395   4.955   4.675 -0.4168 -0.1505 -0.2909
16592SOL    HW151217   4.310   4.938   4.714  0.1168 -3.2638 -0.1577
16592SOL    HW251218   4.412   4.878   4.620  1.1395  1.6467 -2.5124
16593SOL     OW51219   4.858   6.653   5.506 -0.3730 -0.1280  0.5570
16593SOL    HW151220   4.922   6.694   5.564  1.5618 -1.1282 -0.7797
16593SOL    HW251221   4.855   6.561   5.535  0.7264 -0.6715 -0.9494
16594SOL     OW51222   5.369   5.077   2.416  0.3198  0.4512 -0.6565
16594SOL    HW151223   5.441   5.022   2.444 -1.6551 -1.6842  0.6042
16594SOL    HW251224   5.391   5.102   2.326  4.1110  2.7184  0.6781
16595SOL     OW51225   4.685   6.143   3.111 -0.3667 -0.2196 -0.0990
16595SOL    HW151226   4.713   6.193   3.188 -0.4658  0.5012 -0.5312
16595SOL    HW251227   4.758   6.150   3.050 -0.0242 -1.3147  0.1587
16596SOL     OW51228   3.923   5.124   5.019 -0.2073 -0.0515 -0.2842
16596SOL    HW151229   3.877   5.131   4.935 -1.9354 -1.9109  0.4331
16596SOL    HW251230   3.874   5.182   5.078 -0.7941 -0.9608  0.1373
16597SOL     OW51231   5.701   6.268   5.714 -0.1868 -0.1749  1.1625
16597SOL    HW151232   5.656   6.349   5.691  0.3728 -0.3569 -0.7472
16597SOL    HW251233   5.638   6.220   5.768 -2.3261 -0.3841 -1.3159
16598SOL     OW51234   3.827   4.874   2.935  0.3273  0.0843  0.1387
16598SOL    HW151235   3.871   4.789   2.938 -0.1200 -0.3791 -3.0058
16598SOL    HW251236   3.745   4.860   2.982  0.8330 -0.8039  0.8019
16599SOL     OW51237   4.753   7.439   7.643  0.7961  0.2570  0.0332
16599SOL    HW151238   4.699   7.454   7.720  0.8633  0.4320  0.0454
16599SOL    HW251239   4.736   7.514   7.586  2.6549  1.4486  0.9541
16600SOL     OW51240   3.520   5.399   2.687  0.1281  0.7306  0.2115
16600SOL    HW151241   3.560   5.314   2.707  0.3630  0.0454 -2.7246
16600SOL    HW251242   3.428   5.380   2.672  0.4601  0.6398 -1.9999
16601SOL     OW51243   6.558   4.962   3.936  0.1830  0.6909  0.3573
16601SOL    HW151244   6.601   5.045   3.913  1.3836  0.0177  0.1212
16601SOL    HW251245   6.613   4.925   4.005 -1.7598  1.2932  2.3762
16602SOL     OW51246   4.490   5.495   4.064 -0.0294  0.3134 -0.0955
16602SOL    HW151247   4.568   5.453   4.027 -0.6542 -1.2029  0.2434
16602SOL    HW251248   4.464   5.438   4.136 -0.3132  1.8596  1.0685
16603SOL     OW51249   5.972   7.256   4.329 -0.1809  0.4722  0.1922
16603SOL    HW151250   6.063   7.273   4.353  0.5640 -0.1385 -2.0103
16603SOL    HW251251   5.949   7.177   4.378  0.6074  0.3861  0.4311
16604SOL     OW51252   6.171   7.310   5.038  0.9133  0.6810 -0.7030
16604SOL    HW151253   6.219   7.264   4.969  0.7279  0.4273 -0.6680
16604SOL    HW251254   6.224   7.387   5.058  0.8030  0.9298 -1.3555
16605SOL     OW51255   1.873   5.324   4.534  0.1521  0.0800  0.1996
16605SOL    HW151256   1.785   5.299   4.563  0.4499  0.5226  1.5848
16605SOL    HW251257   1.924   5.329   4.615  1.5910 -0.6682 -0.6187
16606SOL     OW51258   5.557   6.656   4.021 -0.3418  0.2062 -0.3634
16606SOL    HW151259   5.481   6.662   3.963 -1.0011 -1.3589  0.2844
16606SOL    HW251260   5.561   6.564   4.047  1.2252  0.4372  0.3758
16607SOL     OW51261   4.921   7.657   2.884 -0.3432  0.2907 -0.4440
16607SOL    HW151262   4.907   7.672   2.977  0.1567 -1.3357 -0.0774
16607SOL    HW251263   4.989   7.721   2.859  0.0130  0.2804  0.4663
16608SOL     OW51264   4.378   6.794   3.072  0.5100 -0.2428  0.0073
16608SOL    HW151265   4.335   6.749   2.998 -1.3617  0.6013  0.5072
16608SOL    HW251266   4.340   6.753   3.150  0.3636  0.7515  0.4730
16609SOL     OW51267   2.694   6.558   4.899 -0.5172 -0.2899  0.3492
16609SOL    HW151268   2.766   6.573   4.962 -0.5583 -1.0095  0.5666
16609SOL    HW251269   2.714   6.618   4.826  0.8229 -1.1476 -0.0206
16610SOL     OW51270   5.301   7.600   6.143 -0.2756  0.2577 -0.1413
16610SOL    HW151271   5.235   7.656   6.104 -0.6449 -0.2613 -0.2704
16610SOL    HW251272   5.384   7.642   6.122 -0.5135  0.4242 -0.7707
16611SOL     OW51273   3.169   5.242   3.450  0.0611  0.5026 -0.1724
16611SOL    HW151274   3.178   5.208   3.539  0.2247  0.9689 -0.0077
16611SOL    HW251275   3.197   5.169   3.394 -1.6043 -0.3706  0.0792
16612SOL     OW51276   5.186   5.507   4.659  0.0877  0.1793  0.1756
16612SOL    HW151277   5.146   5.458   4.731 -0.7327  0.5413 -0.0189
16612SOL    HW251278   5.243   5.443   4.616  0.6731 -0.0122  1.1990
16613SOL     OW51279   2.839   6.104   1.878 -0.2347 -0.3510  0.1496
16613SOL    HW151280   2.853   6.011   1.894  2.1758 -0.1057 -0.1253
16613SOL    HW251281   2.866   6.147   1.959 -1.4281  0.1428  0.3119
16614SOL     OW51282   4.593   5.261   3.735  0.4982 -0.7379  0.3683
16614SOL    HW151283   4.509   5.214   3.734  0.5584 -0.8816  1.0354
16614SOL    HW251284   4.641   5.225   3.661 -0.0613 -0.5954 -0.0708
16615SOL     OW51285   3.270   0.306   4.216  0.0976  0.4242 -0.0162
16615SOL    HW151286   3.268   0.212   4.202  0.1360  0.3173  0.6383
16615SOL    HW251287   3.352   0.322   4.263  0.2773  0.8324 -0.4669
16616SOL     OW51288   4.300   6.607   4.958 -0.2087 -0.7203 -0.3802
16616SOL    HW151289   4.390   6.612   4.928 -0.3292 -1.3233 -0.8648
16616SOL    HW251290   4.306   6.611   5.053  0.1937  1.0618 -0.4530
16617SOL     OW51291   3.352   6.073   5.005  0.7169 -0.3876 -0.0834
16617SOL    HW151292   3.339   5.978   5.011 -2.7309 -0.0012  0.6702
16617SOL    HW251293   3.333   6.094   4.913 -1.8780 -0.1493  0.4337
16618SOL     OW51294   3.786   5.606   6.795 -0.3785  0.1913  0.4692
16618SOL    HW151295   3.808   5.571   6.709 -0.1478  0.6319  0.3494
16618SOL    HW251296   3.754   5.530   6.844 -3.1569  0.3840 -0.8596
16619SOL     OW51297   5.619   6.988   5.059 -0.0348 -0.9257 -0.5103
16619SOL    HW151298   5.581   6.907   5.093 -2.3046  0.9497  1.7974
16619SOL    HW251299   5.544   7.036   5.023  1.2731  0.1239 -1.9415
16620SOL     OW51300   6.215   5.651   2.425  0.4473 -0.4658  0.3475
16620SOL    HW151301   6.240   5.740   2.399  2.8767 -0.7601  1.3626
16620SOL    HW251302   6.233   5.647   2.519 -1.7921 -1.4029  0.8045
16621SOL     OW51303   4.712   5.361   3.979 -1.0076  0.1963  0.3442
16621SOL    HW151304   4.681   5.327   3.895 -1.3704  2.0405 -0.3181
16621SOL    HW251305   4.807   5.361   3.971 -0.8465 -2.5483  1.1881
16622SOL     OW51306   3.044   7.228   7.022  0.1904  0.1345  0.0769
16622SOL    HW151307   2.968   7.266   6.978 -0.2821 -0.4517  0.3683
16622SOL    HW251308   3.024   7.135   7.027  0.6180  0.0767  0.7688
16623SOL     OW51309   5.408   5.866   5.118  0.4631 -0.2189 -0.4956
16623SOL    HW151310   5.420   5.937   5.054 -0.0016 -0.3348 -0.7172
16623SOL    HW251311   5.468   5.887   5.189  1.5743 -0.5105 -1.3283
16624SOL     OW51312   5.255   7.499   1.756  0.2139 -0.4146  0.1778
16624SOL    HW151313   5.258   7.587   1.792  0.0827 -0.1724 -0.3897
16624SOL    HW251314   5.162   7.475   1.758 -0.0049  0.1957 -1.3794
16625SOL     OW51315   4.977   5.115   2.562  0.4568  0.3711 -0.2340
16625SOL    HW151316   5.061   5.144   2.596  0.6877  1.2661 -1.4880
16625SOL    HW251317   4.913   5.173   2.604  0.5906  0.5058 -0.2161
16626SOL     OW51318   3.933   6.956   5.465  0.2563  0.1905 -0.0389
16626SOL    HW151319   3.906   7.021   5.529 -0.6265  0.1376 -0.3377
16626SOL    HW251320   3.952   7.006   5.386  2.0605  0.3374  0.4404
16627SOL     OW51321   3.577   6.233   4.890 -0.1008  0.2549  0.2315
16627SOL    HW151322   3.666   6.209   4.914 -0.6304  1.4012  3.8256
16627SOL    HW251323   3.521   6.183   4.950 -1.8823  0.2565 -1.3265
16628SOL     OW51324   5.857   5.275   2.573  0.1096  0.4257 -0.8072
16628SOL    HW151325   5.929   5.333   2.550  0.9608 -0.5591 -0.6962
16628SOL    HW251326   5.847   5.217   2.498 -0.3389  0.3173 -0.6721
16629SOL     OW51327   4.538   0.027   6.247 -0.3187 -0.4256 -0.3327
16629SOL    HW151328   4.543   0.070   6.332  2.3982 -2.8648  0.9085
16629SOL    HW251329   4.465  -0.034   6.255 -0.5267 -0.1353 -0.0290
16630SOL     OW51330   3.979   7.370   6.001 -0.3771 -0.0160 -0.3538
16630SOL    HW151331   3.970   7.310   6.075 -1.9197  0.1113 -0.4088
16630SOL    HW251332   4.031   7.321   5.937 -0.2626 -0.6780  0.2245
16631SOL     OW51333   4.553   6.626   3.671  0.1595 -0.6829  0.0668
16631SOL    HW151334   4.606   6.706   3.670 -0.2409 -0.3726 -2.1933
16631SOL    HW251335   4.468   6.653   3.636  0.4169 -2.2952 -2.0163
16632SOL     OW51336   5.619   7.184   6.470 -0.0737 -0.1362 -0.6171
16632SOL    HW151337   5.645   7.219   6.555 -2.8341 -1.4764  0.9109
16632SOL    HW251338   5.682   7.114   6.452  2.0331  1.7344 -0.9870
16633SOL     OW51339   5.415   5.787   3.608  0.0030 -0.2808  0.3361
16633SOL    HW151340   5.353   5.739   3.662 -0.0910  0.6496  1.0718
16633SOL    HW251341   5.372   5.792   3.522 -0.2700 -0.9330  0.4262
16634SOL     OW51342   4.649   5.681   2.989  0.0993  0.3814  0.0601
16634SOL    HW151343   4.704   5.614   3.030 -0.8836 -0.0534  0.7089
16634SOL    HW251344   4.711   5.744   2.952  1.0286 -0.2112  0.5725
16635SOL     OW51345   3.083   5.441   5.629 -0.7560  0.4770  0.6109
16635SOL    HW151346   3.154   5.462   5.690 -0.7832  0.3927  0.6705
16635SOL    HW251347   3.118   5.371   5.574 -0.7941  0.4331  0.6425
16636SOL     OW51348   3.871   6.306   3.840 -0.1935 -0.2455 -0.5433
16636SOL    HW151349   3.959   6.276   3.862  0.5886  2.3549  0.3128
16636SOL    HW251350   3.837   6.240   3.779  2.7427 -0.8261 -1.7250
16637SOL     OW51351   3.628   6.717   5.439  0.7992 -0.1626 -0.1660
16637SOL    HW151352   3.707   6.725   5.492 -0.0878 -0.1366  1.2199
16637SOL    HW251353   3.556   6.720   5.503 -0.3351  0.1402 -1.4092
16638SOL     OW51354   1.370   5.312   4.627 -0.0136  0.0513  0.1118
16638SOL    HW151355   1.333   5.345   4.545 -0.6983 -1.9175 -0.4228
16638SOL    HW251356   1.317   5.235   4.648  2.0402 -1.2420  0.8072
16639SOL     OW51357   7.802   7.003   5.678  0.0305  0.5043  0.5668
16639SOL    HW151358   7.895   7.019   5.669  0.1171 -0.1787  0.1152
16639SOL    HW251359   7.780   6.948   5.603 -0.2610 -1.2330  1.8326
16640SOL     OW51360   7.104   7.048   6.682  0.1503 -0.1207 -0.2221
16640SOL    HW151361   7.024   7.071   6.730 -0.1233  1.4365 -1.3335
16640SOL    HW251362   7.139   7.132   6.653  2.5320 -0.7199  0.7069
16641SOL     OW51363   4.613   5.923   4.565 -0.0204 -0.4322 -0.4261
16641SOL    HW151364   4.588   5.869   4.491 -1.6776 -0.5195  0.1474
16641SOL    HW251365   4.626   5.861   4.637 -1.7705 -0.1526  0.1925
16642SOL     OW51366   6.009   6.729   4.219 -0.3814  1.0122 -0.6684
16642SOL    HW151367   6.102   6.744   4.202  0.0235  0.1188  0.6260
16642SOL    HW251368   5.967   6.810   4.190  0.7595  1.3282 -1.5322
16643SOL     OW51369   5.559   4.434   2.057 -0.0012  0.2631  0.0781
16643SOL    HW151370   5.575   4.474   1.971  1.8569 -1.6408 -0.5323
16643SOL    HW251371   5.529   4.346   2.037  0.5136 -0.2238  1.3757
16644SOL     OW51372   4.969   7.414   4.371  0.6387 -0.2116  0.1694
16644SOL    HW151373   4.903   7.434   4.305  1.3742 -1.6256 -1.0352
16644SOL    HW251374   4.925   7.431   4.455 -0.7559  0.2633 -0.6297
16645SOL     OW51375   6.468   7.640   4.043 -0.0389 -0.1123 -0.3592
16645SOL    HW151376   6.537   7.703   4.022  0.4968  0.1519  1.8679
16645SOL    HW251377   6.506   7.555   4.021  0.4947  0.1359 -0.4145
16646SOL     OW51378   4.326   6.211   5.535  0.2354 -0.9593  0.1769
16646SOL    HW151379   4.392   6.151   5.500 -0.4327 -0.7403 -1.5915
16646SOL    HW251380   4.244   6.163   5.527 -0.0316 -0.6247  0.8377
16647SOL     OW51381   4.460   0.420   6.860  0.3963  0.1517 -0.1655
16647SOL    HW151382   4.555   0.419   6.872  0.3731 -1.0845  0.0798
16647SOL    HW251383   4.427   0.474   6.932  0.9146  0.5982 -0.2618
16648SOL     OW51384   4.414   6.897   5.028  0.6631  0.1271  0.1618
16648SOL    HW151385   4.324   6.880   5.056  0.7689  0.2859  0.6153
16648SOL    HW251386   4.468   6.861   5.099  0.9307  0.8560  0.3385
16649SOL     OW51387   5.136   5.367   4.891 -0.3956  0.2667  0.1705
16649SOL    HW151388   5.209   5.315   4.925  0.0596  0.2546 -0.7821
16649SOL    HW251389   5.065   5.354   4.953  0.7340  1.1224  1.7252
16650SOL     OW51390   4.303   0.051   4.451  0.1371 -0.2829 -0.0295
16650SOL    HW151391   4.237  -0.018   4.455  0.2976 -0.3966  0.7009
16650SOL    HW251392   4.386   0.006   4.467  0.3316 -0.0369 -0.3129
16651SOL     OW51393   6.024   5.650   5.928 -0.5217 -0.5118 -0.4700
16651SOL    HW151394   6.054   5.709   5.997 -0.3246  0.4888 -1.3830
16651SOL    HW251395   6.063   5.685   5.848  1.4338 -3.1457 -0.8012
16652SOL     OW51396   5.151   6.786   3.553 -0.2835 -0.0988  0.0822
16652SOL    HW151397   5.131   6.791   3.459  1.4895 -1.7023 -0.4391
16652SOL    HW251398   5.089   6.721   3.587  0.7950 -1.5313 -0.5714
16653SOL     OW51399   5.198   7.369   6.046 -0.0532  0.1368 -0.4294
16653SOL    HW151400   5.244   7.438   6.095 -0.5513  0.3267 -0.2279
16653SOL    HW251401   5.114   7.407   6.024 -0.2657 -0.3498 -0.4649
16654SOL     OW51402   3.890   5.566   4.714  0.0369 -0.6301 -0.1519
16654SOL    HW151403   3.815   5.616   4.747 -0.3708 -1.6255  0.4592
16654SOL    HW251404   3.937   5.628   4.659 -0.8699  0.2085 -0.0106
16655SOL     OW51405   3.463   5.238   4.037 -0.1138 -0.0108  0.1931
16655SOL    HW151406   3.461   5.244   4.132 -1.3384 -2.1492  0.3607
16655SOL    HW251407   3.541   5.185   4.017  0.2048  0.5268 -0.0209
16656SOL     OW51408   4.984   5.321   5.481  0.1974  0.2962  0.2065
16656SOL    HW151409   4.917   5.303   5.547 -1.3518 -1.7527 -1.7446
16656SOL    HW251410   5.063   5.280   5.516 -0.5348 -0.5809  0.9135
16657SOL     OW51411   3.617   5.131   2.665  0.4945 -0.1744 -0.1870
16657SOL    HW151412   3.587   5.103   2.751  0.4061  1.3581  0.2969
16657SOL    HW251413   3.539   5.128   2.610  0.4073 -0.4820 -0.0504
16658SOL     OW51414   3.966   6.247   4.213  0.6878 -0.2620  0.3851
16658SOL    HW151415   3.881   6.227   4.174 -0.2274  0.0783  2.1037
16658SOL    HW251416   3.991   6.167   4.260  1.4528 -0.4377 -0.2854
16659SOL     OW51417   2.391   6.428   5.898  0.2964 -0.2053  0.2716
16659SOL    HW151418   2.458   6.366   5.924  0.3820  0.0005  0.5435
16659SOL    HW251419   2.427   6.514   5.920  0.2387 -0.0503 -0.2343
16660SOL     OW51420   5.884   7.541   4.815 -0.1700 -0.0132 -0.3005
16660SOL    HW151421   5.974   7.510   4.828 -0.2206  0.3133  0.9998
16660SOL    HW251422   5.846   7.479   4.753  1.4506  0.8081 -2.2405
16661SOL     OW51423   3.652   5.692   4.783  0.4886 -0.0527  0.3320
16661SOL    HW151424   3.595   5.760   4.748 -0.2321 -0.7213  0.1689
16661SOL    HW251425   3.597   5.645   4.846  0.5781 -1.2263 -0.4311
16662SOL     OW51426   5.734   6.151   4.137  0.1100 -0.0639 -0.0044
16662SOL    HW151427   5.754   6.220   4.200 -1.7471  0.0007  0.5846
16662SOL    HW251428   5.655   6.110   4.171 -0.9537 -0.0645 -2.2461
16663SOL     OW51429   3.943   0.527   7.037 -0.0713 -0.0408  0.0960
16663SOL    HW151430   3.985   0.457   6.987  1.6180  1.0791 -0.1727
16663SOL    HW251431   3.930   0.597   6.972 -0.9113  0.2204  0.5408
16664SOL     OW51432   6.283   6.311   5.048 -0.3865  0.4822  0.1143
16664SOL    HW151433   6.229   6.263   5.111  0.1467 -1.9659 -1.1649
16664SOL    HW251434   6.284   6.256   4.970  0.3738  2.5871 -1.4770
16665SOL     OW51435   4.791   5.901   3.935 -0.4251 -0.1148  0.1852
16665SOL    HW151436   4.880   5.920   3.905 -1.0127  0.6090 -1.1760
16665SOL    HW251437   4.773   5.812   3.903 -0.0341 -0.4636  0.8981
16666SOL     OW51438   3.230   4.862   3.303  0.4866 -0.0766 -0.2114
16666SOL    HW151439   3.140   4.879   3.277  0.2784  0.5226  0.8410
16666SOL    HW251440   3.237   4.767   3.305 -0.1904 -0.1252 -0.0509
16667SOL     OW51441   4.726   7.268   6.974 -0.3162  0.2502  0.3582
16667SOL    HW151442   4.777   7.243   7.051  0.4279 -0.2843 -0.2954
16667SOL    HW251443   4.748   7.360   6.960 -2.3172  1.1037  2.1924
16668SOL     OW51444   4.834   6.723   5.137  0.4733  0.0130 -0.7992
16668SOL    HW151445   4.876   6.800   5.099  1.1082  0.5024  0.7754
16668SOL    HW251446   4.789   6.757   5.215 -1.9646 -0.6894 -1.7992
16669SOL     OW51447   4.345   7.095   4.027 -0.3533 -0.0819 -0.4789
16669SOL    HW151448   4.397   7.144   3.962  3.0714 -1.0391  1.3186
16669SOL    HW251449   4.352   7.004   3.999  0.5875 -0.4257  0.7955
16670SOL     OW51450   4.380   0.297   6.211  0.1336  0.1088 -0.2538
16670SOL    HW151451   4.397   0.245   6.290 -1.1142  0.4305  0.2522
16670SOL    HW251452   4.301   0.258   6.173 -0.1230  0.8788 -0.5233
16671SOL     OW51453   2.333   5.953   1.168 -0.3141 -0.1570  0.1816
16671SOL    HW151454   2.279   5.936   1.246  0.2860  1.0650  0.8875
16671SOL    HW251455   2.423   5.938   1.197 -0.1850 -1.5981 -0.8305
16672SOL     OW51456   4.524   7.565   3.448 -0.1004  0.6183 -0.2093
16672SOL    HW151457   4.602   7.595   3.402  0.0926  0.3619 -0.0558
16672SOL    HW251458   4.525   7.469   3.438 -0.7740  0.6680 -0.8036
16673SOL     OW51459   4.314   0.222   4.247  0.1864  0.4375 -0.0963
16673SOL    HW151460   4.327   0.162   4.321  1.7831 -1.3373 -1.6904
16673SOL    HW251461   4.232   0.194   4.208  0.4019 -0.0456 -0.2154
16674SOL     OW51462   3.881   5.956   5.417  0.4114 -0.5969 -0.0515
16674SOL    HW151463   3.847   5.957   5.328 -0.1641  0.0128  0.1713
16674SOL    HW251464   3.830   5.889   5.462 -1.8256  1.5223  0.7689
16675SOL     OW51465   4.511   7.500   6.675  0.0333  0.1837 -0.1657
16675SOL    HW151466   4.435   7.513   6.617 -1.7483 -0.1053  1.9545
16675SOL    HW251467   4.473   7.490   6.762  2.5670  0.2391  1.0408
16676SOL     OW51468   3.851   7.694   5.658  0.1542  0.3525  0.2116
16676SOL    HW151469   3.796   7.645   5.719  1.1395  0.2987  1.0781
16676SOL    HW251470   3.831   7.657   5.572  1.1582 -1.8595  0.8794
16677SOL     OW51471   7.729   6.795   5.846 -0.0480  0.5497  0.0113
16677SOL    HW151472   7.734   6.869   5.786  0.8778  1.3810  1.0806
16677SOL    HW251473   7.690   6.831   5.926 -0.5266 -0.3502  0.1960
16678SOL     OW51474   2.827   4.876   2.858 -0.5200 -0.3547 -0.0495
16678SOL    HW151475   2.839   4.941   2.788 -1.4688 -0.9655 -0.8046
16678SOL    HW251476   2.875   4.912   2.933 -1.5295  1.5378 -0.2512
16679SOL     OW51477   4.515   5.561   5.205  0.1357  0.3898 -0.3765
16679SOL    HW151478   4.441   5.613   5.236  0.5179 -0.1912  1.6998
16679SOL    HW251479   4.496   5.472   5.234  0.7766 -0.1214 -1.4761
16680SOL     OW51480   4.623   5.629   4.533  0.1420  0.3644 -0.0943
16680SOL    HW151481   4.675   5.557   4.571 -0.2575 -0.2974 -0.7667
16680SOL    HW251482   4.634   5.618   4.439  1.6629  2.3815 -0.2163
16681SOL     OW51483   3.243   6.038   2.499  0.3201 -0.2102 -0.4467
16681SOL    HW151484   3.244   5.942   2.500  0.2182 -0.2284  1.1442
16681SOL    HW251485   3.334   6.063   2.484  0.3347 -0.5501 -0.9355
16682SOL     OW51486   5.361   5.319   4.560 -0.3079 -0.2746  0.4249
16682SOL    HW151487   5.354   5.273   4.477 -2.2527 -2.8199  1.8420
16682SOL    HW251488   5.405   5.257   4.619  0.8423  1.3746  1.3840
16683SOL     OW51489   4.705   5.573   4.273  0.4713 -0.1256  0.0247
16683SOL    HW151490   4.638   5.523   4.228  0.7919  0.3829 -1.0382
16683SOL    HW251491   4.743   5.630   4.206  1.5417  0.0404  0.7367
16684SOL     OW51492   4.148   6.799   5.077 -0.1503 -0.2400 -0.5745
16684SOL    HW151493   4.157   6.738   5.004 -0.9801 -1.0640 -0.0106
16684SOL    HW251494   4.157   6.744   5.155  1.5718  0.7538 -0.0288
16685SOL     OW51495   2.883   5.922   4.450  0.1290  0.1669 -0.4205
16685SOL    HW151496   2.977   5.942   4.455  0.3562 -1.0720  1.1822
16685SOL    HW251497   2.879   5.838   4.405 -0.2423  0.3675 -0.7641
16686SOL     OW51498   4.261   5.945   3.182 -0.1929  0.4382 -0.1569
16686SOL    HW151499   4.355   5.928   3.178 -0.2976 -0.9587  1.9477
16686SOL    HW251500   4.223   5.879   3.125  0.0845  1.1445 -1.1864
16687SOL     OW51501   5.315   5.417   3.711  0.1813  0.0320 -0.1260
16687SOL    HW151502   5.376   5.374   3.772 -0.3128  0.2211  0.5172
16687SOL    HW251503   5.340   5.384   3.625  0.6680 -0.5171  0.2135
16688SOL     OW51504   5.533   6.769   5.180  0.4618  0.1772  0.1085
16688SOL    HW151505   5.599   6.770   5.249  1.2607 -0.5939 -0.6167
16688SOL    HW251506   5.450   6.755   5.225  0.7154  1.5980  1.0808
16689SOL     OW51507   3.137   5.914   3.024  0.1281 -0.3373  0.3224
16689SOL    HW151508   3.158   6.004   2.998 -1.1527  0.2613  1.2554
16689SOL    HW251509   3.198   5.895   3.096 -0.7918  0.4909  1.3644
16690SOL     OW51510   4.118   7.644   4.823 -0.4791 -0.2965 -0.1258
16690SOL    HW151511   4.058   7.594   4.767  0.5099 -0.7503 -0.8075
16690SOL    HW251512   4.096   7.736   4.805  0.3109 -0.4031 -1.8734
16691SOL     OW51513   3.640   0.422   6.722  0.1662 -0.4212  0.1429
16691SOL    HW151514   3.629   0.430   6.627  1.5418 -0.0473 -0.0155
16691SOL    HW251515   3.680   0.335   6.734  0.2087 -0.3723  0.3563
16692SOL     OW51516   3.482   7.735   7.088 -0.2057 -0.0547  0.2895
16692SOL    HW151517   3.392   7.710   7.106 -0.3523 -0.3207 -0.7195
16692SOL    HW251518   3.514   7.774   7.170 -0.0851 -3.1670  1.8588
16693SOL     OW51519   3.788   5.908   5.104 -0.6403 -0.8967 -0.0649
16693SOL    HW151520   3.717   5.845   5.095  0.2360 -1.8436 -0.5696
16693SOL    HW251521   3.861   5.869   5.056  0.2936 -0.0466  0.6175
16694SOL     OW51522   5.236   6.896   8.046  0.1916  0.2082  0.3264
16694SOL    HW151523   5.253   6.990   8.041 -0.0995  0.3087  1.0044
16694SOL    HW251524   5.313   6.860   8.090 -0.5057  0.4081  1.7650
16695SOL     OW51525   6.416   7.754   8.141 -0.0143 -0.5731 -0.3487
16695SOL    HW151526   6.363   7.702   8.201  0.6260 -1.1003 -0.2277
16695SOL    HW251527   6.430   7.698   8.065 -0.7879  0.0763 -0.9943
16696SOL     OW51528   6.117   5.909   6.696  0.0097  0.3606 -0.6917
16696SOL    HW151529   6.073   5.824   6.692 -1.3598  0.9610  0.6786
16696SOL    HW251530   6.164   5.915   6.613 -0.7816 -1.2455 -1.3078
16697SOL     OW51531   6.245   5.697   7.661 -0.2785 -0.2251  0.6124
16697SOL    HW151532   6.211   5.692   7.751  0.0266  0.3148  0.7610
16697SOL    HW251533   6.226   5.786   7.633  2.1741  0.5693  1.1889
16698SOL     OW51534   4.064   6.754   7.603 -0.4044  0.1658 -0.3317
16698SOL    HW151535   4.028   6.840   7.587  0.3814  0.7930  1.0566
16698SOL    HW251536   4.144   6.751   7.551  0.3470  0.8787  0.7330
16699SOL     OW51537   3.975   5.910   8.136  0.6498 -0.6134  0.4446
16699SOL    HW151538   4.012   5.831   8.176 -0.4812 -1.9173 -0.9418
16699SOL    HW251539   4.051   5.959   8.104  1.3182 -1.8945  0.0045
16700SOL     OW51540   3.917   5.997   4.777  0.0654 -0.3965 -0.2498
16700SOL    HW151541   3.963   6.078   4.752 -0.2848 -0.3609 -0.7930
16700SOL    HW251542   3.825   6.015   4.758 -0.1124 -0.6619  0.3303
16701SOL     OW51543   5.329   5.896   9.477  0.0724 -0.5118  0.0503
16701SOL    HW151544   5.275   5.817   9.474  0.4906 -0.8106  0.1944
16701SOL    HW251545   5.407   5.873   9.427 -1.3958  1.0781 -3.2496
16702SOL     OW51546   6.122   6.564   5.330  0.1575  0.4947 -0.4646
16702SOL    HW151547   6.037   6.606   5.347 -1.8699 -2.2414 -2.7952
16702SOL    HW251548   6.125   6.489   5.389  1.6223  1.2315  0.4650
16703SOL     OW51549   5.265   7.250   8.322  0.4572 -0.4498  0.3413
16703SOL    HW151550   5.219   7.334   8.323  1.7623  0.3288 -1.0202
16703SOL    HW251551   5.274   7.226   8.414 -0.7464  0.4373  0.7106
16704SOL     OW51552   2.378   5.276   7.098  0.1541 -0.0080 -0.1492
16704SOL    HW151553   2.440   5.236   7.037 -0.6485 -1.2794 -0.1792
16704SOL    HW251554   2.293   5.241   7.071 -0.4565  0.9359  0.4958
16705SOL     OW51555   5.664   5.804   6.346  0.0172  0.3547 -0.2682
16705SOL    HW151556   5.657   5.804   6.441  1.2634 -1.9164 -0.1050
16705SOL    HW251557   5.613   5.728   6.318  1.1350 -0.0809 -1.2360
16706SOL     OW51558   2.372   7.570   4.771  0.1285 -0.2340 -0.2073
16706SOL    HW151559   2.404   7.491   4.815 -0.9457 -0.4186  0.2729
16706SOL    HW251560   2.327   7.619   4.839  1.9103  1.4817 -0.1696
16707SOL     OW51561   3.373   7.281   7.025  0.1281  0.1237 -0.2577
16707SOL    HW151562   3.287   7.241   7.011  0.2066 -0.0518 -0.2468
16707SOL    HW251563   3.406   7.238   7.104  0.9825 -1.1265 -1.2446
16708SOL     OW51564   3.908   0.219   8.292  0.1471 -0.0059  0.6719
16708SOL    HW151565   3.944   0.258   8.372 -0.4054  0.4014  0.7280
16708SOL    HW251566   3.983   0.213   8.233  0.6791 -0.8003  1.3921
16709SOL     OW51567   4.987   6.351   7.592  0.0957 -0.3060  0.5435
16709SOL    HW151568   5.019   6.373   7.680 -1.1523 -0.8584  1.1657
16709SOL    HW251569   4.902   6.395   7.585 -0.7512 -1.8945  0.4169
16710SOL     OW51570   4.350   6.704   6.543 -0.1444 -0.1865 -0.1030
16710SOL    HW151571   4.395   6.762   6.482  0.9719 -1.5014 -0.5849
16710SOL    HW251572   4.346   6.753   6.625  1.5560  0.2601 -0.2546
16711SOL     OW51573   4.750   6.939   6.578 -0.0964 -0.0720  0.0005
16711SOL    HW151574   4.811   7.010   6.555 -0.5443 -0.5174 -2.7877
16711SOL    HW251575   4.718   6.964   6.665  1.6048  1.8461  0.1727
16712SOL     OW51576   5.454   5.605   6.356  0.5434  0.0235 -0.0324
16712SOL    HW151577   5.410   5.521   6.346 -0.5112  0.7098 -1.5470
16712SOL    HW251578   5.393   5.669   6.319  1.4823  1.4255  0.7238
16713SOL     OW51579   2.786   4.910   6.966 -0.3894  0.0812 -0.3514
16713SOL    HW151580   2.765   4.816   6.967 -0.8261  0.1776  1.1198
16713SOL    HW251581   2.844   4.923   7.041 -2.7632  1.4826  1.3857
16714SOL     OW51582   6.352   6.828   6.891  0.0256 -0.0394 -0.2100
16714SOL    HW151583   6.378   6.864   6.806  1.4438 -0.5389 -0.0191
16714SOL    HW251584   6.404   6.748   6.900 -0.2858 -0.1229  1.0095
16715SOL     OW51585   0.820   5.069   5.188  0.1242 -0.2453  0.1966
16715SOL    HW151586   0.872   5.112   5.256  0.7461  0.2770 -0.5960
16715SOL    HW251587   0.827   4.976   5.209  2.6534 -0.3375 -0.7277
16716SOL     OW51588   5.889   4.847   5.821  0.3373  0.1324  0.0755
16716SOL    HW151589   5.807   4.832   5.774  0.0567 -1.1675  0.9256
16716SOL    HW251590   5.911   4.938   5.801 -0.5613  0.0816 -1.2996
16717SOL     OW51591   5.476   6.826   5.559 -0.2114 -0.0929  0.2884
16717SOL    HW151592   5.405   6.778   5.516  0.8376 -0.2972 -1.2835
16717SOL    HW251593   5.472   6.913   5.521 -1.9263  1.1026  2.9345
16718SOL     OW51594   3.772   6.920   6.036 -0.0587 -0.2982 -0.1976
16718SOL    HW151595   3.845   6.860   6.023 -1.3814 -1.6584 -1.7799
16718SOL    HW251596   3.784   6.954   6.124  2.6117 -0.2551 -0.5119
16719SOL     OW51597   5.024   7.668   7.441  0.4664  0.1766  0.3163
16719SOL    HW151598   5.029   7.749   7.493  2.0241  0.2532  0.0978
16719SOL    HW251599   4.932   7.643   7.445  0.2589  1.0278  1.8243
16720SOL     OW51600   5.937   6.120   7.246  0.4131 -0.2575  0.2696
16720SOL    HW151601   6.013   6.073   7.213 -0.1593  0.0843 -1.6704
16720SOL    HW251602   5.940   6.205   7.202  1.1240  1.3922  3.2748
16721SOL     OW51603   3.852   6.005   4.463  0.2393  0.0954 -0.0790
16721SOL    HW151604   3.762   5.980   4.482  0.9473 -1.4657  1.5669
16721SOL    HW251605   3.861   6.093   4.500 -0.5831  0.2431 -0.2106
16722SOL     OW51606   2.082   6.076   6.985 -0.7966  0.0538 -0.2770
16722SOL    HW151607   2.145   6.065   6.913 -1.5156  0.6962 -1.0235
16722SOL    HW251608   1.999   6.046   6.948 -1.3758  1.3337 -0.0556
16723SOL     OW51609   5.182   6.336   4.767  0.1178  0.3836  0.3570
16723SOL    HW151610   5.198   6.244   4.745  1.9336  0.8205 -0.3652
16723SOL    HW251611   5.108   6.361   4.712 -0.2673 -0.5877  0.4154
16724SOL     OW51612   5.641   0.550   6.585  0.3019 -0.3306  0.0807
16724SOL    HW151613   5.707   0.590   6.642  1.0076 -0.7433 -0.4340
16724SOL    HW251614   5.680   0.467   6.557 -1.4791 -1.8586  1.8275
16725SOL     OW51615   3.845   5.807   7.919  0.3353 -0.1888 -0.3457
16725SOL    HW151616   3.904   5.819   7.993  0.9130 -1.8326 -0.4834
16725SOL    HW251617   3.758   5.823   7.955  0.7638  1.1660  0.1406
16726SOL     OW51618   6.365   1.239   7.804 -0.1082  0.1612 -0.1262
16726SOL    HW151619   6.396   1.322   7.766 -0.8084  0.7018  0.4527
16726SOL    HW251620   6.302   1.206   7.741 -0.3491  0.4303 -0.0303
16727SOL     OW51621   7.604   7.686   7.338  1.4337 -0.4446 -0.4892
16727SOL    HW151622   7.514   7.683   7.371  1.9157 -0.4320  0.9194
16727SOL    HW251623   7.603   7.630   7.261 -0.1154  0.7435 -1.4010
16728SOL     OW51624   5.065   5.850   7.130 -0.4248 -0.4661  0.0798
16728SOL    HW151625   5.053   5.919   7.195 -0.4365 -0.6280  0.2533
16728SOL    HW251626   5.090   5.896   7.050 -0.8576 -0.2322  0.0783
16729SOL     OW51627   4.484   6.005   9.340  0.2314  0.2433 -0.3859
16729SOL    HW151628   4.505   5.973   9.253  1.8645  0.0546  0.0511
16729SOL    HW251629   4.550   5.966   9.397  0.0606  1.4896  0.7210
16730SOL     OW51630   4.558   5.757   4.767  0.0490  0.0255  0.4791
16730SOL    HW151631   4.610   5.796   4.837  0.7526  0.3730 -0.2280
16730SOL    HW251632   4.596   5.670   4.754 -0.1414 -0.0754  0.5805
16731SOL     OW51633   4.976   6.379   6.698 -0.1835  0.2202  0.0358
16731SOL    HW151634   4.893   6.409   6.734 -0.0630  0.4121  0.1559
16731SOL    HW251635   4.954   6.300   6.648 -0.3245 -0.1392  0.6574
16732SOL     OW51636   4.172   6.279   8.374  0.2018 -0.2271  0.4225
16732SOL    HW151637   4.256   6.286   8.419  0.6909 -1.4798 -0.2418
16732SOL    HW251638   4.187   6.321   8.289  0.6625 -1.8436 -0.3251
16733SOL     OW51639   5.000   7.951   7.467 -0.2757 -0.5553 -0.3151
16733SOL    HW151640   4.915   7.969   7.428  0.2118  0.2431 -1.0239
16733SOL    HW251641   5.055   8.025   7.442  0.7995 -1.3376 -0.3611
16734SOL     OW51642   4.092   5.966   7.765 -0.0001 -0.0248  0.4505
16734SOL    HW151643   4.151   6.026   7.717 -2.4025  1.6108 -0.6723
16734SOL    HW251644   4.075   5.895   7.702 -1.1071  0.7794 -0.1899
16735SOL     OW51645   3.392   6.665   6.250  0.3054 -0.3395 -0.1005
16735SOL    HW151646   3.391   6.695   6.341 -0.8351 -1.7277  0.3872
16735SOL    HW251647   3.481   6.684   6.220  0.8692 -0.2957  1.4715
16736SOL     OW51648   5.309   6.879   6.238 -0.8349 -0.1519  0.2574
16736SOL    HW151649   5.240   6.895   6.302 -0.5167  1.4920  0.2561
16736SOL    HW251650   5.335   6.967   6.209  0.2740 -0.7894 -0.7879
16737SOL     OW51651   3.126   7.691   6.967  0.2002  0.0151  0.4719
16737SOL    HW151652   3.034   7.684   6.994 -0.0262  0.1415 -0.2531
16737SOL    HW251653   3.146   7.784   6.973  0.5674 -0.1133  1.5181
16738SOL     OW51654   4.101   5.895   6.174 -0.1919 -0.2082 -0.5396
16738SOL    HW151655   4.190   5.865   6.158  0.2672  1.2586 -0.8731
16738SOL    HW251656   4.046   5.818   6.157  1.2297 -2.8407  4.6762
16739SOL     OW51657   6.054   6.245   7.727 -0.2298  0.0420 -0.0527
16739SOL    HW151658   6.028   6.195   7.650 -2.9968  1.1109  0.0859
16739SOL    HW251659   6.150   6.235   7.730 -0.0501 -0.4969 -3.2826
16740SOL     OW51660   4.915   1.643   7.720  0.3158 -0.1655 -0.1511
16740SOL    HW151661   4.868   1.670   7.799 -0.4996  0.0654 -0.6930
16740SOL    HW251662   4.979   1.712   7.705 -0.1589  0.2638 -0.2101
16741SOL     OW51663   3.837   5.390   5.968  0.4704 -0.3647  0.3760
16741SOL    HW151664   3.847   5.393   6.064  0.0424  0.3335  0.4103
16741SOL    HW251665   3.886   5.313   5.941  0.0107 -0.9813  1.2391
16742SOL     OW51666   6.377   5.625   6.493 -0.0631  0.3894  0.5651
16742SOL    HW151667   6.402   5.579   6.413 -0.8389 -1.2894  1.2267
16742SOL    HW251668   6.365   5.555   6.558  1.2004  1.7293  2.3613
16743SOL     OW51669   4.495   7.231   6.055 -0.1132 -0.1711  0.7937
16743SOL    HW151670   4.402   7.233   6.076 -0.2403 -1.5326  0.4886
16743SOL    HW251671   4.539   7.242   6.140 -0.5940 -1.4964  1.2500
16744SOL     OW51672   5.284   7.899   6.914 -0.3012 -0.0349  0.0055
16744SOL    HW151673   5.334   7.895   6.833 -0.0457 -1.7037  0.2277
16744SOL    HW251674   5.268   7.993   6.927  0.2879  0.3130 -1.5656
16745SOL     OW51675   4.986   7.423   6.694 -0.1135  0.2477 -0.0046
16745SOL    HW151676   5.003   7.434   6.601  1.3410  0.5579  0.2724
16745SOL    HW251677   4.915   7.484   6.713 -0.5149  0.0791 -0.9269
16746SOL     OW51678   4.333   7.685   5.191 -0.4129  0.2294  0.2932
16746SOL    HW151679   4.245   7.649   5.204 -0.1328 -0.3814  0.5568
16746SOL    HW251680   4.389   7.608   5.180  0.3812  0.5151  1.9923
16747SOL     OW51681   0.231   6.746   7.742  0.7040 -0.1367  0.2484
16747SOL    HW151682   0.226   6.678   7.675  0.2157  0.7099 -0.6187
16747SOL    HW251683   0.165   6.810   7.715 -0.2238 -0.2386  2.1037
16748SOL     OW51684   3.645   7.647   8.588  0.2746 -0.2481  0.1507
16748SOL    HW151685   3.579   7.589   8.551  0.5690 -0.8796  0.6070
16748SOL    HW251686   3.642   7.725   8.532 -0.4636 -0.4948 -0.1668
16749SOL     OW51687   5.016   6.723   6.525 -0.2389  0.0205  0.5472
16749SOL    HW151688   4.979   6.730   6.613  1.1075  2.2643  1.0032
16749SOL    HW251689   5.056   6.808   6.509 -0.6677 -0.2197 -2.3718
16750SOL     OW51690   3.098   5.339   6.657  0.2185  0.3802  0.2506
16750SOL    HW151691   3.168   5.284   6.691 -0.7650  0.2312  2.1124
16750SOL    HW251692   3.050   5.282   6.596 -0.5765 -0.7593  1.8835
16751SOL     OW51693   5.420   7.092   4.786  0.2417 -0.1159  0.1205
16751SOL    HW151694   5.388   7.037   4.858  0.6142  1.2222  1.3431
16751SOL    HW251695   5.463   7.165   4.829  0.6635  0.6156 -1.4867
16752SOL     OW51696   5.087   6.981   8.390  0.3344  0.3703 -0.2051
16752SOL    HW151697   5.157   7.045   8.375  1.4295 -1.2179 -2.4719
16752SOL    HW251698   5.111   6.938   8.473  1.2345  0.8539 -0.2027
16753SOL     OW51699   3.448   5.426   7.646 -0.1599  0.2533  0.3258
16753SOL    HW151700   3.486   5.393   7.728 -0.7737  0.9444  0.8976
16753SOL    HW251701   3.355   5.404   7.652 -0.0667 -0.4261 -0.5667
16754SOL     OW51702   2.370   0.394   6.844  0.8221 -0.1878  0.3772
16754SOL    HW151703   2.346   0.487   6.847  1.1014 -0.1378  1.2048
16754SOL    HW251704   2.316   0.358   6.774  1.3195  0.7678 -0.5181
16755SOL     OW51705   4.826   5.696   5.570  0.0957  0.4704  0.1639
16755SOL    HW151706   4.756   5.705   5.635  0.3678  0.6031  0.4391
16755SOL    HW251707   4.903   5.673   5.622  0.6134  1.8423  0.0285
16756SOL     OW51708   3.326   4.789   6.370 -0.5072  0.9072 -0.6874
16756SOL    HW151709   3.350   4.817   6.282 -0.9891 -0.6930 -1.3455
16756SOL    HW251710   3.283   4.704   6.359  0.3069  0.1884  1.1691
16757SOL     OW51711   3.953   6.608   5.785 -0.1658  0.2498 -0.2099
16757SOL    HW151712   4.012   6.582   5.855  1.3238 -1.6326 -2.0485
16757SOL    HW251713   4.004   6.668   5.731 -0.5130 -0.0679 -0.9066
16758SOL     OW51714   3.397   5.343   6.337  0.1918  0.2126 -0.2618
16758SOL    HW151715   3.353   5.267   6.374 -2.2239  1.2997 -0.7240
16758SOL    HW251716   3.393   5.331   6.242  0.3778  0.6093 -0.3251
16759SOL     OW51717   4.319   5.254   7.352 -0.1864 -0.3762  0.4006
16759SOL    HW151718   4.245   5.293   7.305 -0.5375 -0.9658  0.4425
16759SOL    HW251719   4.277   5.201   7.421  0.2514 -1.2282  0.0261
16760SOL     OW51720   5.677   7.022   7.080 -0.0322 -0.0178  0.4515
16760SOL    HW151721   5.759   7.026   7.031 -0.5651  1.0780 -0.3768
16760SOL    HW251722   5.674   7.104   7.129 -1.4217  0.7486 -0.8427
16761SOL     OW51723   5.420   4.533   8.407 -0.1794 -0.3310  0.2283
16761SOL    HW151724   5.366   4.491   8.340  0.4127  1.8113 -1.7076
16761SOL    HW251725   5.363   4.598   8.447  0.9968  2.8243 -2.6705
16762SOL     OW51726   6.496   7.727   7.347  0.0173 -0.5446 -0.4864
16762SOL    HW151727   6.484   7.768   7.262 -1.0481 -0.9148 -0.5305
16762SOL    HW251728   6.529   7.639   7.327 -0.9892 -0.9165 -0.5747
16763SOL     OW51729   4.755   6.416   5.633 -0.3300 -0.2201 -0.4884
16763SOL    HW151730   4.717   6.335   5.667  0.1949 -0.7477 -1.1505
16763SOL    HW251731   4.850   6.404   5.642 -0.2596  0.7178  0.3083
16764SOL     OW51732   6.333   5.720   4.678  0.5282  0.2251  0.7785
16764SOL    HW151733   6.365   5.781   4.611 -0.7488  1.7939  1.5425
16764SOL    HW251734   6.241   5.708   4.658  0.6264 -1.0387  0.9944
16765SOL     OW51735   4.499   6.800   4.776  0.1572  0.5523 -0.4727
16765SOL    HW151736   4.522   6.708   4.784  0.4244  0.6428 -0.2087
16765SOL    HW251737   4.470   6.826   4.863 -1.6750  0.2546 -0.9350
16766SOL     OW51738   3.601   6.181   6.206 -0.3465 -0.1886  0.3031
16766SOL    HW151739   3.636   6.181   6.117 -0.4476  3.9657  0.0462
16766SOL    HW251740   3.522   6.128   6.201  0.2850 -1.0261 -1.7568
16767SOL     OW51741   5.796   7.726   7.091  0.2063  0.1941 -0.4956
16767SOL    HW151742   5.798   7.818   7.067 -1.8238  0.2347 -0.7313
16767SOL    HW251743   5.851   7.683   7.025  1.2147  1.2105 -0.3537
16768SOL     OW51744   5.019   7.923   7.788 -0.0392 -0.2506 -0.2066
16768SOL    HW151745   5.086   7.902   7.723  0.7601 -0.2774  0.6127
16768SOL    HW251746   4.955   7.852   7.780  0.1288 -0.3403 -0.8430
16769SOL     OW51747   7.100   1.277   7.951  0.1912  0.0617 -0.4179
16769SOL    HW151748   7.077   1.184   7.949  0.8707 -0.1071 -2.1003
16769SOL    HW251749   7.026   1.322   7.910  0.1090  0.2047 -0.1160
16770SOL     OW51750   3.945   6.896   6.450 -0.2617 -0.5177 -0.0092
16770SOL    HW151751   3.928   6.812   6.406  0.4046 -0.7797  0.2165
16770SOL    HW251752   3.927   6.878   6.543 -0.1516 -0.3984  0.0338
16771SOL     OW51753   7.376   7.307   7.260  0.3229 -0.1442  0.1445
16771SOL    HW151754   7.293   7.261   7.275 -0.7868  1.1279 -1.6963
16771SOL    HW251755   7.399   7.344   7.345 -0.7449 -0.8753  0.7793
16772SOL     OW51756   4.572   6.582   5.456 -0.7434 -0.1147 -0.1378
16772SOL    HW151757   4.541   6.553   5.542 -1.8711  1.0307 -0.1294
16772SOL    HW251758   4.665   6.600   5.470 -0.6609 -0.9935  0.5528
16773SOL     OW51759   2.601   6.265   6.496  0.1184 -0.6509  0.0677
16773SOL    HW151760   2.596   6.220   6.412  2.4414  0.5564 -0.7981
16773SOL    HW251761   2.552   6.209   6.556 -0.4532 -2.2365 -1.7810
16774SOL     OW51762   5.437   6.507   7.129 -0.0231 -0.4897  0.9036
16774SOL    HW151763   5.433   6.576   7.063  1.1444  0.9883  2.2797
16774SOL    HW251764   5.379   6.537   7.199  1.9235  0.1145  2.3474
16775SOL     OW51765   5.351   0.597   5.078 -0.3690 -0.2689 -0.3034
16775SOL    HW151766   5.423   0.571   5.020 -1.2453 -1.1102 -1.0402
16775SOL    HW251767   5.352   0.532   5.148  1.3088  1.2880  1.2573
16776SOL     OW51768   6.096   0.069   8.779  0.0454 -0.5141  0.5553
16776SOL    HW151769   6.079   0.018   8.858  0.5206 -1.4623  0.0629
16776SOL    HW251770   6.057   0.019   8.708 -3.2762  1.8886  0.4681
16777SOL     OW51771   5.472   5.802   8.127  0.6253  0.0956 -0.1639
16777SOL    HW151772   5.417   5.774   8.055  0.1787 -0.4990  0.4020
16777SOL    HW251773   5.428   5.880   8.162  1.1602  0.7470 -0.8918
16778SOL     OW51774   5.390   0.196   6.019 -0.6719  0.1993 -0.1755
16778SOL    HW151775   5.473   0.217   5.976 -1.1575  0.5689 -0.9444
16778SOL    HW251776   5.413   0.129   6.084  0.2447  0.3835 -0.3005
16779SOL     OW51777   4.896   6.281   6.984 -0.2510  0.3334 -0.1922
16779SOL    HW151778   4.830   6.251   6.921  1.2398 -1.9619 -0.7748
16779SOL    HW251779   4.976   6.288   6.932  0.4955  0.7481  0.9795
16780SOL     OW51780   2.847   6.677   6.422  0.2636 -0.1017  0.1102
16780SOL    HW151781   2.885   6.731   6.492  0.2943 -2.8159  2.3892
16780SOL    HW251782   2.754   6.671   6.443  0.8042 -3.9841  2.4237
16781SOL     OW51783   4.521   0.318   7.343  0.2744 -0.0488  0.1151
16781SOL    HW151784   4.613   0.341   7.340  0.3817 -0.4987 -1.9763
16781SOL    HW251785   4.482   0.378   7.406  1.9499  0.2654  0.8797
16782SOL     OW51786   3.655   7.646   6.908 -0.7153  0.3863  0.5039
16782SOL    HW151787   3.589   7.647   6.977 -2.5444  1.6613 -1.1452
16782SOL    HW251788   3.738   7.631   6.953 -2.0173 -0.4936  2.7504
16783SOL     OW51789   5.193   6.958   6.730 -0.6390  0.4322  0.2485
16783SOL    HW151790   5.288   6.952   6.743 -0.6297  1.3826  0.7023
16783SOL    HW251791   5.156   6.896   6.793 -0.4212  2.2231  2.2444
16784SOL     OW51792   5.643   6.735   4.844  0.0229  0.0841 -0.2310
16784SOL    HW151793   5.706   6.692   4.902  0.6613  0.4879 -0.6177
16784SOL    HW251794   5.557   6.712   4.881  0.4039 -0.1293  0.5439
16785SOL     OW51795   5.385   7.593   6.758  0.1969  0.2182 -0.1927
16785SOL    HW151796   5.407   7.535   6.831 -0.9907 -0.1929 -0.1340
16785SOL    HW251797   5.401   7.540   6.680  0.3645  0.2648 -0.1906
16786SOL     OW51798   7.409   7.420   8.475 -0.5045  0.1220  0.4119
16786SOL    HW151799   7.425   7.333   8.438  3.1833  2.1391 -3.7020
16786SOL    HW251800   7.484   7.435   8.533 -0.5480  0.8923  0.2827
16787SOL     OW51801   4.740   5.817   7.246  0.0529 -0.5358 -0.0672
16787SOL    HW151802   4.810   5.804   7.310  0.1908 -0.7770 -0.2646
16787SOL    HW251803   4.784   5.820   7.161 -0.1635 -0.5773 -0.1837
16788SOL     OW51804   5.503   6.573   7.844 -0.5236  0.0140  0.6283
16788SOL    HW151805   5.444   6.646   7.824 -1.2285 -0.0648  2.2327
16788SOL    HW251806   5.452   6.495   7.822 -0.6289 -0.0310  1.0206
16789SOL     OW51807   5.448   4.934   5.880 -0.2109  0.3567  0.4259
16789SOL    HW151808   5.377   4.927   5.815 -1.4233  1.2465  1.6057
16789SOL    HW251809   5.419   4.879   5.953  1.7849 -1.7544 -0.2616
16790SOL     OW51810   3.423   0.716   5.867  0.1822  0.7794 -0.1608
16790SOL    HW151811   3.459   0.748   5.785 -1.4915  0.7655 -0.9440
16790SOL    HW251812   3.397   0.794   5.915  0.2744  0.7536 -0.0686
16791SOL     OW51813   4.265   6.989   5.720 -1.0598 -0.5945 -0.1805
16791SOL    HW151814   4.251   6.955   5.631  0.3823  0.3117 -0.8097
16791SOL    HW251815   4.357   6.968   5.739 -0.9422  0.4596  0.5125
16792SOL     OW51816   5.501   4.113   7.047  0.4291 -0.2761 -0.1774
16792SOL    HW151817   5.533   4.078   7.130 -1.8041 -1.2902  0.3436
16792SOL    HW251818   5.509   4.040   6.986  0.6377 -0.0257 -0.4483
16793SOL     OW51819   6.843   6.041   5.252  0.3151 -0.6386  0.0179
16793SOL    HW151820   6.926   6.001   5.279 -0.0406 -2.8625 -1.9242
16793SOL    HW251821   6.776   5.987   5.292 -0.4195  2.4317  3.4582
16794SOL     OW51822   4.981   6.779   7.622  0.2798  0.2703 -0.1714
16794SOL    HW151823   4.989   6.780   7.527 -0.4073  1.2395 -0.2370
16794SOL    HW251824   5.057   6.728   7.652 -0.6305 -1.8603 -1.3098
16795SOL     OW51825   5.228   7.407   7.687 -0.2138  0.1575  0.2630
16795SOL    HW151826   5.294   7.347   7.651  0.3422  0.3093  1.0139
16795SOL    HW251827   5.271   7.492   7.688  0.3447 -0.0890  2.6622
16796SOL     OW51828   4.790   6.598   7.386 -0.1141  0.4263  0.1193
16796SOL    HW151829   4.729   6.524   7.387 -0.2174  0.5033  1.4726
16796SOL    HW251830   4.822   6.602   7.296 -0.3352 -1.0787 -0.0479
16797SOL     OW51831   5.549   2.341   6.502  0.0056 -0.1322  0.4533
16797SOL    HW151832   5.633   2.308   6.536  0.2567 -0.8142 -0.7649
16797SOL    HW251833   5.573   2.388   6.421 -0.7013  0.4011  0.5474
16798SOL     OW51834   7.498   6.480   6.945  0.1904  0.0955  0.2864
16798SOL    HW151835   7.466   6.564   6.979 -1.6332 -0.2450 -0.4812
16798SOL    HW251836   7.470   6.415   7.010  0.8986 -0.0393  0.4740
16799SOL     OW51837   6.417   0.151   6.643 -0.1257  0.3465 -0.0357
16799SOL    HW151838   6.472   0.075   6.624 -0.1070  0.4209 -0.2914
16799SOL    HW251839   6.376   0.131   6.727  0.2789  0.2838  0.1514
16800SOL     OW51840   4.867   0.828   7.130 -0.7833  0.1557 -0.1703
16800SOL    HW151841   4.868   0.878   7.048  1.8315 -0.5378 -0.6674
16800SOL    HW251842   4.789   0.858   7.176 -1.1611  2.1399 -1.9559
16801SOL     OW51843   3.624   5.711   7.040  0.4025  0.3160  0.0990
16801SOL    HW151844   3.568   5.751   6.974 -0.0877 -0.6875 -0.1094
16801SOL    HW251845   3.649   5.626   7.003  0.3516 -0.1447  1.0712
16802SOL     OW51846   6.245   0.272   8.921  0.1443  0.1943 -0.2361
16802SOL    HW151847   6.203   0.198   8.876 -0.9776  0.2971  0.5771
16802SOL    HW251848   6.281   0.234   9.001 -0.3796  0.4898  0.1533
16803SOL     OW51849   5.845   7.890   7.312  0.2129  0.2256 -0.0872
16803SOL    HW151850   5.869   7.932   7.230 -0.1077 -0.4408 -0.5354
16803SOL    HW251851   5.784   7.820   7.286 -0.7116  0.6633  0.8196
16804SOL     OW51852   2.759   5.599   6.481  0.1300 -0.4653 -0.3200
16804SOL    HW151853   2.807   5.587   6.398 -0.3590  0.1436 -0.6901
16804SOL    HW251854   2.828   5.608   6.547  0.5328  0.0760 -0.8061
16805SOL     OW51855   3.242   5.104   5.773 -0.0331 -0.3311 -0.0324
16805SOL    HW151856   3.172   5.123   5.835 -0.8118  0.6480 -1.1698
16805SOL    HW251857   3.314   5.072   5.827 -0.9218 -0.1516  1.2937
16806SOL     OW51858   4.706   6.123   6.856 -0.2296  0.2662 -0.4418
16806SOL    HW151859   4.657   6.125   6.773 -0.1507  1.7319 -0.4955
16806SOL    HW251860   4.791   6.086   6.833 -0.8806 -1.1731 -0.5971
16807SOL     OW51861   5.317   7.147   6.186  0.0194  0.1476  0.0688
16807SOL    HW151862   5.409   7.155   6.209 -0.5627  0.5970  2.5502
16807SOL    HW251863   5.303   7.214   6.119  1.5570 -0.2842 -0.7395
16808SOL     OW51864   3.228   4.935   6.594 -0.3628  0.6459 -0.5908
16808SOL    HW151865   3.209   4.890   6.677  1.0633  3.4662  1.4647
16808SOL    HW251866   3.286   4.876   6.547  0.9036 -0.0425  1.6521
16809SOL     OW51867   5.735   6.797   8.311  0.3039 -0.2646  0.1820
16809SOL    HW151868   5.809   6.857   8.308 -1.7229  2.3998 -0.2330
16809SOL    HW251869   5.716   6.777   8.220 -0.8560  0.9608  0.1253
16810SOL     OW51870   3.640   5.912   5.938 -0.4010  0.6488  0.0988
16810SOL    HW151871   3.681   5.853   5.875  0.3370  1.9326 -0.6847
16810SOL    HW251872   3.663   5.876   6.023 -0.6833 -0.6422 -0.3542
16811SOL     OW51873   5.736   1.342   9.975  0.4917  0.0935 -0.2064
16811SOL    HW151874   5.747   1.335  10.069  3.3549  0.6379 -0.4155
16811SOL    HW251875   5.730   1.436   9.958  0.8411  0.0445 -0.6277
16812SOL     OW51876   3.229   6.547   7.050 -0.1185 -0.3215 -0.2051
16812SOL    HW151877   3.187   6.463   7.070  1.9561 -1.3994 -0.1031
16812SOL    HW251878   3.258   6.537   6.959  2.1632 -0.6615  0.5135
16813SOL     OW51879   4.899   6.559   4.062  1.0328  0.1212 -0.0920
16813SOL    HW151880   4.889   6.632   4.123  1.7783 -2.0300  2.8453
16813SOL    HW251881   4.812   6.520   4.055  1.1467 -0.2965  0.6143
16814SOL     OW51882   7.413   6.661   7.900  0.6355  0.3187  0.1723
16814SOL    HW151883   7.376   6.579   7.867 -1.6127  1.1139  0.5437
16814SOL    HW251884   7.442   6.708   7.821  1.0306 -0.4131 -0.1204
16815SOL     OW51885   6.586   6.727   7.315 -0.2688  0.0447 -0.0416
16815SOL    HW151886   6.565   6.803   7.369  0.6163  0.9236 -0.8972
16815SOL    HW251887   6.582   6.653   7.376 -0.6917  0.8231  0.9073
16816SOL     OW51888   5.197   6.062   6.401 -0.3039  0.8046  0.9941
16816SOL    HW151889   5.210   6.109   6.483 -0.9986 -0.4063  1.8333
16816SOL    HW251890   5.196   5.970   6.426  0.2361  0.3733 -0.4952
16817SOL     OW51891   4.656   6.425   8.843  0.0908  0.0090 -0.2728
16817SOL    HW151892   4.629   6.387   8.926 -2.1138  2.1558  0.1175
16817SOL    HW251893   4.593   6.391   8.780 -0.5675  1.2618 -0.3156
16818SOL     OW51894   7.355   4.798   4.260  0.1246 -0.3083  0.0511
16818SOL    HW151895   7.265   4.767   4.273 -0.2561  0.6364 -0.1800
16818SOL    HW251896   7.410   4.722   4.278 -0.8094 -1.6641 -2.3149
16819SOL     OW51897   0.003   7.081   6.619 -0.0514 -0.0052  0.2564
16819SOL    HW151898   0.043   7.031   6.548 -0.6340  0.3119 -0.2982
16819SOL    HW251899   0.072   7.086   6.686  0.5856 -0.0805 -0.3883
16820SOL     OW51900   5.920   0.694   6.532 -1.2187 -0.3109  0.2233
16820SOL    HW151901   5.880   0.751   6.597 -2.5344 -1.5608  0.5388
16820SOL    HW251902   5.958   0.622   6.583 -0.0852 -0.0609 -0.2211
16821SOL     OW51903   5.136   6.093   7.308  0.6359  0.0673 -0.6134
16821SOL    HW151904   5.204   6.107   7.241 -1.0193  0.7075 -2.2518
16821SOL    HW251905   5.109   6.181   7.334  0.1527 -0.1755 -0.2826
16822SOL     OW51906   3.322   6.083   7.376  0.0472  0.3261 -0.9232
16822SOL    HW151907   3.244   6.029   7.393 -1.6270  1.8722 -3.0300
16822SOL    HW251908   3.385   6.056   7.442 -1.4594 -2.6132 -0.5120
16823SOL     OW51909   5.101   5.946   6.858 -0.5776  0.1340 -0.4572
16823SOL    HW151910   5.158   6.019   6.834  0.0975 -0.2747 -0.1295
16823SOL    HW251911   5.149   5.868   6.831 -1.9887 -0.1707 -2.2553
16824SOL     OW51912   4.561   6.322   5.943  0.5527 -0.0233 -0.0711
16824SOL    HW151913   4.581   6.408   5.905  0.6222 -0.6384 -1.5049
16824SOL    HW251914   4.574   6.261   5.870 -0.4215 -1.1409  0.6698
16825SOL     OW51915   3.713   0.299   3.873  0.3924  0.0633 -0.0717
16825SOL    HW151916   3.620   0.314   3.859 -0.2996 -2.6595  0.8913
16825SOL    HW251917   3.749   0.286   3.786 -0.8858 -2.2089 -0.3465
16826SOL     OW51918   3.062   0.068   5.464  0.6596 -0.3489 -0.3012
16826SOL    HW151919   3.121  -0.007   5.473 -0.5944 -1.4673 -1.0590
16826SOL    HW251920   3.004   0.045   5.392 -0.6704  0.7422  0.3756
16827SOL     OW51921   5.172   7.992   6.431  0.2159 -0.2588 -0.5199
16827SOL    HW151922   5.126   7.986   6.514 -0.2944  1.1449 -0.6794
16827SOL    HW251923   5.105   7.980   6.364  0.1853  0.9944 -0.7420
16828SOL     OW51924   4.721   6.694   6.487 -0.3181 -0.2730 -0.3887
16828SOL    HW151925   4.806   6.664   6.518 -0.2143  0.6364  0.2361
16828SOL    HW251926   4.719   6.788   6.508 -1.3535 -0.2196 -0.6592
16829SOL     OW51927   4.506   6.729   7.096  0.0029 -0.5294 -0.0382
16829SOL    HW151928   4.498   6.771   7.182  0.7603  0.3305 -0.3744
16829SOL    HW251929   4.416   6.729   7.061 -0.5428 -2.0249  1.2444
16830SOL     OW51930   3.707   5.660   5.910 -0.3336 -0.1140 -0.0245
16830SOL    HW151931   3.674   5.574   5.884  2.0384 -0.4993 -2.2005
16830SOL    HW251932   3.767   5.642   5.982 -1.9166  0.1334  1.4144
16831SOL     OW51933   5.014   6.326   7.332 -0.0779  0.0422 -0.5821
16831SOL    HW151934   4.989   6.323   7.425 -1.2420 -0.7776 -0.9039
16831SOL    HW251935   5.050   6.414   7.320  0.4897  0.0221  0.7417
16832SOL     OW51936   5.260   5.830   5.860  0.1324 -0.1790 -0.0292
16832SOL    HW151937   5.345   5.816   5.819  0.2262 -2.0179  0.6816
16832SOL    HW251938   5.260   5.772   5.936 -1.6620 -0.0283  0.1357
16833SOL     OW51939   5.127   6.604   7.291  0.0698  0.4889 -0.1479
16833SOL    HW151940   5.207   6.627   7.338  0.3959  1.4521 -1.1149
16833SOL    HW251941   5.067   6.677   7.309 -0.3486  0.1056  0.0243
16834SOL     OW51942   4.008   7.885   7.513 -0.2881  0.4890 -0.1349
16834SOL    HW151943   3.953   7.926   7.446  2.3015  0.0824 -2.6868
16834SOL    HW251944   4.035   7.802   7.475  0.6585 -0.1445  1.7818
16835SOL     OW51945   5.002   5.779   6.139  0.5332  0.4441  0.4211
16835SOL    HW151946   4.966   5.864   6.111 -1.7716 -0.5651  0.1196
16835SOL    HW251947   4.962   5.715   6.080  2.0472 -0.9162  0.7939
16836SOL     OW51948   5.112   7.928   8.527  0.0013 -0.3300  0.5682
16836SOL    HW151949   5.059   7.977   8.590 -0.1924  0.5114 -0.2333
16836SOL    HW251950   5.047   7.880   8.474 -0.1106  1.6487 -1.2179
16837SOL     OW51951   5.431   6.462   4.567  0.4633  0.2071 -0.7113
16837SOL    HW151952   5.453   6.553   4.590 -0.6727  0.5604 -0.9352
16837SOL    HW251953   5.341   6.452   4.599  0.4750 -0.7464 -0.9741
16838SOL     OW51954   6.138   7.121   7.855  0.6013 -0.4787 -0.5093
16838SOL    HW151955   6.171   7.049   7.908 -0.0557  0.0634  0.6852
16838SOL    HW251956   6.060   7.151   7.902  1.4188  1.6509 -0.4190
16839SOL     OW51957   5.242   6.501   6.698 -0.2187 -0.8293  0.4251
16839SOL    HW151958   5.156   6.459   6.703 -1.7255  2.0540  1.0484
16839SOL    HW251959   5.237   6.555   6.619  1.4705 -1.4002 -0.1119
16840SOL     OW51960   4.756   4.630   4.371  0.1447 -0.8258 -0.4096
16840SOL    HW151961   4.715   4.713   4.344 -2.8756 -2.0574  0.0364
16840SOL    HW251962   4.819   4.656   4.438 -0.9276  1.1041 -0.0615
16841SOL     OW51963   5.028   0.521   6.144 -0.5527 -0.1824 -0.3269
16841SOL    HW151964   5.122   0.508   6.129 -0.7530  0.0012 -1.8927
16841SOL    HW251965   5.002   0.586   6.079 -1.8855 -0.6321 -0.2763
16842SOL     OW51966   6.113   6.948   4.917 -0.4457  0.2848  0.2723
16842SOL    HW151967   6.036   7.003   4.903 -0.3463  0.7476  1.4519
16842SOL    HW251968   6.103   6.915   5.006  1.1707  1.0977  0.7844
16843SOL     OW51969   3.459   6.400   5.934 -0.2494  0.5377 -0.6597
16843SOL    HW151970   3.509   6.481   5.921  0.0202  0.7893  1.5007
16843SOL    HW251971   3.525   6.332   5.946 -0.4341  0.4852  0.1080
16844SOL     OW51972   3.581   1.604   6.258  0.2329  0.0945 -0.0819
16844SOL    HW151973   3.675   1.598   6.242  0.5602  1.0519  1.2936
16844SOL    HW251974   3.557   1.692   6.227  0.1204  0.4599  1.0039
16845SOL     OW51975   4.342   6.020   7.187 -0.8163  0.3192 -0.0192
16845SOL    HW151976   4.376   6.048   7.102  0.6460 -0.0157  0.4400
16845SOL    HW251977   4.317   5.929   7.175 -1.1975  0.4503 -0.2459
16846SOL     OW51978   5.111   6.315   7.882 -0.0206  0.4759 -0.3940
16846SOL    HW151979   5.157   6.235   7.909  1.1127  1.2130 -0.1165
16846SOL    HW251980   5.077   6.351   7.964  0.6202  0.9824 -0.3453
16847SOL     OW51981   5.062   0.323   9.157  0.0465  0.6062  0.6945
16847SOL    HW151982   5.084   0.280   9.075  0.1609  1.2934  0.3588
16847SOL    HW251983   4.967   0.316   9.163  0.0829  0.1325  0.7442
16848SOL     OW51984   4.216   5.908   4.725  0.0559 -0.1685  0.2704
16848SOL    HW151985   4.213   5.995   4.687  1.5727 -0.6442 -1.0629
16848SOL    HW251986   4.297   5.907   4.776 -0.1689 -0.6543  0.6269
16849SOL     OW51987   6.625   7.229   7.751 -0.0217  0.2221  0.2830
16849SOL    HW151988   6.637   7.166   7.822 -1.3365  0.7863  1.0330
16849SOL    HW251989   6.537   7.265   7.765 -0.0699  0.7917 -1.2785
16850SOL     OW51990   4.091   7.281   6.590  0.0766  0.1496  0.4780
16850SOL    HW151991   4.064   7.216   6.655 -1.8454  0.8942  0.4787
16850SOL    HW251992   4.123   7.229   6.516 -0.3556 -0.7722  0.9167
16851SOL     OW51993   3.748   0.749   7.966  0.0667  0.2161 -0.5100
16851SOL    HW151994   3.812   0.741   8.036 -1.1374 -0.4834  0.5692
16851SOL    HW251995   3.743   0.661   7.927 -1.0442 -0.0605  0.1963
16852SOL     OW51996   6.053   6.062   8.652 -0.1622  0.5997 -0.0084
16852SOL    HW151997   6.059   6.108   8.568 -0.0543 -0.2526 -0.4754
16852SOL    HW251998   5.959   6.054   8.667 -0.1981  1.9820  0.6518
16853SOL     OW51999   5.128   7.580   6.883 -0.4279  0.2623  0.4259
16853SOL    HW152000   5.085   7.511   6.832  0.4110 -0.5993  0.8523
16853SOL    HW252001   5.200   7.609   6.827  0.4843 -0.6727  1.0783
16854SOL     OW52002   4.208   6.749   7.094 -0.0797 -0.3883  0.0575
16854SOL    HW152003   4.143   6.773   7.160 -0.6228 -0.4858 -0.4231
16854SOL    HW252004   4.163   6.685   7.039  0.9980 -1.7545  0.7110
16855SOL     OW52005   4.555   5.905   8.634 -0.6378 -0.6784 -0.7916
16855SOL    HW152006   4.492   5.848   8.590  0.7393 -0.9794 -2.5257
16855SOL    HW252007   4.613   5.845   8.680 -0.4251 -0.5567 -0.8982
16856SOL     OW52008   5.381   7.850   6.505 -0.3430  0.4342 -0.6494
16856SOL    HW152009   5.360   7.762   6.472 -1.4709  0.5053 -0.1695
16856SOL    HW252010   5.319   7.908   6.461 -1.1069  0.6756  0.7044
16857SOL     OW52011   5.720   7.611   6.540  0.5516  0.2128  0.5282
16857SOL    HW152012   5.682   7.524   6.547  2.8365 -1.1726 -2.2716
16857SOL    HW252013   5.676   7.662   6.608 -2.3120 -2.5506  0.9778
16858SOL     OW52014   4.662   5.264   6.311  0.6263 -0.6839  0.5492
16858SOL    HW152015   4.622   5.200   6.369 -0.6161  0.7985  1.4268
16858SOL    HW252016   4.591   5.326   6.292  1.4836 -0.1548 -1.1291
16859SOL     OW52017   6.512   6.250   6.297 -0.2152  0.5992  0.4843
16859SOL    HW152018   6.545   6.314   6.234  1.0379  1.0107  1.5202
16859SOL    HW252019   6.582   6.185   6.305 -1.8498 -1.5473 -1.3089
16860SOL     OW52020   4.893   7.336   6.163 -0.2062 -0.5223  0.1209
16860SOL    HW152021   4.809   7.370   6.195  0.4204  1.2588 -0.0116
16860SOL    HW252022   4.919   7.398   6.095  1.7681 -0.3583  0.9570
16861SOL     OW52023   3.376   5.675   7.330 -0.0457 -0.2413 -0.2706
16861SOL    HW152024   3.343   5.746   7.275 -2.8975  0.2032  1.7750
16861SOL    HW252025   3.337   5.596   7.292  0.8553 -0.4149 -0.8824
16862SOL     OW52026   3.696   6.724   4.370  0.1543  0.0027 -0.3714
16862SOL    HW152027   3.617   6.672   4.384  0.0791 -0.2233 -1.4866
16862SOL    HW252028   3.732   6.689   4.288  2.2526 -0.9504  0.8937
16863SOL     OW52029   5.887   6.726   5.280 -0.6036  0.5561  0.5524
16863SOL    HW152030   5.876   6.808   5.232 -0.3007 -0.3884 -1.2149
16863SOL    HW252031   5.804   6.714   5.327 -1.4497  0.8652 -0.8127
16864SOL     OW52032   5.029   7.432   6.426 -0.1030  0.0820  0.4350
16864SOL    HW152033   4.971   7.470   6.360 -1.6374 -1.0877  1.0446
16864SOL    HW252034   5.041   7.341   6.397 -1.5378 -0.7280  2.1618
16865SOL     OW52035   5.177   7.628   8.542  0.0976  0.3566 -0.1111
16865SOL    HW152036   5.254   7.652   8.490  0.5688  0.7006  0.7358
16865SOL    HW252037   5.120   7.705   8.538  0.3329  0.5468  0.2575
16866SOL     OW52038   4.659   7.594   6.216 -0.3310 -0.8565  0.2217
16866SOL    HW152039   4.628   7.646   6.142  1.6538 -0.2261 -0.2478
16866SOL    HW252040   4.594   7.525   6.227 -0.9117 -0.6929 -1.8260
16867SOL     OW52041   4.288   1.694   6.198  0.7200 -0.0073 -0.4488
16867SOL    HW152042   4.223   1.626   6.179  1.5967 -1.7942  2.3154
16867SOL    HW252043   4.370   1.659   6.164  1.0296  0.0222  0.2451
16868SOL     OW52044   6.276   7.276   7.433 -0.2723  0.8753 -0.0958
16868SOL    HW152045   6.236   7.223   7.502  0.5496  1.0223  0.5086
16868SOL    HW252046   6.243   7.364   7.450  0.2760  0.9923  0.3868
16869SOL     OW52047   4.166   7.221   5.817  0.2594 -0.3817 -0.1190
16869SOL    HW152048   4.223   7.148   5.794  1.8693  0.8333 -0.1713
16869SOL    HW252049   4.211   7.299   5.783  0.9423  1.1456  3.7399
16870SOL     OW52050   6.106   5.190   5.850  0.2580 -0.1037  0.2002
16870SOL    HW152051   6.088   5.145   5.767  0.3807 -0.1189  0.1815
16870SOL    HW252052   6.177   5.140   5.889  0.6287  0.2699  0.0197
16871SOL     OW52053   6.134   7.114   7.280 -0.4945  0.2448  0.8832
16871SOL    HW152054   6.182   7.031   7.282 -1.1578 -0.1954 -0.4280
16871SOL    HW252055   6.184   7.172   7.338 -0.8656 -1.4854  3.0388
16872SOL     OW52056   7.836   6.611   7.307  0.1475  0.4889 -0.3130
16872SOL    HW152057   7.776   6.670   7.352 -0.0516  0.2348 -0.2366
16872SOL    HW252058   7.787   6.528   7.301  0.4323  0.3255 -0.3900
16873SOL     OW52059   4.845   5.493   6.275  0.7001  0.0692  0.5112
16873SOL    HW152060   4.867   5.410   6.233  1.7257 -0.2098  1.5557
16873SOL    HW252061   4.858   5.477   6.368 -1.2353  0.7633  0.9563
16874SOL     OW52062   5.993   6.918   7.457  0.0569  0.4056 -0.4870
16874SOL    HW152063   6.065   6.873   7.502 -0.9817 -0.2690  0.5695
16874SOL    HW252064   5.985   6.873   7.373  1.0091  0.6523 -0.7271
16875SOL     OW52065   4.389   7.105   6.745  0.3739 -0.2510 -0.5936
16875SOL    HW152066   4.375   7.165   6.671  1.2119  1.0296  0.2514
16875SOL    HW252067   4.344   7.147   6.818  1.9735 -0.0289  0.2992
16876SOL     OW52068   5.571   6.288   6.444  0.0591  0.1287  0.0077
16876SOL    HW152069   5.661   6.271   6.417  0.1552  1.8600 -0.9082
16876SOL    HW252070   5.518   6.251   6.373 -0.0118 -1.3038  0.7675
16877SOL     OW52071   7.649   4.994   4.943 -0.3622 -0.5133 -0.3528
16877SOL    HW152072   7.623   5.034   4.860 -1.2303 -1.1754 -0.4209
16877SOL    HW252073   7.700   5.061   4.988 -0.4429  0.0836 -1.1470
16878SOL     OW52074   2.755   6.713   6.089  0.1886  0.1606  0.2506
16878SOL    HW152075   2.796   6.753   6.165 -0.4823 -0.7155  1.1025
16878SOL    HW252076   2.820   6.720   6.019  0.2356  2.3820  0.4438
16879SOL     OW52077   5.640   5.284   8.715 -0.1745 -0.2095 -0.1124
16879SOL    HW152078   5.558   5.329   8.695 -0.2909 -0.4572 -0.2038
16879SOL    HW252079   5.700   5.354   8.739 -0.7647 -0.1255  1.2250
16880SOL     OW52080   5.515   6.498   6.644  0.4915 -0.2572  0.4622
16880SOL    HW152081   5.538   6.420   6.594  0.3123 -0.3155  0.4703
16880SOL    HW252082   5.422   6.487   6.665  0.4212  0.0439  0.3136
16881SOL     OW52083   3.286   6.392   6.500 -0.0603 -0.1026 -0.7336
16881SOL    HW152084   3.299   6.302   6.531 -6.2051 -0.8172  1.2564
16881SOL    HW252085   3.252   6.381   6.411 -1.0538  0.1095 -0.3989
16882SOL     OW52086   3.293   7.969   6.315 -0.2074 -0.0878 -0.6978
16882SOL    HW152087   3.355   7.917   6.264  0.9567  0.6467 -0.0686
16882SOL    HW252088   3.336   7.983   6.399 -0.1432  2.4434 -1.0673
16883SOL     OW52089   4.562   7.776   6.018 -0.0846 -0.4447 -0.0888
16883SOL    HW152090   4.487   7.830   5.993 -0.3969 -0.5314  0.6522
16883SOL    HW252091   4.638   7.828   5.993 -0.2091 -2.0066 -4.8608
16884SOL     OW52092   4.172   0.034   6.075 -0.7914  0.0759  0.3624
16884SOL    HW152093   4.232  -0.022   6.026 -0.6991  0.9722 -0.5556
16884SOL    HW252094   4.189   0.012   6.167  1.4697  0.8178  0.1765
16885SOL     OW52095   5.241   6.449   5.929 -0.4509 -0.6707 -0.6511
16885SOL    HW152096   5.227   6.355   5.938  1.1571 -1.0103 -1.3575
16885SOL    HW252097   5.198   6.471   5.846  1.6364 -1.4095 -2.0270
16886SOL     OW52098   4.654   7.877   7.774  0.2315  0.2260  0.2273
16886SOL    HW152099   4.729   7.821   7.792 -0.2323 -0.7551 -0.8066
16886SOL    HW252100   4.691   7.953   7.729  0.6811  0.0618  0.3144
16887SOL     OW52101   4.849   0.165   7.207 -0.1117  0.2268  0.5571
16887SOL    HW152102   4.791   0.095   7.238 -1.0143  0.1209 -1.2069
16887SOL    HW252103   4.926   0.119   7.173 -0.6114  0.0756 -0.4059
16888SOL     OW52104   3.070   5.694   8.519 -0.5221  0.0960  0.1825
16888SOL    HW152105   3.137   5.629   8.537 -2.3105 -1.6005  1.0327
16888SOL    HW252106   3.114   5.778   8.537  2.1273 -0.7024 -1.8763
16889SOL     OW52107   4.510   5.769   6.970 -0.3330 -0.4184 -0.3712
16889SOL    HW152108   4.460   5.848   6.992  0.9077  0.3883 -0.3694
16889SOL    HW252109   4.595   5.802   6.942 -0.0003 -1.7406 -0.9550
16890SOL     OW52110   4.343   5.753   5.325  0.2023 -0.7042  0.1160
16890SOL    HW152111   4.306   5.716   5.245  0.4907 -3.4581  1.1616
16890SOL    HW252112   4.267   5.786   5.373 -0.1390 -0.4256 -0.5903
16891SOL     OW52113   6.297   6.434   6.421 -0.8362 -0.3699  0.5556
16891SOL    HW152114   6.366   6.475   6.474  0.2215  0.2481 -1.2249
16891SOL    HW252115   6.341   6.361   6.377 -0.8440  0.9930 -1.8502
16892SOL     OW52116   3.942   5.010   7.948  0.0169  0.2201 -0.5163
16892SOL    HW152117   4.018   4.986   7.896  0.6419 -1.0205  0.9026
16892SOL    HW252118   3.878   5.042   7.883 -0.2137 -3.5750 -2.4570
16893SOL     OW52119   7.330   0.510   7.728  0.2198  0.2387 -0.0957
16893SOL    HW152120   7.295   0.452   7.661 -2.2451  1.3288  0.1333
16893SOL    HW252121   7.371   0.582   7.679 -0.6053  0.4795 -0.4487
16894SOL     OW52122   5.798   6.584   7.786 -0.1377  0.6147 -0.2865
16894SOL    HW152123   5.703   6.583   7.799 -0.2909  2.0364 -1.1181
16894SOL    HW252124   5.809   6.615   7.696  1.1593  2.7417  0.5387
16895SOL     OW52125   4.711   5.566   8.941  0.0034  0.1827 -0.0807
16895SOL    HW152126   4.763   5.578   8.862  1.3398  1.0530  0.8947
16895SOL    HW252127   4.649   5.496   8.918  0.2636  0.5071 -1.9165
16896SOL     OW52128   7.159   7.178   7.381  0.2299 -0.1107 -0.3877
16896SOL    HW152129   7.128   7.222   7.460  0.3659 -1.4773  0.4605
16896SOL    HW252130   7.183   7.090   7.410 -0.1934 -0.8178 -2.0399
16897SOL     OW52131   4.961   5.726   7.368  0.7595  0.4886  0.2616
16897SOL    HW152132   5.009   5.657   7.414 -0.9680 -1.3247 -0.5200
16897SOL    HW252133   5.026   5.768   7.312  2.0539  0.1967  1.4976
16898SOL     OW52134   5.303   4.436   8.174 -0.1661 -0.0641  0.4054
16898SOL    HW152135   5.293   4.341   8.170 -1.5085  0.0796 -0.2648
16898SOL    HW252136   5.214   4.469   8.188  0.3569  1.0771  1.2519
16899SOL     OW52137   5.283   5.735   4.744  0.3504 -0.1550 -0.7248
16899SOL    HW152138   5.262   5.642   4.743  0.3200 -0.1464 -1.1269
16899SOL    HW252139   5.199   5.779   4.757  0.3001 -0.1684 -0.9980
16900SOL     OW52140   5.942   7.447   7.874  0.0874 -1.3306  0.2878
16900SOL    HW152141   5.957   7.419   7.784 -0.6972  0.6050 -0.4803
16900SOL    HW252142   5.851   7.474   7.877  1.1674  3.1337  0.2722
16901SOL     OW52143   2.620   1.332   6.273  0.1458  0.4161 -0.2266
16901SOL    HW152144   2.538   1.293   6.244  0.1542  2.3350 -3.3616
16901SOL    HW252145   2.688   1.273   6.240  0.0769  0.1842  0.0435
16902SOL     OW52146   3.666   6.601   5.899 -0.1182  0.2084 -0.3224
16902SOL    HW152147   3.750   6.615   5.943  0.3445  0.1117 -1.1545
16902SOL    HW252148   3.686   6.540   5.828 -0.2935  2.2982 -2.2980
16903SOL     OW52149   5.488   6.172   8.014  0.2308  0.2540 -0.4584
16903SOL    HW152150   5.549   6.180   8.087 -0.1852 -0.5205 -0.0083
16903SOL    HW252151   5.544   6.157   7.937  0.6128 -1.8616  0.1545
16904SOL     OW52152   3.668   5.282   8.501 -0.1298  0.4706  0.8821
16904SOL    HW152153   3.679   5.233   8.419  0.6780  0.1350  1.1853
16904SOL    HW252154   3.757   5.297   8.532 -0.3733  2.0477  0.8606
16905SOL     OW52155   4.836   6.337   6.377 -0.1442  0.0354  0.2200
16905SOL    HW152156   4.757   6.306   6.333 -0.8744  0.0505  1.4649
16905SOL    HW252157   4.809   6.419   6.419  0.5073  0.0047  0.7100
16906SOL     OW52158   5.581   5.783   9.714  0.0093 -0.5315  0.2760
16906SOL    HW152159   5.588   5.714   9.648 -1.7985 -0.5424  0.0682
16906SOL    HW252160   5.622   5.859   9.672 -2.1542 -0.1929 -1.4248
16907SOL     OW52161   6.205   0.001   8.343 -0.0063  0.1752  0.1361
16907SOL    HW152162   6.191   0.096   8.342 -0.1592  0.1492 -0.2839
16907SOL    HW252163   6.299  -0.010   8.330  0.0635  0.2770  0.5300
16908SOL     OW52164   5.288   5.858   9.175  0.0389  0.1989  0.0019
16908SOL    HW152165   5.231   5.932   9.198 -1.0854 -1.1750  1.9126
16908SOL    HW252166   5.228   5.784   9.169  1.6254 -1.4539  2.7144
16909SOL     OW52167   4.911   5.835   9.222 -0.1878 -0.1995  0.4438
16909SOL    HW152168   4.881   5.744   9.216 -1.3436  0.0393  1.8446
16909SOL    HW252169   4.896   5.872   9.135 -1.0683 -0.9730  0.2507
16910SOL     OW52170   3.879   6.032   8.903  0.0102 -0.2989  0.1180
16910SOL    HW152171   3.803   6.046   8.960  0.7084 -2.7014  1.7858
16910SOL    HW252172   3.848   5.971   8.836  0.1950 -0.5017  0.2161
16911SOL     OW52173   5.047   5.515   9.680  0.4778 -0.5488 -0.0241
16911SOL    HW152174   5.066   5.519   9.774  1.7211  0.7242 -0.3035
16911SOL    HW252175   5.056   5.422   9.658 -1.3873 -1.1409  1.3778
16912SOL     OW52176   5.418   0.098   7.476 -0.2695  0.0682 -0.3165
16912SOL    HW152177   5.503   0.063   7.448 -1.2332 -2.0249 -0.8644
16912SOL    HW252178   5.417   0.083   7.570  0.1097  0.4553 -0.2468
16913SOL     OW52179   6.322   7.451   8.774 -0.2638  0.7167 -0.1485
16913SOL    HW152180   6.391   7.463   8.709  0.5671 -0.7614  0.4092
16913SOL    HW252181   6.293   7.539   8.794 -0.2677  1.2356 -2.2122
16914SOL     OW52182   3.822   0.474   8.898 -0.3349  0.0221  0.4755
16914SOL    HW152183   3.787   0.418   8.828  0.3716  1.0784 -0.7445
16914SOL    HW252184   3.916   0.458   8.897 -0.3795 -0.4573  1.6712
16915SOL     OW52185   5.384   0.958  10.442  0.1031 -0.0185  1.4730
16915SOL    HW152186   5.400   1.036  10.388  1.6272 -0.6994  0.8956
16915SOL    HW252187   5.330   0.990  10.515  1.1480  1.6867  1.5476
16916SOL     OW52188   4.791   5.663   9.941  0.1929 -0.1864  0.5280
16916SOL    HW152189   4.819   5.728   9.877 -0.3176 -0.5327 -0.0579
16916SOL    HW252190   4.871   5.641   9.989  0.6386 -0.1060 -0.1562
16917SOL     OW52191   4.891   5.520   8.696 -0.1036 -0.7415  0.0872
16917SOL    HW152192   4.853   5.497   8.611  0.2915  2.0233 -0.9482
16917SOL    HW252193   4.964   5.459   8.707  0.8175 -0.2045 -2.3799
16918SOL     OW52194   5.557   1.597   8.420 -0.2626 -0.0174 -0.3366
16918SOL    HW152195   5.487   1.648   8.461  0.3607  0.1230  0.5812
16918SOL    HW252196   5.511   1.534   8.365 -1.1059  0.3111 -0.0313
16919SOL     OW52197   4.802   6.218   7.879  0.5344  0.4310 -0.0007
16919SOL    HW152198   4.775   6.298   7.926  0.4612  0.3073  0.1677
16919SOL    HW252199   4.897   6.223   7.877  0.5371  0.4514  0.1389
16920SOL     OW52200   4.928   0.098   8.319  0.1206 -0.6697 -0.0087
16920SOL    HW152201   4.889   0.086   8.232  1.8116  1.1602 -1.1137
16920SOL    HW252202   5.005   0.041   8.319  0.3150 -0.4131  0.1354
16921SOL     OW52203   5.509   6.682  10.323 -0.4892  0.6197  0.2687
16921SOL    HW152204   5.455   6.623  10.377 -0.9648 -0.0662 -0.9160
16921SOL    HW252205   5.595   6.640  10.320 -0.0457  1.3901  1.6400
16922SOL     OW52206   4.273   5.432   9.557 -0.4119 -0.0676 -0.4020
16922SOL    HW152207   4.191   5.473   9.528  0.3716  1.9418  0.0312
16922SOL    HW252208   4.302   5.381   9.481 -1.6397 -0.1214 -0.8526
16923SOL     OW52209   3.026   7.834   8.043 -0.3162 -0.1025  0.5281
16923SOL    HW152210   2.996   7.920   8.075  2.2166  0.7790  0.7219
16923SOL    HW252211   3.027   7.844   7.948  1.5720  0.7400  0.5881
16924SOL     OW52212   6.912   4.671   8.229 -0.0192  0.4881  0.1171
16924SOL    HW152213   6.989   4.650   8.281 -0.4610 -0.5729  0.3722
16924SOL    HW252214   6.851   4.709   8.293 -0.2539 -0.0562  0.2271
16925SOL     OW52215   4.996   6.667   8.164  0.2244  0.4288 -0.5392
16925SOL    HW152216   5.081   6.708   8.145  0.5813 -0.1563 -0.2276
16925SOL    HW252217   4.949   6.732   8.216  0.9578  0.2774  0.3318
16926SOL     OW52218   6.816   7.666   9.214 -0.7213  0.2307  0.0101
16926SOL    HW152219   6.733   7.658   9.168 -1.2464  1.4347  0.6980
16926SOL    HW252220   6.825   7.585   9.264 -0.6484 -0.6349 -1.3662
16927SOL     OW52221   2.983   5.520   7.663 -0.1430 -0.2207  0.2940
16927SOL    HW152222   3.046   5.583   7.629 -0.0327  0.2364  1.2955
16927SOL    HW252223   2.962   5.464   7.589  1.6543 -0.5617 -0.0116
16928SOL     OW52224   6.131   5.960   8.888 -0.0426  0.3917  0.2136
16928SOL    HW152225   6.083   5.993   8.813  2.1883 -0.7259 -1.8655
16928SOL    HW252226   6.208   6.017   8.895  0.6951 -0.5987  0.4753
16929SOL     OW52227   6.863   1.371   7.787  0.0180  0.5879 -0.0561
16929SOL    HW152228   6.848   1.310   7.715 -0.2601  0.5499  0.0324
16929SOL    HW252229   6.794   1.436   7.778 -0.0143  0.5861  0.1728
16930SOL     OW52230   3.678   6.674  10.388  0.1032 -0.6825 -0.4644
16930SOL    HW152231   3.720   6.707  10.309  1.2373  0.2942  0.5159
16930SOL    HW252232   3.749   6.666  10.452 -0.5290 -2.8505  0.0520
16931SOL     OW52233   3.647   5.848   8.113  0.0439  0.1179 -0.1599
16931SOL    HW152234   3.703   5.924   8.131  2.4233 -1.6729  0.4648
16931SOL    HW252235   3.606   5.829   8.197  0.5709 -0.1448  0.0400
16932SOL     OW52236   5.960   7.235   9.408 -0.0939 -0.1467  1.1787
16932SOL    HW152237   5.871   7.241   9.374 -0.0141 -0.6279  0.8655
16932SOL    HW252238   6.012   7.288   9.347 -0.1996  0.3299  1.4983
16933SOL     OW52239   4.532   6.787   7.386  0.1445  0.6319 -0.2987
16933SOL    HW152240   4.564   6.697   7.392 -3.1605 -0.6021  0.9012
16933SOL    HW252241   4.605   6.840   7.417  1.2428 -1.8660  1.7576
16934SOL     OW52242   4.179   4.846   9.005  0.0727 -0.4050  0.0374
16934SOL    HW152243   4.196   4.862   8.913 -0.6098 -2.3364 -0.4723
16934SOL    HW252244   4.085   4.859   9.015 -0.2213 -2.1161 -0.0420
16935SOL     OW52245   3.482   5.470   8.185 -0.5751 -0.4392  0.0563
16935SOL    HW152246   3.435   5.398   8.143  0.3651 -1.2370  0.3189
16935SOL    HW252247   3.571   5.436   8.196 -0.1255  0.7662  0.2063
16936SOL     OW52248   7.120   0.096   8.771  0.4260 -0.3416  0.8593
16936SOL    HW152249   7.177   0.116   8.697  1.4408 -1.2730  1.3536
16936SOL    HW252250   7.125   0.173   8.827 -3.6757  2.3142 -1.8746
16937SOL     OW52251   4.669   7.301  10.586  0.0875  0.2425  0.3456
16937SOL    HW152252   4.641   7.357  10.514 -0.7270  1.2900  1.4313
16937SOL    HW252253   4.726   7.235  10.546 -0.2405  0.8843 -1.2079
16938SOL     OW52254   6.484   0.065   8.057 -0.2689  0.2855  0.2601
16938SOL    HW152255   6.474   0.055   8.151 -0.5683  0.2988  0.2304
16938SOL    HW252256   6.530  -0.015   8.030  0.9914  0.8791  0.5921
16939SOL     OW52257   6.025   7.994   7.716 -0.0498 -0.1510  0.2898
16939SOL    HW152258   5.934   7.968   7.730 -0.3162  0.8140  0.3766
16939SOL    HW252259   6.076   7.927   7.762 -0.6966 -0.8614 -0.0011
16940SOL     OW52260   6.867   6.847   7.318  0.0092  0.3457  0.1944
16940SOL    HW152261   6.837   6.935   7.341  0.4122  0.2660  1.0298
16940SOL    HW252262   6.866   6.799   7.400 -0.2523 -0.4565 -0.2654
16941SOL     OW52263   3.940   7.780   9.530 -1.0010 -0.3700 -0.1033
16941SOL    HW152264   4.030   7.748   9.516 -0.2148  1.9228 -0.6636
16941SOL    HW252265   3.907   7.796   9.442 -1.1274  0.9165  0.1663
16942SOL     OW52266   5.086   0.775   5.991  0.1739 -0.5143  0.0865
16942SOL    HW152267   5.108   0.777   5.898  1.7144 -0.3552  0.4366
16942SOL    HW252268   5.168   0.794   6.036 -0.8788  1.0725  1.4596
16943SOL     OW52269   2.805   7.716   9.367 -0.1119  0.9065  0.6130
16943SOL    HW152270   2.756   7.743   9.289 -0.4506 -0.5445  0.2914
16943SOL    HW252271   2.738   7.679   9.425  0.3560  0.5074  0.9062
16944SOL     OW52272   6.604   4.642  10.900 -0.8471  0.6969 -0.6582
16944SOL    HW152273   6.530   4.591  10.933 -0.3052  1.0548  1.2425
16944SOL    HW252274   6.619   4.608  10.812  0.5999 -3.7274  1.0488
16945SOL     OW52275   5.526   5.694  10.766  0.2140  0.1945  0.9480
16945SOL    HW152276   5.518   5.744  10.685 -0.5425 -1.5718 -0.1436
16945SOL    HW252277   5.620   5.675  10.773  0.0300 -2.2199 -1.2932
16946SOL     OW52278   4.814   5.997  10.245  0.5037 -0.3964  0.0516
16946SOL    HW152279   4.802   5.983  10.339  2.3972  0.3458  0.4450
16946SOL    HW252280   4.776   5.919  10.204 -0.5031 -0.6499  1.4023
16947SOL     OW52281   4.417   6.237   9.498 -0.0578 -0.3478 -0.4500
16947SOL    HW152282   4.402   6.197   9.413 -0.3223 -0.2457 -0.4506
16947SOL    HW252283   4.512   6.249   9.502  0.0085 -0.8154 -0.5213
16948SOL     OW52284   4.424   6.366   8.705 -0.3641 -0.6619 -0.4348
16948SOL    HW152285   4.343   6.326   8.674 -1.2620  1.1833 -0.6285
16948SOL    HW252286   4.487   6.352   8.633 -1.4038  0.4921 -1.6207
16949SOL     OW52287   2.581   0.999  10.655 -0.7066 -0.2384  0.1432
16949SOL    HW152288   2.637   1.051  10.714  0.3444 -0.5760 -0.5270
16949SOL    HW252289   2.579   1.050  10.574 -1.6711 -0.0631  0.2688
16950SOL     OW52290   3.516   5.472   6.524 -0.2825  0.1041 -0.0246
16950SOL    HW152291   3.468   5.415   6.464 -0.6639 -0.4038  0.7415
16950SOL    HW252292   3.514   5.425   6.608  1.8835 -0.1144 -0.0345
16951SOL     OW52293   2.907   5.650   9.218 -0.2538  0.4506  0.5369
16951SOL    HW152294   2.908   5.744   9.199  0.9769  0.7708  1.9929
16951SOL    HW252295   2.979   5.637   9.280 -0.3473 -1.4760  0.3145
16952SOL     OW52296   6.030   6.786   8.214 -0.0738  0.0993  0.1956
16952SOL    HW152297   6.036   6.760   8.122 -1.1753  3.2929 -0.9319
16952SOL    HW252298   6.025   6.704   8.262 -0.4277 -1.6997 -2.6650
16953SOL     OW52299   4.544   5.976   8.321 -0.6774 -0.3356 -0.2400
16953SOL    HW152300   4.623   6.009   8.277 -0.3744  0.3903  0.8202
16953SOL    HW252301   4.570   5.962   8.412 -1.5906 -0.7605 -0.0262
16954SOL     OW52302   5.631   0.892   9.713 -0.3493 -0.4998  0.6581
16954SOL    HW152303   5.545   0.925   9.737  0.2579  0.1559  2.0346
16954SOL    HW252304   5.651   0.826   9.779  0.1441 -0.7744  0.2453
16955SOL     OW52305   6.090   0.180   9.202 -0.2890  0.4209 -0.4504
16955SOL    HW152306   6.049   0.242   9.142 -1.1750  0.3375  0.0620
16955SOL    HW252307   6.178   0.215   9.215 -0.4906  1.1008 -0.8428
16956SOL     OW52308   6.239   7.587   9.309  0.2095  0.0383  0.2655
16956SOL    HW152309   6.148   7.575   9.336  0.3912  0.6218  1.2128
16956SOL    HW252310   6.280   7.631   9.384  0.6684  2.1049 -1.1197
16957SOL     OW52311   6.461   0.456   7.799  0.4838 -0.0956 -0.5767
16957SOL    HW152312   6.366   0.444   7.788  0.0219 -0.7628  3.0556
16957SOL    HW252313   6.497   0.368   7.790  0.4120 -0.2443  0.5005
16958SOL     OW52314   4.990   6.138   8.905 -0.4516  0.2261  0.0232
16958SOL    HW152315   4.948   6.202   8.847 -2.8994 -0.8546  0.4748
16958SOL    HW252316   4.980   6.175   8.992  0.1919  0.2799  0.0769
16959SOL     OW52317   6.317   0.420   8.085  0.4596 -0.2447 -0.2155
16959SOL    HW152318   6.274   0.366   8.018 -0.5554  0.4127 -0.1044
16959SOL    HW252319   6.405   0.434   8.050  0.1694 -0.4947 -1.0912
16960SOL     OW52320   5.286   6.428  10.766  0.5601  0.4689  0.1056
16960SOL    HW152321   5.306   6.352  10.712  0.9126  1.4155 -1.1261
16960SOL    HW252322   5.197   6.453  10.741  0.7352  0.9282 -0.0639
16961SOL     OW52323   6.181   7.863   7.967 -0.2799  0.2520 -0.4011
16961SOL    HW152324   6.260   7.820   7.999 -0.8777 -1.2260 -0.8135
16961SOL    HW252325   6.156   7.923   8.037  0.1143 -0.6996  0.5881
16962SOL     OW52326   3.685   7.191   8.635 -0.4571  0.5748 -0.0110
16962SOL    HW152327   3.767   7.239   8.622  0.9285 -1.4409  0.7752
16962SOL    HW252328   3.701   7.134   8.710 -2.0226 -1.0055 -0.7749
16963SOL     OW52329   6.533   1.242   8.675  0.2879  0.2627 -1.0739
16963SOL    HW152330   6.438   1.229   8.676  0.4336 -1.1996  1.1572
16963SOL    HW252331   6.568   1.156   8.650  1.0293  0.1184  0.3559
16964SOL     OW52332   5.478   0.062   8.754  0.3013  0.1375  0.1879
16964SOL    HW152333   5.572   0.053   8.734  0.0600 -0.0028 -0.9790
16964SOL    HW252334   5.473   0.140   8.808  0.9292  1.2143 -1.2146
16965SOL     OW52335   5.212   6.650   7.671 -0.6633  0.2827 -0.0853
16965SOL    HW152336   5.248   6.658   7.583 -2.0848 -0.4158 -0.7669
16965SOL    HW252337   5.266   6.584   7.714  1.8855  2.6682  0.6187
16966SOL     OW52338   4.267   0.040   9.713  0.5268 -0.1869 -0.0309
16966SOL    HW152339   4.323   0.037   9.635  0.7893 -1.0781  0.1700
16966SOL    HW252340   4.178   0.032   9.679  0.5155  1.0831 -0.3456
16967SOL     OW52341   4.714   1.739   9.516  0.1710 -0.8798 -0.3338
16967SOL    HW152342   4.663   1.701   9.588 -0.4762  0.4443 -0.0580
16967SOL    HW252343   4.754   1.817   9.554 -0.2119 -0.1377 -1.4119
16968SOL     OW52344   4.196   5.422   6.673 -0.4031 -0.1308 -0.2648
16968SOL    HW152345   4.251   5.346   6.693  0.6012  0.4378 -0.8498
16968SOL    HW252346   4.148   5.396   6.594 -2.4307 -1.3569  1.2650
16969SOL     OW52347   5.328   6.554   9.147  0.6491  0.5379 -0.2808
16969SOL    HW152348   5.351   6.472   9.105  1.2459  0.7808 -0.4407
16969SOL    HW252349   5.368   6.549   9.234 -0.3162  0.1688  0.1667
16970SOL     OW52350   4.248   5.261   6.036 -0.6709  0.0119  0.4264
16970SOL    HW152351   4.277   5.174   6.009 -0.7621 -0.2041  1.0040
16970SOL    HW252352   4.172   5.245   6.092 -1.3040  0.5197 -0.2663
16971SOL     OW52353   4.468   6.542  11.177  0.3896  0.1308  0.3958
16971SOL    HW152354   4.498   6.509  11.092 -0.2787  1.1082 -0.2415
16971SOL    HW252355   4.546   6.582  11.216  1.0750 -1.6270  0.9416
16972SOL     OW52356   6.163   7.343   8.507 -0.2720 -0.3027  0.0149
16972SOL    HW152357   6.162   7.248   8.517  1.3334 -0.4083 -0.5730
16972SOL    HW252358   6.250   7.363   8.472 -1.6156  1.0836 -2.8591
16973SOL     OW52359   5.346   6.424   8.839 -1.0669  0.7155  0.0954
16973SOL    HW152360   5.291   6.501   8.821 -1.2856  0.2590 -1.2807
16973SOL    HW252361   5.324   6.362   8.770  1.4294  0.6177 -0.6890
16974SOL     OW52362   3.015   7.781   9.723 -0.4706  0.4170 -0.0192
16974SOL    HW152363   3.014   7.803   9.630 -2.5134  0.5843  0.0015
16974SOL    HW252364   3.045   7.861   9.767  2.6316 -0.3062 -0.5979
16975SOL     OW52365   5.155   6.096   9.172 -0.3177 -0.0790  0.4960
16975SOL    HW152366   5.219   6.154   9.132 -0.4041  0.5117  1.1900
16975SOL    HW252367   5.082   6.153   9.197  0.1103 -0.2456  2.3020
16976SOL     OW52368   3.167   5.331   7.749  0.0605 -0.5553  0.2968
16976SOL    HW152369   3.097   5.376   7.701  1.2062  0.9538 -0.0586
16976SOL    HW252370   3.162   5.368   7.837  1.5310  0.9817 -0.2119
16977SOL     OW52371   7.252   6.077   8.707 -0.0724  0.2921  0.0715
16977SOL    HW152372   7.253   6.171   8.690  0.3915  0.0352 -1.5315
16977SOL    HW252373   7.264   6.037   8.621 -0.0434 -1.2405  0.7476
16978SOL     OW52374   4.805   5.819   7.567  0.2307 -0.1570  0.1387
16978SOL    HW152375   4.821   5.746   7.628 -0.7037 -1.5071 -1.1384
16978SOL    HW252376   4.870   5.808   7.498  2.8297  2.7306  1.8929
16979SOL     OW52377   4.328   5.070   9.618  0.7943 -0.5443  0.0924
16979SOL    HW152378   4.385   5.147   9.627 -0.4571  0.4151  0.1247
16979SOL    HW252379   4.388   4.995   9.624  2.3180  0.4220 -1.7821
16980SOL     OW52380   3.727   4.692   9.494 -0.5939 -0.0465 -0.0479
16980SOL    HW152381   3.779   4.739   9.430  0.7167 -1.0712  0.2318
16980SOL    HW252382   3.678   4.627   9.443  0.9863 -1.3464  0.0049
16981SOL     OW52383   6.527   6.433   8.702 -0.2606  0.1919 -0.0308
16981SOL    HW152384   6.443   6.445   8.658  0.1713  0.3498 -0.8409
16981SOL    HW252385   6.524   6.494   8.776 -1.3389 -0.6974  0.6863
16982SOL     OW52386   5.492   5.321  11.242 -0.4235 -0.3537 -0.1789
16982SOL    HW152387   5.413   5.367  11.269 -0.0277 -0.8154  1.8869
16982SOL    HW252388   5.480   5.306  11.148 -4.0439 -2.8421  0.4847
16983SOL     OW52389   5.954   0.909   9.149  0.2621 -0.3934  0.6924
16983SOL    HW152390   6.014   0.973   9.110 -0.8706  0.3990  0.2121
16983SOL    HW252391   5.867   0.939   9.124 -0.2956 -3.1281 -1.1604
16984SOL     OW52392   4.838   0.762   8.822 -0.3428  0.5311  0.0060
16984SOL    HW152393   4.833   0.673   8.786 -1.2531  0.5428  0.0656
16984SOL    HW252394   4.816   0.819   8.748 -1.1865  0.6127  0.3048
16985SOL     OW52395   5.444   0.635   9.378  0.3222 -0.0490 -0.0954
16985SOL    HW152396   5.521   0.691   9.381  0.6889 -0.5524  2.1465
16985SOL    HW252397   5.373   0.690   9.412  0.1659 -0.2108 -0.1581
16986SOL     OW52398   5.629   7.600   7.576  0.3832  0.1309 -0.5252
16986SOL    HW152399   5.636   7.696   7.584  0.2582  0.0109  1.4825
16986SOL    HW252400   5.657   7.567   7.661 -2.1337 -1.5088 -0.2287
16987SOL     OW52401   6.176   6.290   7.434 -0.5083 -0.9981 -0.4720
16987SOL    HW152402   6.195   6.215   7.378  0.6886 -1.3650  0.3945
16987SOL    HW252403   6.109   6.339   7.386 -0.0698 -1.6956 -1.8600
16988SOL     OW52404   5.143   6.267   8.286  0.2671 -0.3359 -0.8362
16988SOL    HW152405   5.069   6.306   8.239 -1.1091 -0.2421  1.2433
16988SOL    HW252406   5.123   6.174   8.289  1.3270 -0.6268 -2.0316
16989SOL     OW52407   5.114   0.300   8.842  0.6559  0.0119  0.4250
16989SOL    HW152408   5.039   0.358   8.836  1.0292  0.6748  1.7853
16989SOL    HW252409   5.188   0.352   8.810  0.6197 -0.4845 -0.4844
16990SOL     OW52410   3.504   6.260   8.398  0.4251  0.1564 -0.2676
16990SOL    HW152411   3.492   6.218   8.313  1.2328 -0.9383  0.1242
16990SOL    HW252412   3.451   6.208   8.458  0.6986  0.2698  0.0757
16991SOL     OW52413   5.795   0.351   6.849 -0.5574  0.2930 -0.2660
16991SOL    HW152414   5.823   0.354   6.940 -0.4436 -1.9534 -0.1774
16991SOL    HW252415   5.708   0.392   6.850 -0.6542  0.1053  0.8861
16992SOL     OW52416   5.752   7.357   8.529 -0.7576 -0.8083 -0.1995
16992SOL    HW152417   5.777   7.448   8.509 -0.9570 -0.8223 -0.5150
16992SOL    HW252418   5.721   7.322   8.446  1.8614 -2.0210 -0.7807
16993SOL     OW52419   5.380   0.099   7.778 -0.2380  0.4978  0.4350
16993SOL    HW152420   5.348   0.073   7.865 -0.5615 -1.2802 -0.1759
16993SOL    HW252421   5.474   0.083   7.782 -0.6642 -3.5619 -0.6918
16994SOL     OW52422   4.159   5.399   7.131 -0.3452  0.2072  0.1093
16994SOL    HW152423   4.110   5.396   7.049 -0.0734  1.3765 -0.1019
16994SOL    HW252424   4.246   5.430   7.107  0.6658 -2.1282  0.4421
16995SOL     OW52425   5.939   6.289   5.973  0.4180  0.4360 -0.6182
16995SOL    HW152426   5.863   6.339   6.004  1.0463  1.8527 -1.2594
16995SOL    HW252427   5.932   6.204   6.017 -1.6249  0.4685 -0.8059
16996SOL     OW52428   6.781   0.468   8.281  0.6009 -0.8208 -0.3514
16996SOL    HW152429   6.802   0.553   8.241 -1.1385  0.0834  0.5616
16996SOL    HW252430   6.740   0.418   8.211  0.1658 -0.3060 -0.4700
16997SOL     OW52431   6.753   5.018  10.112  0.0780  0.1245 -0.1196
16997SOL    HW152432   6.797   5.084  10.059  0.8490  0.7403  1.2129
16997SOL    HW252433   6.825   4.972  10.156 -0.4031 -2.1966 -1.6465
16998SOL     OW52434   5.189   0.194   6.950  0.8434 -0.0421 -0.1481
16998SOL    HW152435   5.151   0.129   7.010  0.0053  0.1238 -0.4780
16998SOL    HW252436   5.113   0.244   6.919  1.4242  0.7634 -0.2906
16999SOL     OW52437   4.882   6.471  10.285 -0.0584  0.0510 -0.2421
16999SOL    HW152438   4.878   6.502  10.194 -0.2099  1.8124  0.3279
16999SOL    HW252439   4.816   6.402  10.289  0.3674 -0.4775 -1.6154
17000SOL     OW52440   5.796   6.025   8.655 -0.0930 -0.5628  0.1180
17000SOL    HW152441   5.718   6.016   8.601 -0.5380 -0.8711  0.7993
17000SOL    HW252442   5.793   5.950   8.714  0.2654 -0.1187  0.7132
17001SOL     OW52443   5.209   6.804  10.047 -0.1542 -0.3640  0.1950
17001SOL    HW152444   5.152   6.878  10.068 -0.0251  0.0144 -0.7570
17001SOL    HW252445   5.179   6.734  10.105 -0.8437  0.1698  0.4972
17002SOL     OW52446   6.541   6.084   9.338  0.2597 -0.0517  0.3210
17002SOL    HW152447   6.600   6.160   9.337 -0.2814  0.4054  1.4858
17002SOL    HW252448   6.588   6.017   9.289  1.1283  0.7574  0.0060
17003SOL     OW52449   5.337   6.395   7.751 -0.3498  0.5827 -0.0229
17003SOL    HW152450   5.257   6.359   7.789  1.2672 -1.0790  2.0398
17003SOL    HW252451   5.325   6.385   7.657 -3.3374  2.2116  0.0676
17004SOL     OW52452   5.204   5.296   9.311  0.2186 -0.1233 -0.3050
17004SOL    HW152453   5.144   5.357   9.355  1.9007  1.1518  0.3208
17004SOL    HW252454   5.289   5.313   9.351  0.9107 -2.3313 -0.7108
17005SOL     OW52455   5.578   6.179   9.520  0.0381 -0.0158  0.3123
17005SOL    HW152456   5.633   6.153   9.446  1.4525 -0.3595  1.4490
17005SOL    HW252457   5.613   6.264   9.547 -1.3784  0.7912 -0.2473
17006SOL     OW52458   3.449   0.661  10.341 -0.3860 -0.1641  0.4215
17006SOL    HW152459   3.492   0.707  10.269 -2.5630 -0.8060 -1.3804
17006SOL    HW252460   3.515   0.597  10.370  0.4660 -0.0760 -1.1927
17007SOL     OW52461   5.001   6.898   7.891  0.4794 -0.5040  0.4786
17007SOL    HW152462   4.993   6.828   7.827 -0.5590 -1.3696  1.5162
17007SOL    HW252463   5.078   6.874   7.944 -0.1660 -1.1513  1.1473
17008SOL     OW52464   3.954   5.286   9.028  0.6187  0.2900  0.0093
17008SOL    HW152465   3.986   5.225   8.961 -3.6070 -2.4434  0.0535
17008SOL    HW252466   3.983   5.247   9.111  0.1734 -0.1986 -0.0574
17009SOL     OW52467   6.335   6.141   8.791  0.0304 -0.3815 -0.0875
17009SOL    HW152468   6.398   6.106   8.728  0.3625  1.1117 -0.6483
17009SOL    HW252469   6.273   6.190   8.737 -0.3005  0.0240  0.6434
17010SOL     OW52470   5.716   7.152   9.225  0.0035  0.4567  0.2792
17010SOL    HW152471   5.642   7.209   9.244 -0.4060  0.0313 -0.0102
17010SOL    HW252472   5.723   7.153   9.129  0.8114  1.0364  0.3289
17011SOL     OW52473   6.380   0.802   7.450 -0.2187  0.6344 -0.2771
17011SOL    HW152474   6.334   0.884   7.432 -1.5449 -0.2035 -0.8565
17011SOL    HW252475   6.335   0.765   7.526  0.9042  0.8101  0.5017
17012SOL     OW52476   5.852   0.039   9.259  0.3498 -0.2801 -0.1093
17012SOL    HW152477   5.941   0.075   9.262  0.2847 -0.1849  1.6925
17012SOL    HW252478   5.842  -0.007   9.342 -1.2845 -0.2864 -0.2833
17013SOL     OW52479   6.033   6.540   8.315 -0.2648 -0.3406  0.0552
17013SOL    HW152480   6.070   6.467   8.264  3.5330  0.7223  0.9376
17013SOL    HW252481   5.998   6.498   8.394 -0.3894 -1.4137 -0.5478
17014SOL     OW52482   6.741   7.709  11.096 -0.0777 -0.2318 -0.3689
17014SOL    HW152483   6.721   7.633  11.040 -0.0019  0.5147 -1.4468
17014SOL    HW252484   6.746   7.782  11.035 -0.6137  0.7335  0.7112
17015SOL     OW52485   5.698   6.326   8.648  0.1989  0.0967  0.4985
17015SOL    HW152486   5.765   6.258   8.642  0.9021  0.8518 -0.6553
17015SOL    HW252487   5.728   6.382   8.719  0.1110 -0.2681  0.8291
17016SOL     OW52488   5.542   5.427  10.449  0.0824  0.0908  0.0194
17016SOL    HW152489   5.497   5.374  10.515  0.2097  0.5228  0.4548
17016SOL    HW252490   5.596   5.364  10.400 -1.7203 -0.6163 -1.1684
17017SOL     OW52491   4.893   6.126   8.527  0.2795  0.1035  0.3497
17017SOL    HW152492   4.972   6.072   8.528 -1.3573 -2.5043 -1.0891
17017SOL    HW252493   4.838   6.090   8.597 -0.4429  0.6140  0.0601
17018SOL     OW52494   3.899   6.627   9.384 -0.3028 -0.2629 -0.4386
17018SOL    HW152495   3.935   6.539   9.370  1.2417 -0.3313  2.9429
17018SOL    HW252496   3.827   6.614   9.446 -3.2098  0.4778 -3.3891
17019SOL     OW52497   4.060   5.385   8.433  0.0798 -0.3680 -0.1120
17019SOL    HW152498   4.131   5.359   8.490 -0.0185  0.4051  0.3758
17019SOL    HW252499   3.985   5.333   8.462 -0.5927  1.6373  2.0453
17020SOL     OW52500   5.226   4.733   9.693 -0.1170 -0.4715 -0.8268
17020SOL    HW152501   5.294   4.724   9.626 -1.0098 -1.6710 -1.5861
17020SOL    HW252502   5.161   4.667   9.672 -2.2915  1.5717 -0.9742
17021SOL     OW52503   4.483   6.222   8.941  0.0586 -0.2967 -0.1139
17021SOL    HW152504   4.466   6.289   8.874 -1.3367 -0.5844 -0.0837
17021SOL    HW252505   4.405   6.223   8.996  1.7816  1.0080  2.4935
17022SOL     OW52506   5.257   4.752   7.537 -0.3257  0.2318  0.1340
17022SOL    HW152507   5.165   4.732   7.555 -0.6916 -0.0102 -1.8002
17022SOL    HW252508   5.287   4.801   7.615 -2.2216  0.7748  0.5723
17023SOL     OW52509   5.141   6.898  10.789 -0.2422 -0.4024 -0.1618
17023SOL    HW152510   5.115   6.951  10.864  0.3953  0.9023 -0.8322
17023SOL    HW252511   5.121   6.952  10.713  0.9915 -0.8637 -0.8487
17024SOL     OW52512   4.023   5.631   8.279  0.0910  0.5938 -0.1415
17024SOL    HW152513   4.043   5.556   8.334  0.1561  1.8629  1.6317
17024SOL    HW252514   4.095   5.636   8.216  0.1882 -0.6692 -0.1471
17025SOL     OW52515   6.016   6.357   7.040  0.8792  0.9148  0.4213
17025SOL    HW152516   6.027   6.279   6.986  0.2875  0.3756  1.0692
17025SOL    HW252517   6.105   6.380   7.067  1.0598  0.4963  0.1865
17026SOL     OW52518   5.254   5.579  10.417  0.4638 -0.1937 -0.1264
17026SOL    HW152519   5.332   5.525  10.431 -0.3530 -0.9652  1.7697
17026SOL    HW252520   5.193   5.522  10.371  0.5078 -0.0337 -0.3890
17027SOL     OW52521   4.136   6.696  11.350 -0.3026  0.1237 -0.5486
17027SOL    HW152522   4.172   6.769  11.399 -0.3992  0.7184 -1.3384
17027SOL    HW252523   4.077   6.737  11.287 -0.5463 -0.6552 -0.8318
17028SOL     OW52524   6.142   7.650   8.530 -0.6410 -0.3641 -1.0653
17028SOL    HW152525   6.136   7.560   8.561  2.3247 -0.4910 -0.5101
17028SOL    HW252526   6.174   7.643   8.440 -1.2755  0.1312 -1.3377
17029SOL     OW52527   2.358   7.070   8.780 -0.1198 -0.0797 -0.0580
17029SOL    HW152528   2.395   7.062   8.692  1.1395  0.5753  0.3880
17029SOL    HW252529   2.419   7.023   8.836 -1.2910 -1.1043  0.3891
17030SOL     OW52530   3.799   5.949   7.682 -0.4490  0.1639  0.2500
17030SOL    HW152531   3.832   5.912   7.764 -1.5717  2.3061  1.7765
17030SOL    HW252532   3.745   5.880   7.644 -1.4238 -0.2963  2.3197
17031SOL     OW52533   7.782   6.967   8.792  0.0044 -0.1316  0.1466
17031SOL    HW152534   7.764   7.056   8.823  3.0834  0.9756 -0.9116
17031SOL    HW252535   7.770   6.972   8.697  0.8101 -0.6294  0.0076
17032SOL     OW52536   3.717   7.054  10.295  0.4021  0.4315  0.2339
17032SOL    HW152537   3.725   6.970  10.249 -0.6808  0.5769 -0.2531
17032SOL    HW252538   3.682   7.114  10.229 -0.9564  0.7102  1.1540
17033SOL     OW52539   5.447   6.840   7.765  0.1741  0.2493 -0.6963
17033SOL    HW152540   5.398   6.858   7.685  1.0749 -1.1734 -1.6040
17033SOL    HW252541   5.469   6.926   7.800 -3.2163  0.9966 -0.0244
17034SOL     OW52542   4.595   5.169   7.023  0.0998 -0.5545 -0.1052
17034SOL    HW152543   4.508   5.178   6.983  0.3705  1.1244 -0.4063
17034SOL    HW252544   4.655   5.193   6.953  0.6523  1.1156  0.8899
17035SOL     OW52545   4.413   5.585   9.128 -0.7592  0.4698 -0.1095
17035SOL    HW152546   4.445   5.520   9.066 -2.5152  0.4088 -0.9942
17035SOL    HW252547   4.478   5.656   9.124  0.0795 -0.3074 -0.6672
17036SOL     OW52548   4.550   7.651  10.084 -0.3125  0.6219  0.2324
17036SOL    HW152549   4.508   7.594  10.148  1.5390 -2.3692 -1.0068
17036SOL    HW252550   4.477   7.699  10.044 -2.1149 -1.3495  0.9246
17037SOL     OW52551   4.809   5.910   8.961 -0.3601 -0.0458  0.0589
17037SOL    HW152552   4.843   5.993   8.928  0.2345 -1.0630 -2.0271
17037SOL    HW252553   4.809   5.852   8.885 -0.2586 -2.1251  1.5679
17038SOL     OW52554   6.777   6.997   7.941 -0.1276 -0.4048  0.1166
17038SOL    HW152555   6.840   7.061   7.907 -0.1940  0.0608  0.8415
17038SOL    HW252556   6.831   6.934   7.989 -0.0934 -0.7139 -0.3267
17039SOL     OW52557   4.717   6.736   9.597  0.0397 -0.1864 -0.7031
17039SOL    HW152558   4.657   6.720   9.670  0.4823  1.1915 -0.0071
17039SOL    HW252559   4.716   6.830   9.584  0.0181 -0.3986 -2.4754
17040SOL     OW52560   5.387   7.047  10.063 -0.2868 -0.2907  0.0094
17040SOL    HW152561   5.349   6.984  10.124 -0.7694 -0.3859 -0.3906
17040SOL    HW252562   5.348   7.026   9.979 -1.8510  1.6654  0.1618
17041SOL     OW52563   2.852   6.082   8.017  0.1064 -0.4426 -0.8132
17041SOL    HW152564   2.947   6.070   8.026  0.1782 -0.8136 -1.8604
17041SOL    HW252565   2.819   5.996   7.992 -0.8018 -0.8006  1.3886
17042SOL     OW52566   5.231   5.574  11.598 -0.2543 -0.5430  0.5007
17042SOL    HW152567   5.158   5.550  11.541  0.2160 -0.2471 -0.2385
17042SOL    HW252568   5.278   5.643  11.550  1.3322 -1.6967  0.3076
17043SOL     OW52569   5.449   5.057   9.623  0.3258  0.4772 -0.0933
17043SOL    HW152570   5.512   5.006   9.573 -1.9002 -3.3709  0.6296
17043SOL    HW252571   5.424   5.000   9.696 -3.8430  1.7107 -0.2931
17044SOL     OW52572   5.478   6.636   9.361  0.1655  0.9584  0.0604
17044SOL    HW152573   5.407   6.609   9.420  0.6028 -1.1863 -0.3149
17044SOL    HW252574   5.506   6.720   9.395 -1.7305  1.2948  0.9708
17045SOL     OW52575   6.776   7.915   9.306  0.2695 -0.4340 -0.0449
17045SOL    HW152576   6.778   7.825   9.273  2.2822  0.5296 -2.9953
17045SOL    HW252577   6.843   7.917   9.375  0.7397 -1.0419 -0.4705
17046SOL     OW52578   5.206   6.717  10.463  0.0693  0.6321 -0.1935
17046SOL    HW152579   5.271   6.783  10.438 -0.7889  1.7009  0.2981
17046SOL    HW252580   5.166   6.692  10.380 -0.9472  2.2122 -0.2256
17047SOL     OW52581   3.452   6.965   8.814  0.1435 -0.1255  0.0963
17047SOL    HW152582   3.544   6.972   8.788  0.2449 -0.6253  0.3146
17047SOL    HW252583   3.417   7.053   8.800  0.6281  0.0440 -0.0837
17048SOL     OW52584   5.823   0.353   7.124  0.3538  0.2372  0.0103
17048SOL    HW152585   5.780   0.424   7.171 -1.0242  2.2039 -3.8061
17048SOL    HW252586   5.759   0.283   7.122  0.5573 -0.0058  1.2473
17049SOL     OW52587   4.453   7.169   8.418  0.4271  0.0248  0.1431
17049SOL    HW152588   4.539   7.139   8.389  0.7118  1.4669 -0.6471
17049SOL    HW252589   4.401   7.173   8.337 -0.6049 -1.4556  0.7018
17050SOL     OW52590   4.269   7.166  10.346 -0.9165 -0.6352 -0.4105
17050SOL    HW152591   4.313   7.096  10.298  0.6472  0.3306 -0.4390
17050SOL    HW252592   4.233   7.223  10.277 -2.1064 -1.3449 -0.3877
17051SOL     OW52593   5.148   5.614   9.163 -0.6141 -0.6062  0.0155
17051SOL    HW152594   5.154   5.538   9.221 -3.1188  0.0409  1.2701
17051SOL    HW252595   5.196   5.588   9.084  1.2573 -2.2594  1.6015
17052SOL     OW52596   6.156   6.726   6.391  0.7640  0.0371  0.1526
17052SOL    HW152597   6.144   6.694   6.302  0.8068  0.3422  0.0356
17052SOL    HW252598   6.215   6.664   6.432 -0.9016 -1.3186  0.6362
17053SOL     OW52599   4.743   7.746   9.281  0.4259  0.3371 -0.4877
17053SOL    HW152600   4.712   7.813   9.220 -1.9373  0.9255  1.2464
17053SOL    HW252601   4.702   7.665   9.251 -0.2340  0.5084 -0.0576
17054SOL     OW52602   5.335   0.537   9.116 -0.0865 -0.1092  0.0857
17054SOL    HW152603   5.354   0.569   9.204 -0.2580  0.5039 -0.0958
17054SOL    HW252604   5.279   0.460   9.130 -0.5312  0.2818  0.4983
17055SOL     OW52605   3.126   6.078   8.054 -0.1393  0.3435  0.1791
17055SOL    HW152606   3.159   6.166   8.039 -0.0580  0.6168  1.8283
17055SOL    HW252607   3.171   6.024   7.989 -0.0860  1.4746 -0.7555
17056SOL     OW52608   4.142   0.867   9.156  0.4742 -0.5577 -0.4485
17056SOL    HW152609   4.233   0.839   9.149  0.1203 -1.4777 -1.7178
17056SOL    HW252610   4.123   0.908   9.072  0.5471  2.3761  0.8475
17057SOL     OW52611   6.431   5.808   9.568  0.2291  0.0025 -0.2964
17057SOL    HW152612   6.351   5.802   9.516  0.8308 -1.0564 -1.1407
17057SOL    HW252613   6.500   5.828   9.505  0.9362 -1.0936  0.1025
17058SOL     OW52614   4.438   7.952   6.982  0.2950 -0.9316 -0.4041
17058SOL    HW152615   4.373   7.909   6.927 -0.0214 -0.0140 -0.7550
17058SOL    HW252616   4.387   7.996   7.050  0.6654 -1.8062  0.4766
17059SOL     OW52617   4.196   6.246   8.664 -0.0082  0.5311  0.2578
17059SOL    HW152618   4.121   6.257   8.723 -1.2721 -0.9680 -0.9716
17059SOL    HW252619   4.205   6.151   8.654  0.6580  0.7254 -1.3389
17060SOL     OW52620   5.852   6.717   8.568  0.5053 -0.4017  0.1009
17060SOL    HW152621   5.829   6.693   8.479  1.5182  1.4872 -0.7266
17060SOL    HW252622   5.838   6.637   8.619 -0.6350 -1.3617 -1.6263
17061SOL     OW52623   5.635   6.902   8.585 -0.2203  0.1225 -0.0723
17061SOL    HW152624   5.687   6.981   8.600 -1.5065  1.3807 -1.7787
17061SOL    HW252625   5.694   6.842   8.541  0.1581  1.0544 -0.8747
17062SOL     OW52626   4.844   0.403   8.082 -0.4946  0.0601  0.1155
17062SOL    HW152627   4.774   0.412   8.017 -0.2355 -0.7855 -0.2914
17062SOL    HW252628   4.899   0.331   8.049  0.4666  0.5899  0.5233
17063SOL     OW52629   5.055   7.324   9.943  0.0369 -0.5042 -0.7275
17063SOL    HW152630   5.033   7.368  10.026  1.1303 -1.9846  0.4213
17063SOL    HW252631   4.971   7.305   9.903 -0.5413 -0.0318  0.2085
17064SOL     OW52632   5.414   4.331   9.347 -0.4846  0.6286  0.6698
17064SOL    HW152633   5.343   4.382   9.308  0.2952  1.3771  0.1853
17064SOL    HW252634   5.422   4.253   9.292 -0.5574  0.8220  0.3830
17065SOL     OW52635   2.408   6.676   8.190 -0.1358  0.3242  0.3290
17065SOL    HW152636   2.499   6.651   8.176 -0.1479 -0.1608  1.0336
17065SOL    HW252637   2.393   6.661   8.283 -1.2722 -0.7362  0.0062
17066SOL     OW52638   4.670   0.673   7.387  0.0274  0.6523 -0.2265
17066SOL    HW152639   4.638   0.645   7.473 -1.0469  0.3767 -0.7118
17066SOL    HW252640   4.705   0.594   7.347 -1.0641  0.4073 -0.7337
17067SOL     OW52641   5.116   5.734   9.505  0.3699 -0.4637 -0.2598
17067SOL    HW152642   5.099   5.644   9.534  1.6807 -0.8437 -0.6209
17067SOL    HW252643   5.029   5.771   9.492 -0.1980 -1.9013 -0.7817
17068SOL     OW52644   6.943   5.491   8.650 -0.5990 -0.3708 -0.0895
17068SOL    HW152645   6.876   5.423   8.658  1.9555 -3.4484 -2.2338
17068SOL    HW252646   6.942   5.515   8.557  0.5753  0.2152  0.0266
17069SOL     OW52647   4.188   1.044   7.035 -0.1625 -0.2982 -0.4161
17069SOL    HW152648   4.131   1.000   7.098  0.9716  0.5950  1.3446
17069SOL    HW252649   4.131   1.065   6.961 -1.0176 -3.5071 -0.8191
17070SOL     OW52650   3.465   5.044   9.758  0.3409 -0.0205  0.1078
17070SOL    HW152651   3.464   4.986   9.682 -1.7577 -0.0366  0.0980
17070SOL    HW252652   3.470   4.986   9.834 -0.0491 -0.1329  0.0480
17071SOL     OW52653   5.351   6.397  10.258 -0.1743  0.6284 -0.3123
17071SOL    HW152654   5.282   6.343  10.298 -0.3549  1.2928  0.2939
17071SOL    HW252655   5.432   6.352  10.281 -0.3976 -0.1930 -1.0813
17072SOL     OW52656   5.084   7.563   7.881 -0.7350  0.3178 -0.3012
17072SOL    HW152657   5.164   7.613   7.901  0.1419 -0.6221 -1.3225
17072SOL    HW252658   5.108   7.508   7.806 -2.8922  1.3130 -1.8188
17073SOL     OW52659   6.623   6.822   8.179 -0.4008 -0.0317 -0.0463
17073SOL    HW152660   6.643   6.822   8.273 -0.0661 -2.1702 -0.0794
17073SOL    HW252661   6.547   6.765   8.170  0.1021 -0.5599 -1.1619
17074SOL     OW52662   3.853   6.027   9.279  0.2271 -0.9446 -0.4098
17074SOL    HW152663   3.925   5.971   9.250  0.9072 -1.3156  1.7884
17074SOL    HW252664   3.877   6.115   9.249  0.4304 -1.4089 -1.6646
17075SOL     OW52665   7.648   6.981   8.007  0.1866  0.7727 -0.2161
17075SOL    HW152666   7.578   6.922   8.035 -0.1465  1.4992  0.5041
17075SOL    HW252667   7.686   6.938   7.930  0.5225 -0.8090  0.7846
17076SOL     OW52668   6.493   6.467   8.348 -0.0277 -0.1221  0.2184
17076SOL    HW152669   6.459   6.385   8.313 -0.9265  0.3381 -0.0317
17076SOL    HW252670   6.438   6.486   8.424  1.1608 -0.5168  1.2013
17077SOL     OW52671   3.913   7.245   8.938 -0.3319 -0.2954  0.3821
17077SOL    HW152672   3.943   7.232   8.847 -1.7925 -1.8021  0.0638
17077SOL    HW252673   3.824   7.277   8.930 -0.1748  0.4182  1.3180
17078SOL     OW52674   4.448   6.409  12.138 -0.0542  1.0128 -0.0720
17078SOL    HW152675   4.386   6.458  12.084 -1.2183  0.1428  0.4294
17078SOL    HW252676   4.404   6.397  12.221 -0.0855 -1.3760 -0.3644
17079SOL     OW52677   3.706   5.302   6.812 -0.6918  0.1837 -0.0891
17079SOL    HW152678   3.762   5.250   6.870 -0.9101 -0.4507 -0.4390
17079SOL    HW252679   3.686   5.244   6.739 -1.3909  0.5704 -0.2216
17080SOL     OW52680   4.720   6.247  10.277 -0.1720 -0.3524  0.0256
17080SOL    HW152681   4.761   6.162  10.260  1.6184  0.7557 -1.5414
17080SOL    HW252682   4.626   6.232  10.263  0.0727 -2.1339  0.1252
17081SOL     OW52683   4.272   6.797   7.459  0.1349  0.5672  0.6171
17081SOL    HW152684   4.363   6.785   7.432 -0.2370 -0.0716 -0.4064
17081SOL    HW252685   4.241   6.869   7.405 -0.5295 -0.5282 -0.5246
17082SOL     OW52686   2.502   1.742   9.091  0.8487  0.2130 -0.5677
17082SOL    HW152687   2.548   1.802   9.151  1.4063 -1.6179  0.9299
17082SOL    HW252688   2.480   1.796   9.015  0.7588  2.4728  0.9637
17083SOL     OW52689   5.015   7.797   8.822 -0.7208  0.5542  0.5185
17083SOL    HW152690   4.982   7.879   8.859 -0.0383 -0.2969  3.2411
17083SOL    HW252691   5.110   7.805   8.825 -0.6499 -0.0135  0.0362
17084SOL     OW52692   6.012   6.466   9.451  0.2928  0.7060  0.4427
17084SOL    HW152693   6.039   6.556   9.471 -1.3171  1.5956 -1.1868
17084SOL    HW252694   5.937   6.475   9.392 -0.4494 -1.7121  0.9056
17085SOL     OW52695   4.371   5.713   8.523  0.4763  0.4110  0.0701
17085SOL    HW152696   4.413   5.658   8.589 -1.3386 -1.2901 -0.1119
17085SOL    HW252697   4.377   5.664   8.442 -2.7507 -0.5095  0.2530
17086SOL     OW52698   6.273   7.904   9.068  0.7182 -0.4023 -0.3689
17086SOL    HW152699   6.315   7.988   9.086  2.2703 -0.5946 -2.5958
17086SOL    HW252700   6.245   7.872   9.153  1.6487  1.5766  0.7510
17087SOL     OW52701   3.500   7.100  10.663 -0.0810  0.1112 -0.0464
17087SOL    HW152702   3.427   7.143  10.707  0.1058  0.7840 -0.3661
17087SOL    HW252703   3.461   7.025  10.619 -0.5060  0.2280  0.1258
17088SOL     OW52704   5.794   6.875   9.269 -0.2558 -0.7676 -0.1540
17088SOL    HW152705   5.791   6.961   9.226  3.0053 -1.4827 -2.1828
17088SOL    HW252706   5.857   6.887   9.341 -0.3253 -1.2762 -0.0088
17089SOL     OW52707   4.069   1.310   7.567  0.2878  0.5701 -0.2677
17089SOL    HW152708   4.045   1.224   7.602 -1.2009  0.9608 -0.2716
17089SOL    HW252709   4.158   1.297   7.531 -0.3317 -1.2696 -1.2929
17090SOL     OW52710   5.105   7.182   8.868 -0.2490  0.4966  0.0413
17090SOL    HW152711   5.148   7.109   8.913 -1.0178 -0.7680 -1.2055
17090SOL    HW252712   5.015   7.179   8.899 -0.8795 -0.6184 -1.7748
17091SOL     OW52713   4.140   4.345   9.515 -0.2438 -0.1798 -0.3958
17091SOL    HW152714   4.060   4.391   9.541 -0.1400 -0.7802  1.0717
17091SOL    HW252715   4.109   4.269   9.466 -0.5341 -0.0594 -0.4015
17092SOL     OW52716   4.704   5.262  10.326  0.0221  0.3128  0.1537
17092SOL    HW152717   4.619   5.244  10.286 -0.9798  2.7969  1.0061
17092SOL    HW252718   4.766   5.207  10.276 -1.7775 -0.0763 -1.7873
17093SOL     OW52719   5.240   6.941   7.614 -0.1583 -0.5267 -0.3525
17093SOL    HW152720   5.162   6.888   7.600  0.0639 -0.8421 -0.4208
17093SOL    HW252721   5.208   7.020   7.657 -0.5469 -0.5407 -0.6110
17094SOL     OW52722   5.997   7.632   8.045  0.0401  0.2887  0.1341
17094SOL    HW152723   5.957   7.569   7.985 -1.0988  1.5569 -0.4921
17094SOL    HW252724   6.025   7.704   7.989 -0.1379  1.0540  1.0119
17095SOL     OW52725   4.361   7.369   9.522  0.5776 -0.2267  0.5373
17095SOL    HW152726   4.272   7.368   9.557 -0.0930 -2.2347 -1.0097
17095SOL    HW252727   4.356   7.425   9.445  1.1993  1.3300  1.5860
17096SOL     OW52728   5.366   7.684   8.344 -0.3485  0.2798 -0.0396
17096SOL    HW152729   5.405   7.726   8.421  0.9483 -1.6963  0.4423
17096SOL    HW252730   5.441   7.651   8.294 -1.2975 -2.1083  0.0207
17097SOL     OW52731   6.873   7.178   7.618  0.0814  0.0059 -0.0581
17097SOL    HW152732   6.785   7.201   7.647  0.0746  0.2552 -0.2776
17097SOL    HW252733   6.931   7.215   7.685 -0.0214 -1.0041  0.6200
17098SOL     OW52734   3.426   7.900   9.917  0.3624  0.4759 -0.6162
17098SOL    HW152735   3.514   7.915   9.953  0.2113 -0.7345  0.3793
17098SOL    HW252736   3.437   7.905   9.822  1.8094 -0.9172 -0.5770
17099SOL     OW52737   4.375   6.693   8.808  0.2908 -0.0844  0.1220
17099SOL    HW152738   4.406   6.602   8.804 -1.4007 -0.6511 -1.3989
17099SOL    HW252739   4.348   6.713   8.719 -1.7712  1.0279  0.9232
17100SOL     OW52740   4.800   7.707  10.522  0.1597 -0.0119  0.1351
17100SOL    HW152741   4.824   7.737  10.434  1.3334 -2.3946 -0.4721
17100SOL    HW252742   4.867   7.744  10.579  1.3595 -1.0840 -0.5257
17101SOL     OW52743   5.802   5.250   7.567 -0.8088 -0.0060  0.3656
17101SOL    HW152744   5.729   5.298   7.605  0.6693  2.6353  0.1301
17101SOL    HW252745   5.779   5.239   7.475 -1.4030 -0.2734  0.5412
17102SOL     OW52746   5.811   7.115   8.594 -0.7995 -0.0490 -0.1964
17102SOL    HW152747   5.804   7.203   8.558 -0.1858 -0.0691 -0.3781
17102SOL    HW252748   5.894   7.114   8.641 -0.7794 -0.5426 -0.2305
17103SOL     OW52749   7.005   0.826  10.223  0.7565  0.6876 -0.3830
17103SOL    HW152750   6.971   0.912  10.246  0.4402  0.1647  1.2019
17103SOL    HW252751   6.939   0.789  10.164 -0.3284  0.5894  0.8578
17104SOL     OW52752   4.083   6.401   7.335  0.1755 -0.1553  0.0707
17104SOL    HW152753   4.176   6.425   7.329  0.5443 -1.1700  1.1831
17104SOL    HW252754   4.077   6.320   7.285 -0.4693  0.7328 -1.3393
17105SOL     OW52755   4.956   7.825   5.837 -0.6235  0.1616  0.5492
17105SOL    HW152756   4.937   7.916   5.862 -0.0297  0.7583 -1.0125
17105SOL    HW252757   5.016   7.794   5.905  3.4185  2.7279 -1.3905
17106SOL     OW52758   5.168   4.649   7.843 -0.0705 -0.2629 -0.2656
17106SOL    HW152759   5.107   4.661   7.770  1.4990 -0.4405 -1.6745
17106SOL    HW252760   5.133   4.574   7.891 -2.3001  1.1350  0.4771
17107SOL     OW52761   3.441   6.884   9.377 -0.3466 -0.6030 -0.5884
17107SOL    HW152762   3.398   6.969   9.391 -0.2990 -0.2706 -2.2187
17107SOL    HW252763   3.472   6.888   9.287  1.8861 -1.3936  0.0936
17108SOL     OW52764   5.550   7.806   6.701  0.0894 -0.0397  0.2030
17108SOL    HW152765   5.507   7.855   6.631  0.6102 -0.6068 -0.5422
17108SOL    HW252766   5.485   7.744   6.732 -0.0425 -0.0052 -0.0078
17109SOL     OW52767   4.132   7.134   9.593 -0.3085 -0.4173  0.3685
17109SOL    HW152768   4.123   7.225   9.624  0.0045 -1.0003  2.3005
17109SOL    HW252769   4.059   7.123   9.532  0.5933  1.6159 -1.2170
17110SOL     OW52770   4.300   6.111   7.674 -0.4120  0.8415  0.5627
17110SOL    HW152771   4.389   6.108   7.709  0.3541 -0.5190 -1.3492
17110SOL    HW252772   4.307   6.163   7.594 -0.6806 -1.5570 -1.1329
17111SOL     OW52773   6.342   6.111   8.139  0.3562 -0.3986 -0.2869
17111SOL    HW152774   6.355   6.136   8.230 -0.3025 -1.1202  0.0200
17111SOL    HW252775   6.322   6.017   8.143 -0.2336 -0.3144 -1.1218
17112SOL     OW52776   5.664   5.933   7.572  0.2242  0.6559  0.3196
17112SOL    HW152777   5.623   5.904   7.654  0.8748  0.1297  0.4662
17112SOL    HW252778   5.713   5.857   7.541 -0.7645  0.5354 -1.0584
17113SOL     OW52779   5.591   6.471   6.217  0.0468  0.0092  0.6528
17113SOL    HW152780   5.535   6.427   6.153  1.4962  0.7469 -1.2027
17113SOL    HW252781   5.530   6.502   6.284 -1.5257 -0.8470 -0.3148
17114SOL     OW52782   6.385   7.736   8.869 -0.3928 -0.4256 -0.2125
17114SOL    HW152783   6.342   7.810   8.911 -0.1245 -0.5916  0.3599
17114SOL    HW252784   6.412   7.680   8.941 -0.9937 -1.3104 -0.6561
17115SOL     OW52785   4.267   6.765   9.802 -0.2468 -0.2026 -0.3303
17115SOL    HW152786   4.188   6.710   9.811  0.2483 -1.6617 -3.5219
17115SOL    HW252787   4.331   6.723   9.859 -0.7091 -1.2843 -0.5754
17116SOL     OW52788   3.200   7.047   9.477  0.1251  0.6089  0.1261
17116SOL    HW152789   3.255   7.050   9.555 -1.4376 -0.6912  1.3384
17116SOL    HW252790   3.116   7.012   9.507 -0.9155  1.1406 -1.9289
17117SOL     OW52791   5.402   6.012  10.484 -0.5663  0.5095  0.0398
17117SOL    HW152792   5.463   5.938  10.485 -0.5902  0.4255 -1.7638
17117SOL    HW252793   5.316   5.973  10.497 -0.3070  0.6377  2.6951
17118SOL     OW52794   4.876   7.602  10.970 -0.2860  0.1843  0.1576
17118SOL    HW152795   4.880   7.530  11.032 -0.6297  0.9119  1.0435
17118SOL    HW252796   4.843   7.563  10.889  0.6775 -0.8752  0.2552
17119SOL     OW52797   3.923   5.373  11.858  0.1337 -0.6947 -0.0310
17119SOL    HW152798   3.870   5.374  11.778  1.7299 -0.1531 -1.1369
17119SOL    HW252799   3.979   5.450  11.850  0.3849 -0.6778  1.6000
17120SOL     OW52800   4.605   6.849  10.869 -0.0019  0.1844  0.4917
17120SOL    HW152801   4.586   6.756  10.878  1.4283 -0.5222 -2.3938
17120SOL    HW252802   4.701   6.854  10.875 -0.0311  1.4041  0.2410
17121SOL     OW52803   6.136   7.074   8.554 -0.0777  0.0725  0.8160
17121SOL    HW152804   6.173   7.039   8.473  1.1809 -0.2555  1.5134
17121SOL    HW252805   6.118   6.997   8.608 -1.6582  0.2306  0.5803
17122SOL     OW52806   4.931   7.486  10.186  0.1016 -0.8656  0.8988
17122SOL    HW152807   4.955   7.507  10.276  0.2263  1.9542  0.3013
17122SOL    HW252808   4.945   7.568  10.138 -2.5811 -1.4858 -1.1556
17123SOL     OW52809   5.792   5.614  10.739 -0.1290 -0.2985 -0.2882
17123SOL    HW152810   5.758   5.526  10.756 -1.5187  0.1161 -0.7520
17123SOL    HW252811   5.838   5.607  10.655 -2.1284 -0.1501 -1.4575
17124SOL     OW52812   3.736   0.232   9.850 -0.1374  0.7534  0.8292
17124SOL    HW152813   3.748   0.150   9.803 -0.6587 -0.2407  2.3636
17124SOL    HW252814   3.724   0.298   9.781 -1.8213 -0.7701 -0.4283
17125SOL     OW52815   5.150   7.750   0.084 -0.2480 -0.2023 -0.5504
17125SOL    HW152816   5.214   7.682   0.064 -0.6946 -1.1040  0.9655
17125SOL    HW252817   5.203   7.826   0.106  0.2655 -0.3255 -1.2974
17126SOL     OW52818   4.745   5.177  11.280 -0.1466 -0.0392 -0.1770
17126SOL    HW152819   4.665   5.196  11.230 -0.7311 -0.2022  0.6750
17126SOL    HW252820   4.814   5.221  11.231 -1.0622  2.0021  0.2404
17127SOL     OW52821   6.081   7.336  10.921 -0.3273 -1.1477  1.0933
17127SOL    HW152822   5.990   7.334  10.950 -0.4608  1.5651  1.0834
17127SOL    HW252823   6.078   7.304  10.831 -1.6082  0.5637  0.4720
17128SOL     OW52824   4.376   6.006  10.340 -0.1805  0.2670  0.5106
17128SOL    HW152825   4.433   5.931  10.361 -0.1486  0.1871  0.1344
17128SOL    HW252826   4.288   5.975  10.360  0.0046  0.9060  2.6461
17129SOL     OW52827   5.866   6.300  10.148 -0.4642  0.2521  0.5424
17129SOL    HW152828   5.868   6.279  10.242  2.1502 -1.3274  0.2230
17129SOL    HW252829   5.875   6.395  10.145 -0.8240  0.3547  1.8925
17130SOL     OW52830   3.385   7.066   9.689 -0.2149  0.2703 -0.6285
17130SOL    HW152831   3.398   7.160   9.672  0.6256  0.3106  0.1470
17130SOL    HW252832   3.461   7.041   9.742 -0.7475 -0.7178 -0.3139
17131SOL     OW52833   5.397   3.705  11.636  0.9763  0.0223  0.1791
17131SOL    HW152834   5.386   3.733  11.727 -0.0758 -2.2001  0.8009
17131SOL    HW252835   5.453   3.627  11.641  0.5089 -0.4199 -0.9988
17132SOL     OW52836   5.715   7.951   9.490 -0.2586 -0.4580  0.3359
17132SOL    HW152837   5.653   8.006   9.442 -0.2499 -0.1153  0.7049
17132SOL    HW252838   5.668   7.870   9.507  0.3290 -1.3116 -1.7914
17133SOL     OW52839   4.025   6.018   0.188  0.2414  0.0207 -0.0686
17133SOL    HW152840   3.983   6.103   0.173 -1.1587 -0.6739 -0.2039
17133SOL    HW252841   4.057   6.022   0.278  0.0270  0.6340 -0.0162
17134SOL     OW52842   2.393   1.505  10.783  0.1074  0.1816 -0.4892
17134SOL    HW152843   2.405   1.551  10.866 -0.2372  0.0528 -0.3671
17134SOL    HW252844   2.468   1.445  10.779  0.6454  0.8551 -0.7262
17135SOL     OW52845   4.861   7.433  11.190  0.1606  0.2065 -0.7887
17135SOL    HW152846   4.794   7.468  11.250  2.1527  1.0443  1.0842
17135SOL    HW252847   4.838   7.341  11.180  0.0721 -0.1198  1.8145
17136SOL     OW52848   6.564   6.092  10.624 -0.6880  0.0908 -0.8290
17136SOL    HW152849   6.513   6.040  10.685  1.0903  1.2714  1.8163
17136SOL    HW252850   6.646   6.045  10.615  0.6898  1.9549  1.0979
17137SOL     OW52851   6.515   5.506  11.250 -0.1333  0.2949 -0.1809
17137SOL    HW152852   6.463   5.507  11.331 -0.9099  1.2493 -0.6739
17137SOL    HW252853   6.516   5.414  11.224 -0.3959  0.0651  0.5798
17138SOL     OW52854   3.829   5.675   8.478 -0.7515 -0.4387 -0.0856
17138SOL    HW152855   3.886   5.702   8.406 -2.1082  1.0174 -0.6620
17138SOL    HW252856   3.799   5.587   8.453  0.0362 -0.5986 -0.5031
17139SOL     OW52857   4.624   7.622   9.722  0.3426  0.2022 -0.5814
17139SOL    HW152858   4.547   7.597   9.773  0.5995  0.4837 -0.0417
17139SOL    HW252859   4.588   7.663   9.643 -0.1591 -3.6535 -2.5554
17140SOL     OW52860   5.730   4.922  11.398  0.3428  0.3211 -0.2796
17140SOL    HW152861   5.641   4.936  11.432  0.3189 -0.4022 -0.0352
17140SOL    HW252862   5.740   4.989  11.330 -0.2290  0.6920 -0.0066
17141SOL     OW52863   5.552   7.560   8.187 -0.0948 -0.1613  0.0543
17141SOL    HW152864   5.533   7.467   8.175 -3.0215  0.2231  0.9634
17141SOL    HW252865   5.634   7.562   8.236  0.2125 -2.2236 -0.3030
17142SOL     OW52866   4.252   5.741  10.745 -0.5286  0.1743 -0.1649
17142SOL    HW152867   4.298   5.672  10.698 -0.3160  0.0901  0.1631
17142SOL    HW252868   4.168   5.701  10.770 -1.3161  0.7020 -1.8046
17143SOL     OW52869   5.298   7.358   9.836  0.2135 -0.4259  0.2106
17143SOL    HW152870   5.304   7.449   9.806 -0.0124 -0.8175 -1.0823
17143SOL    HW252871   5.204   7.342   9.844  0.2595 -0.4768  0.6927
17144SOL     OW52872   4.148   4.856  12.479 -0.2844 -0.0345  0.2066
17144SOL    HW152873   4.169   4.926  12.416 -0.3022  0.8548  1.1678
17144SOL    HW252874   4.231   4.836  12.522 -0.2633 -0.6804 -0.1172
17145SOL     OW52875   6.384   5.041  12.072  0.0925  0.1939 -0.0076
17145SOL    HW152876   6.359   5.109  12.134  0.5387 -0.1700  0.5806
17145SOL    HW252877   6.409   5.090  11.993  0.3135  0.7101  0.3747
17146SOL     OW52878   3.317   1.003  10.890  0.4152 -0.1950  0.0282
17146SOL    HW152879   3.331   0.916  10.852 -0.6457 -0.9107  1.1850
17146SOL    HW252880   3.401   1.049  10.878  0.9900 -1.3708 -0.6018
17147SOL     OW52881   6.891   6.963  11.098 -0.0550  0.3115  0.3634
17147SOL    HW152882   6.953   6.890  11.101 -1.7015 -1.2041 -0.8969
17147SOL    HW252883   6.819   6.936  11.154 -0.4281  1.2339  0.3480
17148SOL     OW52884   4.719   6.608  11.418  0.3062 -0.2995  0.0819
17148SOL    HW152885   4.757   6.623  11.331 -2.9983 -1.6936 -1.7809
17148SOL    HW252886   4.769   6.534  11.453  1.1979 -0.2270 -0.9800
17149SOL     OW52887   4.531   6.880   9.797  0.4808 -0.3642  0.4160
17149SOL    HW152888   4.501   6.822   9.867 -1.0335  1.2726  1.2009
17149SOL    HW252889   4.469   6.866   9.726  1.1010 -0.8799 -0.0434
17150SOL     OW52890   6.691   6.579  10.153  0.4035  0.1682  0.1343
17150SOL    HW152891   6.704   6.490  10.120  1.9405 -0.1473  1.4567
17150SOL    HW252892   6.623   6.570  10.220  2.2099 -0.5143  1.9737
17151SOL     OW52893   6.464   7.332   9.475 -0.2092  0.6028  0.9073
17151SOL    HW152894   6.505   7.273   9.538  1.2807 -1.5256 -1.8251
17151SOL    HW252895   6.370   7.317   9.485  0.0845 -1.2993  1.1969
17152SOL     OW52896   5.306   5.078  11.317  0.3529 -0.7117 -0.3967
17152SOL    HW152897   5.344   5.007  11.369  1.7211 -1.9660 -2.8947
17152SOL    HW252898   5.367   5.151  11.328  0.6974 -1.0089 -0.3228
17153SOL     OW52899   5.473   4.949  11.497 -0.2752  0.0549  0.1746
17153SOL    HW152900   5.462   4.862  11.535 -0.2007 -0.8104 -1.7074
17153SOL    HW252901   5.459   5.009  11.571 -1.1088 -1.5067  1.3436
17154SOL     OW52902   6.301   7.475  10.164  0.1391  0.3995  0.1462
17154SOL    HW152903   6.351   7.539  10.215  0.3929  0.4066 -0.1056
17154SOL    HW252904   6.265   7.525  10.091  0.5250  0.2212 -0.1781
17155SOL     OW52905   5.625   7.131  11.719 -0.1442  0.5712 -0.8238
17155SOL    HW152906   5.643   7.188  11.644 -0.3999  0.4356 -0.9913
17155SOL    HW252907   5.705   7.135  11.772 -1.1255  3.3117  0.6455
17156SOL     OW52908   7.134   6.283  11.187 -0.9361  0.1643 -0.3196
17156SOL    HW152909   7.226   6.256  11.188 -0.9347 -0.0260 -2.1143
17156SOL    HW252910   7.137   6.378  11.195 -0.6356  0.1035  0.3728
17157SOL     OW52911   6.864   5.677   9.407  0.2546 -0.0976  0.6047
17157SOL    HW152912   6.887   5.768   9.389  0.4983  0.0047  1.3924
17157SOL    HW252913   6.808   5.682   9.485  0.7394 -0.6591  0.9996
17158SOL     OW52914   5.208   4.840  10.462 -0.0333 -0.7178 -0.3004
17158SOL    HW152915   5.179   4.750  10.447  1.6273 -0.8051 -4.0693
17158SOL    HW252916   5.175   4.889  10.386  0.5249  1.5378  0.8112
17159SOL     OW52917   3.771   6.810  10.152 -0.0042  0.1080 -0.4588
17159SOL    HW152918   3.722   6.770  10.080  0.7612  1.0960 -1.5582
17159SOL    HW252919   3.860   6.777  10.141 -0.2336 -1.1946  1.1658
17160SOL     OW52920   0.827   6.842   9.772  0.0468  0.3522 -0.6391
17160SOL    HW152921   0.793   6.753   9.774  0.1107  0.3165 -0.9940
17160SOL    HW252922   0.904   6.837   9.715  0.3791  0.5209 -0.2128
17161SOL     OW52923   3.526   7.782  11.403  0.2586 -0.0109 -0.4719
17161SOL    HW152924   3.553   7.861  11.356  0.9072  0.1786  0.1870
17161SOL    HW252925   3.497   7.722  11.335  0.3284  0.5809 -1.0358
17162SOL     OW52926   6.173   6.653  10.656  0.1344  0.8534  0.5512
17162SOL    HW152927   6.154   6.726  10.598  1.2073  1.2517  0.6664
17162SOL    HW252928   6.227   6.594  10.604 -0.3718  0.3547  0.5924
17163SOL     OW52929   4.518   6.203   0.985 -0.3749 -0.3409  0.0713
17163SOL    HW152930   4.585   6.170   1.045 -1.4811 -0.8460  1.0638
17163SOL    HW252931   4.559   6.280   0.945  1.1627 -1.2015 -0.1035
17164SOL     OW52932   4.613   6.722   9.332 -0.0751  0.6492 -0.2295
17164SOL    HW152933   4.600   6.814   9.311  1.0948  1.0479  0.7120
17164SOL    HW252934   4.621   6.720   9.428 -0.5282 -0.4906 -0.1945
17165SOL     OW52935   3.306   0.173  10.991 -0.5608  0.3616 -0.1871
17165SOL    HW152936   3.287   0.096  10.938  1.1671  0.5328 -1.1431
17165SOL    HW252937   3.247   0.241  10.957  0.3017  0.3811 -1.7533
17166SOL     OW52938   4.792   6.633   9.980  0.0341 -0.2026  0.5999
17166SOL    HW152939   4.820   6.671   9.897 -1.4426  1.6688  0.8787
17166SOL    HW252940   4.756   6.547   9.956 -1.3630  0.7376 -0.8955
17167SOL     OW52941   4.620   7.552   9.142 -0.2714  0.2532  0.0234
17167SOL    HW152942   4.539   7.543   9.193 -0.1369  0.8749  0.3518
17167SOL    HW252943   4.591   7.548   9.051 -0.5574 -0.4753  0.1356
17168SOL     OW52944   5.575   6.230  10.632 -0.4905  0.0000 -0.3817
17168SOL    HW152945   5.518   6.153  10.624 -0.8001  0.0520  0.9780
17168SOL    HW252946   5.663   6.194  10.638 -0.6793 -0.3089  0.7959
17169SOL     OW52947   6.319   0.043  11.040 -0.6325 -0.0163  0.2381
17169SOL    HW152948   6.266   0.051  10.961 -0.1227 -0.6703 -0.1733
17169SOL    HW252949   6.256   0.052  11.112 -0.8427  2.4324 -0.1890
17170SOL     OW52950   5.687   7.045  10.519 -0.1913  0.3401  0.3346
17170SOL    HW152951   5.671   6.979  10.586 -0.9227  0.6504  0.4833
17170SOL    HW252952   5.611   7.040  10.462  1.0817 -0.9092 -1.3381
17171SOL     OW52953   5.014   6.524   9.288  0.1047 -0.1407 -0.2168
17171SOL    HW152954   4.957   6.498   9.360 -0.8624 -1.2851 -1.3514
17171SOL    HW252955   4.968   6.596   9.246 -0.4532 -0.9417 -1.0189
17172SOL     OW52956   3.572   7.611  10.403  0.4612 -0.2403 -0.0047
17172SOL    HW152957   3.652   7.596  10.352 -0.9775  1.9576 -3.2256
17172SOL    HW252958   3.572   7.705  10.420 -0.8055 -0.4189  1.1453
17173SOL     OW52959   5.894   6.541  10.643  0.3014  0.1228  0.1283
17173SOL    HW152960   5.948   6.602  10.693 -0.3429 -0.0427  1.0463
17173SOL    HW252961   5.941   6.458  10.647  2.6760  1.0323 -3.4747
17174SOL     OW52962   2.708   6.766  10.688 -0.2413 -0.0059  0.1606
17174SOL    HW152963   2.788   6.807  10.654 -0.1668  1.6809  2.1540
17174SOL    HW252964   2.637   6.812  10.643 -0.1990 -2.1459 -2.3225
17175SOL     OW52965   6.512   0.740   8.346 -0.1636  0.4398 -0.2935
17175SOL    HW152966   6.551   0.653   8.348  0.3481  0.6524 -0.7841
17175SOL    HW252967   6.497   0.762   8.438 -0.6606 -0.3225 -0.1822
17176SOL     OW52968   5.382   6.817  10.887 -0.2258 -0.4110 -0.1107
17176SOL    HW152969   5.312   6.853  10.832  0.2495 -1.7300 -1.6698
17176SOL    HW252970   5.375   6.865  10.970 -0.3614  2.3943 -1.6191
17177SOL     OW52971   0.506   7.081  10.028 -0.4965  0.1689  0.3691
17177SOL    HW152972   0.527   6.988  10.026  1.0831  0.5241 -0.8414
17177SOL    HW252973   0.460   7.098   9.946  0.0404  0.6320  0.1597
17178SOL     OW52974   4.781   0.210   9.091  0.5714  0.0465  0.4699
17178SOL    HW152975   4.702   0.176   9.050  0.4392 -1.1692  1.6269
17178SOL    HW252976   4.780   0.172   9.179  1.1233  2.0800  1.4135
17179SOL     OW52977   4.843   6.720   9.169  0.5229 -0.4652  0.4238
17179SOL    HW152978   4.764   6.717   9.222  0.4918 -0.2654  0.3894
17179SOL    HW252979   4.812   6.717   9.079  0.3585  2.2472  0.2948
17180SOL     OW52980   4.989   5.322   9.043  0.2446 -0.4185 -0.1133
17180SOL    HW152981   5.001   5.363   8.958  1.8422 -1.9318 -0.6903
17180SOL    HW252982   4.923   5.254   9.029 -0.9024  0.5840  0.3414
17181SOL     OW52983   6.673   4.520  10.481  0.4338  0.6344 -0.1683
17181SOL    HW152984   6.606   4.586  10.500 -0.2404  0.6104 -2.2961
17181SOL    HW252985   6.732   4.562  10.419  1.0325 -0.1638 -0.1606
17182SOL     OW52986   3.841   4.859   9.264  0.5484  0.3836  0.0390
17182SOL    HW152987   3.900   4.904   9.203  0.8057  0.2417  0.1819
17182SOL    HW252988   3.799   4.791   9.211 -0.0117  0.9299 -0.2353
17183SOL     OW52989   3.791   4.433   1.039  0.0723 -0.7074 -0.1733
17183SOL    HW152990   3.851   4.365   1.008 -0.1660 -0.6304 -0.8153
17183SOL    HW252991   3.706   4.410   1.000  0.2216  0.5578 -1.2941
17184SOL     OW52992   4.487   7.269  11.667 -0.1752  0.7853  0.4819
17184SOL    HW152993   4.540   7.287  11.744  1.9470 -1.8227 -0.2518
17184SOL    HW252994   4.547   7.230  11.604 -2.1270  1.5037 -2.0167
17185SOL     OW52995   5.711   6.666  10.840 -0.0392  0.2943 -0.0485
17185SOL    HW152996   5.727   6.627  10.926  3.3557  2.2049  0.3437
17185SOL    HW252997   5.754   6.607  10.779 -1.1658 -0.2662 -0.3395
17186SOL     OW52998   5.937   5.326  10.407  0.1606 -0.0190  0.1363
17186SOL    HW152999   6.010   5.275  10.371 -0.3884  0.5368 -1.8386
17186SOL    HW253000   5.861   5.299  10.356 -0.6681  0.7859  0.9085
17187SOL     OW53001   3.852   4.741  11.641 -0.0476 -0.0933 -0.1500
17187SOL    HW153002   3.905   4.690  11.580  0.6316  1.1058 -0.6120
17187SOL    HW253003   3.827   4.819  11.591 -1.3159 -0.1041  0.4310
17188SOL     OW53004   3.519   6.619  10.605 -0.2023 -0.1751  0.0243
17188SOL    HW153005   3.572   6.650  10.532 -0.6399  0.5666  0.0104
17188SOL    HW253006   3.565   6.651  10.683  0.0586 -0.6418  0.0692
17189SOL     OW53007   6.309   6.486   8.990 -0.6336 -0.1208 -0.3936
17189SOL    HW153008   6.401   6.497   8.966 -0.1442  0.2666  1.5245
17189SOL    HW253009   6.311   6.454   9.080 -2.3838  1.1879  0.1734
17190SOL     OW53010   3.140   7.024   8.329  0.6771  0.1253  0.3432
17190SOL    HW153011   3.103   7.082   8.262  0.3746  1.7155  1.8244
17190SOL    HW253012   3.070   7.015   8.394  1.8206  0.7369  1.7187
17191SOL     OW53013   6.167   5.480   8.511  0.0803 -0.5013 -0.3083
17191SOL    HW153014   6.118   5.562   8.515 -0.0494 -0.5281 -1.2594
17191SOL    HW253015   6.137   5.437   8.431  1.7268 -0.4713 -0.9736
17192SOL     OW53016   6.167   5.393   0.154 -0.1113  0.2734 -0.3551
17192SOL    HW153017   6.080   5.368   0.122  0.1038 -1.5256  0.3346
17192SOL    HW253018   6.172   5.354   0.242  1.0127  1.2263  0.0252
17193SOL     OW53019   5.479   6.405  12.071 -0.6984  0.1342 -0.2552
17193SOL    HW153020   5.406   6.465  12.058 -1.4239 -0.5901  0.3630
17193SOL    HW253021   5.531   6.444  12.141 -0.9081  0.2809 -0.1816
17194SOL     OW53022   5.266   5.145  12.347 -0.9873 -0.0797 -0.2209
17194SOL    HW153023   5.309   5.228  12.326 -0.1436 -0.1764  1.0281
17194SOL    HW253024   5.173   5.166  12.348 -0.8548  0.5945 -0.9891
17195SOL     OW53025   6.272   6.573   8.521 -0.2676 -0.3432  0.3794
17195SOL    HW153026   6.286   6.654   8.472 -1.2492 -0.5776 -0.3200
17195SOL    HW253027   6.259   6.602   8.612 -1.8482  0.4093 -0.0608
17196SOL     OW53028   4.366   6.442  10.121  0.4591  0.0958 -0.0061
17196SOL    HW153029   4.273   6.444  10.097  0.7861  0.9551 -1.2432
17196SOL    HW253030   4.390   6.350  10.114 -0.1808 -0.0675 -0.1389
17197SOL     OW53031   6.287   0.014  11.368 -0.0451  0.4567  0.2812
17197SOL    HW153032   6.226   0.088  11.373 -1.7384 -0.8445 -0.2292
17197SOL    HW253033   6.237  -0.060  11.400  1.4457 -0.5918  0.2609
17198SOL     OW53034   4.846   4.597   9.658 -0.2097 -0.5923 -0.1882
17198SOL    HW153035   4.751   4.602   9.647 -0.6395 -0.1648  2.8858
17198SOL    HW253036   4.873   4.688   9.673  0.8762 -0.5959 -1.8114
17199SOL     OW53037   4.935   5.833  11.698  0.1039  0.3701 -0.2167
17199SOL    HW153038   4.872   5.823  11.627 -0.7255  1.9057  0.2690
17199SOL    HW253039   4.909   5.767  11.763 -1.0456  1.0006 -0.0092
17200SOL     OW53040   4.296   5.516  10.578 -0.0057 -0.3046  0.3609
17200SOL    HW153041   4.210   5.550  10.554 -1.1560 -1.7605  2.1440
17200SOL    HW253042   4.337   5.494  10.494 -0.2291  2.8536 -0.6904
17201SOL     OW53043   6.227   6.065  11.410  0.0477 -0.0633 -0.3985
17201SOL    HW153044   6.236   6.024  11.323  0.0053 -1.3268  0.1648
17201SOL    HW253045   6.314   6.055  11.449 -0.0756  0.0295 -0.1050
17202SOL     OW53046   6.636   5.737  12.086  0.1867  0.2455 -0.3567
17202SOL    HW153047   6.719   5.748  12.131 -0.5920 -0.9262  1.5142
17202SOL    HW253048   6.621   5.642  12.085 -1.1740  0.4320 -0.5327
17203SOL     OW53049   6.441   5.416   8.527 -0.2549  0.1272  0.4853
17203SOL    HW153050   6.478   5.339   8.484 -0.7313  1.2265 -2.0818
17203SOL    HW253051   6.347   5.410   8.510 -0.1646  1.8530 -0.8846
17204SOL     OW53052   4.475   6.491   8.301  0.7240 -0.1246 -0.2885
17204SOL    HW153053   4.476   6.431   8.376 -0.4969 -0.0056 -0.1528
17204SOL    HW253054   4.505   6.437   8.228 -1.2895 -1.2569 -0.3730
17205SOL     OW53055   6.928   0.301  10.101 -0.3039 -0.9202  0.0760
17205SOL    HW153056   7.007   0.312  10.048  0.2852  0.6789  1.2255
17205SOL    HW253057   6.910   0.207  10.097  3.1534 -1.8158  1.8075
17206SOL     OW53058   5.119   5.894   8.862  0.0863 -0.4327 -0.2131
17206SOL    HW153059   5.067   5.846   8.926  1.9483 -0.6209  1.2409
17206SOL    HW253060   5.109   5.986   8.888  1.3072 -0.5546  0.7516
17207SOL     OW53061   4.461   6.367  11.489  0.3476  0.3241 -0.1658
17207SOL    HW153062   4.456   6.272  11.497  1.9312  0.1163 -1.3216
17207SOL    HW253063   4.453   6.384  11.396  1.8002  1.1902 -0.1494
17208SOL     OW53064   4.413   7.744  11.433 -0.3533 -0.1702  0.2889
17208SOL    HW153065   4.504   7.730  11.410 -0.6569 -0.3720 -0.8377
17208SOL    HW253066   4.412   7.830  11.475  0.3786 -0.2617  0.5000
17209SOL     OW53067   4.775   6.347   0.918 -0.1294 -0.1616  0.2104
17209SOL    HW153068   4.791   6.253   0.909 -0.0405 -0.1151 -0.1166
17209SOL    HW253069   4.828   6.373   0.994  0.8574 -0.1353 -0.4712
17210SOL     OW53070   5.049   0.132  10.151  0.1928  0.5218  0.3543
17210SOL    HW153071   5.080   0.216  10.185  1.0492 -0.3061  1.6946
17210SOL    HW253072   4.956   0.131  10.170 -0.2348  1.9760 -1.4479
17211SOL     OW53073   6.570   6.960  10.636  0.0501 -0.7898  0.6235
17211SOL    HW153074   6.484   6.999  10.652 -1.0506 -3.4979  1.9737
17211SOL    HW253075   6.572   6.945  10.542 -1.0619 -0.8867  0.6032
17212SOL     OW53076   6.665   5.680   9.628  0.1275  0.3876 -0.3300
17212SOL    HW153077   6.572   5.683   9.648  0.2422 -0.2036  0.3246
17212SOL    HW253078   6.697   5.768   9.651 -0.5731  1.2011 -2.2627
17213SOL     OW53079   6.558   5.054   8.909 -0.8765  0.1891 -0.0023
17213SOL    HW153080   6.487   4.991   8.919  0.2022 -1.1472 -0.4050
17213SOL    HW253081   6.571   5.061   8.814  0.7593 -1.0707  0.0891
17214SOL     OW53082   6.459   7.312  10.786  0.1149  0.3972 -0.7761
17214SOL    HW153083   6.398   7.383  10.766 -1.1539 -0.1902  0.8281
17214SOL    HW253084   6.457   7.257  10.708 -0.5191  1.0053 -1.2029
17215SOL     OW53085   5.238   6.402  12.340 -0.0094  0.7611 -0.4373
17215SOL    HW153086   5.324   6.444  12.336  0.2587  0.4535  1.5383
17215SOL    HW253087   5.250   6.318  12.296  1.5511 -0.6080  2.4052
17216SOL     OW53088   3.350   6.372  11.009 -0.3403 -0.2594 -0.4186
17216SOL    HW153089   3.413   6.366  10.937  0.3070 -0.2515  0.1474
17216SOL    HW253090   3.338   6.466  11.022  0.6888 -0.2291  0.4666
17217SOL     OW53091   5.163   4.928  12.176 -0.6020  0.2895  0.0709
17217SOL    HW153092   5.203   4.841  12.169  0.0500  0.2589  2.8325
17217SOL    HW253093   5.229   4.980  12.221 -1.1287  2.1659 -1.2143
17218SOL     OW53094   4.388   7.197  10.610  0.1047 -0.7955 -0.0218
17218SOL    HW153095   4.378   7.196  10.515  1.6418  3.2882 -0.4374
17218SOL    HW253096   4.483   7.202  10.624 -0.0014 -2.7207  1.8665
17219SOL     OW53097   4.866   6.824  11.015  0.5806  0.2903 -0.1136
17219SOL    HW153098   4.923   6.772  10.957  0.6508  0.7336 -0.4456
17219SOL    HW253099   4.916   6.904  11.032 -0.7839  1.6559 -2.1228
17220SOL     OW53100   5.788   7.333  10.287 -0.4606  0.3479  0.5685
17220SOL    HW153101   5.864   7.377  10.249 -0.2938 -0.4892 -0.0990
17220SOL    HW253102   5.712   7.379  10.250 -0.2896  0.0459 -0.1873
17221SOL     OW53103   6.657   6.654   9.320  0.1753 -0.2126  0.4763
17221SOL    HW153104   6.629   6.683   9.407  0.0843  0.1029  0.3423
17221SOL    HW253105   6.743   6.613   9.335 -0.5410 -1.6295  0.9710
17222SOL     OW53106   5.056   6.695   9.852  0.6583 -0.2116  0.0398
17222SOL    HW153107   5.043   6.775   9.800  0.6749  0.0106  0.3735
17222SOL    HW253108   5.068   6.726   9.941 -2.0637 -0.6868  0.6585
17223SOL     OW53109   5.194   0.205  10.962  0.7758  0.2166 -0.2111
17223SOL    HW153110   5.240   0.142  11.019  1.3013  0.9453  0.1882
17223SOL    HW253111   5.137   0.151  10.908 -1.2530 -0.3878  2.3355
17224SOL     OW53112   3.542   1.718   8.161 -0.0763 -0.3853  0.1956
17224SOL    HW153113   3.568   1.773   8.087 -0.4383  0.0871  0.4066
17224SOL    HW253114   3.449   1.701   8.146 -0.6262  1.2496  1.4690
17225SOL     OW53115   4.592   6.853  11.439  0.4677 -0.1620  0.3589
17225SOL    HW153116   4.635   6.769  11.426 -1.8668 -1.2267 -1.2422
17225SOL    HW253117   4.627   6.909  11.369 -1.0778 -1.2334 -1.3757
17226SOL     OW53118   5.086   0.068  10.743  0.2146 -0.9434 -0.1693
17226SOL    HW153119   5.065   0.055  10.650  0.6097 -1.5889 -0.1731
17226SOL    HW253120   5.172   0.027  10.754  0.9878  0.6551  0.0871
17227SOL     OW53121   4.226   4.324  11.400 -0.0225  0.4078  0.2466
17227SOL    HW153122   4.191   4.391  11.341  1.4817  0.0502 -1.1264
17227SOL    HW253123   4.232   4.245  11.346  0.8551 -0.0968  1.0487
17228SOL     OW53124   4.372   5.422  12.314 -0.0605 -0.3876 -0.5179
17228SOL    HW153125   4.314   5.360  12.359  1.3701  0.4598  2.8528
17228SOL    HW253126   4.330   5.507  12.326  0.7455 -0.0463 -0.0273
17229SOL     OW53127   6.529   6.626  11.657  0.3367 -0.0525  0.6543
17229SOL    HW153128   6.533   6.668  11.571 -1.4742  0.5368  0.8262
17229SOL    HW253129   6.617   6.639  11.694  0.0005  3.4175  0.5750
17230SOL     OW53130   6.944   6.682   9.177 -0.6706 -0.0556 -0.1704
17230SOL    HW153131   7.001   6.702   9.103 -1.0069  1.0082 -0.1497
17230SOL    HW253132   6.998   6.702   9.254 -0.4823 -0.7231 -0.1155
17231SOL     OW53133   3.738   7.016   8.392  0.9210 -0.0123 -0.2623
17231SOL    HW153134   3.697   7.059   8.468 -1.3589  0.6925 -1.7718
17231SOL    HW253135   3.766   7.089   8.336  0.9875 -0.5103 -0.8865
17232SOL     OW53136   3.659   6.760   9.492 -0.4985  0.3815  0.5156
17232SOL    HW153137   3.581   6.802   9.454 -0.2594 -0.6481 -1.2632
17232SOL    HW253138   3.728   6.774   9.427  1.0820  1.9435  2.3992
17233SOL     OW53139   3.660   7.478  11.921 -0.3583  0.2657  0.2307
17233SOL    HW153140   3.732   7.512  11.868 -0.9040  0.9669 -0.0574
17233SOL    HW253141   3.581   7.511  11.880 -0.9109 -1.2279  0.0221
17234SOL     OW53142   4.176   5.512  10.994 -0.3726 -0.0644  0.3966
17234SOL    HW153143   4.230   5.462  10.933 -1.0019 -0.9776  0.5695
17234SOL    HW253144   4.087   5.476  10.983 -0.3898 -0.7460  2.3139
17235SOL     OW53145   2.966   3.610  12.134  0.5187 -0.3638 -0.0897
17235SOL    HW153146   2.963   3.685  12.193 -2.3089 -0.0769 -0.4612
17235SOL    HW253147   3.059   3.591  12.123  1.2149  1.6269  1.8308
17236SOL     OW53148   3.582   3.892  10.354  0.0034  0.3349 -0.0894
17236SOL    HW153149   3.581   3.980  10.319 -1.9553  0.2449 -0.3463
17236SOL    HW253150   3.623   3.839  10.286 -0.2429  0.7938 -0.5976
17237SOL     OW53151   4.455   4.703  11.182  0.0762 -0.0635  0.2889
17237SOL    HW153152   4.376   4.708  11.127 -0.1017  0.7580  0.6024
17237SOL    HW253153   4.422   4.693  11.271  0.3181  0.4008  0.4354
17238SOL     OW53154   6.577   7.096   9.635  0.3881  0.2925 -0.5317
17238SOL    HW153155   6.632   7.070   9.561  1.0595  0.4384 -0.0908
17238SOL    HW253156   6.495   7.047   9.623  0.6038  0.0958 -1.2073
17239SOL     OW53157   3.954   7.971   0.092  0.7266 -0.1688  0.4964
17239SOL    HW153158   3.909   7.967   0.176 -0.4203 -0.7212 -0.1203
17239SOL    HW253159   3.928   7.890   0.047 -2.2369  1.9956 -2.1343
17240SOL     OW53160   7.079   6.168  10.753 -0.1364 -0.5271  0.1204
17240SOL    HW153161   7.015   6.132  10.691 -0.6305 -0.0545  0.3442
17240SOL    HW253162   7.032   6.172  10.836 -0.7442  2.3103 -0.2653
17241SOL     OW53163   4.613   7.560  12.075 -0.5702  0.3896 -0.1671
17241SOL    HW153164   4.593   7.653  12.068 -1.1076  0.2317 -0.8669
17241SOL    HW253165   4.528   7.517  12.060 -0.2252 -0.2265 -0.3634
17242SOL     OW53166   5.447   5.822  10.211  0.2677  0.1797  0.8519
17242SOL    HW153167   5.437   5.812  10.116 -1.7970  0.9965  0.9382
17242SOL    HW253168   5.512   5.892  10.220  0.4330  0.1456  0.0436
17243SOL     OW53169   5.036   6.938   9.663 -0.0390  0.3142 -0.1881
17243SOL    HW153170   5.097   6.916   9.592 -0.2676 -0.5771 -0.1183
17243SOL    HW253171   4.962   6.979   9.618 -0.3469 -0.5798 -0.5203
17244SOL     OW53172   6.686   6.334  10.033 -0.3443  0.1430  0.3204
17244SOL    HW153173   6.670   6.291  10.117  0.1980 -1.2115 -0.2451
17244SOL    HW253174   6.603   6.327   9.986 -0.5030  0.4791  0.5390
17245SOL     OW53175   3.859   6.418  12.002  0.0302  0.6578 -0.1168
17245SOL    HW153176   3.824   6.329  12.002 -0.2274  0.7539 -0.6064
17245SOL    HW253177   3.781   6.474  12.011  0.1888  0.8353  0.1716
17246SOL     OW53178   4.059   6.721  10.172  0.0194  0.2908  0.5586
17246SOL    HW153179   4.084   6.641  10.218  0.0674  0.4523  0.8191
17246SOL    HW253180   4.035   6.782  10.242  2.2311  1.2908  0.5259
17247SOL     OW53181   4.950   4.971  11.864  0.3508 -0.5853  0.5804
17247SOL    HW153182   4.967   4.877  11.875  0.1314 -0.9917 -2.0186
17247SOL    HW253183   4.897   4.994  11.941 -2.3158 -3.3544 -0.1990
17248SOL     OW53184   2.561   6.020  10.228  0.0626  0.3210 -0.2237
17248SOL    HW153185   2.492   5.995  10.289  0.0409 -0.4858 -0.5643
17248SOL    HW253186   2.605   6.094  10.270  0.5957 -0.7472  1.1863
17249SOL     OW53187   6.640   6.362  10.685  0.1970  0.5283  0.2595
17249SOL    HW153188   6.559   6.403  10.714 -0.2271  0.0089 -0.1640
17249SOL    HW253189   6.617   6.270  10.670  1.3880 -0.1585  2.2909
17250SOL     OW53190   5.543   7.015  12.246  0.1367  0.0023  0.2061
17250SOL    HW153191   5.601   6.952  12.289  0.7799  0.4539  0.0134
17250SOL    HW253192   5.486   6.962  12.191 -0.6242 -0.5855  1.4989
17251SOL     OW53193   4.763   3.887  11.341  0.0786  0.4380 -0.2087
17251SOL    HW153194   4.819   3.922  11.411 -0.6555  0.7921  0.2156
17251SOL    HW253195   4.807   3.913  11.260  1.4030 -0.7322  0.0960
17252SOL     OW53196   5.123   6.959  12.286  0.4666  0.4254 -0.0944
17252SOL    HW153197   5.122   6.876  12.238  1.7289  0.5607 -0.3985
17252SOL    HW253198   5.037   6.997  12.270 -0.6282 -1.3883  1.0994
17253SOL     OW53199   3.595   7.569  10.952  0.4507 -0.8135  0.1668
17253SOL    HW153200   3.587   7.474  10.964 -0.1343 -0.7220  0.5386
17253SOL    HW253201   3.682   7.581  10.913  0.0257 -1.6087 -1.0598
17254SOL     OW53202   3.426   4.651  10.820  0.4070 -0.3820  0.2794
17254SOL    HW153203   3.420   4.663  10.725  1.1171  1.0959  0.3939
17254SOL    HW253204   3.517   4.624  10.835  0.0990 -1.3351  0.4818
17255SOL     OW53205   4.940   4.640  10.929 -0.0077  0.0957  0.1481
17255SOL    HW153206   4.943   4.685  10.844 -0.6694 -0.0008  0.0669
17255SOL    HW253207   4.847   4.636  10.950  0.1402 -0.1164  0.7573
17256SOL     OW53208   5.171   5.853  10.192  0.4529 -0.5798  0.0035
17256SOL    HW153209   5.252   5.804  10.198  1.0784  0.2191 -1.3973
17256SOL    HW253210   5.102   5.787  10.196  1.1929 -1.3605  0.1346
17257SOL     OW53211   5.194   4.452   9.215  0.1391  0.0632 -0.5815
17257SOL    HW153212   5.186   4.547   9.224  1.3881  0.0671  0.8010
17257SOL    HW253213   5.111   4.419   9.250  0.3445  0.5978  0.4660
17258SOL     OW53214   4.546   1.522   9.723  0.1031  0.0158  0.1892
17258SOL    HW153215   4.497   1.442   9.704  0.0634 -0.8768  3.4553
17258SOL    HW253216   4.479   1.587   9.744  0.2143  0.3400 -0.4125
17259SOL     OW53217   4.792   5.098  12.488  0.6366 -0.8589  0.2331
17259SOL    HW153218   4.712   5.119  12.536  1.5149  0.1651  1.3447
17259SOL    HW253219   4.769   5.025  12.431 -1.1934 -0.2793  0.1828
17260SOL     OW53220   3.875   7.314  10.016 -0.0103 -0.6094  1.3765
17260SOL    HW153221   3.833   7.252   9.956 -1.0456  2.2905 -1.1701
17260SOL    HW253222   3.813   7.323  10.088 -1.9300  0.5036 -0.3027
17261SOL     OW53223   4.591   6.195  11.189 -0.4490  0.0631 -0.2278
17261SOL    HW153224   4.672   6.144  11.189  0.9300  2.1354 -0.1501
17261SOL    HW253225   4.579   6.222  11.280 -0.1234  1.4022 -0.5687
17262SOL     OW53226   3.424   7.922  11.706 -0.5815 -0.8110 -0.1174
17262SOL    HW153227   3.497   7.864  11.685 -0.0272 -0.1574 -0.0257
17262SOL    HW253228   3.392   7.891  11.791  0.5331 -0.2051  0.5462
17263SOL     OW53229   6.145   6.856  10.448 -0.4004 -0.0014 -0.3320
17263SOL    HW153230   6.224   6.857  10.393  1.6872  0.3196  2.4395
17263SOL    HW253231   6.074   6.833  10.388  1.3818  1.9139 -3.4665
17264SOL     OW53232   4.241   5.145  11.046 -0.4596  0.2224 -0.2160
17264SOL    HW153233   4.150   5.171  11.030 -0.6249  0.5456  1.1087
17264SOL    HW253234   4.234   5.071  11.107  0.1747  0.5915  0.3141
17265SOL     OW53235   6.382   0.580   9.967  0.3850  0.3054 -0.2101
17265SOL    HW153236   6.291   0.609   9.967  0.2285 -0.0656  1.6925
17265SOL    HW253237   6.430   0.649  10.011  0.8044 -0.0842 -0.0426
17266SOL     OW53238   5.379   5.757  11.402  0.1265  0.3395 -0.2718
17266SOL    HW153239   5.417   5.815  11.469  1.0849 -0.6501  0.0676
17266SOL    HW253240   5.312   5.811  11.360 -1.4315  0.6309  2.3221
17267SOL     OW53241   4.359   7.800   9.983  0.5384  0.0136  0.5667
17267SOL    HW153242   4.299   7.875   9.980  1.3748  0.7480  1.5704
17267SOL    HW253243   4.332   7.745   9.909  0.5552  1.7859 -0.8358
17268SOL     OW53244   5.921   6.560  11.349  0.3241 -0.3773  0.0221
17268SOL    HW153245   5.930   6.641  11.399 -0.9403  0.9556 -1.7505
17268SOL    HW253246   5.993   6.505  11.379  0.3198  0.7705  2.3922
17269SOL     OW53247   6.313   7.018   9.611  0.4744 -0.5860 -0.0887
17269SOL    HW153248   6.260   6.939   9.617  0.9700 -0.9554 -0.3977
17269SOL    HW253249   6.290   7.069   9.689  0.5800 -1.3114  0.4322
17270SOL     OW53250   4.684   7.400  10.072  0.1805  0.0583  0.5595
17270SOL    HW153251   4.767   7.430  10.111  1.7202  0.0717 -2.4303
17270SOL    HW253252   4.636   7.480  10.053  0.3814  0.1579  0.4713
17271SOL     OW53253   4.133   6.740  10.664  0.4821  0.2029 -0.7322
17271SOL    HW153254   4.086   6.823  10.664  0.0861 -0.0201 -1.1654
17271SOL    HW253255   4.220   6.761  10.629  1.0707  0.8100  0.9774
17272SOL     OW53256   5.504   5.340   9.018  0.2831  0.0443  0.5180
17272SOL    HW153257   5.426   5.289   9.040  0.6876 -0.2580  1.2651
17272SOL    HW253258   5.533   5.303   8.935 -0.0849 -0.1726  0.4812
17273SOL     OW53259   5.291   5.554   0.139  0.8274 -0.1866 -0.6146
17273SOL    HW153260   5.261   5.464   0.152 -1.6818  0.7779  1.0022
17273SOL    HW253261   5.286   5.594   0.226  0.2269  1.9538 -1.5575
17274SOL     OW53262   6.524   7.860  11.058 -0.3367 -0.0513  0.0213
17274SOL    HW153263   6.572   7.894  11.134 -1.1817  0.3037  0.4069
17274SOL    HW253264   6.454   7.923  11.043 -1.0233 -0.8338 -0.1805
17275SOL     OW53265   5.292   0.221  12.304 -0.0073 -0.1826 -0.1316
17275SOL    HW153266   5.369   0.172  12.332  1.6321  1.7849 -1.0055
17275SOL    HW253267   5.267   0.272  12.381 -0.1566 -0.4390 -0.0059
17276SOL     OW53268   6.468   6.642  10.602 -0.2895 -0.8328 -0.1222
17276SOL    HW153269   6.456   6.560  10.649  0.6511 -0.3122  1.1054
17276SOL    HW253270   6.451   6.710  10.667  1.5885 -0.0859 -0.3272
17277SOL     OW53271   2.663   6.706  12.065  0.3314 -0.0308  0.7394
17277SOL    HW153272   2.613   6.660  11.998 -1.0095  1.4046  0.6962
17277SOL    HW253273   2.732   6.645  12.090 -1.4203 -2.1109  0.7853
17278SOL     OW53274   6.055   6.618   9.117  0.2796  0.6038  0.2156
17278SOL    HW153275   6.116   6.685   9.088 -0.6399  1.9674  1.2795
17278SOL    HW253276   6.110   6.552   9.161  1.1586  0.8039 -0.5675
17279SOL     OW53277   4.655   7.614  11.704 -1.3318 -0.6207  0.0255
17279SOL    HW153278   4.626   7.599  11.614 -1.9710  0.6070 -0.0025
17279SOL    HW253279   4.591   7.676  11.739 -0.2501  0.0568  0.8567
17280SOL     OW53280   5.747   7.398   9.441  0.1751 -0.3304 -1.1287
17280SOL    HW153281   5.663   7.407   9.396 -0.5942 -1.8172 -0.1141
17280SOL    HW253282   5.732   7.327   9.504  1.1642  1.6054  1.4761
17281SOL     OW53283   4.757   7.029   9.600 -0.1125 -0.2491 -0.5469
17281SOL    HW153284   4.686   7.086   9.630 -0.0487  0.2236 -1.2598
17281SOL    HW253285   4.775   7.059   9.511  2.1057  0.7455  0.1610
17282SOL     OW53286   5.436   6.553  10.944  0.1014 -0.1036 -0.2063
17282SOL    HW153287   5.435   6.648  10.929  0.0578 -0.1741 -0.6847
17282SOL    HW253288   5.366   6.520  10.887  0.6975 -0.5079 -0.7167
17283SOL     OW53289   0.280   7.869  12.317  0.3864 -0.4126  0.2036
17283SOL    HW153290   0.339   7.795  12.300  1.3350  0.7693 -2.0867
17283SOL    HW253291   0.315   7.940  12.263 -3.4718  0.2083 -1.8130
17284SOL     OW53292   5.907   6.166  10.674  0.3316 -0.1138  0.2248
17284SOL    HW153293   5.925   6.212  10.756 -0.5575 -0.2823  0.5318
17284SOL    HW253294   5.888   6.076  10.701  0.5950 -0.3045 -0.2240
17285SOL     OW53295   4.929   6.439  12.186  0.3737 -0.2833  0.6135
17285SOL    HW153296   4.840   6.413  12.161  0.3171 -0.3240  0.8507
17285SOL    HW253297   4.947   6.387  12.265  0.4156  0.0991  0.8575
17286SOL     OW53298   5.772   6.091   9.332  0.3106 -0.0839  0.6819
17286SOL    HW153299   5.857   6.084   9.374  2.2534 -1.2507 -2.9693
17286SOL    HW253300   5.757   6.004   9.294 -1.4767  0.7038 -0.5562
17287SOL     OW53301   5.930   4.876  10.825  0.3553 -0.3498 -0.0302
17287SOL    HW153302   5.925   4.831  10.741 -0.4776 -0.4844  0.0838
17287SOL    HW253303   5.839   4.882  10.855  0.7027 -0.9984  1.2312
17288SOL     OW53304   4.050   7.469   9.895  0.1500  0.0727  0.6142
17288SOL    HW153305   3.986   7.414   9.941 -0.0677 -0.1264  0.0797
17288SOL    HW253306   4.000   7.547   9.870 -0.0057 -0.2659 -0.1723
17289SOL     OW53307   3.301   5.367  11.963 -0.4726 -0.1904 -0.1969
17289SOL    HW153308   3.287   5.423  12.039 -0.5443  1.3724 -1.3083
17289SOL    HW253309   3.326   5.427  11.893 -0.7239 -1.5312 -1.5025
17290SOL     OW53310   3.748   5.505  11.109 -0.1381 -0.2359 -0.0159
17290SOL    HW153311   3.671   5.546  11.148  0.6713  0.9979  0.3384
17290SOL    HW253312   3.748   5.416  11.144 -0.9813 -0.0106  0.5892
17291SOL     OW53313   4.128   5.292   9.770 -0.0446  0.5711  0.2035
17291SOL    HW153314   4.123   5.304   9.675  2.0925  1.9529  0.1866
17291SOL    HW253315   4.217   5.258   9.785 -1.1231 -1.9552  1.5701
17292SOL     OW53316   5.411   7.970  11.759 -0.8897  0.4715  0.1200
17292SOL    HW153317   5.498   7.931  11.767  0.1059  2.8473  1.9343
17292SOL    HW253318   5.425   8.050  11.708 -2.0018  0.9323  0.5013
17293SOL     OW53319   3.944   6.764  11.823  0.7009  0.1105  0.7340
17293SOL    HW153320   3.993   6.704  11.768 -0.6871  2.8438 -4.0669
17293SOL    HW253321   3.881   6.709  11.869  0.6176 -2.3583 -2.0284
17294SOL     OW53322   5.951   5.494  11.274 -0.4661 -0.4533  0.9868
17294SOL    HW153323   5.872   5.547  11.278  0.4885  1.0729  0.4045
17294SOL    HW253324   5.923   5.414  11.228 -1.7660 -0.1717  1.2451
17295SOL     OW53325   3.755   7.989   0.354 -0.4406  0.0090 -0.0359
17295SOL    HW153326   3.669   7.953   0.331 -0.1186 -0.0335 -1.2718
17295SOL    HW253327   3.794   7.924   0.412  0.0955 -1.6704 -2.1568
17296SOL     OW53328   4.094   6.081  11.526  0.0862  0.2726  0.1573
17296SOL    HW153329   4.084   6.036  11.442  1.0023 -0.7449  0.5853
17296SOL    HW253330   4.117   6.012  11.588 -0.5116  1.0244  1.2446
17297SOL     OW53331   5.355   6.131   0.071 -0.2131  0.1024  0.1487
17297SOL    HW153332   5.359   6.212   0.122  0.0934  0.9346 -1.1317
17297SOL    HW253333   5.371   6.160  -0.019 -0.9053 -1.2870 -0.4389
17298SOL     OW53334   5.472   5.718  11.820 -0.4048  0.2382 -0.2486
17298SOL    HW153335   5.409   5.647  11.834  0.7195 -0.6174  0.6390
17298SOL    HW253336   5.451   5.782  11.888  0.1881 -0.4363  0.6016
17299SOL     OW53337   4.509   6.183  11.871  0.3145  0.0495 -0.2022
17299SOL    HW153338   4.522   6.102  11.822 -0.9037 -0.3665  0.1146
17299SOL    HW253339   4.417   6.206  11.854  0.5426  1.1637  0.0098
17300SOL     OW53340   7.041   5.319  10.339  0.2569  0.0995  0.1076
17300SOL    HW153341   7.010   5.256  10.404  1.2300  0.0391  0.5341
17300SOL    HW253342   7.041   5.403  10.384 -0.8078  0.3811 -0.3866
17301SOL     OW53343   6.881   5.179   9.933 -0.4319  0.1282 -0.1140
17301SOL    HW153344   6.838   5.205   9.852  0.4955  3.3604  0.2966
17301SOL    HW253345   6.970   5.215   9.926 -0.1998  0.1577  2.1404
17302SOL     OW53346   3.004   6.949  10.395  0.3669 -0.6474  0.1835
17302SOL    HW153347   2.947   6.995  10.333  0.3745  0.5670  1.0399
17302SOL    HW253348   3.040   6.876  10.345  0.8628  0.6444 -1.4424
17303SOL     OW53349   5.002   4.534   0.077 -0.0352  0.0298  0.1917
17303SOL    HW153350   4.926   4.525   0.019  0.4051  0.0417 -0.3942
17303SOL    HW253351   5.047   4.450   0.070  0.3146  0.2261  0.1046
17304SOL     OW53352   6.217   7.954   9.584  0.2252  0.2511 -0.3259
17304SOL    HW153353   6.286   7.890   9.597  1.6909  1.9277  0.6058
17304SOL    HW253354   6.144   7.923   9.638  1.3021 -0.0861  0.9823
17305SOL     OW53355   5.873   7.363  11.236  0.0950 -0.7567 -0.7847
17305SOL    HW153356   5.790   7.409  11.248  1.3198  2.5045 -3.3647
17305SOL    HW253357   5.870   7.332  11.145  0.8029 -2.8511 -0.1687
17306SOL     OW53358   4.516   0.413  10.668  0.1168  0.0237  0.3878
17306SOL    HW153359   4.488   0.448  10.583  0.2087  0.0283  0.3592
17306SOL    HW253360   4.610   0.395  10.657  0.3911  1.0789  0.8345
17307SOL     OW53361   4.696   6.327  12.054  0.3394  0.4153 -0.7877
17307SOL    HW153362   4.646   6.279  11.988 -0.2466 -0.8949  0.5690
17307SOL    HW253363   4.634   6.390  12.090  0.9337  1.8405 -2.1214
17308SOL     OW53364   5.346   4.692  11.507  0.3794  0.5440 -0.4673
17308SOL    HW153365   5.366   4.660  11.419  0.0769 -3.2514  0.6597
17308SOL    HW253366   5.251   4.703  11.508  0.4754  1.5379 -0.8295
17309SOL     OW53367   5.078   7.141  11.237  0.1614 -0.0415  0.0650
17309SOL    HW153368   5.100   7.204  11.306  0.5350 -0.9976  0.8469
17309SOL    HW253369   5.024   7.076  11.281 -0.7045  0.0187 -0.8679
17310SOL     OW53370   5.314   5.477  11.332 -0.0315 -1.0488  0.9678
17310SOL    HW153371   5.261   5.452  11.407 -1.8423 -0.3096 -0.0227
17310SOL    HW253372   5.318   5.573  11.335 -1.8183 -0.8494 -0.9250
17311SOL     OW53373   4.066   7.883  10.001 -0.1873  0.1060  0.6174
17311SOL    HW153374   4.031   7.811   9.950  1.0185 -0.2137  0.2000
17311SOL    HW253375   4.050   7.961   9.947  1.6747 -0.3075 -0.6209
17312SOL     OW53376   3.751   7.835  10.581  0.1525 -0.4458  0.3397
17312SOL    HW153377   3.658   7.842  10.562  0.3997  0.2389 -0.7187
17312SOL    HW253378   3.783   7.925  10.578  0.6900 -0.5772  1.5993
17313SOL     OW53379   5.821   3.762  12.142  0.2653 -0.5244 -0.2588
17313SOL    HW153380   5.848   3.804  12.060 -1.5506  1.2447 -0.0481
17313SOL    HW253381   5.878   3.802  12.209 -0.1322  0.1640 -0.3192
17314SOL     OW53382   3.822   5.955  10.463  0.1148  0.0880 -0.1619
17314SOL    HW153383   3.783   5.982  10.380 -0.4055  0.8541  0.3222
17314SOL    HW253384   3.780   5.871  10.483  0.3932 -0.2005 -0.7644
17315SOL     OW53385   0.407   5.960  10.276 -0.0570 -0.3535  0.2893
17315SOL    HW153386   0.355   5.994  10.203 -0.3682  1.2849  1.2213
17315SOL    HW253387   0.431   5.871  10.249 -0.0727  0.2289 -1.8341
17316SOL     OW53388   4.749   5.872   0.018  0.3511  0.1945  0.1985
17316SOL    HW153389   4.753   5.780  -0.009  0.4887  0.5720 -1.1429
17316SOL    HW253390   4.831   5.887   0.066  1.1061  0.0156 -0.9814
17317SOL     OW53391   5.634   6.712  10.068 -0.4577 -0.2045  0.1244
17317SOL    HW153392   5.600   6.738  10.154 -0.5691 -1.1141  0.3697
17317SOL    HW253393   5.556   6.685  10.019 -0.2997 -0.5432  0.0542
17318SOL     OW53394   6.255   6.181  12.465  0.0614  0.3068  0.1661
17318SOL    HW153395   6.194   6.235  12.415  0.6898 -0.8224 -1.9371
17318SOL    HW253396   6.261   6.099  12.416  1.1481 -0.6709  1.8296
17319SOL     OW53397   5.070   3.924   9.578  0.2272 -0.5381  0.2845
17319SOL    HW153398   5.043   4.007   9.538  0.0823 -0.5728  0.3109
17319SOL    HW253399   5.116   3.950   9.658  0.8949 -0.4516 -0.1217
17320SOL     OW53400   5.131   7.538  10.673 -0.2469 -0.1891  0.0180
17320SOL    HW153401   5.081   7.611  10.636  0.5643 -0.1264 -1.0181
17320SOL    HW253402   5.121   7.467  10.609  0.5969 -0.3258  0.0182
17321SOL     OW53403   4.232   7.438  10.086  0.0863 -0.0497  0.0118
17321SOL    HW153404   4.163   7.483  10.037  1.2931  1.0817 -0.7273
17321SOL    HW253405   4.214   7.345  10.073  0.5270  0.1684 -2.9290
17322SOL     OW53406   3.566   5.809   8.788 -0.0890  0.0126 -0.2396
17322SOL    HW153407   3.552   5.717   8.810 -1.5117 -0.5435 -2.9757
17322SOL    HW253408   3.624   5.807   8.712  0.6106  1.4563  0.2248
17323SOL     OW53409   5.040   6.670  11.756  0.0929 -0.4294  0.2044
17323SOL    HW153410   5.066   6.582  11.783  1.0720 -0.3097 -0.2882
17323SOL    HW253411   4.971   6.655  11.691  0.0083 -0.8240  0.3810
17324SOL     OW53412   6.054   5.938  10.028 -0.1822  0.0692  0.0578
17324SOL    HW153413   5.979   5.890   9.993 -0.5455  1.4503 -1.1318
17324SOL    HW253414   6.113   5.869  10.060 -1.0563 -1.1236 -0.7906
17325SOL     OW53415   4.836   6.979   9.941 -0.1338 -0.0909 -0.3248
17325SOL    HW153416   4.745   6.951   9.940  0.2304 -1.2952 -1.1971
17325SOL    HW253417   4.850   7.020   9.856 -0.0091  0.6848  0.0513
17326SOL     OW53418   6.375   6.471   9.872  0.0844 -0.4327 -0.2014
17326SOL    HW153419   6.317   6.513   9.809 -1.4742 -2.8865 -0.5039
17326SOL    HW253420   6.321   6.459   9.950  0.9234 -0.6499  0.3633
17327SOL     OW53421   4.167   5.559  11.949  0.7490  0.0469  0.1019
17327SOL    HW153422   4.107   5.609  12.005  0.2137  0.0097 -0.4293
17327SOL    HW253423   4.193   5.484  12.002 -1.2136 -1.0149 -0.3202
17328SOL     OW53424   3.611   5.718  10.527 -0.1562 -0.5874 -0.0638
17328SOL    HW153425   3.536   5.719  10.467 -1.6885 -0.0836  1.7785
17328SOL    HW253426   3.575   5.692  10.611  1.4212  1.3445  1.3026
17329SOL     OW53427   5.694   5.397  10.922 -0.1146  0.7000 -0.2415
17329SOL    HW153428   5.611   5.349  10.929  0.9387 -1.1175  0.4564
17329SOL    HW253429   5.741   5.375  11.002  0.7703  2.3211 -0.2693
17330SOL     OW53430   4.811   6.985  11.715 -1.1038 -0.5985 -0.1825
17330SOL    HW153431   4.732   6.931  11.722 -0.6302 -1.1333  1.6767
17330SOL    HW253432   4.849   6.983  11.803  2.3524 -2.4500 -1.5256
17331SOL     OW53433   4.938   1.603   9.176  0.1674  0.3727  0.4134
17331SOL    HW153434   4.884   1.681   9.167 -0.3222 -0.0993 -1.1373
17331SOL    HW253435   4.875   1.532   9.188  0.5835  0.1317  1.2240
17332SOL     OW53436   5.170   6.007   0.207 -0.3852 -0.4792  0.6051
17332SOL    HW153437   5.218   6.052   0.137  0.5325 -4.2895 -1.4978
17332SOL    HW253438   5.219   6.029   0.287  1.1658  0.6259 -0.5839
17333SOL     OW53439   5.459   4.988  10.812 -0.0185  0.0196 -0.4184
17333SOL    HW153440   5.375   4.968  10.769 -0.3490 -0.3437  0.3858
17333SOL    HW253441   5.452   4.947  10.898  0.1379  1.7863  0.4671
17334SOL     OW53442   4.474   2.899   0.117  0.2917 -0.3989 -0.3731
17334SOL    HW153443   4.415   2.871   0.047 -1.0093  1.0396  0.1082
17334SOL    HW253444   4.423   2.889   0.197  1.2322 -0.5562  0.2255
17335SOL     OW53445   4.747   0.067  10.733  0.0798  0.5279 -0.4916
17335SOL    HW153446   4.754  -0.006  10.795  3.1123  0.2019 -1.0689
17335SOL    HW253447   4.675   0.041  10.675 -0.0315 -1.1848  0.3441
17336SOL     OW53448   4.040   0.179   0.730 -0.0209 -0.3020  0.0115
17336SOL    HW153449   3.972   0.220   0.783 -0.2117 -0.1163 -0.3716
17336SOL    HW253450   4.009   0.188   0.640  0.3074 -0.5980 -0.1338
17337SOL     OW53451   3.871   4.644   0.728 -0.2025 -0.2505 -0.0194
17337SOL    HW153452   3.846   4.675   0.815  0.5108 -0.6402  0.3280
17337SOL    HW253453   3.907   4.556   0.743  0.9249  0.1054 -0.5573
17338SOL     OW53454   3.577   7.819  11.992  0.1417  0.4283 -0.6390
17338SOL    HW153455   3.631   7.779  11.924  0.1798 -2.0010  0.7281
17338SOL    HW253456   3.639   7.847  12.059 -0.1335 -1.1380  0.3173
17339SOL     OW53457   5.454   5.907  11.615 -0.1636  0.0081 -0.2375
17339SOL    HW153458   5.370   5.946  11.639 -0.9146 -1.0030 -1.1296
17339SOL    HW253459   5.472   5.845  11.686 -0.1132  0.2944  0.0043
17340SOL     OW53460   5.857   7.172  12.428  0.3003 -0.5155 -0.1317
17340SOL    HW153461   5.781   7.223  12.454  0.5310 -0.7931  1.1312
17340SOL    HW253462   5.927   7.200  12.488  2.0080  1.7126 -2.9038
17341SOL     OW53463   5.697   5.602  11.296 -0.3462  0.0674 -0.2156
17341SOL    HW153464   5.655   5.647  11.224 -0.3931  0.3035 -0.0394
17341SOL    HW253465   5.625   5.568  11.350 -0.3218 -0.8934 -0.7620
17342SOL     OW53466   4.514   6.367   0.022 -0.4814 -0.5336 -0.2930
17342SOL    HW153467   4.429   6.324   0.028 -1.2492  0.9740  0.0475
17342SOL    HW253468   4.504   6.447   0.074  1.6129 -1.0618  1.0256
17343SOL     OW53469   6.609   7.009  11.700  0.7447  0.3895 -0.0231
17343SOL    HW153470   6.677   7.000  11.633  1.3265 -0.2723  0.6407
17343SOL    HW253471   6.558   6.928  11.693  1.1906  0.0326  0.7378
17344SOL     OW53472   2.730   5.121  11.943 -0.1960  0.0794  0.5578
17344SOL    HW153473   2.812   5.073  11.931 -1.4230 -1.8751 -0.7071
17344SOL    HW253474   2.709   5.107  12.036  0.0947 -0.8397  0.5031
17345SOL     OW53475   6.868   7.505   0.725  0.4867 -0.1669  0.0511
17345SOL    HW153476   6.941   7.463   0.771 -0.0971 -1.4207 -0.1030
17345SOL    HW253477   6.825   7.559   0.791 -0.4253 -2.0434  1.0956
17346SOL     OW53478   6.033   6.250   0.118 -0.4743 -0.5515  0.1956
17346SOL    HW153479   6.119   6.226   0.082 -1.6859 -1.9470 -2.0286
17346SOL    HW253480   6.029   6.207   0.203  1.3992  0.4283  0.8330
17347SOL     OW53481   4.360   7.207  12.432  1.0967  0.0561 -0.2166
17347SOL    HW153482   4.447   7.188  12.396  0.8180  0.2571 -1.0174
17347SOL    HW253483   4.313   7.249  12.360 -0.6688 -2.7001 -0.8369
17348SOL     OW53484   4.149   7.697   8.580 -0.0164  0.1715 -0.2645
17348SOL    HW153485   4.134   7.618   8.528  1.5406 -0.4055  0.1117
17348SOL    HW253486   4.065   7.713   8.625 -0.7842 -0.4181 -1.4480
17349SOL     OW53487   6.022   3.752  10.143 -0.0319  0.5981  0.1346
17349SOL    HW153488   5.971   3.772  10.222  0.8120  1.0057  0.5949
17349SOL    HW253489   6.012   3.829  10.088  0.0905  0.6830  0.2299
17350SOL     OW53490   2.704   5.287   0.212 -0.2837  0.1692  0.0235
17350SOL    HW153491   2.709   5.209   0.266 -2.1183  0.3013  0.4411
17350SOL    HW253492   2.634   5.268   0.149 -0.6475  1.3825  0.0334
17351SOL     OW53493   4.433   6.428   0.329 -0.5478 -0.0598 -0.5029
17351SOL    HW153494   4.441   6.504   0.386 -0.6308 -1.1209  0.9976
17351SOL    HW253495   4.523   6.401   0.311 -0.4860  0.9716 -1.9131
17352SOL     OW53496   4.867   5.517   0.729  0.3436 -0.0321 -0.2222
17352SOL    HW153497   4.914   5.600   0.730  2.5593 -1.2054 -0.8037
17352SOL    HW253498   4.823   5.516   0.644  2.8529 -0.7159 -1.6014
17353SOL     OW53499   5.689   0.313  10.172 -0.1147  0.1160 -0.0477
17353SOL    HW153500   5.663   0.404  10.187 -0.4227 -0.0949  0.7617
17353SOL    HW253501   5.630   0.281  10.105  0.0391  0.5292 -0.3868
17354SOL     OW53502   4.178   7.804  12.471  0.2852 -0.5044 -0.2180
17354SOL    HW153503   4.100   7.751  12.490 -0.5675  1.2804  1.6952
17354SOL    HW253504   4.143   7.888  12.442  1.3364  0.8859  2.1752
17355SOL     OW53505   3.712   6.178  12.041  0.2707  0.7220 -0.9855
17355SOL    HW153506   3.624   6.180  12.078  1.1728  1.1108  1.2872
17355SOL    HW253507   3.700   6.145  11.951 -2.2807  1.8385 -1.1220
17356SOL     OW53508   6.514   0.727   0.060 -0.1858 -0.7603 -0.1148
17356SOL    HW153509   6.459   0.788   0.110  0.7249  0.0170 -0.0428
17356SOL    HW253510   6.515   0.647   0.114  1.3390  0.2820  1.5234
17357SOL     OW53511   4.366   6.989  10.103 -0.1087 -0.3084 -0.3083
17357SOL    HW153512   4.370   7.019  10.012 -1.7225  2.9066  0.5230
17357SOL    HW253513   4.441   7.030  10.145 -1.3038  1.1511  0.4803
17358SOL     OW53514   4.188   5.052  11.307 -0.3928 -0.0482 -0.1953
17358SOL    HW153515   4.246   4.989  11.350  0.6856  0.7611 -0.4305
17358SOL    HW253516   4.183   5.126  11.367  0.3972  0.7076 -1.0254
17359SOL     OW53517   3.677   6.285  11.318  0.1138  0.6329 -0.2424
17359SOL    HW153518   3.605   6.278  11.255  1.0517  1.2545 -1.4336
17359SOL    HW253519   3.746   6.229  11.281 -0.2647 -1.2547  1.6958
17360SOL     OW53520   3.364   5.895  11.987 -0.0231 -0.4577  0.3022
17360SOL    HW153521   3.284   5.913  12.037 -0.2536 -1.1860  0.2035
17360SOL    HW253522   3.390   5.981  11.952 -0.6180 -0.1762  0.5374
17361SOL     OW53523   4.493   6.465   0.687  0.1457 -0.4990  0.1672
17361SOL    HW153524   4.460   6.534   0.630  0.4502 -0.9971 -0.6370
17361SOL    HW253525   4.523   6.510   0.766  1.7907  0.4887 -0.9681
17362SOL     OW53526   4.972   3.895  10.431 -0.7646 -0.1329 -0.0539
17362SOL    HW153527   4.910   3.957  10.471 -0.9351  1.3224 -2.3621
17362SOL    HW253528   4.923   3.857  10.358  0.8290  0.6804 -1.6182
17363SOL     OW53529   4.123   6.846   0.086 -0.0468 -0.3368  0.3376
17363SOL    HW153530   4.170   6.842   0.003  0.2002 -0.7549  0.4905
17363SOL    HW253531   4.113   6.754   0.111 -0.8620 -0.2455  0.3554
17364SOL     OW53532   3.860   6.862   0.428  0.2820  0.1597  0.6555
17364SOL    HW153533   3.850   6.817   0.512  0.9304 -1.4340 -0.0769
17364SOL    HW253534   3.772   6.861   0.391  0.2668 -0.4892  0.6839
17365SOL     OW53535   3.630   4.364   0.245  0.1799 -0.2423  0.1969
17365SOL    HW153536   3.690   4.407   0.184  0.1076 -0.9896 -0.4161
17365SOL    HW253537   3.545   4.367   0.201  0.0683 -0.5344  0.3916
17366SOL     OW53538   2.515   3.647  11.052  0.4905  0.3039  0.5400
17366SOL    HW153539   2.422   3.671  11.047  0.4010 -0.1836 -0.4121
17366SOL    HW253540   2.557   3.723  11.091 -0.2529  0.6880  0.6243
17367SOL     OW53541   4.787   4.073  10.540  0.1946 -0.1047  0.2386
17367SOL    HW153542   4.712   4.051  10.595 -0.7893  0.4721 -0.8260
17367SOL    HW253543   4.760   4.152  10.493  0.5678 -1.1395 -1.8323
17368SOL     OW53544   5.215   7.015  10.284 -0.0843  0.0674 -0.0694
17368SOL    HW153545   5.134   6.972  10.311  0.1745 -0.0743  0.4978
17368SOL    HW253546   5.195   7.053  10.199 -0.6286 -0.3039 -0.1109
17369SOL     OW53547   5.755   5.319  11.640  0.1893  0.2516  0.4183
17369SOL    HW153548   5.778   5.409  11.662  3.4748 -0.3219 -0.2371
17369SOL    HW253549   5.782   5.268  11.716  0.9833 -0.4608 -0.3230
17370SOL     OW53550   4.278   5.678  12.360 -0.0115  0.4341 -0.3529
17370SOL    HW153551   4.310   5.737  12.292  2.3339  0.4856  0.7142
17370SOL    HW253552   4.330   5.699  12.437 -0.2553 -1.8790  0.5353
17371SOL     OW53553   5.195   5.285   9.611  0.2030  0.0416 -0.0944
17371SOL    HW153554   5.118   5.232   9.631 -0.5094  1.4829  1.2194
17371SOL    HW253555   5.254   5.225   9.566 -0.3572 -1.9948  1.6915
17372SOL     OW53556   3.232   3.609  10.830 -0.1021  0.1418 -0.0389
17372SOL    HW153557   3.285   3.536  10.798 -1.6571 -1.2645  0.4492
17372SOL    HW253558   3.254   3.682  10.772  2.3382 -0.3737  0.1673
17373SOL     OW53559   3.784   0.400   0.609  0.1879  0.2045  0.3079
17373SOL    HW153560   3.821   0.327   0.560  0.6705  0.3244  0.4866
17373SOL    HW253561   3.714   0.362   0.661 -0.1929  0.0375 -0.3142
17374SOL     OW53562   4.938   4.245  11.913 -0.3322  0.3768 -0.1390
17374SOL    HW153563   4.988   4.164  11.915  2.5365  1.9124 -2.1010
17374SOL    HW253564   4.847   4.218  11.928  0.7905 -2.8231  1.7452
17375SOL     OW53565   5.063   5.095  10.939 -0.3885  0.1532 -0.3131
17375SOL    HW153566   5.128   5.165  10.941  0.2801 -0.4578 -0.0580
17375SOL    HW253567   5.105   5.022  10.986 -1.1158 -0.3726 -0.4641
17376SOL     OW53568   4.481   3.990  12.230 -0.1183  0.1297  0.0615
17376SOL    HW153569   4.532   4.004  12.310  0.4047  0.1711 -0.2734
17376SOL    HW253570   4.405   4.046  12.240 -0.2354 -0.1364  0.6909
17377SOL     OW53571   3.175   0.219   0.804  0.0568  0.1372 -0.1729
17377SOL    HW153572   3.153   0.243   0.714 -1.6537  0.3558  0.2663
17377SOL    HW253573   3.245   0.155   0.795 -1.3953 -1.3215 -1.7795
17378SOL     OW53574   4.373   6.296  10.495 -0.3221  0.0433 -0.2629
17378SOL    HW153575   4.412   6.377  10.463 -0.5045  0.8559  1.4455
17378SOL    HW253576   4.379   6.235  10.421  0.5426  1.3592 -1.3198
17379SOL     OW53577   7.709   6.104  10.923 -0.1139  0.8176  0.3316
17379SOL    HW153578   7.766   6.158  10.978 -0.4725  0.5906  0.9422
17379SOL    HW253579   7.626   6.100  10.971 -0.4703  0.6930 -0.2776
17380SOL     OW53580   4.070   5.491  10.092 -0.0563 -0.4900 -0.3014
17380SOL    HW153581   4.073   5.412  10.038  4.2526 -0.8218  0.0471
17380SOL    HW253582   4.091   5.562  10.031  0.4382 -0.2442  0.1473
17381SOL     OW53583   4.736   4.463  11.156  0.1387 -0.4348 -0.0704
17381SOL    HW153584   4.663   4.441  11.097  1.2752  2.0039 -2.6460
17381SOL    HW253585   4.756   4.555  11.135  2.5677 -0.3682  2.1042
17382SOL     OW53586   3.922   7.714   9.810 -0.0389  0.4624  0.3145
17382SOL    HW153587   3.843   7.672   9.842  0.2184 -1.2743 -1.1811
17382SOL    HW253588   3.910   7.720   9.715  1.7682 -0.1891  0.0066
17383SOL     OW53589   4.894   4.989  12.152 -0.5800  0.0410  0.0176
17383SOL    HW153590   4.905   5.082  12.131 -1.1064  0.2545  0.6570
17383SOL    HW253591   4.983   4.955  12.159 -0.3819  0.5720  0.1212
17384SOL     OW53592   4.469   7.146  12.110 -0.7092 -0.2102  0.3812
17384SOL    HW153593   4.385   7.118  12.073 -0.7490  1.0311 -0.5431
17384SOL    HW253594   4.448   7.225  12.159  0.1601  1.1932 -1.3946
17385SOL     OW53595   5.245   6.950  11.124  0.0496 -0.5232 -0.2553
17385SOL    HW153596   5.195   7.028  11.098 -0.1229 -0.8862 -1.0108
17385SOL    HW253597   5.313   6.984  11.182 -0.6360  0.0674  0.2225
17386SOL     OW53598   3.239   3.395   0.087  0.5257  0.0790  0.6144
17386SOL    HW153599   3.324   3.351   0.078 -0.3899 -1.3444 -2.3773
17386SOL    HW253600   3.258   3.488   0.073  1.6047 -0.2357 -0.1143
17387SOL     OW53601   4.391   3.648  11.425 -0.1963  0.1344 -0.0177
17387SOL    HW153602   4.313   3.630  11.373 -1.5318  1.3429  1.4557
17387SOL    HW253603   4.357   3.682  11.508  1.8555 -0.8550  1.3201
17388SOL     OW53604   2.951   4.895  11.820 -0.0429  0.7893 -0.0592
17388SOL    HW153605   2.957   4.811  11.865 -0.5157 -0.0756 -1.5302
17388SOL    HW253606   2.968   4.960  11.887 -3.5017 -0.2396  2.0777
17389SOL     OW53607   5.642   0.788  10.978  0.0741  0.1554  0.7840
17389SOL    HW153608   5.648   0.851  11.049  1.1523  0.0787  0.7747
17389SOL    HW253609   5.562   0.738  10.997  0.4334  0.0167  2.0494
17390SOL     OW53610   4.986   4.349   1.574  0.1328  0.3042 -0.2210
17390SOL    HW153611   5.055   4.341   1.508  2.0342  2.5640  1.3281
17390SOL    HW253612   4.946   4.433   1.556  0.2140  0.6330  1.0527
17391SOL     OW53613   5.868   7.805  11.656 -0.2013 -0.1454  0.1697
17391SOL    HW153614   5.838   7.795  11.565 -0.1720 -0.8265  0.2339
17391SOL    HW253615   5.790   7.835  11.703 -0.3051 -0.1194 -0.0147
17392SOL     OW53616   2.889   0.286  11.041 -0.3294  0.2493  0.7206
17392SOL    HW153617   2.894   0.192  11.059 -1.1672  0.2355  0.8958
17392SOL    HW253618   2.970   0.305  10.993  0.4202 -0.3275  1.7087
17393SOL     OW53619   5.772   5.646   1.956  0.0139  0.0387  0.1971
17393SOL    HW153620   5.855   5.604   1.977 -0.2792 -0.1418  1.0047
17393SOL    HW253621   5.715   5.625   2.030 -0.4255  1.0631  0.1568
17394SOL     OW53622   4.049   6.693   9.913  0.4989  0.3459  0.5323
17394SOL    HW153623   4.087   6.736   9.990 -0.3216  0.3445  0.9479
17394SOL    HW253624   4.031   6.604   9.941  1.1016  0.0566  0.0291
17395SOL     OW53625   3.469   4.755  11.651  0.0411  0.6815 -0.0605
17395SOL    HW153626   3.477   4.683  11.590 -0.1156  0.0884  0.6073
17395SOL    HW253627   3.379   4.786  11.639 -0.7701 -0.9208  1.4601
17396SOL     OW53628   4.057   6.118   1.165 -0.1465  0.1376  0.1145
17396SOL    HW153629   4.067   6.024   1.157  1.1177  0.3063 -0.4854
17396SOL    HW253630   4.116   6.143   1.236  1.4037  0.7625 -1.3468
17397SOL     OW53631   5.139   5.362   0.378 -0.3696  0.2412 -0.1175
17397SOL    HW153632   5.048   5.387   0.365 -0.6822 -0.3200  0.8948
17397SOL    HW253633   5.146   5.344   0.472  0.6612 -0.1847 -0.2622
17398SOL     OW53634   3.864   7.037  11.786 -0.4846 -0.0184 -0.3109
17398SOL    HW153635   3.896   6.951  11.813 -1.2605 -0.0180  0.6801
17398SOL    HW253636   3.781   7.018  11.741 -1.6076  0.3189  1.5423
17399SOL     OW53637   5.223   7.771  12.231  0.1139  0.1891  0.0634
17399SOL    HW153638   5.191   7.861  12.245 -1.0349 -0.0710 -0.7050
17399SOL    HW253639   5.215   7.757  12.137  0.6147 -0.6083  0.1276
17400SOL     OW53640   3.154   4.797  11.528 -0.4360 -0.0064 -0.2323
17400SOL    HW153641   3.060   4.789  11.544 -0.2914 -0.3311  0.4916
17400SOL    HW253642   3.185   4.857  11.596 -0.2483  0.7320 -0.9629
17401SOL     OW53643   5.283   6.180  10.921  0.6424  0.5482 -0.9275
17401SOL    HW153644   5.267   6.138  10.837  0.3777  1.1465 -1.1863
17401SOL    HW253645   5.288   6.274  10.900  0.2756  0.7317 -0.2407
17402SOL     OW53646   4.569   5.814   9.106 -0.2833 -0.1620  0.1254
17402SOL    HW153647   4.506   5.833   9.037  0.1557  0.2036 -0.1808
17402SOL    HW253648   4.654   5.836   9.068  0.0550 -0.8586  0.4600
17403SOL     OW53649   4.764   6.646   1.239  0.3465 -0.4001 -0.4495
17403SOL    HW153650   4.689   6.700   1.265 -0.0398 -0.9375 -0.4320
17403SOL    HW253651   4.728   6.558   1.230  1.1489 -0.8354  0.4251
17404SOL     OW53652   6.729   5.976   0.377  0.3418 -0.5192  0.0507
17404SOL    HW153653   6.773   5.898   0.410 -1.2567 -1.8927 -0.8860
17404SOL    HW253654   6.668   6.000   0.447 -1.2746 -1.9439 -0.7970
17405SOL     OW53655   4.026   5.995  11.867  0.0788  0.0221  1.0530
17405SOL    HW153656   4.015   5.978  11.960  1.1206 -1.3698  0.9510
17405SOL    HW253657   3.937   5.994  11.832 -0.2646 -0.1646  1.9063
17406SOL     OW53658   4.172   4.391   0.986  0.3173  0.4760 -1.2608
17406SOL    HW153659   4.258   4.377   0.946  0.4155  0.7361 -1.1476
17406SOL    HW253660   4.174   4.483   1.014  0.2885  0.2670 -0.5727
17407SOL     OW53661   3.765   6.389   9.915  0.4638  0.0210  0.1791
17407SOL    HW153662   3.840   6.344   9.955  0.8153  0.7615  0.3561
17407SOL    HW253663   3.799   6.427   9.834  0.0918 -0.2582 -0.1210
17408SOL     OW53664   5.460   5.239  10.977  0.5727  0.0576 -0.2514
17408SOL    HW153665   5.392   5.262  10.914 -0.4621 -0.6487  0.5715
17408SOL    HW253666   5.466   5.144  10.973 -0.7966 -0.2001  1.9266
17409SOL     OW53667   4.208   5.080  10.550 -0.0559  0.3738 -0.0582
17409SOL    HW153668   4.254   5.006  10.511  2.1590  0.4859  2.0751
17409SOL    HW253669   4.115   5.064  10.532  0.5998 -1.1100 -2.5233
17410SOL     OW53670   3.209   5.116   0.444  0.3205 -0.1000 -0.6018
17410SOL    HW153671   3.137   5.115   0.382  0.9621 -2.0847 -1.4114
17410SOL    HW253672   3.284   5.081   0.395  1.4804  0.5528  0.6097
17411SOL     OW53673   3.071   7.027   1.173 -0.0191  0.1902  0.4682
17411SOL    HW153674   3.008   7.050   1.241  0.2243  0.1060  0.7281
17411SOL    HW253675   3.034   6.951   1.129 -0.7422  0.9587 -0.2714
17412SOL     OW53676   4.191   5.249  11.540  0.2651  0.2895 -0.7651
17412SOL    HW153677   4.215   5.290  11.623  1.7870  0.1489 -1.1216
17412SOL    HW253678   4.225   5.308  11.473  0.5982 -0.4795 -1.2864
17413SOL     OW53679   6.540   2.521  11.315  0.1479 -0.1889 -0.1655
17413SOL    HW153680   6.556   2.550  11.404 -3.2457  1.3955  0.0567
17413SOL    HW253681   6.585   2.586  11.260 -0.9263  1.0745  0.4069
17414SOL     OW53682   6.190   5.409  10.862  0.1011  0.4854 -0.6882
17414SOL    HW153683   6.180   5.377  10.772  1.9183  1.1677 -1.1734
17414SOL    HW253684   6.211   5.331  10.913 -0.8266  0.1098 -0.8590
17415SOL     OW53685   5.402   4.674  10.908 -0.0374 -0.3255 -0.4068
17415SOL    HW153686   5.367   4.586  10.890 -0.9665 -0.0873  0.1873
17415SOL    HW253687   5.475   4.659  10.967 -1.1580 -0.6010  0.9563
17416SOL     OW53688   4.995   5.551  11.443  0.0198 -0.4449  0.2264
17416SOL    HW153689   4.961   5.639  11.424 -2.6476 -1.0604  1.6417
17416SOL    HW253690   4.955   5.495  11.376  1.1429 -0.7228 -0.2352
17417SOL     OW53691   2.538   5.176  11.742 -0.0988  0.4607 -0.4676
17417SOL    HW153692   2.568   5.135  11.824  0.4533  2.2087  0.2681
17417SOL    HW253693   2.619   5.191  11.693 -0.4814 -1.1651 -1.6743
17418SOL     OW53694   5.461   6.976  11.296 -0.6245  0.1785  0.0893
17418SOL    HW153695   5.453   6.944  11.386 -1.1789 -2.5642 -0.8399
17418SOL    HW253696   5.556   6.977  11.279 -0.5922 -1.4162  0.0527
17419SOL     OW53697   4.315   5.917   0.148  0.8275  0.1266  0.3997
17419SOL    HW153698   4.398   5.958   0.127  0.5033  0.8058  0.4314
17419SOL    HW253699   4.250   5.986   0.137  0.1482 -0.6437 -0.5386
17420SOL     OW53700   3.347   4.948   9.304 -0.3872 -0.0055 -0.1315
17420SOL    HW153701   3.403   4.956   9.227  0.1834  0.7236  0.3506
17420SOL    HW253702   3.367   4.862   9.340 -0.1338 -0.0569 -0.3961
17421SOL     OW53703   4.444   4.143  11.561 -0.6703  0.3954  0.2031
17421SOL    HW153704   4.474   4.082  11.494 -0.8216 -0.0480  0.5346
17421SOL    HW253705   4.365   4.102  11.598  0.2318 -0.0903  1.6640
17422SOL     OW53706   4.703   7.173  11.510 -0.7039 -0.5151 -0.5742
17422SOL    HW153707   4.763   7.121  11.562  2.4736  1.7083 -1.7067
17422SOL    HW253708   4.706   7.135  11.422 -0.6393 -0.1572 -0.7303
17423SOL     OW53709   5.058   7.724   9.124 -0.1396  0.1021 -0.2776
17423SOL    HW153710   5.063   7.642   9.175  1.2774  0.7545  0.6924
17423SOL    HW253711   5.025   7.697   9.039  2.9087 -1.9893 -0.9563
17424SOL     OW53712   3.944   7.180   1.031 -0.0086  0.0627  0.1206
17424SOL    HW153713   3.942   7.272   1.005 -1.6852  0.1559  0.4907
17424SOL    HW253714   3.866   7.142   0.990  0.8066 -1.2810 -0.2629
17425SOL     OW53715   4.985   5.042  11.570 -0.1118 -0.2999 -0.0458
17425SOL    HW153716   4.996   5.033  11.665 -1.8427 -0.7245  0.1443
17425SOL    HW253717   4.897   5.010  11.553  0.6111 -1.4087 -1.9893
17426SOL     OW53718   4.878   6.745   0.239 -0.5486  0.6967 -0.1200
17426SOL    HW153719   4.827   6.714   0.314  0.6657  0.8029  0.7891
17426SOL    HW253720   4.859   6.682   0.169  0.8823 -1.4314  1.2931
17427SOL     OW53721   3.936   5.155  11.529 -0.3030 -0.1314  0.0867
17427SOL    HW153722   4.029   5.179  11.524 -0.0289 -0.3647  2.7203
17427SOL    HW253723   3.890   5.239  11.522 -0.0540 -0.1129 -2.4604
17428SOL     OW53724   5.536   6.410   1.678  0.5267 -0.2352  0.2151
17428SOL    HW153725   5.455   6.402   1.728 -0.0491  1.8869 -0.2899
17428SOL    HW253726   5.600   6.357   1.726 -0.9490 -1.3302  1.0342
17429SOL     OW53727   4.018   4.973  11.725 -0.3439 -0.1907  0.1107
17429SOL    HW153728   3.945   4.911  11.737 -0.3995 -0.3017 -0.7346
17429SOL    HW253729   3.980   5.044  11.673  0.0149  0.0120  0.1278
17430SOL     OW53730   4.207   6.975   0.986 -0.3609  0.0103  0.9509
17430SOL    HW153731   4.297   7.003   0.970 -0.8399  1.6637  0.9811
17430SOL    HW253732   4.156   7.021   0.920 -1.2102 -0.8391  1.0013
17431SOL     OW53733   4.344   7.029  11.695  0.2432 -0.2886  0.0362
17431SOL    HW153734   4.374   7.116  11.669  0.1199 -0.0751  0.5955
17431SOL    HW253735   4.276   7.046  11.760 -2.2324 -0.6842 -2.2392
17432SOL     OW53736   5.288   7.405   0.588 -0.3124  0.1538  0.2830
17432SOL    HW153737   5.371   7.369   0.556 -0.2388 -0.2626  0.9239
17432SOL    HW253738   5.310   7.493   0.618  0.1924 -0.4198  1.6736
17433SOL     OW53739   4.528   5.317  11.848  0.3197  0.5826  0.0505
17433SOL    HW153740   4.557   5.249  11.786 -0.2303 -0.0533  0.4788
17433SOL    HW253741   4.518   5.395  11.794 -0.4019 -0.0286 -0.7348
17434SOL     OW53742   3.889   6.490   0.257 -0.3003  0.1819  0.4595
17434SOL    HW153743   3.913   6.554   0.324  1.7828 -0.2179  0.1760
17434SOL    HW253744   3.828   6.431   0.302  0.5380  0.3027  1.8359
17435SOL     OW53745   5.003   7.917   0.879 -0.2000  0.1769  0.3170
17435SOL    HW153746   4.925   7.930   0.825 -0.5290 -0.6197  0.5744
17435SOL    HW253747   4.976   7.852   0.944  0.8824 -0.6783 -0.0506
17436SOL     OW53748   3.410   6.808   1.326 -0.0881  0.2892 -0.2097
17436SOL    HW153749   3.414   6.733   1.385 -0.1442 -0.5425 -1.2478
17436SOL    HW253750   3.388   6.771   1.241 -1.0543  1.5857 -0.5549
17437SOL     OW53751   5.231   4.325  11.555  0.0106 -0.0494  0.3265
17437SOL    HW153752   5.145   4.341  11.594  0.5137  1.7072  0.8073
17437SOL    HW253753   5.213   4.295  11.466 -1.1078  1.6759 -0.0683
17438SOL     OW53754   5.226   7.699   0.394  0.5182 -0.4238  0.4933
17438SOL    HW153755   5.131   7.688   0.399  0.5753 -1.2641 -0.1126
17438SOL    HW253756   5.242   7.784   0.435 -0.5806  0.1246 -0.1521
17439SOL     OW53757   4.659   6.540  12.368  0.5300 -0.1524 -0.3459
17439SOL    HW153758   4.604   6.468  12.399  1.4605 -0.8979 -0.3935
17439SOL    HW253759   4.625   6.617  12.414  0.1427 -0.7818  0.4469
17440SOL     OW53760   4.557   6.837  11.708 -0.1772 -0.5134 -0.6260
17440SOL    HW153761   4.569   6.864  11.617 -2.0772 -1.4888 -1.2063
17440SOL    HW253762   4.491   6.897  11.743 -0.5103 -1.0478 -0.3248
17441SOL     OW53763   5.819   0.662   1.749  0.0791 -1.0608 -0.2694
17441SOL    HW153764   5.739   0.625   1.711 -0.6027  1.6136 -1.7515
17441SOL    HW253765   5.888   0.637   1.687 -0.4795  0.5301 -1.6145
17442SOL     OW53766   5.308   4.238   0.759  0.1503 -0.5330 -0.1532
17442SOL    HW153767   5.289   4.170   0.694 -0.9125 -0.7316  0.3339
17442SOL    HW253768   5.311   4.319   0.709 -1.7933 -0.5278 -0.3339
17443SOL     OW53769   5.037   5.613  10.116 -0.4237  0.6824  0.3740
17443SOL    HW153770   5.022   5.542  10.179 -1.2437  0.1850 -0.3651
17443SOL    HW253771   5.083   5.571  10.043 -3.2573  0.2443 -1.2907
17444SOL     OW53772   5.050   5.715   0.796  0.0910 -0.0690  0.5881
17444SOL    HW153773   5.088   5.743   0.879  0.2099  1.5844  0.0090
17444SOL    HW253774   5.091   5.771   0.730  0.6084 -1.8844 -0.7162
17445SOL     OW53775   4.685   6.931   0.165  0.4548 -0.4524  0.1412
17445SOL    HW153776   4.762   6.891   0.206  0.4625 -0.0964  0.4800
17445SOL    HW253777   4.627   6.858   0.145  0.1359 -0.5827  1.4310
17446SOL     OW53778   4.661   6.389  11.734 -0.0024 -0.3620 -0.1681
17446SOL    HW153779   4.676   6.305  11.776  0.7448 -1.2552 -2.1111
17446SOL    HW253780   4.577   6.379  11.689 -1.3515  0.9624  1.9011
17447SOL     OW53781   6.465   6.517  11.910 -0.4622 -0.0180  0.1219
17447SOL    HW153782   6.524   6.588  11.885 -0.4852 -0.2376 -0.5613
17447SOL    HW253783   6.502   6.439  11.869  0.1879 -0.6235  1.7505
17448SOL     OW53784   5.016   0.521  12.478  0.1595 -0.6540  0.1168
17448SOL    HW153785   4.989   0.578  12.551 -0.7440 -2.1040  0.9553
17448SOL    HW253786   4.966   0.554  12.404  1.2939  1.0184  0.0453
17449SOL     OW53787   2.850   5.307   0.653 -0.0013 -0.5842 -0.0916
17449SOL    HW153788   2.760   5.299   0.622  0.2920 -0.2172 -1.0814
17449SOL    HW253789   2.847   5.276   0.743 -1.4216  0.8667  0.4102
17450SOL     OW53790   3.138   6.604  11.769  0.9222  0.5481  0.2399
17450SOL    HW153791   3.053   6.560  11.769  0.2989  1.7025 -0.0554
17450SOL    HW253792   3.174   6.586  11.856  1.7777 -2.4793 -0.6331
17451SOL     OW53793   6.067   6.248   1.087 -0.3673  0.3814 -0.4627
17451SOL    HW153794   6.044   6.233   1.179  1.6703  2.2857  0.4540
17451SOL    HW253795   6.138   6.187   1.069 -0.5585  0.2258 -0.7126
17452SOL     OW53796   3.842   6.853  10.950  0.5099  0.0676  0.0579
17452SOL    HW153797   3.925   6.805  10.953 -0.7287 -2.1628  2.2635
17452SOL    HW253798   3.775   6.785  10.948 -1.3224  1.7764  0.6686
17453SOL     OW53799   5.746   5.949  10.799  0.5367  0.1394 -0.6588
17453SOL    HW153800   5.703   5.966  10.883 -1.7088  2.2030 -2.0953
17453SOL    HW253801   5.787   5.863  10.811  1.2935  0.8036  2.8635
17454SOL     OW53802   4.073   4.671   9.544 -0.0488 -0.1682  0.0523
17454SOL    HW153803   4.032   4.637   9.465  0.0729  0.0595 -0.1122
17454SOL    HW253804   4.095   4.762   9.522 -0.3189 -0.0013  0.4634
17455SOL     OW53805   4.908   7.494  11.810 -0.6254 -0.2068  0.0005
17455SOL    HW153806   4.823   7.538  11.801 -0.8228 -0.0133  2.2348
17455SOL    HW253807   4.907   7.427  11.742 -2.8306 -0.5966  0.3287
17456SOL     OW53808   4.779   7.915  11.797  0.5881  0.2693  0.1401
17456SOL    HW153809   4.736   7.890  11.715  0.1311  1.0314  0.1465
17456SOL    HW253810   4.867   7.877  11.789 -0.2147 -1.7588  0.3622
17457SOL     OW53811   5.059   6.001  12.300  0.1919 -0.5252 -0.0537
17457SOL    HW153812   5.056   5.951  12.382 -2.6318 -1.1275 -0.4207
17457SOL    HW253813   4.979   5.975  12.254  0.8192  1.1504 -2.2135
17458SOL     OW53814   5.504   7.546  11.759  0.2547  0.0460  0.0858
17458SOL    HW153815   5.553   7.580  11.834  1.3383  2.0567 -1.4286
17458SOL    HW253816   5.572   7.510  11.701 -0.4698 -0.6167 -0.3661
17459SOL     OW53817   3.394   7.000  10.032 -0.2123  0.3791 -0.2279
17459SOL    HW153818   3.341   6.939   9.982  0.1617 -1.4478  1.4591
17459SOL    HW253819   3.406   6.957  10.117  1.1793  2.2322  0.5862
17460SOL     OW53820   5.003   7.362   0.901 -0.3169  0.4601 -0.0028
17460SOL    HW153821   4.916   7.327   0.885 -0.3263  0.4219  0.1273
17460SOL    HW253822   4.992   7.419   0.978 -0.2550  0.5622 -0.0689
17461SOL     OW53823   3.225   6.596  12.040 -0.3017 -0.5358 -0.0350
17461SOL    HW153824   3.277   6.637  12.109  1.4454  0.5576 -1.8946
17461SOL    HW253825   3.151   6.655  12.028  0.4818  0.3860 -0.4728
17462SOL     OW53826   3.808   0.424  12.059 -0.8936  0.2832  0.3521
17462SOL    HW153827   3.810   0.502  12.003 -0.7906  0.0795  0.0663
17462SOL    HW253828   3.777   0.354  12.001  1.8915 -0.5517 -0.2536
17463SOL     OW53829   3.273   5.788  12.369  0.1144 -0.0238 -0.6610
17463SOL    HW153830   3.326   5.708  12.365 -1.1032 -0.9503  0.5835
17463SOL    HW253831   3.303   5.832  12.449 -0.0116  0.1865 -0.7289
17464SOL     OW53832   5.995   5.778  10.867  0.4315 -0.5068 -0.4834
17464SOL    HW153833   5.927   5.722  10.830 -0.7188  0.1761  0.5346
17464SOL    HW253834   6.052   5.718  10.914 -0.7780 -0.8666  0.5860
17465SOL     OW53835   6.514   0.229   0.844  0.8043  0.0260 -0.0613
17465SOL    HW153836   6.527   0.298   0.909  0.4031  0.8577 -0.8299
17465SOL    HW253837   6.525   0.274   0.760  1.8861 -1.1477 -0.5719
17466SOL     OW53838   3.706   6.607   0.099 -0.2523  0.0333 -0.0601
17466SOL    HW153839   3.728   6.552   0.024  2.1872 -0.9695  1.2808
17466SOL    HW253840   3.745   6.562   0.174 -0.3158  2.3600  1.4589
17467SOL     OW53841   4.363   5.200   1.000 -0.1429  0.2541  0.3203
17467SOL    HW153842   4.419   5.161   0.934 -0.9147  1.3473 -1.0147
17467SOL    HW253843   4.422   5.250   1.057  0.4532 -0.2431  0.1407
17468SOL     OW53844   3.646   4.754  11.271 -0.2007 -0.2976  0.5507
17468SOL    HW153845   3.644   4.803  11.354  0.8345 -1.2868  1.1807
17468SOL    HW253846   3.668   4.820  11.205  3.1390 -0.1392  1.6345
17469SOL     OW53847   5.612   7.632  12.004 -0.2806  0.1904  0.1639
17469SOL    HW153848   5.704   7.653  12.018 -0.7384  1.7783  0.9939
17469SOL    HW253849   5.585   7.585  12.083 -0.4855  0.7759  0.4404
17470SOL     OW53850   3.425   0.210   0.979 -0.4476  0.0776 -0.3536
17470SOL    HW153851   3.346   0.213   1.033 -1.6559  1.6801 -2.0875
17470SOL    HW253852   3.491   0.170   1.035 -2.0345  0.2558  1.7512
17471SOL     OW53853   5.387   2.461   0.704  0.2857 -0.6219 -0.1779
17471SOL    HW153854   5.457   2.444   0.766  0.5452 -0.1353 -0.3282
17471SOL    HW253855   5.408   2.547   0.667 -0.7567 -0.1480  0.2753
17472SOL     OW53856   6.032   3.469  10.514 -0.3162  0.3338 -0.0813
17472SOL    HW153857   5.972   3.422  10.573 -0.8739  0.4761 -0.5226
17472SOL    HW253858   5.980   3.543  10.482 -0.0619  0.1921 -0.8356
17473SOL     OW53859   5.206   5.324   0.661  0.5142 -0.0426 -0.2837
17473SOL    HW153860   5.153   5.308   0.738  1.3076 -0.4074  0.2028
17473SOL    HW253861   5.266   5.394   0.687  2.1114 -1.5040  0.1170
17474SOL     OW53862   4.986   4.248  11.165  0.1116  0.0633 -0.0218
17474SOL    HW153863   4.942   4.330  11.190 -0.3672 -0.0514 -0.4537
17474SOL    HW253864   5.073   4.255  11.203  0.3803  1.1710 -0.7579
17475SOL     OW53865   2.731   5.942  10.046  0.5086  0.4172  0.1116
17475SOL    HW153866   2.751   5.860  10.090 -0.0676  0.0359 -0.3355
17475SOL    HW253867   2.660   5.980  10.097 -0.9166 -0.5479 -1.0886
17476SOL     OW53868   4.260   4.166  12.328  0.1975 -0.0446  0.0605
17476SOL    HW153869   4.257   4.225  12.252 -2.4008 -0.8259 -0.5389
17476SOL    HW253870   4.169   4.146  12.346  0.9169 -2.4045  1.4483
17477SOL     OW53871   2.645   5.109  12.200 -0.3259 -0.0818 -0.0773
17477SOL    HW153872   2.619   5.173  12.266  2.7088  0.2544  0.9472
17477SOL    HW253873   2.694   5.043  12.248 -0.1581 -1.1700 -1.6781
17478SOL     OW53874   3.881   7.638  11.827  0.2184 -0.5516  0.4874
17478SOL    HW153875   3.931   7.716  11.851  0.8159 -0.3195 -1.3533
17478SOL    HW253876   3.934   7.594  11.761 -1.3335 -1.0929 -0.4602
17479SOL     OW53877   2.911   7.790   1.837 -0.0247 -0.0374  0.1725
17479SOL    HW153878   2.938   7.702   1.811 -0.7591 -0.2866  0.2348
17479SOL    HW253879   2.927   7.793   1.931  0.4937  0.0798  0.0822
17480SOL     OW53880   3.101   7.798   0.829  0.3492  0.0944  0.6753
17480SOL    HW153881   3.053   7.860   0.883  0.2738  0.4039  0.2607
17480SOL    HW253882   3.092   7.832   0.740  0.4779 -0.4026  0.4694
17481SOL     OW53883   5.824   5.102   0.376  0.7240  0.9248  0.3254
17481SOL    HW153884   5.875   5.065   0.305 -0.5504  0.7856 -0.5625
17481SOL    HW253885   5.834   5.197   0.366  2.1343  0.8938  1.1959
17482SOL     OW53886   3.628   0.829   2.160  0.8785 -0.0705  0.4577
17482SOL    HW153887   3.620   0.882   2.082 -0.8939 -1.3645 -0.3159
17482SOL    HW253888   3.722   0.821   2.175  1.3677 -1.2105 -2.5887
17483SOL     OW53889   5.247   0.000   0.107  0.0653  0.5983  0.3132
17483SOL    HW153890   5.260   0.061   0.179  2.1959 -0.0599  0.5572
17483SOL    HW253891   5.306   0.031   0.038 -0.0944 -0.2070 -0.2051
17484SOL     OW53892   5.274   6.821   2.268 -0.0043  0.6878  0.1859
17484SOL    HW153893   5.264   6.732   2.234 -0.3609  0.4884  0.7865
17484SOL    HW253894   5.322   6.809   2.350  0.2722  1.0886  0.0818
17485SOL     OW53895   4.340   6.376   1.160 -0.1092 -0.3724 -0.3422
17485SOL    HW153896   4.271   6.436   1.132  1.1251  1.2383 -0.1128
17485SOL    HW253897   4.363   6.327   1.081 -0.0723  0.5830 -0.9398
17486SOL     OW53898   4.004   0.784  12.199 -0.6444 -0.5132 -0.2207
17486SOL    HW153899   4.038   0.794  12.288  0.1821 -1.2027 -0.4502
17486SOL    HW253900   3.957   0.701  12.200  0.8789 -1.4090 -0.8818
17487SOL     OW53901   2.103   7.011  12.207  0.4395 -0.2071  0.5860
17487SOL    HW153902   2.079   6.970  12.290  0.8379  0.3011  0.9558
17487SOL    HW253903   2.185   6.967  12.182 -1.0064 -2.2632 -0.9015
17488SOL     OW53904   4.669   7.729   0.781 -0.1886  0.6209  0.5831
17488SOL    HW153905   4.685   7.720   0.687  0.2631 -0.1009  0.7222
17488SOL    HW253906   4.619   7.651   0.804 -2.7402  2.1143  0.4395
17489SOL     OW53907   4.794   0.565   2.197 -0.9310  0.1441  0.5554
17489SOL    HW153908   4.699   0.576   2.204 -0.8558  0.1913  1.6959
17489SOL    HW253909   4.829   0.617   2.270 -0.0947 -0.8539  0.8820
17490SOL     OW53910   2.788   7.557   2.065  0.0779  0.2551 -0.1476
17490SOL    HW153911   2.797   7.479   2.119 -0.7347  0.1307 -0.1824
17490SOL    HW253912   2.837   7.538   1.986 -1.3886 -0.8599 -0.8337
17491SOL     OW53913   5.049   1.070   1.697  0.3933  0.6536  0.5739
17491SOL    HW153914   5.008   1.095   1.780  1.0066 -1.5485  1.6525
17491SOL    HW253915   5.041   0.974   1.695  0.5044  0.6371 -1.8904
17492SOL     OW53916   4.645   7.830  12.016 -0.1140 -0.2226 -0.0928
17492SOL    HW153917   4.714   7.784  12.063 -0.6744 -1.2106 -0.1876
17492SOL    HW253918   4.688   7.866  11.939  0.5018  0.0841  0.3943
17493SOL     OW53919   5.185   0.743   0.940  0.0251 -0.0395  0.1338
17493SOL    HW153920   5.102   0.725   0.894  0.0229  1.8440 -0.7058
17493SOL    HW253921   5.238   0.665   0.924 -0.2388  0.2320 -2.5754
17494SOL     OW53922   4.197   0.748   0.144 -0.3065 -0.1883 -0.3919
17494SOL    HW153923   4.194   0.671   0.201  1.6825 -1.7347 -2.1691
17494SOL    HW253924   4.253   0.810   0.191  1.1168 -1.3425 -0.4943
17495SOL     OW53925   3.356   6.694   1.073 -0.1634 -0.5492 -0.4256
17495SOL    HW153926   3.359   6.698   0.978  2.7218  0.2208 -0.3929
17495SOL    HW253927   3.384   6.605   1.095  0.1127 -0.4317 -0.2942
17496SOL     OW53928   2.887   4.560   0.082 -0.0428 -0.4540 -0.4172
17496SOL    HW153929   2.879   4.536   0.174  0.9789  0.5970 -0.0353
17496SOL    HW253930   2.815   4.621   0.066  0.0624 -0.2723 -0.1914
17497SOL     OW53931   5.956   7.753   1.960  0.0962 -0.2535 -0.6784
17497SOL    HW153932   5.886   7.757   2.025  1.5580 -1.8106  1.1191
17497SOL    HW253933   5.997   7.839   1.963  0.7121 -0.5780  1.2033
17498SOL     OW53934   5.362   7.150   0.750  0.3455  0.6052  0.4258
17498SOL    HW153935   5.337   7.205   0.824 -1.0776 -0.0343  0.4568
17498SOL    HW253936   5.341   7.203   0.672  1.6042  1.1778  0.4636
17499SOL     OW53937   4.052   5.807   0.715  0.6030  0.5178  0.2936
17499SOL    HW153938   3.966   5.779   0.747  0.5882  0.3654  0.1209
17499SOL    HW253939   4.111   5.791   0.789  0.9393 -1.6841 -0.3813
17500SOL     OW53940   3.629   6.356   0.343  0.2738 -0.3552  0.1975
17500SOL    HW153941   3.600   6.283   0.397 -2.7317  0.0956 -0.6301
17500SOL    HW253942   3.613   6.327   0.253  0.6560  0.7061 -0.2286
17501SOL     OW53943   2.796   7.059   2.020  1.0232  0.7699  0.2589
17501SOL    HW153944   2.831   7.023   2.102 -0.1371 -0.6331  0.1895
17501SOL    HW253945   2.833   7.004   1.951 -1.2843 -0.8540  0.1974
17502SOL     OW53946   4.627   0.852   1.033  0.4562 -0.3055  0.1668
17502SOL    HW153947   4.603   0.801   1.111 -1.7720  2.5437  1.4940
17502SOL    HW253948   4.718   0.878   1.049  0.8911 -1.9106  0.5084
17503SOL     OW53949   4.781   5.829   0.975  0.1945 -0.5604 -0.3828
17503SOL    HW153950   4.701   5.786   0.944  0.8034 -0.4983 -2.1523
17503SOL    HW253951   4.834   5.757   1.009 -0.3077 -0.6926  0.1429
17504SOL     OW53952   2.034   6.956   0.920 -0.0122  0.3356  0.0774
17504SOL    HW153953   2.040   6.985   1.011 -2.2973  1.2477  0.0059
17504SOL    HW253954   2.046   6.861   0.924 -0.7141  0.2733  1.4495
17505SOL     OW53955   4.722   4.940   2.570 -0.3211 -0.1739  0.1268
17505SOL    HW153956   4.726   5.006   2.501 -1.5074  0.2727  0.4685
17505SOL    HW253957   4.794   4.962   2.629 -0.5867  0.7094  0.1333
17506SOL     OW53958   4.890   6.640   1.629 -0.0098 -0.3432  0.2876
17506SOL    HW153959   4.804   6.613   1.598  0.4443 -1.1183 -0.3435
17506SOL    HW253960   4.951   6.581   1.584  0.7760 -0.5261  1.5279
17507SOL     OW53961   5.190   1.333   0.356 -0.4067  0.5006  0.2188
17507SOL    HW153962   5.272   1.359   0.397  0.1730 -0.3007 -0.3998
17507SOL    HW253963   5.132   1.408   0.369  0.7464  1.5059 -0.2473
17508SOL     OW53964   4.561   7.365   0.709 -0.7140  0.2044  0.2733
17508SOL    HW153965   4.565   7.362   0.613  1.0767  2.7714  0.1573
17508SOL    HW253966   4.514   7.447   0.728  1.8373  1.5166  1.4522
17509SOL     OW53967   5.001   6.447   1.931 -0.4588  0.5451  0.2248
17509SOL    HW153968   4.927   6.506   1.918 -0.3249  0.2734 -2.2398
17509SOL    HW253969   5.000   6.390   1.854  1.3697 -0.5028  0.9183
17510SOL     OW53970   4.021   5.510  12.431  0.1958 -0.2163 -0.2310
17510SOL    HW153971   3.984   5.471  12.511  0.9301 -0.6452 -0.0868
17510SOL    HW253972   4.083   5.575  12.463  0.2400 -0.1503 -0.4508
17511SOL     OW53973   3.645   0.305  11.529 -0.2917  0.1760  0.3267
17511SOL    HW153974   3.652   0.349  11.444  1.0180 -1.2663 -0.3490
17511SOL    HW253975   3.555   0.273  11.533 -0.1454 -0.4270 -0.8826
17512SOL     OW53976   5.410   6.093   2.545  0.0883  0.0639 -0.1016
17512SOL    HW153977   5.443   6.004   2.546 -2.4738 -0.9621  0.0652
17512SOL    HW253978   5.371   6.105   2.632 -1.0386  0.7447 -0.6757
17513SOL     OW53979   4.924   5.428   0.015  0.3612  0.0437 -0.4316
17513SOL    HW153980   4.936   5.359  -0.051 -0.0229  0.8810 -1.4008
17513SOL    HW253981   4.861   5.391   0.077 -0.3001 -0.2632 -1.2667
17514SOL     OW53982   2.938   6.596   1.650 -0.1218 -0.0950  0.0329
17514SOL    HW153983   2.905   6.521   1.700 -1.0798 -0.0769 -0.5472
17514SOL    HW253984   2.860   6.646   1.627  0.3793  0.3525 -0.7486
17515SOL     OW53985   5.036   6.340   1.678 -0.2081  0.1163  0.0932
17515SOL    HW153986   4.984   6.287   1.618 -1.4258  0.3053  0.9428
17515SOL    HW253987   5.095   6.390   1.622 -0.0269 -1.0729 -0.8081
17516SOL     OW53988   2.943   7.964   0.945  0.6523 -0.1700  0.2695
17516SOL    HW153989   2.926   8.029   0.878  1.5005  2.0854  2.1016
17516SOL    HW253990   2.856   7.939   0.978  0.3413  0.4382 -0.0929
17517SOL     OW53991   6.494   0.156  12.458  0.4115 -0.0673  0.4609
17517SOL    HW153992   6.487   0.247  12.428 -1.3750 -0.4635 -0.4669
17517SOL    HW253993   6.522   0.108  12.380 -0.2312 -0.5284  0.5078
17518SOL     OW53994   4.757   7.990   0.731 -0.1125 -0.5742 -0.5228
17518SOL    HW153995   4.714   8.075   0.739  0.5073 -0.1128 -1.8458
17518SOL    HW253996   4.685   7.927   0.730 -0.6409  0.0219 -0.6737
17519SOL     OW53997   3.216   7.998   1.102 -0.2998  0.2598 -0.0967
17519SOL    HW153998   3.273   7.921   1.107  0.3653  0.8037  1.0773
17519SOL    HW253999   3.154   7.977   1.032  2.3709  0.3539 -2.7187
17520SOL     OW54000   5.879   7.363   2.108 -0.0066 -0.3620  0.2357
17520SOL    HW154001   5.879   7.276   2.149 -2.0845 -0.7838 -0.5429
17520SOL    HW254002   5.862   7.423   2.181 -2.3603 -0.9956  0.3079
17521SOL     OW54003   5.452   0.892   2.048  0.1382 -0.0373 -0.5135
17521SOL    HW154004   5.399   0.880   2.127 -1.5963 -0.2016 -1.6497
17521SOL    HW254005   5.539   0.915   2.081 -0.5061 -0.2029  1.4356
17522SOL     OW54006   2.553   7.784   2.686 -0.6690  0.0293 -0.3324
17522SOL    HW154007   2.505   7.801   2.768 -1.7026 -0.2195 -0.8637
17522SOL    HW254008   2.599   7.866   2.669 -0.3821  0.0649  0.5345
17523SOL     OW54009   4.032   6.152   2.414 -0.4551  0.2514  0.4432
17523SOL    HW154010   4.101   6.142   2.479  0.3910  1.9991 -0.1293
17523SOL    HW254011   4.033   6.245   2.392 -2.0033  0.0422 -0.6753
17524SOL     OW54012   4.673   7.194  12.390 -0.1139  0.9217 -0.0621
17524SOL    HW154013   4.696   7.285  12.407 -2.5321  1.5301  0.2559
17524SOL    HW254014   4.690   7.149  12.473  0.5199  1.1903 -0.0400
17525SOL     OW54015   4.268   7.655   1.256  0.4656  0.3289  0.5381
17525SOL    HW154016   4.322   7.614   1.323  0.0691 -1.2716 -0.0885
17525SOL    HW254017   4.261   7.747   1.284 -0.1968 -0.4044  3.0176
17526SOL     OW54018   4.441   7.557   0.827 -0.2195 -0.2282  0.5023
17526SOL    HW154019   4.357   7.597   0.802 -0.4224 -1.1320 -0.3234
17526SOL    HW254020   4.428   7.531   0.918 -1.6149 -2.2328 -0.2082
17527SOL     OW54021   4.462   6.667   0.485  0.4446 -0.6722  0.4813
17527SOL    HW154022   4.451   6.721   0.407  1.1656 -0.4956  0.4978
17527SOL    HW254023   4.417   6.717   0.554 -0.6958 -1.1098  0.0707
17528SOL     OW54024   6.381   0.363   1.443 -0.1234  0.2270  0.1192
17528SOL    HW154025   6.338   0.345   1.359  0.6279  0.3776 -0.3024
17528SOL    HW254026   6.315   0.340   1.508 -1.0126  0.8791 -0.5215
17529SOL     OW54027   7.063   7.164  12.039 -0.5459  0.1482  0.5044
17529SOL    HW154028   6.996   7.187  12.103 -1.1170  0.5335 -0.2249
17529SOL    HW254029   7.026   7.187  11.955 -0.1342 -1.1119 -0.0592
17530SOL     OW54030   5.326   7.552   0.014  0.2742  0.4411  0.0253
17530SOL    HW154031   5.288   7.494  -0.052  1.0076 -0.4765  0.3908
17530SOL    HW254032   5.364   7.493   0.079 -0.3440  1.3173  1.2387
17531SOL     OW54033   3.892   0.708   0.413 -0.0483 -0.3687  0.1955
17531SOL    HW154034   3.852   0.699   0.499 -0.8069 -0.5654 -0.1726
17531SOL    HW254035   3.899   0.803   0.399 -0.9717 -0.3227 -0.0019
17532SOL     OW54036   5.715   0.422   1.977 -0.1116 -0.1696  0.2945
17532SOL    HW154037   5.680   0.336   2.003 -0.3207 -0.5741 -1.2390
17532SOL    HW254038   5.651   0.456   1.915  0.6783  0.4631 -0.1915
17533SOL     OW54039   2.871   6.365   2.912  0.8038 -0.0310 -0.0748
17533SOL    HW154040   2.784   6.328   2.926  0.2293  1.3170  0.1323
17533SOL    HW254041   2.921   6.339   2.988  0.2652  0.0275  0.3089
17534SOL     OW54042   3.901   6.689   0.960  0.0269  0.2529 -0.4099
17534SOL    HW154043   3.887   6.746   1.036  0.1056  0.6507 -0.6877
17534SOL    HW254044   3.834   6.621   0.969 -0.8393  1.0355 -0.6793
17535SOL     OW54045   3.857   5.962   1.893  0.2301  0.0207 -0.3872
17535SOL    HW154046   3.844   6.024   1.964  0.7429  0.7902 -0.9400
17535SOL    HW254047   3.788   5.896   1.904 -0.6866  1.0026 -0.1177
17536SOL     OW54048   5.029   7.145   0.034  0.0729 -0.5320 -0.2273
17536SOL    HW154049   5.030   7.049   0.028  0.2958 -0.4840 -1.0594
17536SOL    HW254050   5.007   7.175  -0.054 -0.9380  0.1778  0.2470
17537SOL     OW54051   4.965   7.759   1.087 -0.0630 -0.6958 -0.1930
17537SOL    HW154052   4.993   7.668   1.087 -0.0989 -0.7099  0.4423
17537SOL    HW254053   4.873   7.757   1.115 -0.4329 -0.5627 -1.3333
17538SOL     OW54054   4.865   7.959   2.838  0.0919 -0.0554 -0.2507
17538SOL    HW154055   4.801   8.030   2.843 -1.7394 -1.7071  1.0340
17538SOL    HW254056   4.837   7.906   2.763 -0.1032 -0.8418  0.3734
17539SOL     OW54057   5.831   7.696   1.713 -0.2039  0.1743  0.0873
17539SOL    HW154058   5.857   7.695   1.805 -1.0780  1.2645  0.3647
17539SOL    HW254059   5.794   7.783   1.699 -0.2828 -0.0449 -1.2477
17540SOL     OW54060   3.583   0.517   0.247 -0.0089 -0.3648 -0.0318
17540SOL    HW154061   3.509   0.497   0.191 -0.0546 -0.8289  0.1881
17540SOL    HW254062   3.547   0.518   0.336  0.2409 -0.5596  0.0737
17541SOL     OW54063   5.916   7.172   0.776 -0.1144  0.3291 -0.7435
17541SOL    HW154064   5.976   7.123   0.833  0.7128  0.4422 -1.4867
17541SOL    HW254065   5.829   7.143   0.802  0.3516 -2.1651 -1.6579
17542SOL     OW54066   4.903   4.755   1.291 -0.6855 -0.0634  0.0461
17542SOL    HW154067   4.970   4.821   1.308 -1.0227  0.2040  0.3275
17542SOL    HW254068   4.856   4.788   1.214  0.3561 -0.9057 -1.0049
17543SOL     OW54069   5.477   0.512  11.908 -0.1317 -0.1298 -0.3442
17543SOL    HW154070   5.425   0.560  11.844 -2.4449 -0.5286  1.1247
17543SOL    HW254071   5.419   0.443  11.940  1.4314 -0.8338  1.1402
17544SOL     OW54072   4.969   5.838   1.989  0.4979  0.1925  0.3708
17544SOL    HW154073   5.051   5.882   2.012  0.6829  0.2618 -0.3611
17544SOL    HW254074   4.914   5.846   2.066  0.8281  0.9954  0.5345
17545SOL     OW54075   4.652   0.682   1.961 -0.2212  0.2022 -0.4556
17545SOL    HW154076   4.602   0.664   2.041 -0.4554 -0.3327 -0.7188
17545SOL    HW254077   4.603   0.639   1.892 -0.3174  1.1322 -0.9797
17546SOL     OW54078   4.447   0.660   4.604  0.7641  0.0594 -0.2342
17546SOL    HW154079   4.505   0.586   4.622 -0.3302 -0.4179  1.5769
17546SOL    HW254080   4.494   0.736   4.637  1.0985 -0.0843 -0.3755
17547SOL     OW54081   3.905   7.352   4.436 -0.3120 -0.0734  0.7767
17547SOL    HW154082   3.846   7.411   4.390  0.4646  1.1956  1.3364
17547SOL    HW254083   3.961   7.316   4.367 -1.3109 -0.8128  0.3254
17548SOL     OW54084   4.348   7.600   2.639  0.0087 -0.2732  0.2804
17548SOL    HW154085   4.298   7.585   2.558  0.8059 -1.2423 -0.0448
17548SOL    HW254086   4.436   7.620   2.609 -0.5481  3.6218  0.7340
17549SOL     OW54087   4.899   0.664   4.262 -0.4604 -0.5517 -0.1358
17549SOL    HW154088   4.896   0.745   4.313 -1.4009  0.5085 -1.8034
17549SOL    HW254089   4.813   0.658   4.221 -1.4539 -3.8345  1.9981
17550SOL     OW54090   4.812   7.074   3.712  0.1374 -0.1642 -0.1641
17550SOL    HW154091   4.827   6.993   3.762  1.2805 -1.5049 -2.4951
17550SOL    HW254092   4.891   7.084   3.659 -2.1967 -0.7528 -4.1591
17551SOL     OW54093   4.351   6.780   3.568 -0.9026 -0.4848 -0.1759
17551SOL    HW154094   4.412   6.848   3.594  0.0781 -1.3083 -0.2331
17551SOL    HW254095   4.287   6.824   3.513 -0.2155  0.3604 -0.3145
17552SOL     OW54096   3.198   7.873   3.639 -0.0080  0.2440 -0.1560
17552SOL    HW154097   3.121   7.818   3.656 -0.7377  1.0241 -0.8373
17552SOL    HW254098   3.229   7.843   3.553  1.0097 -0.6717  0.4961
17553SOL     OW54099   3.172   6.099   3.304  0.0077  0.5561 -0.0528
17553SOL    HW154100   3.249   6.058   3.266 -0.7125 -0.5575 -0.3651
17553SOL    HW254101   3.204   6.144   3.382  0.6556 -1.6562  1.0289
17554SOL     OW54102   4.749   6.863   5.416  0.3379 -0.5128 -0.3233
17554SOL    HW154103   4.825   6.922   5.417  0.4249 -0.5829 -1.5895
17554SOL    HW254104   4.785   6.777   5.438  0.6000 -0.5069 -0.7135
17555SOL     OW54105   5.959   0.509   4.791  0.1331 -0.4347 -0.0033
17555SOL    HW154106   5.893   0.560   4.743 -1.0298 -2.0324 -0.1778
17555SOL    HW254107   6.042   0.540   4.757 -0.3126  3.1663  1.7016
17556SOL     OW54108   6.058   7.496   3.294  0.4208  0.2856  0.0605
17556SOL    HW154109   6.072   7.455   3.209  1.1625  0.1232  0.2525
17556SOL    HW254110   5.963   7.505   3.301  0.1795 -1.6896  0.1344
17557SOL     OW54111   3.938   1.343   3.012  0.1924 -0.6848 -0.6282
17557SOL    HW154112   3.908   1.252   3.007  0.5376 -0.8480  0.1782
17557SOL    HW254113   3.862   1.391   3.044  0.4921 -0.9549  0.5277
17558SOL     OW54114   3.899   7.758   3.306  0.0935 -0.2838 -0.2901
17558SOL    HW154115   3.832   7.693   3.328 -0.9412  0.3650 -1.4309
17558SOL    HW254116   3.970   7.706   3.268 -0.7053 -0.7641 -1.1600
17559SOL     OW54117   3.126   7.375   2.408 -0.5265  0.1709 -0.0798
17559SOL    HW154118   3.149   7.315   2.479 -0.2255 -0.0664 -0.3717
17559SOL    HW254119   3.047   7.336   2.369 -0.1508 -0.2164 -0.4695
17560SOL     OW54120   5.092   5.901   5.049  0.5135  0.1069 -0.1825
17560SOL    HW154121   5.187   5.908   5.054  0.4631 -0.1241  2.0788
17560SOL    HW254122   5.071   5.822   5.099 -0.8984  0.3414 -0.3596
17561SOL     OW54123   4.795   6.779   3.854  0.3150 -0.7257  0.6747
17561SOL    HW154124   4.797   6.837   3.930  0.5560  1.0325 -0.6205
17561SOL    HW254125   4.865   6.716   3.870  0.3148 -0.4279  1.9299
17562SOL     OW54126   1.452   0.204   3.455  0.0417  0.0737  0.2432
17562SOL    HW154127   1.534   0.173   3.417 -0.4155 -0.8007 -0.0669
17562SOL    HW254128   1.471   0.213   3.549  0.3408 -0.6991  0.2661
17563SOL     OW54129   6.866   7.722   3.556 -0.5396  0.4957 -0.4595
17563SOL    HW154130   6.888   7.720   3.650  1.2983  0.3567 -0.8666
17563SOL    HW254131   6.877   7.632   3.527 -0.3965  0.6725 -0.9620
17564SOL     OW54132   5.774   5.703   4.772 -0.3952 -0.2401 -0.1295
17564SOL    HW154133   5.769   5.770   4.704  0.0885 -0.9217 -0.8672
17564SOL    HW254134   5.702   5.643   4.752  0.0703 -0.7272 -0.3652
17565SOL     OW54135   3.633   7.290   2.136 -0.9531 -0.2271 -0.0873
17565SOL    HW154136   3.548   7.253   2.112 -0.9077 -0.1598 -0.3524
17565SOL    HW254137   3.612   7.353   2.206 -1.5422  1.9722 -2.1042
17566SOL     OW54138   4.772   7.596   6.709  0.2342  0.7950  0.6813
17566SOL    HW154139   4.769   7.609   6.803  0.6595 -0.5394  0.9080
17566SOL    HW254140   4.684   7.565   6.686  0.6850 -0.8344  0.9999
17567SOL     OW54141   4.516   7.062   4.564 -0.4506  0.0306  0.0258
17567SOL    HW154142   4.481   7.070   4.476 -1.0560  0.3125  0.2910
17567SOL    HW254143   4.485   6.977   4.595 -0.5217  0.0797  0.0903
17568SOL     OW54144   3.215   6.217   1.530  0.8765 -0.2263  0.2305
17568SOL    HW154145   3.258   6.227   1.615  1.6055 -0.9240 -0.0437
17568SOL    HW254146   3.144   6.155   1.546  1.0745 -0.4336  0.3042
17569SOL     OW54147   3.776   6.729   1.590 -0.0087 -0.1263  0.2173
17569SOL    HW154148   3.725   6.795   1.637 -1.0285 -0.5626 -0.2247
17569SOL    HW254149   3.797   6.663   1.656  0.1915  0.1795  0.4579
17570SOL     OW54150   3.487   0.241   1.894 -0.1593  0.4188  0.1205
17570SOL    HW154151   3.555   0.251   1.960 -0.4000 -0.5088  0.5292
17570SOL    HW254152   3.475   0.329   1.858  1.6040  0.5242 -0.3209
17571SOL     OW54153   4.019   0.479   3.941  0.0156  0.1733 -0.2352
17571SOL    HW154154   3.963   0.488   3.864 -0.2147 -0.5117 -0.1530
17571SOL    HW254155   3.963   0.438   4.007  0.4205  0.0946  0.0657
17572SOL     OW54156   2.598   6.095   3.755  0.0045 -0.0228 -0.0324
17572SOL    HW154157   2.579   6.072   3.846  1.4034  1.8931  0.7935
17572SOL    HW254158   2.616   6.010   3.713 -1.2257 -0.9992  1.2877
17573SOL     OW54159   6.682   0.568   1.754  0.2876 -0.1081  0.2725
17573SOL    HW154160   6.589   0.585   1.765  0.3275 -0.2847  0.9043
17573SOL    HW254161   6.722   0.655   1.755  0.3783 -0.1243  2.4611
17574SOL     OW54162   6.139   7.859   2.741  0.3784  0.0018 -0.1265
17574SOL    HW154163   6.117   7.892   2.654  1.0856 -0.3130 -0.4356
17574SOL    HW254164   6.094   7.774   2.746 -0.0119  0.2149 -0.0170
17575SOL     OW54165   4.736   6.237   2.073 -0.4445  0.1885  0.0737
17575SOL    HW154166   4.830   6.221   2.074 -0.4881 -0.0417  0.6472
17575SOL    HW254167   4.715   6.263   2.163 -1.2884 -1.9229  0.5420
17576SOL     OW54168   4.802   0.465   3.611  0.1244 -0.1405  0.3212
17576SOL    HW154169   4.834   0.398   3.672 -0.1745 -0.5992 -0.0128
17576SOL    HW254170   4.754   0.415   3.544  1.0529  0.2621 -0.6852
17577SOL     OW54171   3.547   7.738   2.498 -0.2418  0.2303 -0.1972
17577SOL    HW154172   3.456   7.720   2.519  0.1479 -0.6183  0.8756
17577SOL    HW254173   3.546   7.823   2.453 -1.2481  1.8130  2.5974
17578SOL     OW54174   4.404   5.658   2.888  0.8980 -0.6407 -0.2254
17578SOL    HW154175   4.436   5.723   2.825  1.5776  0.2662  1.0018
17578SOL    HW254176   4.481   5.637   2.941  0.1397 -0.6590  0.9022
17579SOL     OW54177   5.792   7.505   3.199  0.7302  0.1291 -0.0569
17579SOL    HW154178   5.764   7.554   3.277 -2.6839 -0.2406 -0.9181
17579SOL    HW254179   5.770   7.562   3.126 -1.2814 -1.7253 -0.9816
17580SOL     OW54180   5.956   0.056   3.558 -0.5945 -0.0308  0.7979
17580SOL    HW154181   6.038   0.009   3.574  0.3040  1.4919  0.8825
17580SOL    HW254182   5.981   0.127   3.498 -1.3820  1.7505  2.4724
17581SOL     OW54183   3.865   6.285   2.110  0.0347 -0.6169  0.7738
17581SOL    HW154184   3.856   6.362   2.166 -0.9701  0.7801 -1.2032
17581SOL    HW254185   3.775   6.261   2.087  0.2744 -2.8058  1.8058
17582SOL     OW54186   5.329   6.980   3.207  0.0080 -0.3606 -0.0733
17582SOL    HW154187   5.273   6.927   3.150  1.9469 -1.1232 -1.3720
17582SOL    HW254188   5.360   7.051   3.151  1.6624 -0.9226  0.0715
17583SOL     OW54189   3.657   0.655   3.996  0.3354  0.6865 -0.3401
17583SOL    HW154190   3.690   0.620   4.079  1.0139 -3.2888 -2.0130
17583SOL    HW254191   3.597   0.725   4.021 -0.2885 -0.9646  3.5570
17584SOL     OW54192   2.998   0.855   3.430  0.4131 -1.1438  0.1074
17584SOL    HW154193   2.903   0.845   3.415  0.3512 -0.7370  0.2263
17584SOL    HW254194   3.028   0.766   3.448  0.2090 -1.4139 -0.8386
17585SOL     OW54195   2.883   7.298   2.056 -0.9935 -0.3202 -0.0677
17585SOL    HW154196   2.969   7.294   2.014 -1.1337  0.1335 -0.4074
17585SOL    HW254197   2.833   7.227   2.017 -0.8071 -0.5212  0.0570
17586SOL     OW54198   6.054   0.345   1.571  0.4470  0.2244 -0.3718
17586SOL    HW154199   6.126   0.352   1.635  0.6931  1.1051 -0.7402
17586SOL    HW254200   6.005   0.427   1.581 -1.8086 -1.1893  1.3799
17587SOL     OW54201   2.197   6.796   4.898 -0.1256 -0.0952  0.0198
17587SOL    HW154202   2.288   6.769   4.911  0.0174 -0.3626 -1.3830
17587SOL    HW254203   2.150   6.761   4.974  0.5411 -1.9841 -0.3960
17588SOL     OW54204   5.472   1.284   3.723  0.5839  0.1655  0.4411
17588SOL    HW154205   5.564   1.299   3.745  0.8695 -0.8122 -0.0300
17588SOL    HW254206   5.470   1.285   3.627  0.3625 -1.2227  0.4198
17589SOL     OW54207   4.164   7.141   1.188  0.4364 -0.3370 -0.2357
17589SOL    HW154208   4.198   7.093   1.113 -1.4543 -0.8623 -0.8213
17589SOL    HW254209   4.072   7.155   1.168 -0.0015  0.0022  1.7472
17590SOL     OW54210   3.780   7.459   4.977  0.0708 -0.5678 -0.3553
17590SOL    HW154211   3.836   7.382   4.966  0.3361 -0.1185 -2.5139
17590SOL    HW254212   3.831   7.519   5.031  0.2881 -1.4540  0.4589
17591SOL     OW54213   2.842   0.885   3.675  0.1586  0.4771 -0.4784
17591SOL    HW154214   2.887   0.873   3.591 -1.3600 -2.1482 -1.0429
17591SOL    HW254215   2.888   0.826   3.735 -0.3775  0.3813 -0.1582
17592SOL     OW54216   4.695   6.595   3.387 -0.2510 -0.1852 -0.1760
17592SOL    HW154217   4.635   6.532   3.426  0.4189 -0.0095  1.2391
17592SOL    HW254218   4.703   6.664   3.454 -0.5730  1.1496 -1.4623
17593SOL     OW54219   4.193   0.229   3.187  0.1182 -0.8446  0.1006
17593SOL    HW154220   4.217   0.149   3.141  1.8148  0.3309 -1.1978
17593SOL    HW254221   4.133   0.275   3.128  0.4745 -0.3976  0.0798
17594SOL     OW54222   3.922   7.218   4.959 -0.5544 -0.8185  0.6044
17594SOL    HW154223   3.913   7.127   4.988 -1.3203 -1.2685 -0.9651
17594SOL    HW254224   3.999   7.218   4.903 -0.3322 -0.4060  0.9033
17595SOL     OW54225   6.018   7.016   2.465 -0.2478 -0.2625  0.7661
17595SOL    HW154226   6.094   7.028   2.522  1.2355 -1.3427 -0.9217
17595SOL    HW254227   5.988   6.927   2.483  1.1638 -1.1717 -1.1706
17596SOL     OW54228   6.038   0.172   4.401  0.5094 -0.0495 -0.3474
17596SOL    HW154229   6.049   0.267   4.389  2.3220 -0.3057 -0.9143
17596SOL    HW254230   6.072   0.155   4.488 -0.6020 -0.0841  0.0957
17597SOL     OW54231   3.123   7.031   5.064  0.5826 -0.1671 -0.3263
17597SOL    HW154232   3.191   6.974   5.101  0.0196 -0.6975 -0.0811
17597SOL    HW254233   3.093   6.984   4.986  0.4760  0.0459 -0.4127
17598SOL     OW54234   4.971   7.355   3.623  0.4687 -0.2459 -0.7561
17598SOL    HW154235   4.898   7.313   3.668 -1.6994  3.2718 -0.5636
17598SOL    HW254236   5.023   7.395   3.694  0.2281  0.6566 -1.0791
17599SOL     OW54237   4.713   0.319   4.307  0.7294  0.2808  0.3297
17599SOL    HW154238   4.660   0.372   4.248 -0.1505  1.1381  1.8307
17599SOL    HW254239   4.804   0.337   4.281  0.3877  1.2542 -0.2293
17600SOL     OW54240   5.486   0.512   4.307 -0.3374 -0.3987  0.6792
17600SOL    HW154241   5.548   0.499   4.235 -0.5833 -0.2805  0.4462
17600SOL    HW254242   5.499   0.604   4.332 -1.1634 -0.0614 -0.0724
17601SOL     OW54243   3.560   6.839   1.733 -0.4075  0.2701  0.3110
17601SOL    HW154244   3.609   6.817   1.813  0.4530 -0.9880 -0.5310
17601SOL    HW254245   3.474   6.800   1.747 -0.0040 -0.6506  0.3100
17602SOL     OW54246   5.303   6.591   2.793 -0.2316  0.2566 -0.0832
17602SOL    HW154247   5.266   6.543   2.868  0.1325  0.1612  0.0392
17602SOL    HW254248   5.397   6.592   2.810 -0.2529  1.2136  0.0331
17603SOL     OW54249   3.292   7.517   6.144 -0.1508 -0.1241  0.2117
17603SOL    HW154250   3.314   7.455   6.213 -0.0554  0.7081  0.9476
17603SOL    HW254251   3.251   7.591   6.190 -0.0087  0.4813 -0.6072
17604SOL     OW54252   4.449   0.439   1.531  0.3413  0.3495 -0.6015
17604SOL    HW154253   4.497   0.520   1.548 -1.4531  1.1853  0.8894
17604SOL    HW254254   4.408   0.453   1.445  0.9289  0.5612 -0.8497
17605SOL     OW54255   4.571   7.441   4.819 -0.1000 -0.1942 -0.0011
17605SOL    HW154256   4.476   7.440   4.829 -0.0837 -0.3277  0.1518
17605SOL    HW254257   4.594   7.350   4.797 -0.1453  0.1093 -1.3763
17606SOL     OW54258   4.803   5.403   3.035 -0.3279  0.0392 -0.7094
17606SOL    HW154259   4.801   5.307   3.038 -1.1172  0.0643  0.5946
17606SOL    HW254260   4.873   5.427   3.096 -1.4099  0.2923  0.4861
17607SOL     OW54261   4.718   7.246   2.076  0.2281  0.2351 -0.4636
17607SOL    HW154262   4.633   7.286   2.061  0.4664  0.2140 -2.0430
17607SOL    HW254263   4.699   7.160   2.114 -0.2988  1.6169  2.7162
17608SOL     OW54264   5.172   0.422   2.633 -0.2706 -0.1262  0.3781
17608SOL    HW154265   5.150   0.420   2.726 -0.0641 -1.7770  0.4293
17608SOL    HW254266   5.152   0.511   2.605 -0.1119  0.4708  2.0515
17609SOL     OW54267   5.407   5.900   4.166  0.0305 -0.0827 -0.1796
17609SOL    HW154268   5.412   5.854   4.082 -0.5791  0.2463 -0.4090
17609SOL    HW254269   5.389   5.831   4.230  0.3491 -0.3177 -0.3424
17610SOL     OW54270   6.245   5.406   2.749 -0.5382 -0.1625 -0.2526
17610SOL    HW154271   6.299   5.360   2.813 -3.2502 -3.1597  0.1386
17610SOL    HW254272   6.230   5.493   2.788  1.2805 -0.3973  1.1000
17611SOL     OW54273   5.043   6.878   2.500  0.4234  0.1259  0.3327
17611SOL    HW154274   5.133   6.853   2.480  0.5066  2.2765 -2.5085
17611SOL    HW254275   4.989   6.829   2.437  0.0333  1.9143 -0.7868
17612SOL     OW54276   4.919   0.960   2.285 -0.2788  0.4360  0.2609
17612SOL    HW154277   4.900   1.032   2.345  1.0813  1.4115 -0.4264
17612SOL    HW254278   4.999   0.986   2.240  1.6361 -2.5663  1.6348
17613SOL     OW54279   6.226   0.137   2.611 -0.4358  0.4343 -0.0186
17613SOL    HW154280   6.286   0.063   2.613  0.4316  1.0340 -1.7187
17613SOL    HW254281   6.212   0.154   2.518 -2.3010  1.0868  0.3334
17614SOL     OW54282   3.203   4.633   3.647 -0.1953  0.0007 -0.0486
17614SOL    HW154283   3.186   4.540   3.634 -0.9469 -0.0963  1.4120
17614SOL    HW254284   3.296   4.644   3.630 -0.2148 -0.9079 -0.7757
17615SOL     OW54285   5.435   6.746   4.628  0.0276 -0.0548 -0.0718
17615SOL    HW154286   5.345   6.745   4.660 -0.4199  0.1241 -1.2554
17615SOL    HW254287   5.489   6.751   4.706 -0.9236 -2.1316  0.7833
17616SOL     OW54288   4.851   7.624   3.566  0.0658 -0.5289 -0.4857
17616SOL    HW154289   4.822   7.641   3.477  0.7396 -2.1860 -1.0506
17616SOL    HW254290   4.858   7.529   3.572 -1.0527 -0.5455  1.6962
17617SOL     OW54291   4.636   7.308   6.271  0.6148 -0.1012 -0.0355
17617SOL    HW154292   4.646   7.341   6.360  1.6550 -1.5764  0.4305
17617SOL    HW254293   4.689   7.229   6.269 -1.3992 -1.5131 -1.2129
17618SOL     OW54294   7.981   0.242   5.615  0.0960  0.1946  0.3104
17618SOL    HW154295   7.945   0.181   5.679 -0.0565  2.7342  2.8356
17618SOL    HW254296   8.070   0.261   5.646  0.5213  0.4914 -1.0070
17619SOL     OW54297   6.640   0.123   4.969 -0.0870  0.1197  0.2505
17619SOL    HW154298   6.709   0.065   5.001 -0.7416 -0.4339  0.6969
17619SOL    HW254299   6.640   0.196   5.031  2.3827  1.9028 -1.6756
17620SOL     OW54300   4.303   7.466   6.448 -0.0752  0.2938 -0.0150
17620SOL    HW154301   4.321   7.374   6.468 -2.5489  0.1254  1.9990
17620SOL    HW254302   4.294   7.468   6.353 -1.0582 -1.8167 -0.0289
17621SOL     OW54303   3.315   0.203   6.632 -0.1821  0.0829 -0.4231
17621SOL    HW154304   3.334   0.109   6.623 -1.4865 -0.4093  1.3151
17621SOL    HW254305   3.223   0.211   6.604 -0.3678  0.6603  0.3412
17622SOL     OW54306   3.426   6.801   5.636  0.7917  0.1412  0.3435
17622SOL    HW154307   3.477   6.827   5.712 -0.3405  0.7578  0.9273
17622SOL    HW254308   3.384   6.882   5.606 -2.3190 -0.7391  1.8209
17623SOL     OW54309   4.198   6.969   6.026 -0.3617  0.1512  0.3626
17623SOL    HW154310   4.109   6.947   6.052 -0.4112 -0.3763 -0.2280
17623SOL    HW254311   4.195   6.974   5.930  0.3361 -0.3308  0.3040
17624SOL     OW54312   4.793   7.863   4.845  0.6849  0.1413 -0.6566
17624SOL    HW154313   4.876   7.847   4.889  0.7458 -0.2385 -0.9034
17624SOL    HW254314   4.735   7.793   4.876  0.8692 -0.4200 -1.5291
17625SOL     OW54315   6.355   7.501   5.090  0.2021  0.0578 -0.5136
17625SOL    HW154316   6.375   7.445   5.165  0.2109 -0.0513 -0.5978
17625SOL    HW254317   6.372   7.590   5.121 -0.0275  0.0322 -0.3088
17626SOL     OW54318   4.612   0.986   5.209 -0.0606 -0.3175  0.2654
17626SOL    HW154319   4.604   1.081   5.217 -1.1840 -0.2910 -0.9246
17626SOL    HW254320   4.688   0.964   5.263  1.2521  1.4553 -0.7308
17627SOL     OW54321   5.368   6.403   4.319 -0.0203  0.1642 -0.1952
17627SOL    HW154322   5.409   6.323   4.286  0.5291  1.1130 -1.9221
17627SOL    HW254323   5.415   6.422   4.400  1.5598  0.0545 -1.0419
17628SOL     OW54324   4.343   2.154   6.765 -0.3353 -0.1297  0.2566
17628SOL    HW154325   4.359   2.238   6.721  0.2807  0.4462  1.5048
17628SOL    HW254326   4.259   2.124   6.730  0.7975 -0.4737 -2.3993
17629SOL     OW54327   4.336   7.873   5.893 -0.5594 -0.0791  0.0679
17629SOL    HW154328   4.380   7.885   5.809 -1.2126 -1.4219 -0.4909
17629SOL    HW254329   4.267   7.809   5.876  0.0402 -1.3025  1.8864
17630SOL     OW54330   3.824   1.795   3.860 -0.4485 -0.2363  0.5280
17630SOL    HW154331   3.793   1.708   3.835 -1.0849 -0.5574  2.2501
17630SOL    HW254332   3.753   1.831   3.913 -1.0558  2.1827 -1.7230
17631SOL     OW54333   4.882   7.144   5.873 -0.3719 -0.3613 -0.2968
17631SOL    HW154334   4.913   7.205   5.939 -3.0643  0.9912 -0.1726
17631SOL    HW254335   4.958   7.130   5.816  1.1735  0.6905  1.3924
17632SOL     OW54336   6.314   7.430   6.536 -0.0198 -0.2394  0.2925
17632SOL    HW154337   6.335   7.361   6.472  3.0602  1.1298 -0.3622
17632SOL    HW254338   6.359   7.402   6.616  0.0171  0.2671  0.4531
17633SOL     OW54339   4.176   0.306   2.793 -0.2631 -0.5119  0.1072
17633SOL    HW154340   4.150   0.229   2.843  1.8743  0.1375  2.3872
17633SOL    HW254341   4.198   0.272   2.706  0.6853 -2.5248  1.0672
17634SOL     OW54342   5.708   7.655   5.660 -0.2771  0.1565  0.0381
17634SOL    HW154343   5.625   7.699   5.678 -0.7132 -0.6925  0.1438
17634SOL    HW254344   5.701   7.571   5.706  1.0112  0.4505  0.8137
17635SOL     OW54345   3.633   7.714   5.506  0.0390  0.5787  0.3892
17635SOL    HW154346   3.684   7.683   5.432 -0.5874  1.9203 -0.6506
17635SOL    HW254347   3.658   7.806   5.516 -0.7298  0.7292  1.1019
17636SOL     OW54348   2.884   6.460   5.303 -0.9614 -0.4911 -0.5831
17636SOL    HW154349   2.943   6.453   5.228  0.6056 -2.6190  0.7222
17636SOL    HW254350   2.927   6.408   5.371 -1.7489  2.2078  2.1800
17637SOL     OW54351   2.538   7.396   5.221 -0.2935  0.1455 -0.2483
17637SOL    HW154352   2.613   7.354   5.263  0.9433  1.4971 -1.0053
17637SOL    HW254353   2.465   7.383   5.282  0.6674 -0.7468  0.7543
17638SOL     OW54354   3.506   7.724   4.395  0.3446  0.0132  0.2810
17638SOL    HW154355   3.470   7.789   4.334  0.3439  0.8389  1.1424
17638SOL    HW254356   3.511   7.769   4.479 -1.5560 -1.6870  1.4074
17639SOL     OW54357   3.747   1.177   4.853 -0.0142 -0.5010  0.2755
17639SOL    HW154358   3.697   1.165   4.934  0.7444 -1.1336  0.6647
17639SOL    HW254359   3.838   1.165   4.880  0.4594  1.5047 -0.2420
17640SOL     OW54360   4.096   6.201   6.897  0.0508 -1.3409  0.2181
17640SOL    HW154361   4.171   6.258   6.880 -2.0238  1.3695 -0.5396
17640SOL    HW254362   4.092   6.194   6.992 -0.1593  0.6111  0.3842
17641SOL     OW54363   3.316   6.558   5.010  0.8717 -0.0458 -0.3210
17641SOL    HW154364   3.380   6.539   4.941  1.2385 -1.3785  0.3610
17641SOL    HW254365   3.364   6.614   5.071  0.6458  0.8711 -0.9558
17642SOL     OW54366   4.047   7.208   4.200  0.2572  0.0009 -0.2789
17642SOL    HW154367   4.103   7.285   4.207  1.3658 -0.8367  0.2568
17642SOL    HW254368   4.081   7.146   4.265 -1.0659 -0.6756 -0.1838
17643SOL     OW54369   3.641   0.514   5.195  0.5381 -0.0888  0.3087
17643SOL    HW154370   3.687   0.563   5.126 -0.5516  0.9637  0.2931
17643SOL    HW254371   3.551   0.509   5.165  0.6265 -2.3169  0.2403
17644SOL     OW54372   4.597   6.596   5.080 -0.0314 -0.0089  0.6217
17644SOL    HW154373   4.692   6.603   5.086  0.0450 -1.5594  1.7417
17644SOL    HW254374   4.568   6.590   5.171 -1.1726  0.0662  0.2775
17645SOL     OW54375   5.759   6.538   6.014 -0.0121  0.8037 -0.4882
17645SOL    HW154376   5.675   6.523   5.971 -0.0548  0.3599 -0.2520
17645SOL    HW254377   5.740   6.528   6.107  0.4253  0.0904 -0.4672
17646SOL     OW54378   5.091   1.245   6.405  0.5233 -0.3425 -0.2862
17646SOL    HW154379   5.048   1.228   6.321  0.5268  0.1732 -0.4012
17646SOL    HW254380   5.057   1.331   6.431  0.1386 -0.7169  0.4875
17647SOL     OW54381   4.600   0.026   5.132 -0.0792 -0.6999 -0.1359
17647SOL    HW154382   4.525  -0.008   5.084 -0.8313  2.4338 -1.4551
17647SOL    HW254383   4.648   0.078   5.067  0.1879  1.7568  1.8677
17648SOL     OW54384   6.150   7.253   5.785 -0.4093 -0.3510  0.0514
17648SOL    HW154385   6.063   7.214   5.776 -0.3622 -0.1466 -1.4148
17648SOL    HW254386   6.210   7.185   5.754 -0.1398 -0.0097 -0.1708
17649SOL     OW54387   3.631   0.208   5.347  0.1035  0.2185 -0.2347
17649SOL    HW154388   3.544   0.208   5.307 -1.9904  0.6034  3.8506
17649SOL    HW254389   3.650   0.300   5.363  2.3377  0.3422 -2.7913
17650SOL     OW54390   5.292   0.327   4.064  0.0979  0.7617 -0.3922
17650SOL    HW154391   5.242   0.406   4.081 -0.1407  0.4230  0.5958
17650SOL    HW254392   5.226   0.259   4.052  0.3012  0.5953 -0.5669
17651SOL     OW54393   3.417   5.828   4.928  0.4991  0.4902  0.3083
17651SOL    HW154394   3.482   5.828   4.999  0.6808  0.8174  0.1422
17651SOL    HW254395   3.414   5.737   4.898  1.0633  0.5192  0.1517
17652SOL     OW54396   6.501   6.748   4.716 -0.7997 -0.2343  0.9930
17652SOL    HW154397   6.407   6.761   4.730 -1.0087 -1.3556  0.7731
17652SOL    HW254398   6.527   6.687   4.785 -0.1873  0.2260  1.1717
17653SOL     OW54399   3.986   0.928   3.994  0.5535  0.1586  0.2517
17653SOL    HW154400   3.936   0.891   4.067  0.1436  0.4059  0.1012
17653SOL    HW254401   3.998   0.854   3.934  2.1216 -0.4117  1.1984
17654SOL     OW54402   5.686   7.531   4.463  1.0230  0.3905  0.3728
17654SOL    HW154403   5.635   7.474   4.521  0.4750 -0.1796 -0.6335
17654SOL    HW254404   5.634   7.612   4.459  0.5185  0.0457 -0.1455
17655SOL     OW54405   5.060   1.638   4.274  0.4724 -0.0675 -0.0928
17655SOL    HW154406   5.061   1.721   4.227 -1.0013 -0.6544 -1.2441
17655SOL    HW254407   5.016   1.656   4.356  2.5532  0.8434  0.8970
17656SOL     OW54408   3.971   0.165   6.998  0.0882  0.3381 -0.0816
17656SOL    HW154409   4.042   0.161   7.063 -0.8679  0.1311  0.9761
17656SOL    HW254410   3.995   0.238   6.941  1.2985  0.0890  0.0800
17657SOL     OW54411   5.151   6.958   6.461  0.3077 -0.2796  1.0776
17657SOL    HW154412   5.135   7.044   6.422 -2.4245 -1.4218 -0.6523
17657SOL    HW254413   5.166   6.976   6.554  3.3273  2.2569  0.2480
17658SOL     OW54414   2.302   5.863   5.846 -0.4217  0.7418  0.4713
17658SOL    HW154415   2.327   5.783   5.893 -1.2106  0.1531 -0.0824
17658SOL    HW254416   2.208   5.854   5.832 -0.2449  0.9585 -1.0950
17659SOL     OW54417   2.890   7.599   7.552  0.0313 -0.4116 -0.0013
17659SOL    HW154418   2.913   7.587   7.460 -0.5515 -0.1617 -0.1823
17659SOL    HW254419   2.888   7.511   7.589  1.2084 -0.4568  0.0107
17660SOL     OW54420   4.541   0.345   4.804 -0.1176  0.0024 -0.0225
17660SOL    HW154421   4.482   0.318   4.734  0.0318  0.5571 -0.3613
17660SOL    HW254422   4.605   0.273   4.811 -1.5321 -1.2013  1.1928
17661SOL     OW54423   5.227   6.748   5.475  0.0239  0.3483  0.6521
17661SOL    HW154424   5.204   6.832   5.437 -1.5608 -0.2657  0.1529
17661SOL    HW254425   5.156   6.728   5.536 -0.6157 -1.3846 -0.5399
17662SOL     OW54426   3.670   0.474   7.013  0.0703 -0.3383 -0.0630
17662SOL    HW154427   3.760   0.462   7.043 -0.3109 -1.4489  0.6975
17662SOL    HW254428   3.676   0.475   6.918  0.7055 -2.1410 -0.0708
17663SOL     OW54429   6.625   7.663   6.044 -0.2185  0.3836  0.1191
17663SOL    HW154430   6.557   7.614   5.999  0.5195  0.2429 -0.8761
17663SOL    HW254431   6.653   7.606   6.116  1.9783 -1.5942 -2.1479
17664SOL     OW54432   6.866   0.047   5.286  0.4027 -0.1633  0.8406
17664SOL    HW154433   6.878  -0.043   5.254 -1.8746 -0.1196 -0.4073
17664SOL    HW254434   6.936   0.097   5.244  0.3245 -0.9757 -0.3198
17665SOL     OW54435   3.367   1.997   4.209  0.2686  0.3274 -0.2344
17665SOL    HW154436   3.345   2.066   4.146  0.3535 -0.5509 -1.2557
17665SOL    HW254437   3.462   2.002   4.218  0.3777 -0.2256 -1.0007
17666SOL     OW54438   5.042   7.408   5.237 -0.2508  0.2452 -0.3360
17666SOL    HW154439   4.993   7.361   5.304  0.6331 -0.0151  0.1486
17666SOL    HW254440   5.041   7.499   5.265  0.3758  0.0936  0.2164
17667SOL     OW54441   5.975   0.798   6.259  0.4232  0.0040  0.3234
17667SOL    HW154442   6.044   0.740   6.227  1.2473  0.2170  1.6430
17667SOL    HW254443   5.963   0.773   6.350  0.5925  1.7222  0.8465
17668SOL     OW54444   5.478   7.543   5.477 -0.1705 -0.7411  0.0276
17668SOL    HW154445   5.464   7.629   5.519  0.5030 -0.8608  0.5116
17668SOL    HW254446   5.470   7.561   5.383  0.9639  0.0478  0.0678
17669SOL     OW54447   3.009   1.846   3.298 -0.2761 -0.5093  0.0924
17669SOL    HW154448   2.974   1.934   3.305  0.1913 -0.3667  0.8137
17669SOL    HW254449   3.023   1.832   3.205 -0.2075  0.2370 -0.0147
17670SOL     OW54450   4.980   7.985   6.237  0.5600 -0.2429 -0.3058
17670SOL    HW154451   4.903   7.963   6.184  0.9988  1.2207 -1.6671
17670SOL    HW254452   5.007   8.071   6.204  2.9743 -0.8463 -0.1165
17671SOL     OW54453   7.004   6.840   5.673  0.0375 -0.7597 -0.8143
17671SOL    HW154454   6.995   6.834   5.578 -0.3265 -1.1128 -0.7591
17671SOL    HW254455   7.097   6.825   5.689  0.2718  0.2030 -1.1825
17672SOL     OW54456   3.774   7.815   6.019 -0.2662 -0.1908  0.1957
17672SOL    HW154457   3.769   7.721   6.039  0.6723 -0.3748 -0.3560
17672SOL    HW254458   3.700   7.831   5.960  0.5340 -0.9671 -1.0665
17673SOL     OW54459   7.368   6.812   8.168 -0.2397 -0.4884  0.6656
17673SOL    HW154460   7.374   6.734   8.113 -0.2951 -0.0343  0.0014
17673SOL    HW254461   7.279   6.811   8.202 -0.3528 -0.5196  0.3678
17674SOL     OW54462   7.182   0.195   7.253 -0.0290  0.4661  0.3658
17674SOL    HW154463   7.111   0.226   7.309 -0.7530  2.3728 -1.4614
17674SOL    HW254464   7.220   0.275   7.216 -0.3036 -0.6570 -2.6692
17675SOL     OW54465   4.695   7.992   4.191  0.5898  0.2465 -0.4755
17675SOL    HW154466   4.638   8.068   4.179  0.1458 -0.1011 -0.5619
17675SOL    HW254467   4.750   7.992   4.112  0.4944  0.3951 -0.5435
17676SOL     OW54468   6.925   7.250   5.224 -0.2466 -0.1230  0.1463
17676SOL    HW154469   7.006   7.220   5.265 -0.1355 -0.0627 -0.0304
17676SOL    HW254470   6.951   7.282   5.138 -0.4095  0.2120  0.2204
17677SOL     OW54471   4.217   5.374   4.013 -0.1661 -0.1749  0.3672
17677SOL    HW154472   4.176   5.380   4.099 -0.4736 -0.8061  0.2662
17677SOL    HW254473   4.299   5.422   4.022 -0.2053 -0.2281  1.0067
17678SOL     OW54474   4.349   5.819   6.148  0.1206  0.1552 -0.5643
17678SOL    HW154475   4.380   5.822   6.057  0.4138 -0.8293 -0.5089
17678SOL    HW254476   4.418   5.772   6.195  0.3529  1.3591  0.3364
17679SOL     OW54477   5.966   0.727   5.562  0.5405 -0.0710  0.1875
17679SOL    HW154478   5.946   0.746   5.654 -1.7012 -0.9156 -0.0337
17679SOL    HW254479   5.925   0.641   5.547  1.0309 -0.0341 -1.5565
17680SOL     OW54480   6.509   7.145   5.369  0.2309 -0.1023 -0.0222
17680SOL    HW154481   6.464   7.063   5.349  0.4593 -0.0381 -0.8226
17680SOL    HW254482   6.534   7.136   5.461 -0.5075 -0.5635  0.1504
17681SOL     OW54483   4.007   0.365   8.554 -0.2208 -0.4443  0.1268
17681SOL    HW154484   4.032   0.443   8.503 -0.6602 -1.0420 -1.0336
17681SOL    HW254485   3.915   0.380   8.576  0.1254  0.0794  1.2684
17682SOL     OW54486   3.551   2.137   6.437 -0.1670  0.2891 -0.2049
17682SOL    HW154487   3.489   2.070   6.463  0.0355 -0.0854 -0.6830
17682SOL    HW254488   3.530   2.212   6.493  0.9688 -0.8409  1.8599
17683SOL     OW54489   5.559   0.781   6.114 -1.2993 -0.0265  0.1447
17683SOL    HW154490   5.566   0.709   6.177 -0.2813 -0.5297 -0.5154
17683SOL    HW254491   5.635   0.836   6.132 -0.0246 -1.0753 -1.7038
17684SOL     OW54492   3.459   7.490   8.062 -0.6370  0.1968 -0.1327
17684SOL    HW154493   3.501   7.527   7.985 -0.5974 -0.3974 -0.4040
17684SOL    HW254494   3.405   7.561   8.097 -0.1434  0.6744 -0.3203
17685SOL     OW54495   4.613   1.970   6.206 -0.2741 -0.3348  0.0545
17685SOL    HW154496   4.652   2.051   6.174  0.2071  0.2720  2.0669
17685SOL    HW254497   4.538   1.955   6.148  0.9400  0.2873 -1.7683
17686SOL     OW54498   4.137   7.870   7.178  0.4181 -0.4146  0.0257
17686SOL    HW154499   4.105   7.959   7.162 -0.2513 -0.6558  0.0058
17686SOL    HW254500   4.114   7.852   7.269  1.3651 -0.2393  0.3138
17687SOL     OW54501   4.943   0.953   5.615 -0.0556  0.9009  0.0173
17687SOL    HW154502   5.002   1.029   5.617  0.6656  0.5110 -2.4976
17687SOL    HW254503   5.000   0.879   5.635  0.3717  0.5557 -2.1561
17688SOL     OW54504   4.762   7.162   8.238  0.6780 -0.2785 -0.1725
17688SOL    HW154505   4.679   7.115   8.229  0.7316 -0.3550 -0.2825
17688SOL    HW254506   4.819   7.121   8.172  0.5404  0.3498 -0.6954
17689SOL     OW54507   4.951   7.499   8.307 -0.2108  0.2831  0.2241
17689SOL    HW154508   5.019   7.561   8.281  0.8548 -1.0931 -0.4158
17689SOL    HW254509   4.994   7.439   8.367 -0.4425 -1.4159 -1.2328
17690SOL     OW54510   6.136   5.769   6.438  1.5723  0.1775 -0.8168
17690SOL    HW154511   6.184   5.686   6.448 -0.4656 -0.9653  0.2278
17690SOL    HW254512   6.056   5.745   6.391  1.3742  1.7391 -1.3175
17691SOL     OW54513   6.339   6.482   7.802  1.0104  0.2395 -0.3390
17691SOL    HW154514   6.369   6.417   7.738  0.1177 -1.9259  1.3368
17691SOL    HW254515   6.264   6.524   7.760  0.7240 -0.8082 -0.9190
17692SOL     OW54516   5.759   7.994   8.033  0.2505 -0.0468 -0.3560
17692SOL    HW154517   5.830   7.954   8.084  0.6714  0.8655 -0.2160
17692SOL    HW254518   5.769   8.088   8.046 -1.2283  0.0960 -0.0077
17693SOL     OW54519   5.552   0.383   7.769 -0.6059 -0.1822  0.3453
17693SOL    HW154520   5.530   0.372   7.676  0.6921  0.3093 -0.0458
17693SOL    HW254521   5.589   0.471   7.775 -1.9004  0.3172  1.6052
17694SOL     OW54522   3.722   7.378   6.568  0.7472 -0.0349  0.3906
17694SOL    HW154523   3.775   7.352   6.644 -0.5289 -1.8262  0.7299
17694SOL    HW254524   3.652   7.432   6.605  1.6609  1.4270  0.0782
17695SOL     OW54525   5.745   1.024   7.083  0.0431  0.0607  0.5347
17695SOL    HW154526   5.725   1.021   6.989  0.5330  1.8502  0.3268
17695SOL    HW254527   5.660   1.018   7.126 -0.3079  0.4587 -0.0787
17696SOL     OW54528   5.556   1.901   7.390 -0.3916 -0.3911 -0.2621
17696SOL    HW154529   5.542   1.861   7.475  0.4562  0.4951  0.3182
17696SOL    HW254530   5.518   1.989   7.398  0.8153  0.1595 -0.3514
17697SOL     OW54531   3.810   7.544   7.661  0.6792 -0.1366  0.1495
17697SOL    HW154532   3.857   7.464   7.684 -1.4752 -1.5079  0.0783
17697SOL    HW254533   3.867   7.615   7.693  2.7170 -1.6470  0.0954
17698SOL     OW54534   6.046   1.076   6.136  0.5313 -0.4225  0.5418
17698SOL    HW154535   6.052   1.171   6.130 -1.8302 -0.1929  0.8949
17698SOL    HW254536   6.020   1.059   6.227 -0.4815 -1.2759  0.1173
17699SOL     OW54537   4.532   5.867   7.676  0.0060 -0.3250  0.0760
17699SOL    HW154538   4.470   5.871   7.604  1.0221 -1.7697 -0.9351
17699SOL    HW254539   4.617   5.855   7.634  1.2358  2.7860  1.3334
17700SOL     OW54540   3.704   0.103   4.088 -0.6774 -0.2110 -0.6701
17700SOL    HW154541   3.701   0.170   4.019  0.6908  0.2424 -0.3254
17700SOL    HW254542   3.638   0.039   4.062 -0.6057  0.2525 -2.0908
17701SOL     OW54543   4.967   0.278   7.537  0.3059 -0.0647 -0.1254
17701SOL    HW154544   5.038   0.239   7.589 -1.1820 -1.7153  0.7993
17701SOL    HW254545   5.009   0.309   7.458  2.2114 -0.0836  0.8269
17702SOL     OW54546   3.198   0.203   5.773  0.4758 -0.0872 -0.1009
17702SOL    HW154547   3.119   0.234   5.818  1.1820 -0.9351  1.8060
17702SOL    HW254548   3.266   0.264   5.799  0.6292  0.2357 -1.1924
17703SOL     OW54549   2.585   0.239   4.663 -0.2671 -0.2587 -0.1411
17703SOL    HW154550   2.631   0.174   4.609 -1.4036 -1.6625  0.5151
17703SOL    HW254551   2.655   0.285   4.709  0.6228 -0.2283 -1.4633
17704SOL     OW54552   5.638   7.357   7.436  0.4603 -0.0388  0.2130
17704SOL    HW154553   5.619   7.425   7.372 -1.4162  0.6094  1.3660
17704SOL    HW254554   5.659   7.404   7.516  0.7899 -0.8329  0.6078
17705SOL     OW54555   6.579   7.905   5.188  0.0679  0.2371 -0.0708
17705SOL    HW154556   6.648   7.927   5.125 -0.3818  1.5816 -0.1258
17705SOL    HW254557   6.625   7.874   5.265  0.6442 -1.0245 -0.8963
17706SOL     OW54558   5.757   7.435   6.123 -0.6542  0.1287 -0.5395
17706SOL    HW154559   5.781   7.391   6.205 -0.3168 -0.6295 -1.0303
17706SOL    HW254560   5.826   7.499   6.108 -1.0018  0.6438  0.0449
17707SOL     OW54561   4.418   7.976   7.863  0.4384 -0.4048 -0.0820
17707SOL    HW154562   4.508   7.950   7.847  1.0988  2.2840 -1.2546
17707SOL    HW254563   4.425   8.058   7.912 -1.3420  0.3840 -1.0625
17708SOL     OW54564   5.573   7.210   6.215  0.0060 -0.0260  0.0247
17708SOL    HW154565   5.594   7.208   6.309 -0.5454  1.4001  0.2136
17708SOL    HW254566   5.612   7.292   6.184 -0.5082 -0.0889 -0.8062
17709SOL     OW54567   4.500   0.916   6.782 -0.0520  0.0582 -0.0387
17709SOL    HW154568   4.462   0.883   6.864  1.2013 -1.2191  0.0696
17709SOL    HW254569   4.478   1.009   6.781 -2.7348 -0.4716  0.2311
17710SOL     OW54570   6.908   7.501   7.046  0.0694 -0.2709  0.1858
17710SOL    HW154571   6.903   7.412   7.082  0.3109  1.2153  4.4103
17710SOL    HW254572   6.819   7.536   7.055  0.4100  0.5439  0.4463
17711SOL     OW54573   5.804   6.949   6.817 -0.1140 -0.3478 -0.1207
17711SOL    HW154574   5.899   6.960   6.810 -0.1347 -0.3926 -0.5021
17711SOL    HW254575   5.784   6.876   6.759 -0.3905 -0.2981 -0.0890
17712SOL     OW54576   4.611   0.518   5.540  0.3311  0.3827 -0.2961
17712SOL    HW154577   4.664   0.460   5.485  0.2059 -1.3015  1.2764
17712SOL    HW254578   4.541   0.548   5.482  2.2637  1.7373 -2.0952
17713SOL     OW54579   4.056   0.281   6.072  0.2371 -0.1241  0.6816
17713SOL    HW154580   3.962   0.264   6.065  0.0388  1.2889 -1.0688
17713SOL    HW254581   4.096   0.195   6.063 -0.8408 -0.4692 -2.0037
17714SOL     OW54582   4.152   7.508   8.379  0.2407  0.1699  0.5511
17714SOL    HW154583   4.237   7.487   8.339  0.6113  0.8367  0.9731
17714SOL    HW254584   4.118   7.423   8.407  1.1681 -0.0194  1.1683
17715SOL     OW54585   3.929   7.005   7.492 -0.5559 -0.7025  0.0756
17715SOL    HW154586   3.835   6.991   7.505 -0.2378 -3.0339  0.2956
17715SOL    HW254587   3.958   7.043   7.575 -1.2390 -0.3651  0.1702
17716SOL     OW54588   5.164   0.137   7.347  0.0526  0.7919  0.2362
17716SOL    HW154589   5.243   0.103   7.390  1.4294  1.4655 -1.6058
17716SOL    HW254590   5.177   0.232   7.347  0.2862  0.8141 -1.8456
17717SOL     OW54591   4.099   7.451   6.819  0.6115  0.0338 -0.2304
17717SOL    HW154592   4.057   7.421   6.738 -0.4505 -1.0100  0.6676
17717SOL    HW254593   4.141   7.372   6.855 -0.3954  0.0587  1.0888
17718SOL     OW54594   4.370   0.401   5.355  0.8045  0.9468  0.1668
17718SOL    HW154595   4.318   0.321   5.350 -0.1020  1.6118 -1.9445
17718SOL    HW254596   4.441   0.387   5.292  1.2306  1.4216  0.5310
17719SOL     OW54597   5.753   7.769   5.324 -0.2996  0.1998  1.0445
17719SOL    HW154598   5.690   7.807   5.385 -1.5166  0.3917 -0.2735
17719SOL    HW254599   5.728   7.677   5.317 -1.5363  0.6140 -0.7133
17720SOL     OW54600   6.280   7.680   6.608  0.0241 -0.0512  0.3281
17720SOL    HW154601   6.189   7.661   6.631 -0.8872 -0.1362 -2.8225
17720SOL    HW254602   6.308   7.604   6.556  1.8199  0.1125  0.9916
17721SOL     OW54603   5.942   1.677   6.492  0.7762 -0.1289 -0.2823
17721SOL    HW154604   5.873   1.716   6.439 -0.4671  1.0826  2.0267
17721SOL    HW254605   5.959   1.592   6.452 -3.0874 -1.1159 -0.2470
17722SOL     OW54606   3.281   7.189   6.526  0.2374  0.0569  0.3990
17722SOL    HW154607   3.300   7.164   6.616 -2.1523  1.5754  1.4136
17722SOL    HW254608   3.307   7.112   6.474  2.6763 -0.4407  2.1929
17723SOL     OW54609   5.075   7.364   8.520  0.5119 -0.1437 -0.2818
17723SOL    HW154610   5.118   7.449   8.525 -1.3728  0.8519  0.0979
17723SOL    HW254611   5.124   7.309   8.581  1.2177  0.9232  0.1447
17724SOL     OW54612   4.007   7.867   8.005 -0.4304  0.1065 -1.0173
17724SOL    HW154613   4.036   7.959   7.998 -1.0635  0.3096 -0.9852
17724SOL    HW254614   4.040   7.839   8.090 -2.1349  0.9989 -0.0156
17725SOL     OW54615   3.630   6.822   6.478 -0.5501 -0.2118 -0.4870
17725SOL    HW154616   3.620   6.808   6.572 -0.5794  0.3366 -0.4022
17725SOL    HW254617   3.686   6.751   6.449 -0.2245 -0.1639  0.0153
17726SOL     OW54618   4.530   6.955   8.702  0.7106 -0.2592  0.0662
17726SOL    HW154619   4.482   6.880   8.667  1.0000 -1.6548  2.4041
17726SOL    HW254620   4.523   6.945   8.797 -1.2410  4.0418  0.5988
17727SOL     OW54621   3.002   1.395   5.089 -0.2074 -0.5712 -0.0813
17727SOL    HW154622   2.920   1.361   5.124 -0.0147  0.3515  1.3769
17727SOL    HW254623   3.055   1.317   5.071 -1.7908 -1.2423 -2.1914
17728SOL     OW54624   4.969   0.953   8.151 -0.1323  0.8890  0.6348
17728SOL    HW154625   5.038   1.019   8.155 -0.2830  0.9889  1.9788
17728SOL    HW254626   4.947   0.947   8.058  1.2728  1.2727  0.2530
17729SOL     OW54627   5.546   0.439   6.878 -0.0995  0.0603 -0.3018
17729SOL    HW154628   5.498   0.500   6.822  0.3292 -0.2435 -1.0126
17729SOL    HW254629   5.553   0.484   6.962  1.0183  1.4073 -1.0692
17730SOL     OW54630   3.848   7.010   4.103 -0.3401  0.1860 -0.2165
17730SOL    HW154631   3.929   7.061   4.107  0.5128 -1.1409  3.7125
17730SOL    HW254632   3.784   7.063   4.151 -1.1078  0.0183 -1.0193
17731SOL     OW54633   6.252   6.379   6.818 -0.0609  0.1449  0.2399
17731SOL    HW154634   6.180   6.434   6.848 -1.4271 -1.1820 -0.4290
17731SOL    HW254635   6.211   6.317   6.757  1.8506  0.0294 -1.0161
17732SOL     OW54636   3.087   0.610   4.560  0.3393 -0.5068 -0.4695
17732SOL    HW154637   2.997   0.579   4.570  0.3626 -0.4853 -0.1791
17732SOL    HW254638   3.086   0.664   4.481  0.2099 -0.9198 -0.7545
17733SOL     OW54639   4.685   0.488   7.010  0.8781  0.2791 -0.2400
17733SOL    HW154640   4.706   0.490   7.103  2.0805 -1.4812 -0.4233
17733SOL    HW254641   4.684   0.395   6.988 -2.6102  0.4291 -1.3372
17734SOL     OW54642   6.655   7.734   6.920  0.5671  0.2022  0.4077
17734SOL    HW154643   6.695   7.757   6.836  2.2788  2.4648  1.7401
17734SOL    HW254644   6.723   7.753   6.985 -0.6655 -1.5774  2.3497
17735SOL     OW54645   4.905   1.724   6.284  0.1017 -1.0001  0.1207
17735SOL    HW154646   4.958   1.794   6.245 -1.2814  1.2100  1.9201
17735SOL    HW254647   4.873   1.674   6.209  1.1477  0.2846 -1.2537
17736SOL     OW54648   3.859   7.543   6.174  0.7576 -0.8785 -0.2320
17736SOL    HW154649   3.896   7.507   6.255  0.9715 -1.2555 -0.4948
17736SOL    HW254650   3.899   7.491   6.105 -0.2546 -1.2888 -0.5232
17737SOL     OW54651   3.668   5.656   6.385  0.4363 -0.0829 -0.4810
17737SOL    HW154652   3.760   5.643   6.407  0.6063 -0.2258 -1.2624
17737SOL    HW254653   3.622   5.588   6.435  0.8368 -0.5624 -0.7538
17738SOL     OW54654   4.074   7.745   8.243  0.8159 -0.1940  0.1640
17738SOL    HW154655   4.073   7.661   8.290 -1.2475 -0.2824  0.0843
17738SOL    HW254656   4.104   7.808   8.308 -0.3512 -0.5830  1.1306
17739SOL     OW54657   4.687   6.718   4.491 -0.2695 -0.0876  0.0537
17739SOL    HW154658   4.694   6.635   4.539  0.6445  0.1977  0.4394
17739SOL    HW254659   4.731   6.782   4.547 -0.9973  0.6720 -0.2217
17740SOL     OW54660   2.843   0.925   6.273  0.0828  0.3408  0.2078
17740SOL    HW154661   2.916   0.972   6.315  0.0502 -0.2075  0.9019
17740SOL    HW254662   2.872   0.910   6.184  0.4740  0.8656  0.2401
17741SOL     OW54663   3.449   1.275   6.701  0.5060 -0.7826  1.0445
17741SOL    HW154664   3.405   1.264   6.617  3.1029  0.4826 -0.6324
17741SOL    HW254665   3.490   1.190   6.718  0.8841 -0.7348  0.4174
17742SOL     OW54666   0.046   7.363   6.431 -0.5346  0.4774  0.0820
17742SOL    HW154667  -0.042   7.388   6.403 -0.7304 -0.2668  0.0143
17742SOL    HW254668   0.059   7.410   6.513 -0.8484  0.8846 -0.1021
17743SOL     OW54669   4.697   1.150   7.846  0.0868  0.2518 -0.2848
17743SOL    HW154670   4.685   1.100   7.765  0.0122 -1.9641  1.0009
17743SOL    HW254671   4.633   1.221   7.840  1.1659  1.1335 -2.8271
17744SOL     OW54672   5.782   0.832   6.730  0.1407 -0.3562 -0.1321
17744SOL    HW154673   5.692   0.856   6.751 -0.2760 -1.6900 -0.2899
17744SOL    HW254674   5.827   0.915   6.721 -1.1603  0.3476 -0.4369
17745SOL     OW54675   5.412   0.668   7.020  0.1263 -0.1350  0.2585
17745SOL    HW154676   5.469   0.735   7.058  1.2529 -0.6850 -0.4148
17745SOL    HW254677   5.413   0.686   6.926 -1.0385 -0.0035  0.2568
17746SOL     OW54678   5.734   0.124   5.524  0.5704 -0.2113  0.4840
17746SOL    HW154679   5.803   0.189   5.511 -0.2806  0.4091 -1.2188
17746SOL    HW254680   5.774   0.041   5.497  0.3526  0.3263 -1.6913
17747SOL     OW54681   4.391   1.109   7.215  0.9000  0.0184  0.3824
17747SOL    HW154682   4.464   1.049   7.209 -0.6040 -1.8067 -0.6472
17747SOL    HW254683   4.334   1.087   7.141 -1.0857  0.8113  1.5696
17748SOL     OW54684   0.201   6.528   5.783  0.1426  0.3008 -0.4852
17748SOL    HW154685   0.241   6.507   5.868 -0.8562  1.0761  0.2027
17748SOL    HW254686   0.120   6.573   5.806  0.3503  1.4303 -1.8814
17749SOL     OW54687   4.368   5.815   7.460  0.7161  0.2511  0.4803
17749SOL    HW154688   4.343   5.845   7.373 -0.9756 -0.1989  0.7690
17749SOL    HW254689   4.400   5.726   7.447  1.7036  0.6434  0.1675
17750SOL     OW54690   4.649   5.711   8.005 -0.6199 -0.2479  0.4664
17750SOL    HW154691   4.647   5.623   7.968  2.0886 -0.7465  1.3205
17750SOL    HW254692   4.565   5.749   7.979 -0.5151 -1.8731 -2.8782
17751SOL     OW54693   5.466   1.321   8.700 -0.2669  0.0866  0.0663
17751SOL    HW154694   5.421   1.240   8.723 -0.6278 -0.2757 -1.7560
17751SOL    HW254695   5.550   1.316   8.746 -0.2324 -1.3922 -0.1128
17752SOL     OW54696   4.803   7.284   9.846 -0.5409  0.0756 -0.4955
17752SOL    HW154697   4.747   7.307   9.920 -0.2181  0.2130 -0.2952
17752SOL    HW254698   4.749   7.305   9.769 -1.2440 -0.9641 -0.3073
17753SOL     OW54699   4.315   0.564   7.931 -0.0146 -0.1854  0.3935
17753SOL    HW154700   4.307   0.489   7.873 -1.2160  0.5297 -0.4047
17753SOL    HW254701   4.356   0.632   7.877 -0.4683  0.2547  0.6023
17754SOL     OW54702   6.284   6.940   8.020 -0.1162 -0.4526  0.3711
17754SOL    HW154703   6.373   6.973   8.037 -0.3920  0.2844  0.4354
17754SOL    HW254704   6.290   6.846   8.033  0.1286 -0.1668  2.7119
17755SOL     OW54705   4.598   0.360   9.452  0.8015 -0.1905 -0.3675
17755SOL    HW154706   4.600   0.419   9.527 -1.0343 -1.9541  1.2074
17755SOL    HW254707   4.579   0.417   9.378  2.1327  1.5535  0.5599
17756SOL     OW54708   5.170   0.299   8.380  0.7098  0.2631 -0.2717
17756SOL    HW154709   5.076   0.290   8.394  0.7357  0.5899  0.1071
17756SOL    HW254710   5.209   0.282   8.465  1.0436 -0.5232 -0.5655
17757SOL     OW54711   4.109   7.806   9.105  0.0579 -0.9098 -0.3778
17757SOL    HW154712   4.114   7.747   9.181  0.6887 -0.3807  0.0017
17757SOL    HW254713   4.134   7.892   9.139  2.4340 -1.0440 -1.5789
17758SOL     OW54714   6.151   7.388   8.058 -0.5241 -0.1739  0.0274
17758SOL    HW154715   6.098   7.442   7.999 -0.9094  0.0312  0.5485
17758SOL    HW254716   6.232   7.372   8.010  0.3064  2.2788  0.4984
17759SOL     OW54717   4.068   0.016  10.729  0.0842 -0.2016  0.1035
17759SOL    HW154718   3.995   0.048  10.675  1.2400  2.1501 -0.1665
17759SOL    HW254719   4.120  -0.038  10.670 -1.2318 -1.6711  0.2231
17760SOL     OW54720   5.178   7.748  10.037 -0.2462 -0.2045  0.7376
17760SOL    HW154721   5.217   7.802  10.106 -1.3438 -0.9367  1.9807
17760SOL    HW254722   5.084   7.768  10.041 -0.2100  0.6209 -1.3667
17761SOL     OW54723   4.948   0.694   7.553  0.2113 -0.5343  0.1441
17761SOL    HW154724   4.960   0.678   7.646 -0.5596  0.6701  0.4737
17761SOL    HW254725   4.864   0.654   7.532 -1.4672  2.3189  0.8569
17762SOL     OW54726   4.242   7.523   7.672 -0.0438  0.2981  0.1509
17762SOL    HW154727   4.270   7.610   7.699 -2.0215  0.8445  0.6449
17762SOL    HW254728   4.223   7.478   7.754 -0.0919 -0.2134 -0.1381
17763SOL     OW54729   6.240   6.487   9.293 -0.1361 -0.6797 -0.4649
17763SOL    HW154730   6.274   6.573   9.319  0.5161 -0.7645 -0.9904
17763SOL    HW254731   6.201   6.452   9.372  0.2731 -0.2143 -0.0437
17764SOL     OW54732   4.628   5.060   9.123 -1.1026  0.6824  0.2119
17764SOL    HW154733   4.688   5.064   9.048 -0.5587  0.1501  0.6102
17764SOL    HW254734   4.657   5.131   9.181 -0.0843 -0.3254  0.9623
17765SOL     OW54735   5.051   0.674   9.677 -0.0916 -0.5232  0.2156
17765SOL    HW154736   4.996   0.632   9.611 -2.2281 -1.5685  2.4821
17765SOL    HW254737   5.109   0.604   9.707  0.8186 -0.0728 -0.4467
17766SOL     OW54738   4.708   1.018   7.592  0.5686 -0.0022  0.1710
17766SOL    HW154739   4.702   0.929   7.557  1.8535  0.6160 -1.8131
17766SOL    HW254740   4.801   1.040   7.586  0.2797  1.4655  0.6732
17767SOL     OW54741   6.599   2.157   8.203  0.3690 -0.2381  0.3559
17767SOL    HW154742   6.597   2.097   8.128  0.9730 -2.1449  1.8110
17767SOL    HW254743   6.692   2.169   8.222  0.2202 -0.9834  1.6880
17768SOL     OW54744   5.733   0.715   7.399 -0.2160 -0.6792 -0.3645
17768SOL    HW154745   5.751   0.808   7.386 -0.5829 -0.7591 -1.5959
17768SOL    HW254746   5.811   0.681   7.442 -0.0101  0.1594 -0.0573
17769SOL     OW54747   5.770   6.519   9.336 -0.0966  0.1355 -0.4777
17769SOL    HW154748   5.730   6.484   9.256  1.5162  1.6948 -2.0613
17769SOL    HW254749   5.756   6.614   9.330  3.1037  0.7093 -0.8041
17770SOL     OW54750   6.021   7.442   8.996 -0.4252  0.0691  0.1451
17770SOL    HW154751   6.055   7.526   9.027 -2.1586  0.6872  0.4428
17770SOL    HW254752   6.046   7.379   9.064 -1.3726  0.8296  1.2364
17771SOL     OW54753   7.224   0.031   7.736 -0.2254 -0.0462 -0.7562
17771SOL    HW154754   7.180   0.065   7.815 -0.7588  1.3890 -1.6249
17771SOL    HW254755   7.314   0.062   7.743 -0.0682 -0.5761 -0.3542
17772SOL     OW54756   4.005   0.527   9.804 -0.4697  0.5376  0.0450
17772SOL    HW154757   4.029   0.609   9.762 -1.9953  1.1708  0.3689
17772SOL    HW254758   4.008   0.462   9.733  0.4736  0.8996 -0.2615
17773SOL     OW54759   4.944   6.440   8.078 -0.0570  0.4189 -0.6397
17773SOL    HW154760   4.868   6.458   8.023  0.9249 -0.1150 -2.2410
17773SOL    HW254761   4.962   6.524   8.121 -0.9360  0.8148 -1.0073
17774SOL     OW54762   4.850   0.590   9.496 -0.9682 -0.3675 -0.1707
17774SOL    HW154763   4.838   0.667   9.441  0.0619  1.4629  2.0030
17774SOL    HW254764   4.788   0.602   9.568 -1.6345 -2.2243 -0.3786
17775SOL     OW54765   3.149   5.901   9.330  0.2360  0.0961  0.4321
17775SOL    HW154766   3.091   5.885   9.256  0.3237 -0.1695  0.4160
17775SOL    HW254767   3.237   5.884   9.295  0.6121  2.9918 -0.2696
17776SOL     OW54768   6.433   0.744   7.741  1.0010  0.3392  0.0273
17776SOL    HW154769   6.439   0.672   7.804  0.7522  1.2998  1.1736
17776SOL    HW254770   6.355   0.792   7.766  1.1456  0.9938 -0.7462
17777SOL     OW54771   5.010   0.738   8.302  0.0928  0.0468  0.1460
17777SOL    HW154772   4.979   0.817   8.257 -0.2123 -0.6062 -0.8267
17777SOL    HW254773   5.090   0.714   8.256 -0.5981 -1.0312 -0.5297
17778SOL     OW54774   5.669   0.085   7.777 -0.2486 -0.2580  0.1105
17778SOL    HW154775   5.730   0.069   7.849 -0.1816  1.0003  0.3620
17778SOL    HW254776   5.679   0.179   7.758 -1.5428 -0.1946 -0.3563
17779SOL     OW54777   4.444   0.203   9.867  0.1299 -0.4033 -0.4399
17779SOL    HW154778   4.397   0.136   9.817  0.1965 -1.4211  0.7878
17779SOL    HW254779   4.461   0.161   9.952 -0.8772  1.5691  0.8163
17780SOL     OW54780   4.860   7.303   9.140  0.1924 -0.4818  0.7025
17780SOL    HW154781   4.906   7.291   9.057 -1.4332  0.0488 -0.3257
17780SOL    HW254782   4.809   7.383   9.127 -0.3317 -0.5689  2.1096
17781SOL     OW54783   3.775   6.415   8.408 -0.3067 -0.4292 -0.3147
17781SOL    HW154784   3.721   6.336   8.405 -1.8572  0.5199  0.9420
17781SOL    HW254785   3.715   6.485   8.383  0.6571  0.5133 -0.0064
17782SOL     OW54786   4.616   1.439   7.939 -0.0093 -0.5615  0.2584
17782SOL    HW154787   4.689   1.475   7.990  0.7852 -0.7214 -0.7407
17782SOL    HW254788   4.640   1.455   7.848 -0.8986 -1.2357 -0.1066
17783SOL     OW54789   5.961   5.700   9.808  0.0856 -0.2528 -0.0384
17783SOL    HW154790   5.977   5.721   9.717  1.2127 -0.3248  0.1340
17783SOL    HW254791   6.036   5.646   9.834  1.1933  1.9241  1.6527
17784SOL     OW54792   4.536   7.346  10.341  0.3106  0.2740  0.7979
17784SOL    HW154793   4.555   7.302  10.259  2.3568  0.7041  0.9869
17784SOL    HW254794   4.471   7.412  10.318 -0.0598 -0.4249 -0.2105
17785SOL     OW54795   5.786   6.729   7.308 -0.1310  0.1204  0.7723
17785SOL    HW154796   5.843   6.690   7.241 -1.0188 -0.3378  0.2552
17785SOL    HW254797   5.707   6.754   7.260 -0.8822 -0.4302  1.6846
17786SOL     OW54798   2.327   5.778   7.807  0.3235  0.2752 -0.1068
17786SOL    HW154799   2.384   5.701   7.804  1.0238  0.7948 -0.5517
17786SOL    HW254800   2.333   5.815   7.719 -2.0080 -0.5618 -0.6877
17787SOL     OW54801   4.115   0.539   8.360  0.1037 -0.4972  0.4126
17787SOL    HW154802   4.169   0.608   8.398 -0.1562 -0.1432  0.1486
17787SOL    HW254803   4.168   0.506   8.287 -0.0967 -0.0461  0.0592
17788SOL     OW54804   4.254   0.471   6.661 -0.1298  0.9428  0.3701
17788SOL    HW154805   4.346   0.499   6.669  0.0426  0.5465 -0.1863
17788SOL    HW254806   4.236   0.474   6.567  0.7386 -3.4111 -0.1526
17789SOL     OW54807   3.849   7.278   6.791 -0.2977 -0.1133 -0.0543
17789SOL    HW154808   3.883   7.322   6.869 -0.3335 -1.2374  0.6074
17789SOL    HW254809   3.905   7.201   6.781 -2.2092 -1.6878  0.7136
17790SOL     OW54810   2.741   1.498   7.631  0.1504  0.2511  0.7366
17790SOL    HW154811   2.758   1.547   7.711  3.3276 -1.0348  1.0153
17790SOL    HW254812   2.793   1.418   7.640 -2.2607 -1.6874 -1.0745
17791SOL     OW54813   6.031   0.497   8.222  0.5452  0.0564  0.5259
17791SOL    HW154814   6.078   0.530   8.298 -0.1945  2.3254  0.0894
17791SOL    HW254815   6.099   0.459   8.166  1.7467  2.1944  0.4358
17792SOL     OW54816   6.354   6.028  10.818  0.8527  0.0970 -0.3243
17792SOL    HW154817   6.330   6.119  10.803  2.8694  0.3230 -3.0338
17792SOL    HW254818   6.291   5.978  10.765 -0.4930 -0.2014  1.4555
17793SOL     OW54819   4.434   0.671   9.940  0.0243  0.3100  0.3350
17793SOL    HW154820   4.513   0.725   9.943  0.4707 -0.1281 -1.7437
17793SOL    HW254821   4.372   0.722   9.888 -0.2196 -0.3603 -0.0436
17794SOL     OW54822   4.513   0.047   8.422 -0.3837  0.7131 -0.2146
17794SOL    HW154823   4.466  -0.016   8.479 -1.4318  1.4076 -0.2779
17794SOL    HW254824   4.597   0.060   8.465 -0.1838 -0.6589 -0.1474
17795SOL     OW54825   2.722   0.860   7.115  0.1217  0.5793 -0.4076
17795SOL    HW154826   2.764   0.883   7.032  1.9610  1.1301  0.6047
17795SOL    HW254827   2.790   0.875   7.180 -1.1291 -0.2910  1.1593
17796SOL     OW54828   6.619   7.245   8.231 -0.2796  0.3493  0.3379
17796SOL    HW154829   6.661   7.239   8.317  1.3977 -0.6443 -0.4943
17796SOL    HW254830   6.675   7.306   8.182 -0.4625 -0.1004 -0.4432
17797SOL     OW54831   5.919   0.175   8.340  0.6526 -0.4081  0.3964
17797SOL    HW154832   5.873   0.188   8.423 -0.9494  1.4952 -0.7167
17797SOL    HW254833   5.959   0.259   8.320 -0.1878 -0.3836 -1.4280
17798SOL     OW54834   5.359   1.537   8.845 -0.0628  0.5816  0.2367
17798SOL    HW154835   5.401   1.607   8.795 -1.0156  0.1983 -1.1660
17798SOL    HW254836   5.385   1.456   8.801 -0.2357  0.1589  0.8895
17799SOL     OW54837   4.402   7.785   8.545  0.2490  0.2578 -0.4853
17799SOL    HW154838   4.318   7.748   8.572  1.5774 -1.0034  2.2597
17799SOL    HW254839   4.430   7.729   8.472 -0.9313  0.2840 -0.9898
17800SOL     OW54840   5.246   7.988   9.475 -0.3422 -0.2702 -0.4688
17800SOL    HW154841   5.232   7.956   9.386  1.6981  0.9580 -1.2833
17800SOL    HW254842   5.228   8.082   9.471  0.8267  0.0022  0.1258
17801SOL     OW54843   5.455   6.716  11.785  0.6505  0.2097  0.4840
17801SOL    HW154844   5.367   6.678  11.787  0.2250  1.1774  2.2134
17801SOL    HW254845   5.475   6.735  11.877  2.0449  1.4105 -0.0273
17802SOL     OW54846   5.510   0.119   9.407 -0.3457 -0.1747  0.0636
17802SOL    HW154847   5.455   0.111   9.485 -0.4269 -1.4590 -0.1075
17802SOL    HW254848   5.450   0.143   9.337 -0.2113  1.4020  0.4530
17803SOL     OW54849   4.545   0.156   8.965 -0.2510  0.8694  0.0539
17803SOL    HW154850   4.547   0.104   8.885 -1.1836 -0.2456  0.7140
17803SOL    HW254851   4.490   0.231   8.944  0.0135  0.9049 -0.5278
17804SOL     OW54852   4.337   7.547   8.112  0.1625  0.2307 -0.2803
17804SOL    HW154853   4.354   7.547   8.207  2.8215  1.2692 -0.6507
17804SOL    HW254854   4.324   7.640   8.090 -0.2433  0.0172 -0.9704
17805SOL     OW54855   4.519   7.728   9.460  0.2069 -0.9363  0.5442
17805SOL    HW154856   4.487   7.813   9.432 -0.5604 -1.2432  0.4751
17805SOL    HW254857   4.586   7.705   9.395  1.6907  0.3825  1.5392
17806SOL     OW54858   5.474   1.671   7.934 -0.2992 -0.1720 -0.1482
17806SOL    HW154859   5.381   1.682   7.911  0.0884 -0.0204 -1.7864
17806SOL    HW254860   5.519   1.736   7.880  0.4271  3.9296  4.6623
17807SOL     OW54861   4.192   5.661   9.259 -0.2127 -0.1490 -0.7398
17807SOL    HW154862   4.277   5.631   9.227 -0.0616 -0.8378  0.2486
17807SOL    HW254863   4.141   5.677   9.180  1.3094  1.8020 -1.4118
17808SOL     OW54864   2.406   1.498   7.016 -0.1761 -0.6679 -0.1338
17808SOL    HW154865   2.326   1.536   6.980  0.5426  0.7475 -0.3137
17808SOL    HW254866   2.459   1.573   7.041  1.0252 -1.5780  0.1674
17809SOL     OW54867   6.548   0.740   8.071  0.6105  0.2798  0.0469
17809SOL    HW154868   6.529   0.774   8.159  1.1501  0.6382  0.0299
17809SOL    HW254869   6.462   0.714   8.036  0.3305  0.5964  0.4904
17810SOL     OW54870   6.178   7.518   7.439 -0.2035  0.9197  0.1038
17810SOL    HW154871   6.158   7.572   7.362  0.1885 -1.1896 -1.5992
17810SOL    HW254872   6.243   7.568   7.488 -2.5218  3.6328  0.6906
17811SOL     OW54873   5.504   0.486   8.097  0.7414  0.5359  0.8209
17811SOL    HW154874   5.483   0.468   8.189 -0.0729 -0.3921  0.4705
17811SOL    HW254875   5.420   0.482   8.052  0.7979  3.0956  0.3195
17812SOL     OW54876   4.884   5.872   9.772  0.2510  0.3583  0.9320
17812SOL    HW154877   4.859   5.816   9.698  0.3904  1.6807 -0.1766
17812SOL    HW254878   4.979   5.877   9.768  0.2585  0.4450  1.1872
17813SOL     OW54879   3.743   0.718   6.500  0.7615 -0.0828 -0.1196
17813SOL    HW154880   3.736   0.729   6.405 -0.7104 -0.4009 -0.0710
17813SOL    HW254881   3.693   0.791   6.537 -0.7396 -1.2825  0.3454
17814SOL     OW54882   6.533   7.906   9.956  0.4561 -0.4294 -0.2078
17814SOL    HW154883   6.556   7.894   9.864 -0.0775  0.8082 -0.5306
17814SOL    HW254884   6.444   7.943   9.953  0.6315  0.1005  0.7749
17815SOL     OW54885   4.706   6.113   8.761  0.5198 -0.5154  0.5670
17815SOL    HW154886   4.665   6.038   8.719 -0.9526 -0.1975  1.3545
17815SOL    HW254887   4.640   6.145   8.823  1.1809  1.3128  0.3917
17816SOL     OW54888   5.265   0.028   8.279  0.1764 -0.9543 -0.8476
17816SOL    HW154889   5.227   0.111   8.311  0.6515 -0.4875 -1.4604
17816SOL    HW254890   5.265  -0.029   8.355  1.4722  0.1924  0.0649
17817SOL     OW54891   4.334   1.076  10.330  0.2818  0.3814 -0.3956
17817SOL    HW154892   4.323   1.171  10.326 -1.2255  0.2552  0.0614
17817SOL    HW254893   4.339   1.056  10.424  0.1977 -0.0255 -0.4725
17818SOL     OW54894   3.287   7.832   9.242 -0.2439  0.2328 -0.1375
17818SOL    HW154895   3.226   7.775   9.196  0.9460 -0.3994 -1.0059
17818SOL    HW254896   3.281   7.805   9.334 -1.3930  0.3207 -0.1794
17819SOL     OW54897   5.805   0.688  11.253 -0.3259 -0.4721  0.9271
17819SOL    HW154898   5.822   0.781  11.236  0.0892 -0.5767  0.7537
17819SOL    HW254899   5.883   0.643  11.220 -1.0732 -0.9996 -0.1849
17820SOL     OW54900   4.169   7.550  12.001  0.5830  0.2397 -0.1911
17820SOL    HW154901   4.156   7.639  11.968 -0.6181  0.1970  0.1285
17820SOL    HW254902   4.150   7.493  11.926 -0.4778  0.2055  0.0810
17821SOL     OW54903   4.766   0.751  11.889  0.4859  0.5538 -0.3359
17821SOL    HW154904   4.673   0.743  11.908  0.7493 -0.3687  0.6562
17821SOL    HW254905   4.807   0.679  11.937  1.8734  1.8260  0.4850
17822SOL     OW54906   4.877   7.997  12.150 -0.3448  0.4622  0.1475
17822SOL    HW154907   4.861   7.906  12.124  0.2637 -0.0603  1.5036
17822SOL    HW254908   4.972   8.001  12.163 -0.0283  1.9380 -2.1473
17823SOL     OW54909   5.475   1.482   9.794 -0.3273  0.4746  0.1602
17823SOL    HW154910   5.451   1.491   9.702  0.5529 -2.8596 -0.5244
17823SOL    HW254911   5.407   1.424   9.831  0.2352  0.4300  1.1729
17824SOL     OW54912   4.196   0.823  10.300  0.2890  0.4215 -0.4273
17824SOL    HW154913   4.228   0.909  10.272 -2.9003  1.7622 -0.3781
17824SOL    HW254914   4.144   0.792  10.226 -1.0722 -0.0326  0.6772
17825SOL     OW54915   5.239   2.958   9.251 -0.4061 -0.4719 -0.4673
17825SOL    HW154916   5.233   2.872   9.209 -0.9790  0.2732 -1.9741
17825SOL    HW254917   5.226   3.021   9.180  0.2992  0.8802  0.5488
17826SOL     OW54918   7.295   6.557   9.772  0.2233 -0.1968  0.2966
17826SOL    HW154919   7.339   6.634   9.809  0.0422 -0.4676  1.0978
17826SOL    HW254920   7.362   6.514   9.719 -0.2163  1.6273 -1.9378
17827SOL     OW54921   4.087   0.274  11.796 -0.0705  0.1282 -0.3210
17827SOL    HW154922   4.016   0.302  11.738  0.7936  1.2768 -0.8711
17827SOL    HW254923   4.113   0.354  11.843  0.2376 -0.4723  0.5609
17828SOL     OW54924   6.283   6.347  10.397  0.3645  0.5410 -0.6940
17828SOL    HW154925   6.291   6.259  10.434 -0.8433  0.8853  0.4737
17828SOL    HW254926   6.228   6.336  10.320 -1.2777  0.4706  0.4266
17829SOL     OW54927   3.953   7.429  10.686  0.0180 -0.0409 -0.4251
17829SOL    HW154928   4.042   7.417  10.654  0.3453 -2.0017  0.9772
17829SOL    HW254929   3.954   7.388  10.773 -2.2496 -0.1399 -0.3882
17830SOL     OW54930   3.805   1.754  10.298 -0.2014  0.0917  0.0483
17830SOL    HW154931   3.879   1.734  10.354 -0.4925 -1.2117 -0.0161
17830SOL    HW254932   3.837   1.824  10.240  1.0690 -0.6651 -0.1865
17831SOL     OW54933   4.413   5.028   0.302 -0.0063  0.6917 -0.4040
17831SOL    HW154934   4.335   4.975   0.319  1.4628 -1.2033  1.0232
17831SOL    HW254935   4.412   5.094   0.371  0.8135 -0.8186  1.1254
17832SOL     OW54936   5.460   1.428  11.054 -0.1383 -0.0443  0.1910
17832SOL    HW154937   5.516   1.393  10.985 -0.9422 -0.5476 -0.2318
17832SOL    HW254938   5.519   1.450  11.126  0.6018 -0.4302 -0.2953
17833SOL     OW54939   3.317   7.737   0.042  0.0112 -0.2744 -0.2655
17833SOL    HW154940   3.342   7.645   0.032  0.4444  0.0365 -2.9067
17833SOL    HW254941   3.380   7.785  -0.012  0.8607  1.8276  2.3771
17834SOL     OW54942   5.239   7.555  10.219  0.5727 -0.0669  0.1638
17834SOL    HW154943   5.268   7.479  10.169 -3.0896 -1.1246 -0.6239
17834SOL    HW254944   5.211   7.618  10.153 -1.7336 -0.3774  0.7684
17835SOL     OW54945   5.588   0.379   0.145  0.7675  0.2536  0.3137
17835SOL    HW154946   5.526   0.380   0.218  1.3014  0.1289  0.7793
17835SOL    HW254947   5.614   0.287   0.137  0.4710  0.2144 -0.2461
17836SOL     OW54948   3.270   1.786  11.030  0.4438  0.4892 -0.7131
17836SOL    HW154949   3.328   1.732  11.083  0.0170  2.0978  1.5714
17836SOL    HW254950   3.184   1.777  11.072 -0.0396  1.4102 -1.4492
17837SOL     OW54951   4.524   6.028   0.015 -0.4573  0.3876 -0.2468
17837SOL    HW154952   4.559   6.117   0.024 -0.2613  0.1785  1.4909
17837SOL    HW254953   4.598   5.971   0.034 -1.3239 -0.0805  2.0532
17838SOL     OW54954   4.474   0.143  11.767  0.0249  0.2450  0.4737
17838SOL    HW154955   4.460   0.204  11.695 -0.4730 -0.4512 -0.0340
17838SOL    HW254956   4.522   0.193  11.832 -2.6971  2.0640  1.2761
17839SOL     OW54957   6.896   7.203   9.694  0.0067 -0.4171  0.4754
17839SOL    HW154958   6.976   7.154   9.675  0.1439  0.4352 -1.3557
17839SOL    HW254959   6.841   7.189   9.617 -2.3017 -2.1845  2.2873
17840SOL     OW54960   5.834   7.850  10.097 -0.3936 -0.0911 -0.0086
17840SOL    HW154961   5.856   7.923  10.154 -0.7763  0.8688 -1.0483
17840SOL    HW254962   5.788   7.788  10.154  1.6156 -0.4436  1.3391
17841SOL     OW54963   5.694   1.768  10.535  0.2163  0.3072 -0.5835
17841SOL    HW154964   5.609   1.729  10.514  0.5620 -0.6732 -0.2278
17841SOL    HW254965   5.711   1.742  10.626  0.7042  0.8631 -0.5053
17842SOL     OW54966   5.205   1.770  11.248 -0.0119 -0.6495 -0.1876
17842SOL    HW154967   5.117   1.805  11.232  0.2560 -0.1133 -0.5367
17842SOL    HW254968   5.212   1.695  11.190 -0.4809 -1.1074  0.3383
17843SOL     OW54969   4.911   7.794  10.100 -0.1941  0.3803  0.0986
17843SOL    HW154970   4.872   7.785  10.012 -1.4409 -2.6428  0.8252
17843SOL    HW254971   4.836   7.791  10.159  0.7225  1.2025  1.3337
17844SOL     OW54972   6.119   5.158  10.215  1.0527 -0.0672 -0.4865
17844SOL    HW154973   6.083   5.162  10.127  0.6388 -0.3083 -0.3358
17844SOL    HW254974   6.116   5.065  10.238  1.0979  0.0001 -0.1943
17845SOL     OW54975   5.604   1.409  10.529 -0.0981  0.1613  0.3999
17845SOL    HW154976   5.652   1.435  10.450 -2.2961 -1.9289 -1.7971
17845SOL    HW254977   5.540   1.479  10.542 -0.1487  0.2040 -0.0708
17846SOL     OW54978   4.580   7.213   9.043 -0.2186  0.1519  0.3880
17846SOL    HW154979   4.595   7.126   9.006  0.8806  0.4197  0.1700
17846SOL    HW254980   4.667   7.251   9.052 -0.7134  1.5003 -0.1626
17847SOL     OW54981   4.853   7.675   0.229 -0.1941  0.1300  0.2998
17847SOL    HW154982   4.937   7.685   0.184  0.2730  1.5268  1.4132
17847SOL    HW254983   4.874   7.621   0.306 -0.4878 -0.1914  0.1551
17848SOL     OW54984   6.171   0.646  11.331  0.1976  0.3711  0.0680
17848SOL    HW154985   6.146   0.616  11.419 -1.3843  2.8134  0.5381
17848SOL    HW254986   6.139   0.577  11.273  0.8249 -1.0513  1.3413
17849SOL     OW54987   4.501   0.543   9.248 -0.5321 -0.0359 -0.2008
17849SOL    HW154988   4.484   0.628   9.290 -1.3045  0.4279 -1.4065
17849SOL    HW254989   4.570   0.560   9.184  1.0360 -0.8631  1.1951
17850SOL     OW54990   4.538   0.023  10.053  0.1067  0.6836 -0.6628
17850SOL    HW154991   4.625   0.005  10.089  0.0412  0.4208 -0.6321
17850SOL    HW254992   4.490  -0.059  10.065 -0.1422  0.8241 -0.6897
17851SOL     OW54993   4.452   6.128  12.143 -0.5259 -0.1821  0.2940
17851SOL    HW154994   4.446   6.217  12.108 -0.1207 -0.1916  0.1960
17851SOL    HW254995   4.528   6.131  12.201 -0.9312 -0.2821  0.8405
17852SOL     OW54996   5.970   0.140  10.455  0.3456 -0.0746 -0.4305
17852SOL    HW154997   6.001   0.226  10.427  0.4047 -0.1098 -0.4741
17852SOL    HW254998   5.973   0.143  10.551  1.0664 -0.2862 -0.4400
17853SOL     OW54999   4.731   2.762  11.604  0.3144  0.4539  0.3891
17853SOL    HW155000   4.771   2.844  11.577  0.3226  0.4416  0.3634
17853SOL    HW255001   4.688   2.729  11.524  0.8799  0.0964  0.2303
17854SOL     OW55002   3.632   0.996  11.579  0.3863 -0.4397 -0.3589
17854SOL    HW155003   3.594   1.020  11.495  0.0505 -1.5060 -0.5274
17854SOL    HW255004   3.588   1.053  11.643 -0.2216 -0.4471 -0.7647
17855SOL     OW55005   4.963   6.911  11.297 -0.1250  0.4661 -0.0646
17855SOL    HW155006   4.977   6.907  11.392  1.1029 -0.4663 -0.2702
17855SOL    HW255007   5.032   6.857  11.260 -1.0721  0.1590 -1.4622
17856SOL     OW55008   3.499   7.882  10.569 -0.2226 -0.4144 -0.2816
17856SOL    HW155009   3.446   7.846  10.641  1.2411 -2.1045  0.0201
17856SOL    HW255010   3.438   7.891  10.496 -1.1235 -1.5349  0.2939
17857SOL     OW55011   6.250   0.516   8.418 -0.4055  0.2614  0.1342
17857SOL    HW155012   6.232   0.426   8.444 -0.5470  0.2006 -0.1714
17857SOL    HW255013   6.346   0.522   8.418 -0.3994  0.1581  0.3123
17858SOL     OW55014   5.581   7.711   9.214  0.2719 -1.2902  0.1512
17858SOL    HW155015   5.669   7.691   9.181  0.6611 -0.3923  0.5922
17858SOL    HW255016   5.525   7.643   9.177  1.0589 -1.5559 -0.5862
17859SOL     OW55017   2.341   6.975   0.471 -0.2002 -0.8977 -0.8615
17859SOL    HW155018   2.279   6.998   0.402 -0.9330 -0.0904  0.0365
17859SOL    HW255019   2.289   6.977   0.552  0.9720 -0.3085 -0.0966
17860SOL     OW55020   5.277   7.938  10.238  0.0750 -0.0155 -0.2283
17860SOL    HW155021   5.239   8.017  10.198  1.3637  0.2177 -1.0312
17860SOL    HW255022   5.275   7.955  10.332 -0.3571  0.6381 -0.3501
17861SOL     OW55023   2.897   7.590  10.952  0.2717 -0.1250 -0.0864
17861SOL    HW155024   2.961   7.520  10.966  0.8886  0.6764  1.2995
17861SOL    HW255025   2.813   7.548  10.971  0.5998 -0.5937  0.3722
17862SOL     OW55026   3.530   2.953  10.222 -0.2972 -1.0634 -0.4788
17862SOL    HW155027   3.492   3.041  10.223 -0.5525 -1.1555  1.7469
17862SOL    HW255028   3.624   2.967  10.230 -0.4396 -0.9697  1.5609
17863SOL     OW55029   5.190   5.960  11.360 -0.8473  0.1868  0.2122
17863SOL    HW155030   5.103   5.988  11.332 -0.6518  0.0690 -0.5405
17863SOL    HW255031   5.204   6.005  11.444 -0.5474  2.4102 -0.9593
17864SOL     OW55032   3.242   7.881  11.209 -0.2973  0.3601 -0.0579
17864SOL    HW155033   3.166   7.830  11.182 -0.2306 -0.9404  1.9511
17864SOL    HW255034   3.308   7.865  11.142 -0.9621 -0.5636 -0.5067
17865SOL     OW55035   5.738   7.035  10.876 -0.5698 -0.1059 -0.2469
17865SOL    HW155036   5.730   6.975  10.950  1.2651 -0.1406 -0.0280
17865SOL    HW255037   5.672   7.005  10.814 -0.4906 -1.6238  0.3486
17866SOL     OW55038   6.099   7.868  11.526  0.0131 -0.5637  0.2775
17866SOL    HW155039   6.017   7.914  11.543 -0.5923 -1.5312 -0.0211
17866SOL    HW255040   6.080   7.809  11.454  0.4041 -2.3042  1.5508
17867SOL     OW55041   5.675   7.391  11.575  0.0163 -0.2046  0.2029
17867SOL    HW155042   5.764   7.371  11.545 -0.5972 -1.0922 -1.1276
17867SOL    HW255043   5.618   7.353  11.508 -1.4697 -1.8455  2.2697
17868SOL     OW55044   4.405   1.769   9.737  0.4619 -0.9375 -0.7659
17868SOL    HW155045   4.334   1.817   9.780 -0.3727 -2.4362 -0.4000
17868SOL    HW255046   4.484   1.799   9.783  0.6234  3.1354 -3.2301
17869SOL     OW55047   5.023   7.082  10.966  0.0366  0.5679 -0.2512
17869SOL    HW155048   5.002   7.105  11.056 -0.7898 -2.1136  0.3392
17869SOL    HW255049   5.024   7.165  10.919 -1.6823  1.8361  1.7801
17870SOL     OW55050   6.012   6.224  11.439  0.1996 -0.3894  0.5846
17870SOL    HW155051   6.082   6.160  11.449  1.1840  0.7514  1.1491
17870SOL    HW255052   5.949   6.201  11.507 -0.1959 -1.6576 -0.1770
17871SOL     OW55053   4.488   7.615  10.982  0.0856  0.5376 -0.7087
17871SOL    HW155054   4.494   7.578  10.894 -0.1531  1.5540 -1.1707
17871SOL    HW255055   4.537   7.554  11.037 -1.4699 -1.1977 -1.1782
17872SOL     OW55056   5.137   6.594  10.227 -0.4151  0.0385 -0.3571
17872SOL    HW155057   5.069   6.533  10.254 -1.7099  0.8165 -1.6985
17872SOL    HW255058   5.213   6.540  10.207 -0.7921 -0.8954  0.6829
17873SOL     OW55059   5.511   7.325   9.310 -0.3589 -0.1255 -0.1681
17873SOL    HW155060   5.447   7.266   9.350 -2.1315  1.9095  0.1638
17873SOL    HW255061   5.459   7.398   9.277  1.7730  1.4415 -0.2418
17874SOL     OW55062   3.384   7.380   0.863 -0.4782 -0.1394  0.3692
17874SOL    HW155063   3.344   7.465   0.845  0.1697  0.1243  0.1199
17874SOL    HW255064   3.365   7.328   0.785  0.3334  0.2505 -0.1137
17875SOL     OW55065   4.923   6.901  10.222  0.1388 -0.5123 -0.6039
17875SOL    HW155066   4.853   6.855  10.176  0.4712 -0.0910 -1.5615
17875SOL    HW255067   4.981   6.933  10.152  1.1526 -0.6359  0.1508
17876SOL     OW55068   5.793   0.615   8.788 -0.0433 -0.2562 -0.8590
17876SOL    HW155069   5.837   0.531   8.803 -2.0531 -1.4751 -1.3131
17876SOL    HW255070   5.723   0.594   8.725 -1.3511  1.4986 -0.0788
17877SOL     OW55071   5.130   6.834   0.295 -0.1783  0.3498  0.4059
17877SOL    HW155072   5.156   6.875   0.213 -2.1752  0.9750  0.0324
17877SOL    HW255073   5.037   6.816   0.284 -0.3752 -0.0031  2.3531
17878SOL     OW55074   4.986   0.071   0.055  0.8118 -0.0690 -0.0139
17878SOL    HW155075   5.037   0.152   0.059  0.8966 -0.1878  2.1143
17878SOL    HW255076   5.048   0.002   0.077  0.7037 -0.7366 -1.6595
17879SOL     OW55077   4.970   1.137   8.882  0.3466 -0.0677 -0.3161
17879SOL    HW155078   5.047   1.127   8.938  0.0083  0.9944  0.3711
17879SOL    HW255079   5.002   1.182   8.805  0.7753 -1.3550 -0.9212
17880SOL     OW55080   6.833   6.575  10.523 -0.5129  0.2600  0.3502
17880SOL    HW155081   6.772   6.616  10.584 -2.0999  0.6283 -1.4113
17880SOL    HW255082   6.802   6.484  10.516 -0.5740  0.3223 -0.1990
17881SOL     OW55083   3.960   7.513  11.148  0.1787 -0.1430 -0.1596
17881SOL    HW155084   3.998   7.528  11.235 -2.0078  3.0046  0.4032
17881SOL    HW255085   4.014   7.563  11.088  0.9753 -1.3570 -0.4996
17882SOL     OW55086   5.445   5.623   9.009 -0.2961  0.0572 -0.2546
17882SOL    HW155087   5.464   5.530   9.025 -0.2299  0.2862  1.1171
17882SOL    HW255088   5.524   5.669   9.037 -0.6817  0.5955 -0.0230
17883SOL     OW55089   4.727   1.313  10.151  0.5405 -0.4191  0.5639
17883SOL    HW155090   4.673   1.244  10.188 -1.1715  0.3785 -0.3073
17883SOL    HW255091   4.792   1.268  10.098 -1.7539 -1.4142 -1.6185
17884SOL     OW55092   5.039   7.271  10.559 -0.0393  0.4026  0.2047
17884SOL    HW155093   5.118   7.262  10.505 -0.4042 -0.7511 -0.1750
17884SOL    HW255094   4.975   7.215  10.516 -0.4275 -0.3265  1.6764
17885SOL     OW55095   3.934   0.218  12.230 -0.3422  0.4343  0.0291
17885SOL    HW155096   3.962   0.302  12.194 -0.2401 -0.6020 -2.4803
17885SOL    HW255097   3.852   0.199  12.185  0.2726 -1.3677 -0.3906
17886SOL     OW55098   2.485   6.929   0.761 -0.3133  0.5169  0.7551
17886SOL    HW155099   2.535   7.000   0.720  0.3176  0.3154  1.1536
17886SOL    HW255100   2.444   6.883   0.688  1.8175 -0.6276  0.2070
17887SOL     OW55101   4.804   0.776  10.671 -0.4518  0.0561 -0.4341
17887SOL    HW155102   4.852   0.854  10.699  1.1387 -0.7248 -0.9133
17887SOL    HW255103   4.717   0.809  10.648 -0.4567  1.3730  1.2763
17888SOL     OW55104   5.323   0.316  12.011  0.3770  0.3355 -0.4837
17888SOL    HW155105   5.327   0.241  12.071  0.9829  0.3429 -0.5061
17888SOL    HW255106   5.251   0.296  11.952 -1.5217  1.2282  1.4232
17889SOL     OW55107   4.139   0.548   0.345 -0.1998 -0.3938 -0.0042
17889SOL    HW155108   4.093   0.602   0.409  1.7795 -0.6629  1.7493
17889SOL    HW255109   4.070   0.499   0.300 -1.7360  0.7324  1.0454
17890SOL     OW55110   5.446   0.192  11.590 -0.4980  0.3451  0.1125
17890SOL    HW155111   5.372   0.239  11.552 -0.7384 -0.3994 -0.3725
17890SOL    HW255112   5.515   0.258  11.598 -0.5189  0.5869 -1.4076
17891SOL     OW55113   5.616   1.125  11.841 -0.1692  0.0551 -0.0817
17891SOL    HW155114   5.535   1.079  11.864  0.1279 -0.2391  0.3963
17891SOL    HW255115   5.621   1.118  11.746 -0.5607 -0.1758 -0.0890
17892SOL     OW55116   4.215   0.548   0.850 -0.2011  0.4004  0.0052
17892SOL    HW155117   4.166   0.572   0.771  0.9147  0.6551 -0.6341
17892SOL    HW255118   4.213   0.628   0.904  1.1588  1.0915 -0.9016
17893SOL     OW55119   5.322   2.346  10.502 -0.4879  0.0499 -0.0368
17893SOL    HW155120   5.301   2.433  10.468 -0.5678  0.0286 -0.0433
17893SOL    HW255121   5.322   2.357  10.597 -0.1989  0.1240 -0.0458
17894SOL     OW55122   6.154   0.112   1.422  0.4617  0.4278 -0.1165
17894SOL    HW155123   6.100   0.102   1.343  0.1098 -0.5647  0.2303
17894SOL    HW255124   6.112   0.183   1.470  0.0902  0.3857 -0.3661
17895SOL     OW55125   5.056   7.915  11.806 -0.0269  0.4464  0.0663
17895SOL    HW155126   5.101   7.883  11.727 -1.0245  2.4791 -1.4112
17895SOL    HW255127   5.059   8.010  11.798 -2.9985  0.6818  0.8337
17896SOL     OW55128   3.567   1.262  10.639  0.0206 -0.1930  0.7960
17896SOL    HW155129   3.569   1.167  10.655 -1.8824 -0.1875  1.2315
17896SOL    HW255130   3.508   1.297  10.706 -1.3908  0.9322 -0.9478
17897SOL     OW55131   4.331   7.153   0.188 -0.0110 -0.6033 -0.5283
17897SOL    HW155132   4.339   7.162   0.093 -2.1881 -0.8564 -0.7671
17897SOL    HW255133   4.337   7.242   0.221 -0.9258 -0.3414 -1.0555
17898SOL     OW55134   3.350   0.908   0.669 -0.7314  0.5038 -0.1980
17898SOL    HW155135   3.296   0.846   0.719  0.0753 -1.0855 -1.1982
17898SOL    HW255136   3.343   0.990   0.717  0.2334 -0.9689  2.7252
17899SOL     OW55137   3.932   7.692   0.041 -0.2013  0.0591 -0.7982
17899SOL    HW155138   3.913   7.692   0.135  1.2149 -0.0309 -0.4894
17899SOL    HW255139   3.915   7.601   0.014  0.1550 -0.1164 -0.4519
17900SOL     OW55140   4.173   0.389  12.419  0.3592 -0.5935  0.4301
17900SOL    HW155141   4.124   0.398  12.337  0.5447  2.1194  0.5301
17900SOL    HW255142   4.258   0.430  12.401  0.6560 -0.5679  1.8020
17901SOL     OW55143   4.237   6.351   0.543 -0.2470  0.2355 -0.1263
17901SOL    HW155144   4.308   6.327   0.603 -0.0613  0.6693 -0.1682
17901SOL    HW255145   4.282   6.392   0.469 -0.4160 -0.9853 -0.9233
17902SOL     OW55146   4.938   0.745   0.100  0.3357  0.6818 -0.1483
17902SOL    HW155147   4.988   0.826   0.105  0.0326  0.9275 -0.9901
17902SOL    HW255148   4.866   0.764   0.040 -0.0636 -0.0406  0.0817
17903SOL     OW55149   6.462   6.931  12.329 -0.1845 -0.0332 -0.7226
17903SOL    HW155150   6.385   6.874  12.333  0.3902 -0.7575  1.2936
17903SOL    HW255151   6.456   6.984  12.409  0.9673  0.5244 -0.9900
17904SOL     OW55152   7.038   6.398  11.701  0.5605 -0.3254  0.2727
17904SOL    HW155153   6.959   6.360  11.661  1.3701 -1.5086 -0.2613
17904SOL    HW255154   7.024   6.390  11.795 -0.3142  0.2733  0.2105
17905SOL     OW55155   4.538   1.165   0.684 -0.2067 -0.4097  0.2085
17905SOL    HW155156   4.563   1.160   0.592 -0.3010  1.2464  0.0697
17905SOL    HW255157   4.507   1.076   0.705 -0.1078 -0.8349 -1.3169
17906SOL     OW55158   3.473   0.224   0.455  0.0998  0.4963  0.0290
17906SOL    HW155159   3.501   0.235   0.545  0.3337  0.0787  0.0084
17906SOL    HW255160   3.426   0.305   0.434 -0.0939  0.5214  0.5717
17907SOL     OW55161   4.823   5.543  11.195 -0.2836  0.4279 -0.6386
17907SOL    HW155162   4.831   5.461  11.146  2.4563 -0.5267  1.1803
17907SOL    HW255163   4.788   5.605  11.131 -1.8123 -1.9327 -2.2713
17908SOL     OW55164   6.576   0.082  12.209  0.2890  0.0864 -0.5946
17908SOL    HW155165   6.526   0.151  12.167  0.8761  0.1937 -1.1246
17908SOL    HW255166   6.666   0.094  12.178  0.5708 -0.3525  0.0206
17909SOL     OW55167   4.385   7.554  10.274 -0.7153 -0.0566 -0.1939
17909SOL    HW155168   4.328   7.628  10.297 -1.9489 -0.8498 -0.6088
17909SOL    HW255169   4.335   7.505  10.209  0.5258 -0.6955 -0.6921
17910SOL     OW55170   6.529   6.296   0.618 -0.4907 -0.2331  0.2706
17910SOL    HW155171   6.533   6.204   0.592 -0.7118 -0.3115  0.5118
17910SOL    HW255172   6.454   6.332   0.570 -1.6675 -0.6768  1.7111
17911SOL     OW55173   6.626   1.453  11.571  0.1668  0.4468  0.0189
17911SOL    HW155174   6.554   1.497  11.525 -0.3174 -1.9601 -1.7271
17911SOL    HW255175   6.703   1.471  11.517  0.2299  0.2942  0.0584
17912SOL     OW55176   5.534   7.580  12.254  0.4889  0.3658 -0.1621
17912SOL    HW155177   5.457   7.634  12.273  0.2928 -0.2224  0.7792
17912SOL    HW255178   5.500   7.491  12.247  0.8846  0.2822 -1.2020
17913SOL     OW55179   3.056   0.239  11.815 -0.3391 -0.4818  0.6665
17913SOL    HW155180   3.023   0.240  11.905  0.6502 -0.0026  1.0495
17913SOL    HW255181   3.151   0.242  11.825 -0.2039 -0.7707 -0.3990
17914SOL     OW55182   4.083   6.502  12.126  0.0778  0.8395 -0.1963
17914SOL    HW155183   4.136   6.534  12.053 -0.7060 -0.3241 -1.3116
17914SOL    HW255184   4.001   6.472  12.086 -0.3844  0.1940  1.1569
17915SOL     OW55185   5.668   0.727  12.023 -0.4702 -0.2594  0.6698
17915SOL    HW155186   5.605   0.777  12.076  0.0895  0.6110  0.5239
17915SOL    HW255187   5.616   0.654  11.988 -1.1536 -0.1333  1.3771
17916SOL     OW55188   3.990   7.838  11.273  0.0282 -0.0154  0.5322
17916SOL    HW155189   4.045   7.781  11.218 -1.5141 -0.6325 -0.4582
17916SOL    HW255190   3.991   7.923  11.228  0.4431  0.0728  0.7063
17917SOL     OW55191   6.089   0.261   2.114 -0.0303 -0.2130  0.1096
17917SOL    HW155192   6.111   0.348   2.080  1.7069  0.1055  1.9135
17917SOL    HW255193   6.035   0.222   2.045 -1.3390  2.4676 -0.5190
17918SOL     OW55194   4.607   7.535   0.144 -0.0840 -0.2679  0.0976
17918SOL    HW155195   4.692   7.568   0.172 -0.1341 -1.5149  1.8973
17918SOL    HW255196   4.625   7.493   0.060  0.2929  2.6310 -1.3984
17919SOL     OW55197   1.739   6.232  12.155 -0.6477 -0.2617  0.4624
17919SOL    HW155198   1.791   6.205  12.231  0.1725  1.3355  0.4965
17919SOL    HW255199   1.799   6.283  12.101 -1.4131 -0.7883 -0.9471
17920SOL     OW55200   4.493   0.103   0.091  0.3795  0.2767 -0.5849
17920SOL    HW155201   4.462   0.176   0.144 -0.5122  0.0051 -0.7216
17920SOL    HW255202   4.415   0.050   0.075  1.2560 -1.5310  0.7756
17921SOL     OW55203   5.173   0.405   0.645 -0.3316 -0.0147  0.3618
17921SOL    HW155204   5.139   0.435   0.729  0.0451 -1.0000  0.8921
17921SOL    HW255205   5.253   0.357   0.667 -0.9552 -1.4938 -0.3820
17922SOL     OW55206   3.311   0.472  11.411  0.2420 -0.2097  0.0862
17922SOL    HW155207   3.365   0.505  11.339 -0.4845  0.7969 -0.0137
17922SOL    HW255208   3.221   0.492  11.385 -0.1844 -1.6922  0.3380
17923SOL     OW55209   4.704   6.476   0.336  0.7082  0.2113 -0.3226
17923SOL    HW155210   4.776   6.434   0.383  0.8198  0.1979 -0.5037
17923SOL    HW255211   4.724   6.461   0.243  0.0111 -0.5759 -0.3651
17924SOL     OW55212   0.028   0.139   1.052 -0.5506 -0.5657 -0.0952
17924SOL    HW155213   0.123   0.146   1.059 -0.7923  1.4154  1.9904
17924SOL    HW255214   0.012   0.132   0.958  1.6313 -0.9545 -0.4929
17925SOL     OW55215   4.837   6.137  11.740  0.3123  0.3272  0.1795
17925SOL    HW155216   4.895   6.118  11.814  0.8114 -0.8673 -0.4858
17925SOL    HW255217   4.895   6.154  11.667 -0.0781 -2.3931 -0.8776
17926SOL     OW55218   7.119   7.685   0.164 -0.2941  0.1804 -0.0086
17926SOL    HW155219   7.103   7.671   0.071  0.7659  0.6132 -0.2672
17926SOL    HW255220   7.195   7.631   0.184 -0.2191  0.4639  0.4897
17927SOL     OW55221   5.229   7.134  11.549 -0.1255 -0.1242 -0.3015
17927SOL    HW155222   5.174   7.069  11.593  1.2134 -0.7606  0.5235
17927SOL    HW255223   5.291   7.082  11.498  0.5547  0.5146 -0.1413
17928SOL     OW55224   0.174   6.905  11.934  0.2713  0.4201  0.1371
17928SOL    HW155225   0.224   6.824  11.941  1.0554  0.7913 -0.8742
17928SOL    HW255226   0.209   6.948  11.856 -0.8143  1.2649  0.0911
17929SOL     OW55227   5.064   7.066   1.229 -0.2149  0.2527 -0.3502
17929SOL    HW155228   4.982   7.098   1.267 -0.1023  0.9385 -0.6876
17929SOL    HW255229   5.048   6.972   1.216 -1.5801  0.6548 -1.9914
17930SOL     OW55230   4.406   0.041  12.305 -0.6333  0.0291  0.2651
17930SOL    HW155231   4.338   0.070  12.366  1.0121  0.9237  1.7378
17930SOL    HW255232   4.381   0.079  12.221 -3.1618 -1.5528  0.1962
17931SOL     OW55233   5.735   6.578  11.128  0.0934 -0.5060 -0.0127
17931SOL    HW155234   5.791   6.574  11.205  1.6654 -0.1225 -1.1044
17931SOL    HW255235   5.695   6.492  11.123  1.3592 -1.1218  0.2177
17932SOL     OW55236   5.330   0.355  10.656  0.1880  0.3745  0.0875
17932SOL    HW155237   5.397   0.385  10.594  1.1736 -0.5175  0.7044
17932SOL    HW255238   5.374   0.354  10.741 -0.9518  0.9021  0.6995
17933SOL     OW55239   6.091   1.089   0.949  0.3383  0.1466  0.3062
17933SOL    HW155240   6.051   1.111   1.033  0.5023 -1.4074  0.8255
17933SOL    HW255241   6.183   1.074   0.969  0.1818 -1.2490  0.0562
17934SOL     OW55242   5.717   0.345  11.956 -0.1051  0.1685 -0.5457
17934SOL    HW155243   5.772   0.361  12.033 -0.2710  0.9375 -0.5732
17934SOL    HW255244   5.653   0.417  11.958 -2.2826 -1.6864  0.5352
17935SOL     OW55245   4.467   7.345   1.767 -0.2528 -1.0245 -0.0479
17935SOL    HW155246   4.537   7.282   1.753  0.2113 -0.2749 -1.3075
17935SOL    HW255247   4.510   7.431   1.759 -1.1503 -0.5570  0.0159
17936SOL     OW55248   7.627   1.086   1.159 -0.0782  0.6237  0.5684
17936SOL    HW155249   7.653   1.044   1.241 -1.7230  0.4523  1.0337
17936SOL    HW255250   7.625   1.015   1.095 -0.6835  0.3821  0.8448
17937SOL     OW55251   0.215   0.724   1.098 -0.3202 -0.1750  0.4331
17937SOL    HW155252   0.204   0.785   1.170  4.1762  0.6238  0.7415
17937SOL    HW255253   0.284   0.763   1.043 -0.5959 -2.7335 -1.9735
17938SOL     OW55254   7.562   0.547   0.233  0.3249  0.5819  0.3589
17938SOL    HW155255   7.602   0.586   0.155  1.5443 -1.6244 -0.1998
17938SOL    HW255256   7.478   0.514   0.202  0.5890  0.1562  0.0747
17939SOL     OW55257   6.816   7.845   0.481  0.2069  0.4364  0.2354
17939SOL    HW155258   6.849   7.909   0.418 -1.4230  1.2950  0.2081
17939SOL    HW255259   6.821   7.761   0.436 -2.7072  1.2401 -1.8650
17940SOL     OW55260   4.993   7.724   3.152 -0.0173 -0.2297 -0.3732
17940SOL    HW155261   4.992   7.816   3.181 -0.3561 -0.2889 -0.1969
17940SOL    HW255262   5.079   7.692   3.181 -0.3470 -0.2861  0.5698
17941SOL     OW55263   5.265   0.354   2.102 -0.2289  0.1532 -1.0864
17941SOL    HW155264   5.245   0.262   2.119  0.0827  0.1137 -0.9345
17941SOL    HW255265   5.354   0.366   2.134 -0.6309  0.7602 -0.1548
17942SOL     OW55266   6.009   2.398  11.973  0.4266 -0.9200  1.0075
17942SOL    HW155267   6.048   2.322  11.930 -1.1171 -0.6239 -1.0564
17942SOL    HW255268   5.915   2.386  11.963  0.1307  1.6484 -0.1660
17943SOL     OW55269   4.155   1.654   3.451  0.0938 -0.2394 -0.6647
17943SOL    HW155270   4.191   1.578   3.407  0.3688 -0.2954 -0.3486
17943SOL    HW255271   4.081   1.620   3.501  0.0663 -0.2557 -0.7159
17944SOL     OW55272   5.860   0.438   1.065 -0.0094  0.5114  0.9390
17944SOL    HW155273   5.902   0.431   1.150  1.2110 -1.2395  0.2546
17944SOL    HW255274   5.900   0.369   1.012 -1.2815  1.0351 -0.8312
17945SOL     OW55275   7.047   1.348   0.777  0.7970  0.0183 -0.3279
17945SOL    HW155276   7.056   1.299   0.696 -0.7354  0.4893 -0.8293
17945SOL    HW255277   7.111   1.418   0.770  0.1844  0.4999 -1.5039
17946SOL     OW55278   5.225   7.820   2.299  0.5570  0.1547 -0.1114
17946SOL    HW155279   5.285   7.746   2.308 -0.2421 -0.5691 -0.4999
17946SOL    HW255280   5.148   7.782   2.254 -0.3837  0.9320  0.8051
17947SOL     OW55281   6.161   7.506   0.334  0.4250  0.1712 -0.3484
17947SOL    HW155282   6.168   7.529   0.427 -0.4990 -1.0210  0.0459
17947SOL    HW255283   6.244   7.463   0.314  1.2399  1.7432 -0.5027
17948SOL     OW55284   5.721   0.595   0.211  0.1078 -0.0827 -0.0581
17948SOL    HW155285   5.810   0.565   0.228  0.4843  0.5725 -0.7926
17948SOL    HW255286   5.678   0.520   0.171  0.8548  0.1158 -1.2972
17949SOL     OW55287   5.925   7.639   2.527  0.2338 -0.7273 -0.3573
17949SOL    HW155288   5.839   7.653   2.565 -0.5034 -1.6930 -1.5929
17949SOL    HW255289   5.978   7.605   2.599  0.2151  1.7650  0.9637
17950SOL     OW55290   5.232   7.758   0.876 -0.1670  0.2211 -0.0251
17950SOL    HW155291   5.157   7.818   0.876 -1.7320 -1.4742  2.8034
17950SOL    HW255292   5.275   7.774   0.960  1.6554 -0.0778 -0.8539
17951SOL     OW55293   4.497   0.322   2.590 -0.1212 -0.5575 -0.1205
17951SOL    HW155294   4.422   0.263   2.595 -0.6061  0.1027  0.9564
17951SOL    HW255295   4.490   0.363   2.504 -0.9583 -0.5798 -0.0759
17952SOL     OW55296   6.526   0.377  12.101 -0.2257  0.0236  0.3629
17952SOL    HW155297   6.621   0.388  12.106 -0.2392 -0.2681  1.5475
17952SOL    HW255298   6.504   0.402  12.011  0.6707  2.2655  0.6968
17953SOL     OW55299   6.514   0.500   0.251 -0.5945  0.5191  0.0475
17953SOL    HW155300   6.462   0.420   0.257 -1.9180  1.2085 -1.5253
17953SOL    HW255301   6.455   0.569   0.280 -0.4446  1.2741 -1.3747
17954SOL     OW55302   1.233   7.131   3.484  0.1601 -0.6789 -0.1912
17954SOL    HW155303   1.292   7.205   3.471  0.7107 -0.3790  3.0935
17954SOL    HW255304   1.288   7.053   3.476  1.2795 -0.3961  3.0849
17955SOL     OW55305   5.558   7.201   0.225 -0.6974  0.0251  0.2828
17955SOL    HW155306   5.543   7.252   0.304  0.2128  0.5574  0.1238
17955SOL    HW255307   5.472   7.166   0.202 -1.3229  1.4153  0.4422
17956SOL     OW55308   0.672   1.523  12.002  0.1461 -0.4378 -0.0782
17956SOL    HW155309   0.741   1.569  12.049  0.6294  0.4692 -1.5978
17956SOL    HW255310   0.651   1.448  12.057 -0.6562  1.5300  2.4819
17957SOL     OW55311   4.837   1.355   0.535  0.1705 -0.1395  0.0682
17957SOL    HW155312   4.916   1.382   0.582  0.3384  1.6876 -1.1322
17957SOL    HW255313   4.853   1.383   0.445 -1.2895 -0.9875 -0.4785
17958SOL     OW55314   0.522   2.051  12.495  0.2358 -0.0014 -0.2799
17958SOL    HW155315   0.518   2.122  12.431  2.4431  1.3179  0.8912
17958SOL    HW255316   0.614   2.047  12.521 -0.4689 -0.7159  2.5025
17959SOL     OW55317   6.951   1.044  11.395  0.5223 -0.4564 -0.2484
17959SOL    HW155318   6.923   1.080  11.311 -0.4515 -2.0556 -0.6516
17959SOL    HW255319   7.047   1.039  11.388  0.4098 -1.3631 -1.6404
17960SOL     OW55320   5.332   0.908   2.620 -0.5687 -0.3591  0.2409
17960SOL    HW155321   5.359   0.866   2.701 -2.8402 -0.0943  1.2050
17960SOL    HW255322   5.376   0.993   2.620  0.9403 -1.1172  0.2155
17961SOL     OW55323   7.000   1.971   0.542  0.0529 -0.2970  0.0342
17961SOL    HW155324   6.932   2.038   0.553 -1.5295 -1.9782  1.1456
17961SOL    HW255325   6.969   1.916   0.471  0.4135 -0.9097  0.3407
17962SOL     OW55326   6.860   0.062   1.084  0.1011 -0.5100  0.2941
17962SOL    HW155327   6.841   0.067   1.178 -3.4724  1.0227 -0.3551
17962SOL    HW255328   6.897   0.148   1.062  0.6538 -0.7624  0.2096
17963SOL     OW55329   7.036   0.994  12.208 -0.2938 -0.4210  0.1770
17963SOL    HW155330   7.130   1.006  12.194 -0.0395 -2.0549  0.2529
17963SOL    HW255331   6.994   1.044  12.138  0.4813  2.6000  1.6792
17964SOL     OW55332   6.538   2.015   2.406  0.4288 -0.1825  0.1314
17964SOL    HW155333   6.468   1.986   2.464  1.6334 -2.1031  0.7279
17964SOL    HW255334   6.553   1.940   2.347  2.2360 -0.0171  0.3097
17965SOL     OW55335   7.956   0.928  10.709  0.2631 -0.5652  0.0343
17965SOL    HW155336   7.871   0.970  10.723 -0.0139 -1.1806  0.2664
17965SOL    HW255337   7.955   0.902  10.617 -0.1949 -1.4011  0.2660
17966SOL     OW55338   0.105   1.274   0.709  0.1352  0.0873  0.2044
17966SOL    HW155339   0.163   1.282   0.633 -2.2917  0.6232 -1.6856
17966SOL    HW255340   0.048   1.350   0.705 -0.8578 -0.5106  1.8829
17967SOL     OW55341   5.215   7.781   1.270 -0.0076  0.7644  0.6082
17967SOL    HW155342   5.214   7.861   1.218 -0.4157  0.1059 -0.4424
17967SOL    HW255343   5.288   7.730   1.235  1.8276  1.6454  2.8779
17968SOL     OW55344   6.519   2.215   1.589  0.1895 -0.1409  0.4045
17968SOL    HW155345   6.552   2.144   1.534  0.1768  0.2388 -0.1016
17968SOL    HW255346   6.441   2.247   1.544  1.8298  2.1643 -1.0138
17969SOL     OW55347   6.698   2.472  11.014  0.2773  0.2285 -0.5632
17969SOL    HW155348   6.645   2.521  10.952 -0.5263  0.1691  0.0655
17969SOL    HW255349   6.637   2.410  11.055  0.1730  1.9654  2.1225
17970SOL     OW55350   5.178   1.495  12.049  0.2051  0.0733  0.2790
17970SOL    HW155351   5.101   1.490  11.992  0.7942  1.1053 -0.6510
17970SOL    HW255352   5.223   1.412  12.036 -0.5690 -0.4023  0.5740
17971SOL     OW55353   5.610   0.704   0.916  0.1561 -0.2908  0.1376
17971SOL    HW155354   5.546   0.682   0.849 -0.1662 -1.5270  0.8151
17971SOL    HW255355   5.558   0.732   0.991  0.4887  0.5114  0.0748
17972SOL     OW55356   6.949   0.673   1.340  0.4318  0.3953 -0.0141
17972SOL    HW155357   6.892   0.707   1.271  2.5728 -1.0083 -2.6943
17972SOL    HW255358   6.982   0.750   1.385 -1.7670  1.3129  0.1345
17973SOL     OW55359   6.576   7.995   0.986 -0.0598  0.1342  0.0693
17973SOL    HW155360   6.569   8.066   0.922  0.5486  1.5587  1.4807
17973SOL    HW255361   6.669   7.993   1.010 -0.5002  0.8062  2.0696
17974SOL     OW55362   5.641   0.636   2.462 -0.5770  0.5855  0.6527
17974SOL    HW155363   5.625   0.626   2.368 -1.0477  2.0085  0.5549
17974SOL    HW255364   5.562   0.601   2.503 -1.6008  2.4633  0.3807
17975SOL     OW55365   6.341   0.187   1.162  0.0325  0.0143  0.0459
17975SOL    HW155366   6.289   0.266   1.176  0.0009  0.0147 -0.0758
17975SOL    HW255367   6.402   0.210   1.092  0.6009  0.2061  0.5883
17976SOL     OW55368   6.338   0.775   4.384  0.5669 -0.3836 -0.1515
17976SOL    HW155369   6.262   0.721   4.403  0.3532  0.1319  0.5034
17976SOL    HW255370   6.360   0.815   4.468  1.2664 -0.1522 -0.4384
17977SOL     OW55371   7.173   0.694   0.679  0.0691 -0.4292 -0.4653
17977SOL    HW155372   7.121   0.617   0.702 -0.5888  0.3254  0.6753
17977SOL    HW255373   7.179   0.692   0.584 -0.2966 -1.6502 -0.4780
17978SOL     OW55374   6.401   7.183  11.632 -0.0100 -0.3932 -0.5480
17978SOL    HW155375   6.476   7.131  11.660  1.5455  0.9305 -1.9623
17978SOL    HW255376   6.358   7.210  11.713  1.6524 -0.3643  0.3717
17979SOL     OW55377   4.931   1.548   1.234 -0.0854 -0.4980 -0.0181
17979SOL    HW155378   5.023   1.554   1.210  0.2597  0.7561  1.4405
17979SOL    HW255379   4.915   1.455   1.249  1.1141 -0.6588  0.3056
17980SOL     OW55380   0.345   2.392  11.339  0.2397 -0.0362  0.0563
17980SOL    HW155381   0.359   2.486  11.329  0.0057 -0.1955 -2.3000
17980SOL    HW255382   0.255   2.386  11.372 -0.7969  0.5911 -2.3728
17981SOL     OW55383   6.936   7.879  12.348 -0.7573  0.0431  0.1343
17981SOL    HW155384   6.850   7.843  12.367 -0.0874 -1.8355 -0.1272
17981SOL    HW255385   6.948   7.863  12.254 -0.2768  0.6150  0.0970
17982SOL     OW55386   7.152   2.080  11.909  0.4413  0.3826 -0.3577
17982SOL    HW155387   7.210   2.067  11.984  0.1294 -0.7822 -0.2904
17982SOL    HW255388   7.205   2.061  11.832  0.8491  1.8901 -0.4703
17983SOL     OW55389   5.016   0.681  12.205 -0.3195 -0.1323  0.2946
17983SOL    HW155390   4.947   0.634  12.158  0.0536 -0.5625  0.1652
17983SOL    HW255391   4.982   0.770  12.214  0.1932  0.3803 -2.1011
17984SOL     OW55392   6.638   2.445  12.204 -0.3538 -0.3703  0.0395
17984SOL    HW155393   6.666   2.402  12.123 -3.0771 -0.5148 -0.9584
17984SOL    HW255394   6.689   2.402  12.273  0.2095 -2.0773 -1.3550
17985SOL     OW55395   6.812   1.567   3.745 -1.0252 -0.0769 -0.5477
17985SOL    HW155396   6.739   1.577   3.684 -0.2162  3.1086 -1.1905
17985SOL    HW255397   6.801   1.640   3.806  0.5790 -0.6900  0.5316
17986SOL     OW55398   7.948   7.814   1.575  0.3118 -0.1384  0.0114
17986SOL    HW155399   8.039   7.791   1.555  1.3185 -0.0208  3.7601
17986SOL    HW255400   7.912   7.736   1.616 -1.1169  0.0394 -0.8507
17987SOL     OW55401   6.887   2.999   1.710  0.4738 -0.0937  0.0849
17987SOL    HW155402   6.837   2.941   1.768 -0.8940 -0.9027 -1.8149
17987SOL    HW255403   6.850   3.086   1.727  2.2339  0.2938  2.6179
17988SOL     OW55404   6.904   0.761  12.215 -0.7109 -0.5577 -0.3332
17988SOL    HW155405   6.952   0.843  12.213 -2.0131  0.3264  1.2531
17988SOL    HW255406   6.955   0.705  12.273 -0.7077 -0.2394 -0.0239
17989SOL     OW55407   5.455   0.499   2.637  0.2180 -0.8036  0.3164
17989SOL    HW155408   5.374   0.452   2.617  1.3750 -2.7911  0.0387
17989SOL    HW255409   5.514   0.432   2.671  1.6759  0.6466  0.7928
17990SOL     OW55410   4.596   0.661   3.269 -0.0144 -0.4900  0.1017
17990SOL    HW155411   4.572   0.606   3.344 -0.1582 -0.2204  0.2582
17990SOL    HW255412   4.512   0.687   3.231  0.0650 -0.8998 -0.3580
17991SOL     OW55413   5.525   2.485  12.342  0.3566  0.3506 -0.7557
17991SOL    HW155414   5.456   2.430  12.303 -1.0876  1.8694 -0.4505
17991SOL    HW255415   5.594   2.423  12.366 -1.1629 -1.3426 -0.4982
17992SOL     OW55416   5.588   0.692   3.358 -0.1620  0.2917  0.0414
17992SOL    HW155417   5.537   0.613   3.376 -0.9251  0.7090 -0.2107
17992SOL    HW255418   5.537   0.762   3.398  0.3505  0.6893 -0.0034
17993SOL     OW55419   5.641   1.607   0.693 -0.0586 -0.2834  0.5702
17993SOL    HW155420   5.557   1.613   0.648 -0.0917  1.6969  0.8160
17993SOL    HW255421   5.705   1.636   0.629 -0.1759  3.2407  1.8188
17994SOL     OW55422   5.550   1.277  12.049 -0.3525  0.0809  0.4023
17994SOL    HW155423   5.455   1.268  12.038 -0.2396  0.4880 -1.1676
17994SOL    HW255424   5.587   1.224  11.979  0.5295  1.7545 -0.4524
17995SOL     OW55425   7.959   1.709   3.727  0.1002  0.2090 -0.7529
17995SOL    HW155426   7.983   1.629   3.681  1.0906  1.0071 -1.6596
17995SOL    HW255427   7.863   1.708   3.728  0.0987 -1.0583 -0.5994
17996SOL     OW55428   4.145   0.801   0.959  0.3956 -0.1783 -0.1049
17996SOL    HW155429   4.099   0.841   1.033  0.1540 -0.1236 -0.2843
17996SOL    HW255430   4.114   0.849   0.882  0.5887 -0.2855 -0.2507
17997SOL     OW55431   0.032   2.779  12.199 -0.0917 -0.0625 -0.1481
17997SOL    HW155432   0.040   2.810  12.289  1.2579  0.6626 -0.4913
17997SOL    HW255433   0.017   2.684  12.207 -0.8559  0.1306  0.8401
17998SOL     OW55434   4.867   0.137   0.528 -0.6622 -0.4475 -1.2462
17998SOL    HW155435   4.831   0.093   0.606 -2.6001 -0.7290 -2.2390
17998SOL    HW255436   4.947   0.088   0.508  2.0550  1.8643  2.6167
17999SOL     OW55437   7.653   0.124   2.392 -0.3006 -0.4045  0.3386
17999SOL    HW155438   7.605   0.172   2.325  0.6159  0.7661  0.4837
17999SOL    HW255439   7.719   0.186   2.424 -0.6338 -0.9522  2.2422
18000SOL     OW55440   5.457   0.336  11.289 -0.3175  0.2244 -0.7094
18000SOL    HW155441   5.367   0.345  11.321 -0.5061  0.0798 -1.1873
18000SOL    HW255442   5.489   0.426  11.283 -0.9105  0.3843 -1.8594
18001SOL     OW55443   6.014   0.294   0.891  0.2444  0.1895  0.2781
18001SOL    HW155444   6.078   0.364   0.906  0.0615  0.4889 -0.3122
18001SOL    HW255445   6.054   0.238   0.825  0.0637  0.1652  0.1894
18002SOL     OW55446   6.106   2.004   2.671 -0.0633 -0.2413  0.3685
18002SOL    HW155447   6.015   2.021   2.648 -0.3986 -1.1154  0.9541
18002SOL    HW255448   6.155   2.015   2.590 -0.5811  0.9464  0.2067
18003SOL     OW55449   5.551   0.315   1.170 -0.1662  0.4605  0.5284
18003SOL    HW155450   5.555   0.248   1.238 -0.7003  1.2248  1.3353
18003SOL    HW255451   5.602   0.388   1.205 -0.5424  0.9011  0.1721
18004SOL     OW55452   6.888   7.067   0.326  0.1233 -0.9962 -0.0475
18004SOL    HW155453   6.872   6.981   0.288 -1.3771 -0.7398 -0.0515
18004SOL    HW255454   6.826   7.125   0.281  0.9142  0.0354  0.1578
18005SOL     OW55455   5.128   7.907   2.016  0.2242 -0.0658  0.1017
18005SOL    HW155456   5.069   7.852   2.069  0.0639 -0.3969 -0.4158
18005SOL    HW255457   5.080   7.988   2.002  0.7928  0.5733  1.5911
18006SOL     OW55458   7.683   0.509  11.818  0.1571  0.4035  0.2177
18006SOL    HW155459   7.604   0.488  11.769 -1.3265  1.5222  1.9775
18006SOL    HW255460   7.672   0.601  11.842  0.9311  0.0097  2.3010
18007SOL     OW55461   5.331   1.348   1.175 -0.4478 -0.2848  0.2843
18007SOL    HW155462   5.324   1.360   1.080 -2.9452 -0.2181  0.4165
18007SOL    HW255463   5.345   1.254   1.187  1.7506 -0.0733 -0.1498
18008SOL     OW55464   7.111   6.874  11.525  0.1794 -0.2113 -0.1013
18008SOL    HW155465   7.087   6.946  11.468  1.7853  0.7047  0.2980
18008SOL    HW255466   7.176   6.825  11.475 -0.6099 -1.1747 -0.2114
18009SOL     OW55467   7.187   0.704   0.362 -0.4626 -0.3352  0.6881
18009SOL    HW155468   7.222   0.789   0.388 -2.5895  0.3298  1.6218
18009SOL    HW255469   7.264   0.647   0.355  0.9725  1.5510  0.3873
18010SOL     OW55470   6.264   0.897  11.430 -0.3259 -0.3557  0.2987
18010SOL    HW155471   6.216   0.831  11.379  0.1558 -0.2129 -0.3544
18010SOL    HW255472   6.336   0.849  11.469 -0.0365 -0.2468 -0.0905
18011SOL     OW55473   5.413   1.052   0.331  0.1574  0.1753 -0.1068
18011SOL    HW155474   5.358   1.130   0.329 -0.2336 -0.0998 -0.3883
18011SOL    HW255475   5.458   1.051   0.247 -0.0651 -0.0552 -0.2263
18012SOL     OW55476   5.871   7.954   2.576 -0.1632 -0.2278  0.2874
18012SOL    HW155477   5.866   7.934   2.482 -1.0450 -1.4014  0.5552
18012SOL    HW255478   5.836   7.876   2.618  0.9196 -0.0111  1.6379
18013SOL     OW55479   6.061   1.689   0.640  0.2539 -0.1189 -0.1990
18013SOL    HW155480   6.122   1.753   0.677 -0.4069  1.2310 -1.3502
18013SOL    HW255481   5.993   1.681   0.706 -0.9172  2.2748 -0.9762
18014SOL     OW55482   0.462   0.508   0.713  0.1955  0.2114 -0.6794
18014SOL    HW155483   0.383   0.482   0.760 -0.2946  0.9291 -1.0898
18014SOL    HW255484   0.531   0.506   0.780 -0.1126 -0.6437 -0.3711
18015SOL     OW55485   5.100   0.780   1.362 -0.0064 -0.2392 -0.0574
18015SOL    HW155486   5.182   0.829   1.374  0.7272 -0.9729 -1.7586
18015SOL    HW255487   5.049   0.799   1.441  0.9965  1.7945  0.1703
18016SOL     OW55488   5.760   0.997   1.220 -0.2831 -0.1690  0.1473
18016SOL    HW155489   5.717   1.037   1.144 -2.3582 -0.3425  1.1432
18016SOL    HW255490   5.746   1.060   1.291  1.4698 -0.0869  0.4586
18017SOL     OW55491   7.634   0.530   1.797  0.0386  0.0385  0.2413
18017SOL    HW155492   7.712   0.544   1.851  1.5121 -0.9093 -1.5300
18017SOL    HW255493   7.621   0.613   1.752  1.2037 -0.3341 -0.8514
18018SOL     OW55494   5.256   6.956   0.508  0.7644  0.0740  0.0227
18018SOL    HW155495   5.248   6.900   0.586  0.2199  0.6998  0.4219
18018SOL    HW255496   5.197   6.916   0.444  0.9602 -0.2484  0.0396
18019SOL     OW55497   7.267   0.081   0.212 -0.0555  0.1147 -0.0833
18019SOL    HW155498   7.275   0.134   0.133 -0.2973 -0.3610 -0.4296
18019SOL    HW255499   7.340   0.110   0.268  1.0721 -0.6125 -1.1081
18020SOL     OW55500   7.467   0.074  11.611 -0.3979  0.7461  0.1226
18020SOL    HW155501   7.561   0.060  11.610 -0.8357 -4.3145 -2.5735
18020SOL    HW255502   7.451   0.138  11.541  0.9624 -0.0398 -0.9512
18021SOL     OW55503   7.866   1.090   2.181 -0.0390  0.2202  0.0575
18021SOL    HW155504   7.938   1.148   2.206  0.7591 -0.6530 -0.1584
18021SOL    HW255505   7.883   1.008   2.227 -0.7790 -0.0744 -0.1704
18022SOL     OW55506   6.660   0.063   0.166  0.5247 -0.4702  0.3812
18022SOL    HW155507   6.588   0.023   0.215  0.7583  1.2636  2.2933
18022SOL    HW255508   6.617   0.111   0.095 -0.1127 -0.4324  0.7828
18023SOL     OW55509   4.935   3.718  12.052  0.1467  0.1015 -0.2373
18023SOL    HW155510   4.886   3.726  12.133  1.6877  1.8084  0.6101
18023SOL    HW255511   5.011   3.665  12.075 -0.4074 -1.1142 -1.1079
18024SOL     OW55512   7.400   7.377   0.423 -0.8728 -0.0534  0.2873
18024SOL    HW155513   7.382   7.417   0.508  0.0731 -1.0957  1.0093
18024SOL    HW255514   7.360   7.437   0.359 -0.2055  1.6098  1.3569
18025SOL     OW55515   5.202   0.495  11.155  0.4675  0.3639  0.3055
18025SOL    HW155516   5.108   0.481  11.146  0.1517  1.4397  1.5705
18025SOL    HW255517   5.234   0.505  11.065 -0.3491 -1.4972 -0.2298
18026SOL     OW55518   1.634   0.713   2.414 -0.1270  0.3583 -0.0737
18026SOL    HW155519   1.630   0.627   2.373  1.4972  0.4922 -0.5816
18026SOL    HW255520   1.719   0.748   2.389 -1.1263  2.5374 -0.6990
18027SOL     OW55521   7.293   3.449   1.140  0.0435 -0.2976  0.4464
18027SOL    HW155522   7.352   3.520   1.115 -0.1368  0.2537  1.5124
18027SOL    HW255523   7.263   3.412   1.057 -0.9642  1.7907 -0.2032
18028SOL     OW55524   6.387   0.896   0.770 -0.4983  0.1528 -0.4695
18028SOL    HW155525   6.450   0.823   0.769 -1.0712 -0.3524 -1.2778
18028SOL    HW255526   6.331   0.879   0.846  0.6485  0.8977  0.5774
18029SOL     OW55527   6.582   7.292  12.155 -0.0589  0.3912  0.2609
18029SOL    HW155528   6.532   7.218  12.119  1.3868 -0.6720  0.3500
18029SOL    HW255529   6.614   7.338  12.078  0.2941  0.0408  0.1967
18030SOL     OW55530   6.959   0.067   0.280  0.6671 -0.0223  0.3532
18030SOL    HW155531   6.922   0.093   0.196  0.8948  2.5075  0.9721
18030SOL    HW255532   7.048   0.104   0.279 -0.1208  2.1830  2.6016
18031SOL     OW55533   4.016   1.013   2.607  0.3262  0.2794  0.0517
18031SOL    HW155534   4.088   1.029   2.668 -0.2654  1.8812  0.3666
18031SOL    HW255535   3.968   0.940   2.646  1.2894 -0.2591  0.2666
18032SOL     OW55536   6.044   1.350   1.905  0.0600  0.1878 -0.0328
18032SOL    HW155537   6.066   1.314   1.991  0.3687  0.0622 -0.1628
18032SOL    HW255538   5.950   1.333   1.895  0.0722 -0.0072  0.1760
18033SOL     OW55539   6.640   0.292  11.778 -0.4173 -0.1305 -0.0874
18033SOL    HW155540   6.655   0.203  11.746  1.4949  0.0340  0.2250
18033SOL    HW255541   6.711   0.344  11.739 -2.2738  1.5984 -1.4160
18034SOL     OW55542   7.040   0.341   0.451 -0.0608  0.5180 -0.6079
18034SOL    HW155543   6.976   0.273   0.469  0.4328  0.1773 -0.1025
18034SOL    HW255544   7.080   0.359   0.536  0.4214  0.8159 -0.8922
18035SOL     OW55545   5.977   7.491  12.449 -0.1342  0.3738 -0.1421
18035SOL    HW155546   6.052   7.524  12.399 -0.2335 -0.2258 -0.7069
18035SOL    HW255547   5.900   7.529  12.407 -0.3367 -1.4920 -1.6071
18036SOL     OW55548   5.569   1.958   0.575 -0.1348  0.1718  0.1722
18036SOL    HW155549   5.659   1.977   0.603  0.4062 -0.3555 -1.1441
18036SOL    HW255550   5.526   2.044   0.575 -0.0587  0.2479  2.1694
18037SOL     OW55551   5.079   7.664   1.463 -0.0563 -0.0044  0.4037
18037SOL    HW155552   5.033   7.719   1.526  2.6420  2.5043  0.3828
18037SOL    HW255553   5.107   7.725   1.394  1.8227 -1.6384 -0.3829
18038SOL     OW55554   4.946   1.505   0.326 -0.6979  1.4786 -0.0528
18038SOL    HW155555   4.909   1.474   0.243 -0.0817  2.2383 -0.6219
18038SOL    HW255556   4.878   1.563   0.362 -1.8977 -0.5194  1.0634
18039SOL     OW55557   7.583   1.522  11.688 -0.5046 -0.1391  0.4398
18039SOL    HW155558   7.660   1.471  11.661  0.5227  1.5158  0.1405
18039SOL    HW255559   7.576   1.592  11.623 -1.5397  0.4510  1.1606
18040SOL     OW55560   5.476   0.807   1.564  0.2201  0.1000  0.1707
18040SOL    HW155561   5.559   0.850   1.588  0.0098  0.2840  0.5841
18040SOL    HW255562   5.434   0.789   1.648  0.5195 -1.3598  0.0281
18041SOL     OW55563   6.235   1.221   1.737 -0.1749  0.5950 -0.4163
18041SOL    HW155564   6.162   1.202   1.678  0.9289  0.1241 -1.6612
18041SOL    HW255565   6.193   1.233   1.823 -1.3930 -3.1550 -0.3341
18042SOL     OW55566   6.638   2.241  11.990  0.2920 -0.3055  0.2534
18042SOL    HW155567   6.675   2.179  11.927  1.0360  2.2547 -2.0188
18042SOL    HW255568   6.564   2.194  12.029 -0.6824 -1.8624 -3.0961
18043SOL     OW55569   6.349   1.546   1.637  0.6193 -0.2169 -0.3309
18043SOL    HW155570   6.272   1.513   1.591  1.0971 -0.6203 -0.8445
18043SOL    HW255571   6.423   1.527   1.579  0.9716  1.2972 -0.4087
18044SOL     OW55572   5.952   2.114   1.445 -0.5357 -0.2303 -0.0527
18044SOL    HW155573   5.911   2.029   1.425  0.0548 -0.5173 -0.0628
18044SOL    HW255574   6.037   2.091   1.482 -0.6808  0.3407  0.6677
18045SOL     OW55575   1.221   7.413   3.290 -0.6243 -0.1355  0.4771
18045SOL    HW155576   1.263   7.485   3.244  1.2013 -1.2553  0.2705
18045SOL    HW255577   1.199   7.350   3.221 -1.7503 -0.0192  0.7059
18046SOL     OW55578   5.701   2.577   3.777 -0.3795 -0.9543  0.3223
18046SOL    HW155579   5.717   2.535   3.861 -0.3330 -1.0896  0.2456
18046SOL    HW255580   5.708   2.671   3.795 -0.6491 -0.9728  0.5279
18047SOL     OW55581   6.893   7.546   0.239  0.8570 -0.3520  0.2710
18047SOL    HW155582   6.980   7.584   0.227  0.3682  0.5101 -0.6588
18047SOL    HW255583   6.849   7.558   0.155  0.1397 -1.6104  0.4294
18048SOL     OW55584   7.373   0.665   2.038 -0.4777 -0.3387 -0.0464
18048SOL    HW155585   7.461   0.648   2.005 -1.1184 -1.6682 -1.2052
18048SOL    HW255586   7.385   0.725   2.111  1.5153 -1.6358  0.7687
18049SOL     OW55587   6.630   1.349   0.365 -0.0024 -0.4812  0.1311
18049SOL    HW155588   6.678   1.380   0.443  0.9391  0.1184 -0.6641
18049SOL    HW255589   6.685   1.279   0.329 -0.1362 -0.3570 -0.3173
18050SOL     OW55590   5.224   0.748  12.403 -0.1870  0.6796  0.1220
18050SOL    HW155591   5.157   0.680  12.409 -1.6566  1.8368 -1.8394
18050SOL    HW255592   5.301   0.703  12.371 -0.2931 -0.5005  1.4158
18051SOL     OW55593   5.417   2.195   0.592 -0.0824  0.0213 -0.1356
18051SOL    HW155594   5.355   2.171   0.661  0.0078  0.5584  0.1371
18051SOL    HW255595   5.426   2.290   0.599  0.4494  0.0017 -0.4474
18052SOL     OW55596   6.306   0.848   1.054 -0.2758  0.2446 -0.7456
18052SOL    HW155597   6.339   0.938   1.060  0.0784  0.0698  0.1426
18052SOL    HW255598   6.373   0.795   1.098 -0.6169 -0.4208 -1.0089
18053SOL     OW55599   7.544   0.845   0.250  0.1630 -0.3342  0.3461
18053SOL    HW155600   7.605   0.774   0.231 -1.2863 -1.8328  1.0509
18053SOL    HW255601   7.475   0.835   0.184  0.2824  0.8751  0.0168
18054SOL     OW55602   5.510   0.298   0.660  0.1749 -0.9953 -0.3536
18054SOL    HW155603   5.525   0.204   0.649  2.5614 -0.8021  0.6585
18054SOL    HW255604   5.527   0.314   0.753 -0.8579  0.3528 -0.3721
18055SOL     OW55605   7.448   0.455  11.194 -0.2814  0.3176 -0.3168
18055SOL    HW155606   7.458   0.419  11.283  0.3773 -1.4385 -1.0426
18055SOL    HW255607   7.417   0.380  11.142  1.0600  0.8284 -1.9215
18056SOL     OW55608   7.355   7.093   0.828  0.4569  0.6027 -0.1997
18056SOL    HW155609   7.269   7.134   0.821  0.3174  0.2980 -0.2651
18056SOL    HW255610   7.391   7.100   0.739  0.1271 -0.0890 -0.3904
18057SOL     OW55611   7.046   0.889   1.534 -0.1266 -0.0785  0.2596
18057SOL    HW155612   7.064   0.826   1.604 -1.4852 -1.6513 -0.7329
18057SOL    HW255613   7.125   0.942   1.529  0.1196 -0.0910  2.7708
18058SOL     OW55614   0.534   0.087   0.169  0.3748  0.5024  0.0619
18058SOL    HW155615   0.490   0.114   0.249  1.4085  0.6175  0.6038
18058SOL    HW255616   0.463   0.058   0.111 -0.3600  0.2140  1.0879
18059SOL     OW55617   5.090   0.130   2.281  0.1364 -0.5113 -0.3298
18059SOL    HW155618   5.078   0.045   2.325 -0.9324 -0.3482 -0.2652
18059SOL    HW255619   5.062   0.194   2.346  0.3865 -0.1483 -0.5815
18060SOL     OW55620   7.307   0.822  12.120  0.1777  0.1376 -0.1753
18060SOL    HW155621   7.342   0.864  12.199 -0.9950  0.9909 -0.0757
18060SOL    HW255622   7.283   0.734  12.148  2.1825 -0.4878 -0.2559
18061SOL     OW55623   7.571   1.535  12.327  0.1129 -0.5896  0.2525
18061SOL    HW155624   7.478   1.518  12.318  0.1286 -1.5462  1.5678
18061SOL    HW255625   7.614   1.461  12.283  0.3556  1.0719 -2.5869
18062SOL     OW55626   6.708   2.381   0.445  0.0082  0.4691 -0.1112
18062SOL    HW155627   6.620   2.353   0.422  0.1959 -1.0147  0.8320
18062SOL    HW255628   6.723   2.345   0.533  1.5004  0.7949 -0.1918
18063SOL     OW55629   5.747   7.765  12.318 -0.3551  0.0639 -0.2402
18063SOL    HW155630   5.659   7.730  12.309 -0.4473  0.1781  0.1864
18063SOL    HW255631   5.794   7.732  12.242  0.0848 -2.5071  1.0696
18064SOL     OW55632   0.252   1.263   0.489  0.0251 -0.3713  0.1293
18064SOL    HW155633   0.253   1.311   0.406  0.2693  0.6711  0.7160
18064SOL    HW255634   0.315   1.192   0.476  1.2326  0.6901 -0.0787
18065SOL     OW55635   5.381   0.711   2.812 -0.2341 -0.6443  0.3964
18065SOL    HW155636   5.348   0.644   2.871  0.1774 -0.4127  0.8941
18065SOL    HW255637   5.419   0.662   2.739 -1.5793 -0.9163 -0.1473
18066SOL     OW55638   7.090   0.688   1.774 -0.0937  0.2830  0.2312
18066SOL    HW155639   7.165   0.639   1.740  1.2197  2.1396  0.3015
18066SOL    HW255640   7.053   0.631   1.841 -0.1014 -1.5865 -1.2808
18067SOL     OW55641   7.171   1.819   2.011  0.2113 -0.0467  0.4111
18067SOL    HW155642   7.223   1.881   1.959  1.3151 -0.0844  1.4226
18067SOL    HW255643   7.175   1.737   1.963 -1.4673  0.6838 -1.0713
18068SOL     OW55644   4.778   0.196  11.990  0.2500 -0.3309  0.0314
18068SOL    HW155645   4.800   0.162  11.903 -1.0519  0.4550 -0.6422
18068SOL    HW255646   4.812   0.131  12.051  1.2434 -0.8686 -1.0650
18069SOL     OW55647   6.699   2.061   0.378  0.6418 -0.0114  0.1701
18069SOL    HW155648   6.671   2.115   0.304  1.9874  2.2126  1.1576
18069SOL    HW255649   6.735   1.982   0.338 -0.1722  0.4028 -1.4453
18070SOL     OW55650   6.641   2.060   1.367  0.3448 -0.1749 -0.2027
18070SOL    HW155651   6.613   1.970   1.386 -1.0447  0.5086  1.1445
18070SOL    HW255652   6.616   2.073   1.275 -0.3641 -0.8458 -0.1184
18071SOL     OW55653   4.560   7.640   1.967 -0.5283 -0.1204 -0.5092
18071SOL    HW155654   4.604   7.693   2.034 -0.0733  0.6567 -1.3919
18071SOL    HW255655   4.508   7.703   1.918 -0.8613 -0.6822 -0.8856
18072SOL     OW55656   6.067   1.128   1.570  0.2892  0.0921 -0.1754
18072SOL    HW155657   6.095   1.078   1.493  0.4941 -0.4155  0.2210
18072SOL    HW255658   5.983   1.166   1.546  0.5054  0.2027 -0.7643
18073SOL     OW55659   6.646   0.973  12.382 -0.0752 -0.0922 -0.6629
18073SOL    HW155660   6.624   0.886  12.349 -1.1956  0.2063 -0.7603
18073SOL    HW255661   6.732   0.992  12.347 -0.7071 -0.3059 -2.3984
18074SOL     OW55662   7.590   0.963   0.828 -0.1097 -0.2311 -0.1460
18074SOL    HW155663   7.615   0.940   0.739 -1.2028  0.7961 -0.7518
18074SOL    HW255664   7.513   0.909   0.846  1.5308 -2.2625  1.1385
18075SOL     OW55665   7.273   2.082   3.604 -0.6087 -0.1023  0.2361
18075SOL    HW155666   7.279   2.131   3.522 -0.7588 -1.1768 -0.4429
18075SOL    HW255667   7.181   2.089   3.630 -0.1966  1.8164  1.3522
18076SOL     OW55668   5.376   1.259   3.220 -0.1863  0.1295 -0.1011
18076SOL    HW155669   5.410   1.188   3.165  0.7226  1.7705 -1.7814
18076SOL    HW255670   5.288   1.276   3.186 -0.7108 -0.6801  0.8169
18077SOL     OW55671   5.518   2.541   2.392  0.0364 -0.2609 -0.2029
18077SOL    HW155672   5.550   2.620   2.435 -1.3354  0.8756 -1.1834
18077SOL    HW255673   5.540   2.552   2.300 -0.6383 -0.7792 -0.4383
18078SOL     OW55674   6.630   1.713  11.805 -0.6068 -0.2368 -0.6504
18078SOL    HW155675   6.540   1.746  11.814  0.3819  2.4088  0.3963
18078SOL    HW255676   6.669   1.769  11.738  1.2076  0.9879  1.3097
18079SOL     OW55677   6.756   0.506   4.581 -0.2796  0.4457  0.7356
18079SOL    HW155678   6.699   0.573   4.619 -2.0441 -0.6647  0.1324
18079SOL    HW255679   6.746   0.430   4.640  1.4122  0.5504  1.2095
18080SOL     OW55680   5.122   0.520   2.884 -0.1062  0.1616 -0.2591
18080SOL    HW155681   5.148   0.450   2.944  2.7185  1.1859 -0.1239
18080SOL    HW255682   5.053   0.567   2.931 -1.4879 -1.9750 -0.0095
18081SOL     OW55683   0.579   0.472   1.090  0.0823 -0.4932 -0.4882
18081SOL    HW155684   0.635   0.475   1.013  1.6779  0.2483  0.6488
18081SOL    HW255685   0.493   0.499   1.058  0.5599 -0.7357 -2.0899
18082SOL     OW55686   0.205   1.473   1.110 -0.1663  0.0256 -0.2564
18082SOL    HW155687   0.123   1.454   1.155  0.1524 -2.1604 -0.4818
18082SOL    HW255688   0.180   1.486   1.019 -0.1617 -2.6891 -0.7437
18083SOL     OW55689   5.921   2.534   1.777 -0.1494 -0.5548 -0.3786
18083SOL    HW155690   5.960   2.570   1.857 -0.7009  0.5862 -0.5995
18083SOL    HW255691   5.952   2.443   1.774  1.7428  0.0383 -0.0859
18084SOL     OW55692   7.459   2.181  12.461  0.2759  0.4042  0.2122
18084SOL    HW155693   7.552   2.204  12.457  0.3447  0.4434  1.4792
18084SOL    HW255694   7.457   2.088  12.437  0.8465  0.0200  1.5360
18085SOL     OW55695   7.761   2.938   1.209 -0.0804  0.3239 -0.0605
18085SOL    HW155696   7.713   3.016   1.238  1.0059  0.1615  2.4041
18085SOL    HW255697   7.711   2.865   1.244  1.4127  0.1323  1.8688
18086SOL     OW55698   7.879   0.590   0.997 -0.5909 -0.5644 -0.2400
18086SOL    HW155699   7.898   0.682   0.978 -1.4577 -0.3594 -0.1325
18086SOL    HW255700   7.884   0.583   1.092 -1.5695 -0.3793 -0.1626
18087SOL     OW55701   6.927   1.370  11.997  0.3434  0.2306  0.4577
18087SOL    HW155702   6.903   1.459  11.970  0.6116  0.3755  0.6958
18087SOL    HW255703   7.022   1.369  11.995  0.3396 -0.0699  0.4006
18088SOL     OW55704   6.780   2.341  12.406 -0.0569 -0.2898  0.2766
18088SOL    HW155705   6.845   2.295  12.352  0.8796 -0.4307  1.4883
18088SOL    HW255706   6.801   2.314  12.495  0.1971  2.1092  0.9888
18089SOL     OW55707   7.782   1.284   0.983  0.5435 -0.5840  0.5244
18089SOL    HW155708   7.719   1.277   0.912  0.5465 -0.4361  0.5071
18089SOL    HW255709   7.737   1.247   1.059 -0.5388  1.8068  1.1498
18090SOL     OW55710   5.483   0.105   1.321 -0.1738 -0.0899 -0.2692
18090SOL    HW155711   5.406   0.050   1.333 -0.7678  0.4824 -1.3833
18090SOL    HW255712   5.519   0.115   1.409 -0.9841 -0.9009  0.1699
18091SOL     OW55713   6.334   1.194   0.804  0.0326 -0.2115  0.1662
18091SOL    HW155714   6.246   1.227   0.785  0.5708  0.4677 -1.2462
18091SOL    HW255715   6.334   1.105   0.767 -0.1144 -0.2711  0.3097
18092SOL     OW55716   6.133   1.418  12.260 -0.4702  0.0436 -0.0092
18092SOL    HW155717   6.092   1.463  12.333  1.3932  0.0743  1.0868
18092SOL    HW255718   6.151   1.488  12.196  0.5736  0.5764  0.8202
18093SOL     OW55719   0.316   0.592   0.445 -0.1724 -0.1566  0.5618
18093SOL    HW155720   0.316   0.508   0.490 -0.6063 -0.8563 -0.6928
18093SOL    HW255721   0.310   0.657   0.516 -0.6024 -1.1967  1.5159
18094SOL     OW55722   7.635   7.485  12.374  0.2960  0.3936  0.2127
18094SOL    HW155723   7.712   7.502  12.429  0.0793 -0.0410  0.6533
18094SOL    HW255724   7.618   7.392  12.384 -0.9104  0.6651  0.9438
18095SOL     OW55725   5.621   7.597   0.426  0.1161 -0.5936 -0.5698
18095SOL    HW155726   5.681   7.526   0.447  1.4227 -0.0784 -2.2601
18095SOL    HW255727   5.542   7.553   0.393  0.2793 -1.2559 -0.1012
18096SOL     OW55728   6.305   3.083  12.477 -0.7974  0.5012  0.7636
18096SOL    HW155729   6.375   3.028  12.443 -0.9528  0.0632  1.1448
18096SOL    HW255730   6.241   3.088  12.406 -0.3106  1.0429  0.3500
18097SOL     OW55731   7.501   2.098   1.256 -0.5507 -0.7581  0.7576
18097SOL    HW155732   7.521   2.191   1.245 -1.6359 -0.6282 -0.3270
18097SOL    HW255733   7.563   2.054   1.198 -0.2841 -0.6905  0.9883
18098SOL     OW55734   6.977   0.888   0.306  0.0418 -0.3823 -0.0779
18098SOL    HW155735   6.960   0.794   0.313  0.5868 -0.6236 -1.6118
18098SOL    HW255736   7.050   0.895   0.245  0.4310  1.0215  0.4992
18099SOL     OW55737   6.786   2.087  10.907 -0.3152  0.0976 -0.9081
18099SOL    HW155738   6.773   2.114  10.998  2.4233  0.8772 -0.6757
18099SOL    HW255739   6.756   2.161  10.855 -1.0357  0.0103 -0.6282
18100SOL     OW55740   4.742   1.430   1.019 -0.1524 -0.2815  0.7569
18100SOL    HW155741   4.710   1.445   0.930 -1.4896 -2.7825  0.7229
18100SOL    HW255742   4.824   1.479   1.024  0.2822 -0.5822 -2.0378
18101SOL     OW55743   7.804   0.716   0.404 -0.0325 -0.1291  0.4458
18101SOL    HW155744   7.884   0.664   0.404 -0.0177 -0.1396 -1.0140
18101SOL    HW255745   7.733   0.652   0.400 -0.0758 -0.0834  0.4693
18102SOL     OW55746   6.125   0.309  11.960  0.0399 -0.1801  0.1484
18102SOL    HW155747   6.044   0.263  11.983 -1.2509  2.1099  0.4645
18102SOL    HW255748   6.193   0.242  11.966 -1.5532 -1.7561  1.7188
18103SOL     OW55749   6.570   0.397  12.381  0.0200  0.0964  0.5718
18103SOL    HW155750   6.509   0.423  12.312  0.3076  0.8137  0.5833
18103SOL    HW255751   6.582   0.475  12.434 -0.5494 -0.5709  1.7121
18104SOL     OW55752   7.634   0.491   0.478  0.2212 -0.0477 -1.0062
18104SOL    HW155753   7.594   0.510   0.393 -0.1722  0.2547 -0.7556
18104SOL    HW255754   7.563   0.503   0.541  0.8633  1.2022 -0.4847
18105SOL     OW55755   0.085   6.671   0.439  0.0263  0.0685 -0.1678
18105SOL    HW155756   0.088   6.576   0.455  2.2107  0.4127  2.2283
18105SOL    HW255757   0.063   6.709   0.524 -0.9030  1.7467 -1.1053
18106SOL     OW55758   7.116   1.590   1.850  0.4985  0.0909 -0.3702
18106SOL    HW155759   7.093   1.656   1.785  0.8911  0.6537  0.0574
18106SOL    HW255760   7.040   1.531   1.852 -0.0663  0.8068 -0.3877
18107SOL     OW55761   4.779   2.269   2.836  0.1830  0.4851 -0.1328
18107SOL    HW155762   4.802   2.348   2.787  0.9111 -0.2712 -1.0545
18107SOL    HW255763   4.750   2.207   2.769  0.9685 -0.5010  0.3980
18108SOL     OW55764   6.491   0.768   2.263  0.4144  0.1635 -0.0798
18108SOL    HW155765   6.424   0.833   2.247  0.8034  0.1721 -1.8926
18108SOL    HW255766   6.493   0.758   2.358 -1.0528  1.2849  0.0995
18109SOL     OW55767   6.806   0.754   0.068 -1.0161 -0.1100 -0.1086
18109SOL    HW155768   6.712   0.749   0.052 -1.2334 -0.1273  1.0805
18109SOL    HW255769   6.824   0.679   0.125 -0.0584 -0.7941 -1.2506
18110SOL     OW55770   6.260   6.333  12.015 -0.2942  0.3313  0.1015
18110SOL    HW155771   6.348   6.366  11.995  0.1928  0.9572  2.7833
18110SOL    HW255772   6.201   6.393  11.970  0.6449  1.1714 -0.0565
18111SOL     OW55773   5.615   0.985  11.159  0.3753 -0.2140  0.2107
18111SOL    HW155774   5.553   1.057  11.151  0.2680 -0.2128  0.9631
18111SOL    HW255775   5.670   1.009  11.234  0.3905 -0.8646  0.4145
18112SOL     OW55776   7.019   7.096  11.344  0.3246 -0.1333  0.3404
18112SOL    HW155777   6.970   7.083  11.263  2.2908 -0.0023 -0.9169
18112SOL    HW255778   6.979   7.173  11.384 -1.8843 -1.2681  0.5058
18113SOL     OW55779   6.368   2.953  10.827  0.0725 -0.2466  0.1483
18113SOL    HW155780   6.370   2.903  10.746 -3.4167 -0.1571 -0.1801
18113SOL    HW255781   6.451   2.999  10.831  1.0386 -1.6251 -2.4611
18114SOL     OW55782   6.659   7.591   1.894  0.0444  0.1117 -0.2719
18114SOL    HW155783   6.602   7.660   1.928  0.5080  0.1602  0.4291
18114SOL    HW255784   6.636   7.585   1.801 -0.5831  0.6321 -0.1602
18115SOL     OW55785   4.427   1.395   2.640 -0.5831  0.2820 -0.0327
18115SOL    HW155786   4.472   1.411   2.723  0.0229 -1.1921 -0.0370
18115SOL    HW255787   4.493   1.355   2.584 -1.3399  0.0327 -0.7759
18116SOL     OW55788   4.593   0.666   2.546  0.2721 -0.0235  0.1581
18116SOL    HW155789   4.608   0.750   2.589  0.7459 -1.1036  2.2149
18116SOL    HW255790   4.672   0.653   2.493  0.4967  0.5196  0.3437
18117SOL     OW55791   6.391   1.539   2.375  0.3044  0.0826 -0.3245
18117SOL    HW155792   6.346   1.544   2.291  1.9370  0.6662 -1.1962
18117SOL    HW255793   6.341   1.474   2.425 -2.4377  1.8011 -0.6144
18118SOL     OW55794   7.532   1.693  11.478  0.1301  0.1158  0.3721
18118SOL    HW155795   7.439   1.714  11.474 -0.3134 -1.7510 -0.1304
18118SOL    HW255796   7.574   1.760  11.426 -1.1258  0.0750 -0.7430
18119SOL     OW55797   6.651   7.584   0.465  0.4471 -0.1399  0.5591
18119SOL    HW155798   6.630   7.641   0.391  0.3436 -3.6049 -2.4129
18119SOL    HW255799   6.644   7.640   0.542  0.7951  3.8518 -2.0077
18120SOL     OW55800   6.390   7.865  12.273  0.0028  0.1152  0.3244
18120SOL    HW155801   6.457   7.933  12.279  0.1351  0.0743 -0.5491
18120SOL    HW255802   6.372   7.857  12.179  0.0844 -1.1419  0.3953
18121SOL     OW55803   0.311   0.773   2.793 -0.0268  0.3931  0.2447
18121SOL    HW155804   0.385   0.724   2.830  0.1393 -0.0040 -0.5784
18121SOL    HW255805   0.342   0.801   2.707 -0.7971  0.3144 -0.0669
18122SOL     OW55806   7.847   0.949  12.078 -0.7146  0.6384  0.3059
18122SOL    HW155807   7.814   0.981  12.162  1.6906  0.8012  1.2787
18122SOL    HW255808   7.865   1.028  12.027 -0.2348  0.6283  0.4546
18123SOL     OW55809   5.861   2.111   1.160  0.0840  0.2006  0.5930
18123SOL    HW155810   5.819   2.193   1.136 -2.1111 -0.6161  1.3899
18123SOL    HW255811   5.928   2.136   1.224  1.0612  1.5675 -0.8910
18124SOL     OW55812   7.198   1.215   0.268  0.6149 -0.4086  1.0247
18124SOL    HW155813   7.276   1.160   0.275  1.2564  0.4844  1.0497
18124SOL    HW255814   7.201   1.251   0.179  0.3427 -0.2135  1.0910
18125SOL     OW55815   7.352   0.961  11.896 -0.1122 -0.2611  0.4666
18125SOL    HW155816   7.425   1.017  11.923  0.4858 -0.6713 -0.2722
18125SOL    HW255817   7.328   0.914  11.976  0.2584  0.0692  0.7782
18126SOL     OW55818   6.057   2.443   0.012  0.0401  0.3811 -0.2495
18126SOL    HW155819   6.035   2.437  -0.081 -0.5294 -0.4357 -0.0753
18126SOL    HW255820   6.116   2.369   0.028 -2.2715 -1.4301  0.6509
18127SOL     OW55821   5.589   1.412   0.860 -0.4436 -0.6914  0.1699
18127SOL    HW155822   5.610   1.494   0.816 -0.9482 -0.0516  1.0950
18127SOL    HW255823   5.543   1.360   0.793  1.1984 -0.8452 -0.8832
18128SOL     OW55824   5.919   0.235   2.591 -0.5531  0.4781 -0.0242
18128SOL    HW155825   5.911   0.141   2.610  0.0384  0.3409 -0.4056
18128SOL    HW255826   5.999   0.261   2.636 -0.9497  0.8994  0.4388
18129SOL     OW55827   7.435   7.525   1.163 -0.3123 -0.0855  0.2857
18129SOL    HW155828   7.349   7.504   1.199 -0.3059 -2.2497 -0.7676
18129SOL    HW255829   7.446   7.462   1.092  0.4933  2.7311 -2.2330
18130SOL     OW55830   6.477   0.690   2.526  0.0167 -0.9026 -0.3909
18130SOL    HW155831   6.470   0.737   2.609  0.6954 -0.6887 -0.4534
18130SOL    HW255832   6.453   0.600   2.548 -0.0046 -0.8049 -0.0019
18131SOL     OW55833   7.016   7.259  11.617 -0.6312  0.1168 -0.3714
18131SOL    HW155834   6.992   7.311  11.693  2.1541  2.5283 -0.9679
18131SOL    HW255835   7.084   7.199  11.649 -0.8344 -0.2234 -0.5680
18132SOL     OW55836   4.646   1.210   1.728  0.6124  0.0915 -0.2752
18132SOL    HW155837   4.726   1.262   1.726  1.1004 -0.6421 -1.7590
18132SOL    HW255838   4.629   1.195   1.821  2.9443 -0.8236  0.0954
18133SOL     OW55839   4.864   0.716   2.439  0.1835  0.5712 -0.2485
18133SOL    HW155840   4.926   0.785   2.415  1.1134  0.6280  2.0847
18133SOL    HW255841   4.914   0.658   2.495 -0.8341 -1.5786 -1.4541
18134SOL     OW55842   5.628   1.925   2.460 -0.0012 -0.0529  0.1913
18134SOL    HW155843   5.617   1.876   2.378  0.1524  0.7046 -0.2871
18134SOL    HW255844   5.547   1.975   2.468 -0.5047 -0.9699  1.0965
18135SOL     OW55845   6.600   1.238   2.674  0.0630  0.0086 -0.1388
18135SOL    HW155846   6.679   1.233   2.728 -0.8758 -1.1545  1.1971
18135SOL    HW255847   6.551   1.311   2.711  0.7106  1.0849 -1.3140
18136SOL     OW55848   6.912   5.935   0.136  0.4786 -0.0515 -0.2427
18136SOL    HW155849   6.982   5.984   0.094  0.2023  1.4375  0.9324
18136SOL    HW255850   6.893   5.985   0.216 -1.2378 -0.9550 -0.0455
18137SOL     OW55851   4.886   1.864  11.644 -0.1422 -0.1566 -0.1121
18137SOL    HW155852   4.866   1.770  11.644 -0.4321 -0.1299  1.4442
18137SOL    HW255853   4.829   1.900  11.712  2.0533  0.6484  1.4093
18138SOL     OW55854   6.141   0.122  12.432  0.4049 -0.2923 -0.0933
18138SOL    HW155855   6.065   0.177  12.448 -0.2106 -1.4186  1.0406
18138SOL    HW255856   6.200   0.177  12.380  0.5027  2.0256  2.2472
18139SOL     OW55857   5.928   1.503  11.941  0.8477  0.8733 -0.5241
18139SOL    HW155858   5.905   1.424  11.893  0.5679  0.3441  0.4727
18139SOL    HW255859   5.857   1.516  12.003  2.1844  0.3887  1.1745
18140SOL     OW55860   6.257   1.895  12.070 -0.1109  0.1278 -0.2689
18140SOL    HW155861   6.304   1.872  11.990  0.9403  0.8784  0.1069
18140SOL    HW255862   6.203   1.818  12.089 -2.0533  0.7241 -2.8550
18141SOL     OW55863   7.416   7.597   2.185  0.0804 -0.2527  0.0304
18141SOL    HW155864   7.450   7.614   2.273  1.8389  0.9220 -0.8078
18141SOL    HW255865   7.484   7.545   2.143  0.1648  0.8203 -1.2228
18142SOL     OW55866   6.624   1.018  11.717  0.2714 -0.6434 -0.2808
18142SOL    HW155867   6.571   1.045  11.643  0.9865  0.3913 -0.4282
18142SOL    HW255868   6.668   1.098  11.746 -0.2683 -0.9405  1.4943
18143SOL     OW55869   5.859   1.804   0.155  0.1120 -0.1017 -0.1112
18143SOL    HW155870   5.827   1.840   0.073  1.7616  1.6701 -0.0547
18143SOL    HW255871   5.946   1.770   0.134 -0.2422 -1.4646  0.4968
18144SOL     OW55872   5.476   1.937   2.765  0.0747 -0.0456  0.3540
18144SOL    HW155873   5.524   1.899   2.692  0.7936 -0.3218  0.9586
18144SOL    HW255874   5.497   2.030   2.761  0.9010 -0.2030  0.7780
18145SOL     OW55875   6.466   0.235   3.914  0.4336  0.3540  0.2873
18145SOL    HW155876   6.445   0.309   3.971 -0.9066  1.5005 -1.5587
18145SOL    HW255877   6.561   0.229   3.916  0.6237  2.4881  0.1370
18146SOL     OW55878   4.234   0.480   1.870 -0.2712  0.1232 -0.2401
18146SOL    HW155879   4.173   0.416   1.907  0.9737 -0.7280  0.4297
18146SOL    HW255880   4.283   0.513   1.945  1.8930 -1.1881 -0.9708
18147SOL     OW55881   4.647   0.167   2.101 -0.6095 -0.6651 -0.7353
18147SOL    HW155882   4.651   0.088   2.047 -0.4081 -0.4525 -1.0374
18147SOL    HW255883   4.738   0.188   2.120 -0.7017 -1.4137  0.7129
18148SOL     OW55884   6.565   0.971   3.032 -0.1475  0.3732 -0.1574
18148SOL    HW155885   6.496   0.906   3.045 -0.1753  0.6157  1.0705
18148SOL    HW255886   6.617   0.966   3.113  0.5154  1.0812 -0.5336
18149SOL     OW55887   5.945   2.012   1.956  0.4145  0.3024  0.4471
18149SOL    HW155888   5.961   1.939   1.897  2.4472  0.5878  0.5755
18149SOL    HW255889   5.998   1.993   2.033 -0.1300  1.2372  1.0786
18150SOL     OW55890   6.775   1.303   2.898 -0.1720 -0.2555  0.2985
18150SOL    HW155891   6.848   1.284   2.957  1.7420  2.0207 -1.1133
18150SOL    HW255892   6.816   1.318   2.813 -2.6557 -1.9012 -1.3280
18151SOL     OW55893   3.786   1.125   4.097 -0.2704  0.2554 -0.0413
18151SOL    HW155894   3.856   1.096   4.038 -1.6735  0.7106 -2.0343
18151SOL    HW255895   3.828   1.189   4.154  1.0846  0.0544 -0.7708
18152SOL     OW55896   6.181   0.809   3.454 -0.7467 -0.1183  0.2239
18152SOL    HW155897   6.093   0.801   3.492 -1.3907  0.1373 -1.1269
18152SOL    HW255898   6.214   0.720   3.450 -1.1058 -0.2598  0.4044
18153SOL     OW55899   4.624   0.430   2.815 -0.0440  0.3114  0.0855
18153SOL    HW155900   4.611   0.524   2.807 -2.0452  0.0908  0.2540
18153SOL    HW255901   4.575   0.393   2.741  2.2341 -0.5583 -1.0934
18154SOL     OW55902   6.143   2.165   4.310  0.3051 -0.3180 -1.5110
18154SOL    HW155903   6.085   2.183   4.236  0.5485  0.3138 -1.5570
18154SOL    HW255904   6.127   2.237   4.371  0.6753 -0.4121 -1.3024
18155SOL     OW55905   5.784   7.301   4.642  0.1532  0.4120  0.4639
18155SOL    HW155906   5.808   7.353   4.565 -1.1978  0.8900  0.3308
18155SOL    HW255907   5.689   7.295   4.638  0.0642  0.2767  2.0034
18156SOL     OW55908   7.414   1.532   4.009 -0.2019 -0.2566  0.0126
18156SOL    HW155909   7.476   1.599   3.981  0.5954 -0.4918  1.1349
18156SOL    HW255910   7.386   1.489   3.928  0.5345  0.3423 -0.5719
18157SOL     OW55911   5.319   7.817   2.987 -0.4233  0.5817  0.0736
18157SOL    HW155912   5.317   7.870   3.067 -0.1450  0.2080  0.3278
18157SOL    HW255913   5.271   7.870   2.923 -1.2621  0.5770  0.6764
18158SOL     OW55914   6.263   1.538   2.138  0.3358  0.7484 -0.1098
18158SOL    HW155915   6.316   1.502   2.067 -0.2288  0.3808 -0.3514
18158SOL    HW255916   6.265   1.633   2.123  1.5712  0.8202  0.3526
18159SOL     OW55917   4.970   2.000   1.406 -0.1660  0.9746 -0.1397
18159SOL    HW155918   4.886   1.954   1.405  0.0363  0.5550  0.9789
18159SOL    HW255919   5.035   1.930   1.405  0.1514  1.2451  0.6817
18160SOL     OW55920   0.449   1.609   4.044 -0.3937  0.3814  0.0683
18160SOL    HW155921   0.421   1.588   3.955  0.2793 -0.2423 -0.0056
18160SOL    HW255922   0.477   1.701   4.040 -0.4758  0.3886 -0.3228
18161SOL     OW55923   3.170   1.066   3.471 -0.3882 -0.1540  0.0938
18161SOL    HW155924   3.117   0.995   3.436 -1.2698 -0.4104  1.8129
18161SOL    HW255925   3.186   1.041   3.562  0.7747  1.0213  0.2444
18162SOL     OW55926   4.208   3.312   2.048 -0.3678 -0.6260  0.0743
18162SOL    HW155927   4.222   3.327   2.142  1.0472  1.4213 -0.3912
18162SOL    HW255928   4.121   3.348   2.030 -0.8075 -1.3828  0.6633
18163SOL     OW55929   4.790   1.948   3.775  0.1109 -0.0308 -0.3489
18163SOL    HW155930   4.739   2.027   3.792 -0.9921 -0.8224  0.1139
18163SOL    HW255931   4.868   1.979   3.729 -0.4241  1.2924 -0.3947
18164SOL     OW55932   4.693   0.045   2.503 -0.3106 -0.2896  0.1952
18164SOL    HW155933   4.618   0.008   2.550 -0.0040 -1.0535  0.0947
18164SOL    HW255934   4.715   0.125   2.551 -0.0258 -1.0294  1.3298
18165SOL     OW55935   5.314   0.878   4.498 -0.1801  0.1145 -0.0106
18165SOL    HW155936   5.266   0.906   4.420 -0.9405 -1.0795  0.0093
18165SOL    HW255937   5.339   0.959   4.541 -2.3651  0.7801  0.0992
18166SOL     OW55938   6.238   7.946   1.672 -0.0520 -0.4796 -0.3273
18166SOL    HW155939   6.177   7.922   1.602 -1.4474 -0.2805  0.7864
18166SOL    HW255940   6.275   8.030   1.644 -2.0287  0.5656  0.0201
18167SOL     OW55941   1.135   0.833   0.324 -0.2461  0.3342 -0.0836
18167SOL    HW155942   1.151   0.869   0.412 -2.9978 -1.1436  1.1662
18167SOL    HW255943   1.201   0.764   0.315 -0.3453  0.0384  1.1576
18168SOL     OW55944   6.790   1.624   2.764 -0.2297  0.0022 -0.2420
18168SOL    HW155945   6.738   1.681   2.708 -1.1009 -0.3770  0.1665
18168SOL    HW255946   6.880   1.638   2.735 -0.0827  3.3505  1.3798
18169SOL     OW55947   6.763   2.054   4.021 -0.0681 -0.5175 -0.1377
18169SOL    HW155948   6.714   2.128   4.057  1.4291 -0.6484  2.3718
18169SOL    HW255949   6.783   2.080   3.931 -0.1960  1.8227  0.4538
18170SOL     OW55950   0.438   1.058   0.980  0.2617  0.2363 -0.2727
18170SOL    HW155951   0.415   1.055   0.887  2.6379  3.0579 -1.1130
18170SOL    HW255952   0.359   1.091   1.023 -0.1153  1.2155 -1.6519
18171SOL     OW55953   5.235   0.961   3.435 -0.4371 -0.2714  0.1249
18171SOL    HW155954   5.163   0.912   3.397  0.8460 -1.6538 -0.6229
18171SOL    HW255955   5.231   1.047   3.394 -0.7406 -0.8416 -1.0637
18172SOL     OW55956   5.767   0.387   4.237  0.4725 -0.1570  0.2199
18172SOL    HW155957   5.781   0.353   4.149 -0.4488  0.4367 -0.1755
18172SOL    HW255958   5.783   0.313   4.295 -0.5701 -1.0199 -0.5516
18173SOL     OW55959   5.639   0.377   3.644 -0.5533 -0.2076  0.2583
18173SOL    HW155960   5.619   0.301   3.698 -0.4277 -0.0456  0.5381
18173SOL    HW255961   5.582   0.446   3.678  0.7461  0.3763  1.3407
18174SOL     OW55962   7.225   7.675   3.422  0.2279 -0.3178  0.3886
18174SOL    HW155963   7.256   7.605   3.480 -0.5249 -1.0952 -0.1196
18174SOL    HW255964   7.297   7.738   3.421  0.7290 -0.8458  1.2475
18175SOL     OW55965   5.380   1.968   4.924  0.0630 -0.2683 -0.8824
18175SOL    HW155966   5.407   1.925   4.843  1.6087  1.3885 -1.3084
18175SOL    HW255967   5.329   2.044   4.894  1.3866  0.8532 -0.3836
18176SOL     OW55968   7.924   0.849   1.985 -0.1441 -0.5658  0.0257
18176SOL    HW155969   7.978   0.928   1.985  0.5607 -1.0393  0.2656
18176SOL    HW255970   7.950   0.803   2.064 -0.8377 -0.8545  0.0916
18177SOL     OW55971   7.414   1.750   3.504 -0.3793 -0.2186  0.0185
18177SOL    HW155972   7.362   1.734   3.583 -0.0306  0.2711  0.3493
18177SOL    HW255973   7.348   1.766   3.436 -0.6813  1.8433  0.7389
18178SOL     OW55974   5.427   1.855   4.082  0.5050 -0.8765 -0.2664
18178SOL    HW155975   5.501   1.806   4.046 -1.2420 -2.3584 -2.0796
18178SOL    HW255976   5.388   1.898   4.006 -0.3912  0.0480  0.6918
18179SOL     OW55977   0.952   0.346   3.781  0.7155  0.2293  0.1032
18179SOL    HW155978   0.900   0.274   3.746 -0.5707  0.8378  0.6817
18179SOL    HW255979   0.898   0.383   3.850  2.2461  0.4561  1.2282
18180SOL     OW55980   6.547   2.410   2.462 -0.1897  0.1145 -0.1821
18180SOL    HW155981   6.453   2.424   2.449 -0.0416  1.0689 -0.3214
18180SOL    HW255982   6.552   2.342   2.529 -1.0012  0.8627  0.6762
18181SOL     OW55983   6.372   7.963   2.016 -0.1531 -0.2579 -0.3828
18181SOL    HW155984   6.290   7.989   1.974  0.5330  0.5416 -1.2772
18181SOL    HW255985   6.345   7.906   2.088 -1.4638 -0.3347 -0.9038
18182SOL     OW55986   6.175   1.576   1.836  0.1569  1.0612 -0.5186
18182SOL    HW155987   6.245   1.574   1.771  1.1391 -0.4086  0.5305
18182SOL    HW255988   6.154   1.484   1.852 -0.5833  1.4179  0.7038
18183SOL     OW55989   7.291   1.388   1.946  0.1280 -0.1152  0.3469
18183SOL    HW155990   7.218   1.450   1.954  0.4860  0.3226  0.2733
18183SOL    HW255991   7.321   1.398   1.856 -0.5578 -1.2558 -0.0314
18184SOL     OW55992   5.829   0.884   3.313  0.2000 -0.4812 -0.0499
18184SOL    HW155993   5.849   0.938   3.389  0.9090  0.3133 -0.7703
18184SOL    HW255994   5.787   0.806   3.349 -0.8643  0.5455  1.0257
18185SOL     OW55995   6.244   1.682   4.696 -0.3418  0.5379  0.5392
18185SOL    HW155996   6.312   1.632   4.742 -0.2874 -0.5238 -0.6674
18185SOL    HW255997   6.170   1.682   4.757  0.0470 -0.0142  1.0239
18186SOL     OW55998   6.682   0.326   5.165  0.2744 -0.2087  0.4694
18186SOL    HW155999   6.652   0.299   5.252 -1.0893  0.5808  0.2766
18186SOL    HW256000   6.760   0.378   5.181  0.9509 -1.3655  1.0885
18187SOL     OW56001   6.348   7.550   5.453  0.2498 -0.2749 -0.2511
18187SOL    HW156002   6.364   7.463   5.417 -2.7686 -0.1482 -2.2206
18187SOL    HW256003   6.321   7.603   5.378 -0.8255  1.5895  1.3563
18188SOL     OW56004   5.500   0.244   2.939  0.2697 -0.1783  0.1013
18188SOL    HW156005   5.553   0.274   2.865 -1.2370  2.1580 -0.1565
18188SOL    HW256006   5.440   0.180   2.901  0.9438 -0.6332 -0.2178
18189SOL     OW56007   6.748   1.065   3.616 -0.6295 -0.6218 -0.1149
18189SOL    HW156008   6.704   1.052   3.532  0.3222 -0.5761 -0.6343
18189SOL    HW256009   6.793   1.149   3.608 -2.0262  0.2910  1.1265
18190SOL     OW56010   4.134   1.737   4.522  0.7181  0.1864  0.2808
18190SOL    HW156011   4.091   1.721   4.606  0.2775 -1.0306 -0.1536
18190SOL    HW256012   4.088   1.812   4.486  0.0249 -0.0994  0.5442
18191SOL     OW56013   6.913   7.770   1.966  0.6962  0.4696 -0.4264
18191SOL    HW156014   6.942   7.721   1.889 -0.5292 -0.3816 -0.3684
18191SOL    HW256015   6.949   7.720   2.040  0.7727  0.5551 -0.4057
18192SOL     OW56016   6.726   2.122   3.755  0.3462  0.4460  0.5082
18192SOL    HW156017   6.661   2.070   3.708  0.6972  2.0759 -1.9844
18192SOL    HW256018   6.742   2.197   3.698  1.0088  2.5138  3.1909
18193SOL     OW56019   6.324   3.829   2.399 -0.4304  0.0715  0.6400
18193SOL    HW156020   6.283   3.853   2.482  2.0452  0.3262  1.8837
18193SOL    HW256021   6.325   3.910   2.348  0.2995  0.5531  1.4019
18194SOL     OW56022   4.969   7.571   1.813  0.5949 -0.5568 -0.5646
18194SOL    HW156023   4.958   7.592   1.905  0.2765 -0.7222 -0.5654
18194SOL    HW256024   4.989   7.655   1.771  0.1162 -0.3833 -0.4443
18195SOL     OW56025   6.331   2.362   2.225  0.1795 -0.3968  0.0176
18195SOL    HW156026   6.385   2.385   2.149  0.0912  4.0498  0.9818
18195SOL    HW256027   6.243   2.351   2.189  0.5804 -1.0205 -0.7987
18196SOL     OW56028   6.096   1.511   4.300  0.3276  0.7590 -0.1887
18196SOL    HW156029   6.177   1.534   4.345  1.2292  1.2386 -1.9798
18196SOL    HW256030   6.043   1.590   4.305  0.0929  0.5654  0.6524
18197SOL     OW56031   6.183   2.490   0.460 -0.5352  0.6408 -0.3323
18197SOL    HW156032   6.189   2.545   0.382  0.1356  1.2635  0.1404
18197SOL    HW256033   6.272   2.486   0.494 -0.8294  0.4548  0.4542
18198SOL     OW56034   5.376   2.355   3.877  0.6934  0.1633 -0.3971
18198SOL    HW156035   5.321   2.422   3.919  0.5185 -0.0484 -0.2873
18198SOL    HW256036   5.456   2.354   3.928  0.1177 -0.7560  0.5176
18199SOL     OW56037   5.820   7.918   3.183  0.1498 -0.8186 -0.5601
18199SOL    HW156038   5.827   8.004   3.223 -3.3356 -0.3237 -0.6994
18199SOL    HW256039   5.856   7.930   3.095 -1.4122  0.8993 -1.0178
18200SOL     OW56040   7.715   2.818   1.766 -0.0931 -0.1098  0.0565
18200SOL    HW156041   7.678   2.730   1.765 -0.1743 -0.0879  0.5864
18200SOL    HW256042   7.807   2.805   1.741  0.2373 -0.5320  1.3609
18201SOL     OW56043   7.107   1.182   2.486  0.2724  0.1323  0.1504
18201SOL    HW156044   7.049   1.154   2.556 -0.2658  3.0065  1.0002
18201SOL    HW256045   7.059   1.252   2.441  1.4306 -0.2394 -1.8236
18202SOL     OW56046   6.312   0.910   0.140  0.2392 -0.2688  0.3698
18202SOL    HW156047   6.327   0.854   0.216 -2.2623 -1.3256  0.1665
18202SOL    HW256048   6.217   0.919   0.134  0.3932  0.6727 -2.0097
18203SOL     OW56049   6.818   0.977   3.164 -0.3571  0.2894  0.0825
18203SOL    HW156050   6.830   0.952   3.072 -2.1550 -0.7417  0.0983
18203SOL    HW256051   6.824   0.895   3.212  1.1252  0.8833  1.0016
18204SOL     OW56052   0.643   1.701   1.760  0.4723 -0.4707 -0.1408
18204SOL    HW156053   0.611   1.640   1.827 -0.3767  0.8379  0.7009
18204SOL    HW256054   0.735   1.678   1.748 -0.0768 -2.6161 -0.6683
18205SOL     OW56055   6.496   7.868   3.715 -0.1572  0.1845 -0.0026
18205SOL    HW156056   6.472   7.934   3.650 -0.7047  1.1251  1.1014
18205SOL    HW256057   6.513   7.789   3.664  0.5827  1.1747 -1.3768
18206SOL     OW56058   5.455   0.507   3.029  0.4483 -0.0422  0.6739
18206SOL    HW156059   5.417   0.480   3.113 -0.0386 -2.2270 -0.1839
18206SOL    HW256060   5.492   0.426   2.993  0.5525  0.8312 -1.2675
18207SOL     OW56061   6.003   3.000   2.455 -0.4967 -0.1521  0.3514
18207SOL    HW156062   6.059   2.933   2.417 -1.4401 -0.1103 -1.2281
18207SOL    HW256063   6.046   3.024   2.537  2.7894  1.2243 -1.5994
18208SOL     OW56064   6.285   0.340   1.710 -0.1715  0.0259 -0.0623
18208SOL    HW156065   6.276   0.419   1.763  1.2496  0.9039 -1.0570
18208SOL    HW256066   6.345   0.285   1.758 -2.6179 -1.3747  1.5875
18209SOL     OW56067   6.629   7.584   2.798 -0.1849 -0.0442  0.1104
18209SOL    HW156068   6.672   7.620   2.875  0.8577  0.0813 -0.5177
18209SOL    HW256069   6.619   7.659   2.739 -1.5432 -0.0083  0.3560
18210SOL     OW56070   6.586   1.173   3.834  0.4838  0.3467 -0.2062
18210SOL    HW156071   6.511   1.227   3.808 -0.2534 -0.0845  0.9901
18210SOL    HW256072   6.623   1.143   3.750 -1.0374  0.0728 -0.8166
18211SOL     OW56073   6.762   6.700  11.800 -0.0623  0.4153  0.1078
18211SOL    HW156074   6.839   6.747  11.770  2.2330 -2.1635  1.4703
18211SOL    HW256075   6.734   6.746  11.879  0.5037  0.9866 -0.0229
18212SOL     OW56076   5.508   6.332   3.968 -0.0232 -0.1560  0.5394
18212SOL    HW156077   5.481   6.269   4.034 -0.3895 -2.3626 -1.5766
18212SOL    HW256078   5.596   6.305   3.942 -0.0452  0.3870 -0.1490
18213SOL     OW56079   6.849   2.127   5.104  0.1526  0.0178 -0.3540
18213SOL    HW156080   6.890   2.041   5.109  0.1707  0.0958  2.7715
18213SOL    HW256081   6.911   2.186   5.147 -0.3404  1.3970 -1.4675
18214SOL     OW56082   6.637   1.885   2.182 -0.2002  0.6566 -0.0136
18214SOL    HW156083   6.592   1.803   2.161 -1.8569  1.5848 -0.2543
18214SOL    HW256084   6.729   1.867   2.164 -0.4480 -1.3178  0.4808
18215SOL     OW56085   5.066   0.555   3.680  0.3229  0.1472  0.1146
18215SOL    HW156086   4.975   0.564   3.653  0.9562  1.2398 -1.9177
18215SOL    HW256087   5.094   0.645   3.699  1.5653  0.1734 -1.5966
18216SOL     OW56088   7.965   2.156   2.545 -0.1798  0.0516  0.0084
18216SOL    HW156089   7.948   2.246   2.517 -0.3307  0.4536  1.3162
18216SOL    HW256090   8.057   2.141   2.523  0.2427  1.0217  1.0011
18217SOL     OW56091   1.178   1.220   3.039  0.3932 -0.4677 -0.4127
18217SOL    HW156092   1.092   1.263   3.031 -0.0086 -1.3159 -0.8048
18217SOL    HW256093   1.240   1.292   3.040 -0.3519  0.1895  0.3370
18218SOL     OW56094   4.813   0.486   3.223 -0.3820 -0.1697  0.2506
18218SOL    HW156095   4.848   0.499   3.135 -0.3529 -0.7282  0.1766
18218SOL    HW256096   4.746   0.554   3.233  0.7017  0.9155  0.3949
18219SOL     OW56097   5.994   1.141   3.025 -0.2011 -0.2647 -0.3787
18219SOL    HW156098   6.079   1.144   3.069 -0.2211 -0.7509 -0.3032
18219SOL    HW256099   6.013   1.108   2.937 -0.3228 -0.4827 -0.3254
18220SOL     OW56100   5.314   6.940   3.708 -0.1487  0.5293  0.1477
18220SOL    HW156101   5.270   6.861   3.676 -1.2596  0.7040  1.1885
18220SOL    HW256102   5.335   6.920   3.799  1.2154  0.7676 -0.0930
18221SOL     OW56103   7.364   2.397   3.589 -0.2781  0.2361  0.7225
18221SOL    HW156104   7.426   2.462   3.554  0.3841  0.1716  1.7361
18221SOL    HW256105   7.420   2.331   3.630 -0.8640 -1.5925 -1.2286
18222SOL     OW56106   3.149   7.507   3.188 -0.3132  0.5728  0.3428
18222SOL    HW156107   3.238   7.513   3.224  0.1918 -2.1864 -0.2341
18222SOL    HW256108   3.162   7.495   3.094 -1.3084  0.4185  0.2148
18223SOL     OW56109   0.761   2.749   2.610 -0.1340  0.0866  0.0788
18223SOL    HW156110   0.692   2.741   2.676  0.6354 -1.1399  0.7694
18223SOL    HW256111   0.753   2.839   2.578 -0.5455  0.7140  1.8274
18224SOL     OW56112   5.419   1.100   1.196 -0.0010 -0.3519 -0.5889
18224SOL    HW156113   5.428   1.033   1.128  0.9569 -2.5886  1.5877
18224SOL    HW256114   5.509   1.114   1.227 -0.5113 -0.2781  0.9584
18225SOL     OW56115   7.089   0.593   3.829  0.3654 -0.3603 -0.6279
18225SOL    HW156116   7.069   0.529   3.761 -1.3944 -0.0167 -0.4749
18225SOL    HW256117   7.084   0.544   3.911 -0.9390 -0.0718 -0.5139
18226SOL     OW56118   5.242   7.667   3.279 -0.1059  0.1927 -0.8026
18226SOL    HW156119   5.336   7.678   3.275 -0.0272 -0.4886 -1.0117
18226SOL    HW256120   5.221   7.669   3.372 -0.1603  2.3686 -0.8211
18227SOL     OW56121   5.873   1.303   2.737  0.0586  0.6846 -0.2057
18227SOL    HW156122   5.819   1.226   2.718  0.6076  0.0708  0.6136
18227SOL    HW256123   5.810   1.369   2.768 -0.2522 -0.0151  0.7259
18228SOL     OW56124   7.050   7.723   1.295 -0.0618 -0.3120  0.1484
18228SOL    HW156125   7.028   7.778   1.219 -4.0794 -0.7678  0.7681
18228SOL    HW256126   7.102   7.780   1.351 -0.8618  1.5700 -0.9239
18229SOL     OW56127   7.416   1.148   3.827 -0.0627 -0.1932  0.0077
18229SOL    HW156128   7.353   1.143   3.898 -0.8908 -0.4606 -0.7225
18229SOL    HW256129   7.502   1.149   3.870 -0.5402  4.2080  1.3013
18230SOL     OW56130   4.776   2.525   4.566  0.2019  0.5045  0.1921
18230SOL    HW156131   4.685   2.509   4.589  0.2932 -0.1778  0.1037
18230SOL    HW256132   4.807   2.586   4.633  0.3166 -1.0372  1.6080
18231SOL     OW56133   6.206   1.671   2.680  0.4306 -0.4115  0.3848
18231SOL    HW156134   6.191   1.581   2.711 -1.7359 -0.6127 -1.0264
18231SOL    HW256135   6.168   1.726   2.749 -0.5075 -0.7036  0.1220
18232SOL     OW56136   6.200   7.738   2.463 -0.0103  0.1184  0.6238
18232SOL    HW156137   6.104   7.743   2.460 -0.0712 -0.9602  0.4177
18232SOL    HW256138   6.219   7.645   2.455  1.1007  0.4118 -0.5304
18233SOL     OW56139   6.645   1.058   0.939  0.7062 -0.6880 -0.6436
18233SOL    HW156140   6.589   1.058   0.861  0.6839  0.8354 -0.6443
18233SOL    HW256141   6.733   1.073   0.905  0.5036  1.6411 -0.2959
18234SOL     OW56142   5.973   0.593   1.534 -0.0285 -0.2451  0.1251
18234SOL    HW156143   6.067   0.607   1.524 -0.3566  0.8861 -1.8296
18234SOL    HW256144   5.933   0.644   1.464 -2.0001 -2.5589 -0.5825
18235SOL     OW56145   0.127   2.075   3.888  0.2944 -0.0089  0.0314
18235SOL    HW156146   0.149   1.988   3.922 -1.2114 -0.4306 -0.0344
18235SOL    HW256147   0.194   2.092   3.821  0.5793 -1.1341  0.0159
18236SOL     OW56148   6.503   0.739   1.191  0.5980  0.3913  0.0826
18236SOL    HW156149   6.534   0.667   1.246  1.1832  0.7440  0.2224
18236SOL    HW256150   6.583   0.785   1.165  0.3816 -0.0660 -1.4868
18237SOL     OW56151   0.194   1.394   3.216 -0.1632 -0.6627  0.2414
18237SOL    HW156152   0.103   1.419   3.202 -0.7056 -2.1275  0.9649
18237SOL    HW256153   0.189   1.308   3.259  1.4732  0.6027  3.2406
18238SOL     OW56154   7.691   0.455   3.293 -0.4557  0.1015  0.0499
18238SOL    HW156155   7.670   0.463   3.201  1.2908  0.7636 -0.3265
18238SOL    HW256156   7.712   0.544   3.322  1.5154 -0.4405  0.4089
18239SOL     OW56157   7.626   2.231   2.267 -0.2887 -0.0251  0.3164
18239SOL    HW156158   7.602   2.181   2.189 -0.0056  1.6386 -0.9019
18239SOL    HW256159   7.693   2.292   2.237 -0.1299  0.6340  1.8820
18240SOL     OW56160   7.723   2.042   2.641  0.0935 -0.1956  0.0591
18240SOL    HW156161   7.736   1.978   2.572 -1.0289 -0.3631 -0.0241
18240SOL    HW256162   7.790   2.109   2.626  1.4524 -1.4509  0.3000
18241SOL     OW56163   6.169   0.531   3.692 -0.0696 -0.0418 -0.2345
18241SOL    HW156164   6.177   0.509   3.599  0.6800  0.7552 -0.3653
18241SOL    HW256165   6.188   0.448   3.737 -1.1947 -0.6308 -0.7815
18242SOL     OW56166   6.623   1.300   5.478 -0.1282 -0.0570 -0.7403
18242SOL    HW156167   6.623   1.357   5.401  1.4054  2.0027  0.6732
18242SOL    HW256168   6.661   1.218   5.447  1.0029  0.9200 -2.0752
18243SOL     OW56169   6.465   1.128   1.641  0.0948 -0.2404  0.6690
18243SOL    HW156170   6.444   1.084   1.559  0.4942 -0.1498  0.5152
18243SOL    HW256171   6.381   1.162   1.672  0.1365  1.0197 -0.4626
18244SOL     OW56172   5.172   0.947   4.280 -0.4387  0.0456  0.5551
18244SOL    HW156173   5.218   0.913   4.203 -0.9658 -0.3377  0.4049
18244SOL    HW256174   5.131   1.028   4.250  0.0148  0.3147  0.6515
18245SOL     OW56175   7.652   1.852   3.544  0.6464  0.3520 -0.2709
18245SOL    HW156176   7.710   1.804   3.485 -1.7723 -0.2512 -2.3101
18245SOL    HW256177   7.565   1.816   3.527 -0.7642  3.0059  0.7668
18246SOL     OW56178   5.843   1.442   2.391  0.3273  0.4547  0.1598
18246SOL    HW156179   5.884   1.527   2.404  1.3608  0.1181 -0.7928
18246SOL    HW256180   5.888   1.383   2.452  0.1896  0.4022  0.2132
18247SOL     OW56181   5.079   0.023   2.968  0.8775  0.3814  0.1493
18247SOL    HW156182   4.997  -0.006   2.926  0.6277 -1.3592  1.7190
18247SOL    HW256183   5.057   0.030   3.061  3.0238 -2.5705  1.0295
18248SOL     OW56184   6.992   0.269   3.005  0.5388  0.2093 -0.4153
18248SOL    HW156185   6.986   0.194   3.065 -0.8533  0.1713 -0.5630
18248SOL    HW256186   7.011   0.344   3.062  0.9479 -0.0914 -0.1479
18249SOL     OW56187   0.583   1.976   2.524 -0.1006  0.1833  0.0029
18249SOL    HW156188   0.518   1.991   2.593 -0.4618  2.7223 -0.7589
18249SOL    HW256189   0.663   2.017   2.558  0.0030  0.5320 -0.6517
18250SOL     OW56190   5.862   2.094   2.563 -0.4587  0.3892 -0.1564
18250SOL    HW156191   5.842   2.083   2.470  0.7907  0.4926 -0.4652
18250SOL    HW256192   5.847   2.187   2.579  0.4069  0.6098 -0.5556
18251SOL     OW56193   6.162   0.573   2.163 -0.0532  0.1012  0.1309
18251SOL    HW156194   6.203   0.660   2.161 -3.7747  2.1006  1.3850
18251SOL    HW256195   6.166   0.546   2.254  0.0546 -0.4977 -0.0475
18252SOL     OW56196   5.027   2.416   4.740 -0.6516  0.0832 -0.2141
18252SOL    HW156197   4.976   2.354   4.689 -0.2677 -0.5280  0.1254
18252SOL    HW256198   5.057   2.366   4.816 -1.9780  1.2182  1.1039
18253SOL     OW56199   6.524   0.523   5.003  0.4779  0.2600  0.1933
18253SOL    HW156200   6.565   0.487   5.082 -0.3552 -0.3566  0.3660
18253SOL    HW256201   6.431   0.505   5.015  0.4497 -1.0032 -1.5204
18254SOL     OW56202   6.236   1.380   4.544 -0.4537 -0.1022  0.4573
18254SOL    HW156203   6.146   1.409   4.558 -0.9587  0.0413 -2.4750
18254SOL    HW256204   6.276   1.449   4.491  0.4875 -1.4424 -0.6625
18255SOL     OW56205   5.883   6.967   4.421  0.3671  0.1480  0.0743
18255SOL    HW156206   5.844   6.921   4.495  1.9944 -0.1120  0.8290
18255SOL    HW256207   5.809   6.996   4.368 -0.8128 -0.2042  1.4767
18256SOL     OW56208   4.978   5.585   2.669 -0.4001 -0.5356 -0.3132
18256SOL    HW156209   5.069   5.560   2.657 -0.6214 -1.3164 -0.4514
18256SOL    HW256210   4.970   5.669   2.623  0.6263  0.3772  1.1173
18257SOL     OW56211   5.412   0.456   3.303 -0.5021 -0.4277  0.5411
18257SOL    HW156212   5.337   0.461   3.362 -1.4523  0.3543 -0.6923
18257SOL    HW256213   5.439   0.364   3.306 -0.1080 -0.2906  2.6673
18258SOL     OW56214   5.025   1.559   0.945  0.1095 -0.1301  0.1688
18258SOL    HW156215   4.983   1.646   0.940  0.0098 -0.2450 -3.1486
18258SOL    HW256216   5.105   1.574   0.994  0.4362  2.0462 -0.9014
18259SOL     OW56217   6.603   1.361   1.708  0.2276 -0.2312 -0.5436
18259SOL    HW156218   6.560   1.288   1.665 -0.3441  0.6432 -1.5006
18259SOL    HW256219   6.642   1.323   1.787  1.0651 -1.8178 -1.6746
18260SOL     OW56220   5.837   7.468   2.822 -0.2537 -0.2646 -0.3658
18260SOL    HW156221   5.892   7.544   2.838 -0.3959 -0.0683 -0.7874
18260SOL    HW256222   5.801   7.445   2.908 -2.2242  1.7080 -0.5704
18261SOL     OW56223   5.871   1.946   4.128  0.0517 -0.3927 -0.3895
18261SOL    HW156224   5.813   1.970   4.055 -1.4555 -1.5660  0.3618
18261SOL    HW256225   5.941   1.894   4.088 -0.8748 -1.2104 -0.9986
18262SOL     OW56226   7.069   7.501   3.219  0.0026 -0.4876  0.4601
18262SOL    HW156227   7.157   7.534   3.239 -0.1556  0.0749  0.2541
18262SOL    HW256228   7.026   7.574   3.175 -0.4730 -0.8635  0.2975
18263SOL     OW56229   5.662   1.282   4.531  0.7019  0.1573  0.0814
18263SOL    HW156230   5.609   1.271   4.452  1.1778  1.6792 -0.4921
18263SOL    HW256231   5.649   1.201   4.580 -2.0256  0.3878 -0.0938
18264SOL     OW56232   4.411   0.120   3.357  0.3933 -0.4377 -0.7321
18264SOL    HW156233   4.407   0.191   3.422  0.2432 -0.1261 -1.0709
18264SOL    HW256234   4.322   0.116   3.322  0.7781  0.2765 -1.8334
18265SOL     OW56235   7.512   1.729   1.958 -0.3363  0.3194  0.5968
18265SOL    HW156236   7.593   1.686   1.928 -0.5231 -0.1948  0.8205
18265SOL    HW256237   7.535   1.821   1.963  0.3914  0.1182  1.1576
18266SOL     OW56238   6.254   1.903   4.207 -0.2677  0.1515  0.0689
18266SOL    HW156239   6.227   1.994   4.224  0.9264  0.3391  1.1094
18266SOL    HW256240   6.347   1.909   4.186 -0.5078 -0.6961 -1.3319
18267SOL     OW56241   6.193   1.298   5.942  0.3252  0.1945  0.1823
18267SOL    HW156242   6.271   1.353   5.937  0.6439 -0.2756 -0.0599
18267SOL    HW256243   6.120   1.358   5.925  0.7619  0.3208 -1.3533
18268SOL     OW56244   1.332   0.459   3.391 -0.0793 -0.1673 -0.2944
18268SOL    HW156245   1.361   0.374   3.359  0.7210 -0.3424  0.8217
18268SOL    HW256246   1.347   0.455   3.485 -0.4461  1.0505 -0.1699
18269SOL     OW56247   6.082   0.081   4.664 -0.1301  0.7292 -0.5649
18269SOL    HW156248   6.113  -0.003   4.696 -1.0334  0.3626 -0.6364
18269SOL    HW256249   6.064   0.132   4.743 -2.0081 -0.0470 -0.4536
18270SOL     OW56250   0.216   2.038   2.570  0.5529 -0.5902 -0.1117
18270SOL    HW156251   0.268   2.005   2.643 -0.1934  0.9916  1.2070
18270SOL    HW256252   0.162   1.964   2.543  1.0237 -1.2769  0.7768
18271SOL     OW56253   6.008   1.404   3.804 -0.3154 -0.0449 -0.4416
18271SOL    HW156254   6.027   1.428   3.894 -1.2165 -2.0756  0.3566
18271SOL    HW256255   6.090   1.421   3.757  0.6428 -0.3041  1.0698
18272SOL     OW56256   5.079   3.171   2.909 -0.3764 -0.0425  0.0341
18272SOL    HW156257   5.073   3.170   3.004  0.0850 -0.2793  0.0642
18272SOL    HW256258   5.042   3.255   2.883  1.3400  0.9330  0.5726
18273SOL     OW56259   7.137   1.349   4.273  0.3378 -0.2668 -0.0493
18273SOL    HW156260   7.133   1.424   4.333  0.6990 -0.3528  0.0811
18273SOL    HW256261   7.138   1.273   4.330  0.4300 -0.3580 -0.1736
18274SOL     OW56262   6.032   7.754   4.504 -0.1214  0.5968  0.1691
18274SOL    HW156263   5.971   7.827   4.486 -0.5761 -0.0134 -0.8770
18274SOL    HW256264   6.065   7.772   4.591  0.7617  2.7740 -0.5429
18275SOL     OW56265   5.798   1.259   4.820 -0.4138  0.0959 -0.4455
18275SOL    HW156266   5.821   1.319   4.749  0.0903 -0.4215 -0.7269
18275SOL    HW256267   5.860   1.187   4.811 -0.3583  0.0127  0.5124
18276SOL     OW56268   4.585   1.274   3.692  0.0426 -0.1486 -0.1471
18276SOL    HW156269   4.615   1.359   3.660  1.8546 -0.4636  0.5730
18276SOL    HW256270   4.510   1.294   3.748  0.3433  0.9499 -0.1068
18277SOL     OW56271   6.955   0.821   4.358 -0.1774  0.0214 -0.1997
18277SOL    HW156272   6.877   0.876   4.365  0.9825  1.5120  1.7625
18277SOL    HW256273   6.988   0.838   4.270 -0.9235  0.9483 -0.3152
18278SOL     OW56274   6.249   1.333   2.504 -0.2208 -0.2702  0.3443
18278SOL    HW156275   6.168   1.288   2.480 -0.5598  1.0336 -1.1045
18278SOL    HW256276   6.225   1.386   2.580 -0.4159 -0.7968  0.6526
18279SOL     OW56277   4.422   7.822   4.978  0.0422 -0.5395  0.2911
18279SOL    HW156278   4.352   7.843   4.916 -0.1876 -0.0412  0.7130
18279SOL    HW256279   4.377   7.785   5.053  0.2342 -0.2487  0.5522
18280SOL     OW56280   2.796   1.787   3.841 -0.6045 -0.0441  0.3656
18280SOL    HW156281   2.860   1.754   3.779 -0.3403  1.4302 -0.2007
18280SOL    HW256282   2.818   1.880   3.852 -2.7980  0.6044 -0.0915
18281SOL     OW56283   5.861   0.098   4.103  0.0086 -0.3195 -0.4363
18281SOL    HW156284   5.887   0.081   4.194  1.1168 -0.1180 -0.7024
18281SOL    HW256285   5.939   0.079   4.052 -0.3400  0.4093 -1.2611
18282SOL     OW56286   6.660   0.362   4.277  0.5805  0.2754  0.1809
18282SOL    HW156287   6.739   0.415   4.285  2.2282 -1.6590 -2.0025
18282SOL    HW256288   6.676   0.286   4.333 -0.8749  1.0065  1.6726
18283SOL     OW56289   7.387   0.275   1.379  0.1921  0.2841  0.4522
18283SOL    HW156290   7.400   0.333   1.304 -3.3273  1.0477  0.2571
18283SOL    HW256291   7.455   0.301   1.441  2.0916  0.8368 -1.7178
18284SOL     OW56292   7.291   1.673   3.771  0.2471  0.2103  0.1274
18284SOL    HW156293   7.276   1.579   3.770  0.6214  0.1046 -2.4716
18284SOL    HW256294   7.203   1.711   3.775 -0.0699 -0.3015 -1.3050
18285SOL     OW56295   5.810   1.109   5.895  0.4069 -0.5001  0.2664
18285SOL    HW156296   5.806   1.190   5.947 -3.2176  0.5951 -1.3561
18285SOL    HW256297   5.857   1.134   5.816  0.0602 -0.2158  0.1471
18286SOL     OW56298   6.238   0.549   3.404  0.4979  0.0391 -0.1109
18286SOL    HW156299   6.331   0.529   3.399  0.7939  0.6146  2.0390
18286SOL    HW256300   6.212   0.566   3.314  2.5576  0.2347 -0.7193
18287SOL     OW56301   5.966   1.648   2.495 -0.4150  0.2745 -0.4055
18287SOL    HW156302   6.041   1.649   2.554 -0.4665 -1.1426 -0.2942
18287SOL    HW256303   5.896   1.691   2.544 -0.0966  0.2544  0.0681
18288SOL     OW56304   5.397   1.499   2.895  0.7057  0.2346  0.3355
18288SOL    HW156305   5.350   1.471   2.974  0.8319  0.8757  0.6450
18288SOL    HW256306   5.396   1.595   2.899  3.4906  0.3255  1.2530
18289SOL     OW56307   6.060   1.241   4.693  0.5281  0.5259 -0.2223
18289SOL    HW156308   6.050   1.168   4.633  1.6385 -0.1802  0.4054
18289SOL    HW256309   6.033   1.318   4.643 -1.3881 -0.3827 -0.6506
18290SOL     OW56310   5.568   0.866   3.759 -0.2915 -0.1127 -0.2161
18290SOL    HW156311   5.578   0.914   3.677  0.7011  0.6792  0.3501
18290SOL    HW256312   5.553   0.934   3.825  1.5127 -0.5105  0.6635
18291SOL     OW56313   6.667   0.763   0.473 -0.1802 -0.2020 -0.0250
18291SOL    HW156314   6.738   0.699   0.472  0.9671  1.0267 -1.9446
18291SOL    HW256315   6.710   0.848   0.482 -0.9919  0.8611 -4.0194
18292SOL     OW56316   7.565   0.945   4.040 -0.5760 -0.0561  0.0262
18292SOL    HW156317   7.471   0.926   4.041 -0.7865  0.4656 -2.2562
18292SOL    HW256318   7.573   1.028   4.087 -1.1871 -0.3050  0.5869
18293SOL     OW56319   5.834   1.796   2.651  0.3817 -0.0418 -0.4640
18293SOL    HW156320   5.801   1.804   2.741  0.5034  0.2435 -0.4429
18293SOL    HW256321   5.822   1.883   2.614  0.7897 -0.0287 -0.5680
18294SOL     OW56322   4.638   1.818   0.939  0.1392  0.1231  0.6471
18294SOL    HW156323   4.559   1.818   0.993 -0.4196 -0.4711 -0.1447
18294SOL    HW256324   4.708   1.787   0.997 -0.1275  0.9966  1.4531
18295SOL     OW56325   7.361   2.457   4.653  0.3547  0.2420  0.3328
18295SOL    HW156326   7.360   2.362   4.664  1.8588  0.3762  2.0977
18295SOL    HW256327   7.270   2.484   4.660 -0.1929 -1.1397 -1.0923
18296SOL     OW56328   7.681   1.042   2.447  0.2593 -0.4549  0.1313
18296SOL    HW156329   7.747   1.108   2.428  2.4529 -1.6465  2.9472
18296SOL    HW256330   7.619   1.085   2.506  1.8620 -0.8705  2.2209
18297SOL     OW56331   6.939   1.340   2.682  0.3904 -0.2131  0.4894
18297SOL    HW156332   6.909   1.321   2.592 -2.7572 -0.1241  1.3853
18297SOL    HW256333   6.971   1.430   2.677  1.3659 -0.6000 -0.7650
18298SOL     OW56334   7.021   7.524   5.564  0.5339  0.4386  0.3089
18298SOL    HW156335   7.006   7.601   5.617  1.3330  0.9646 -0.1915
18298SOL    HW256336   7.067   7.463   5.622 -2.8050 -1.0024  1.6997
18299SOL     OW56337   6.797   0.838   2.911 -0.3173  0.5771 -0.6106
18299SOL    HW156338   6.710   0.837   2.950 -0.0038 -1.4344  0.1350
18299SOL    HW256339   6.820   0.746   2.900  1.2962  1.0664 -1.7834
18300SOL     OW56340   6.206   7.466   4.628 -0.7829 -0.0727  0.1948
18300SOL    HW156341   6.203   7.371   4.626 -0.7064 -0.1007  0.9123
18300SOL    HW256342   6.205   7.493   4.536 -1.0514 -0.7519 -0.0050
18301SOL     OW56343   6.224   1.427   3.613  0.3731 -0.2854  0.6171
18301SOL    HW156344   6.228   1.436   3.517 -0.5131  2.0315  0.7331
18301SOL    HW256345   6.315   1.430   3.641  0.6392 -0.9689 -0.1502
18302SOL     OW56346   6.758   0.017   1.944  0.4184  0.5398  0.3003
18302SOL    HW156347   6.827   0.074   1.910 -0.5981  1.1905 -0.7499
18302SOL    HW256348   6.793  -0.072   1.933  1.5170  0.8875  0.8198
18303SOL     OW56349   6.382   1.180   3.410 -0.0914 -0.8193  0.7433
18303SOL    HW156350   6.403   1.107   3.352  0.1258  0.8226 -1.3443
18303SOL    HW256351   6.287   1.175   3.422  0.2301 -3.4737  3.6163
18304SOL     OW56352   5.292   7.283   3.505 -0.1702  0.1469 -0.1505
18304SOL    HW156353   5.235   7.315   3.575  0.6481  1.2087  0.0548
18304SOL    HW256354   5.372   7.255   3.551  0.4123  0.9454 -0.6501
18305SOL     OW56355   7.589   3.682   2.762  0.1309 -0.5507 -0.4083
18305SOL    HW156356   7.590   3.607   2.822 -0.2504  0.1919  0.5523
18305SOL    HW256357   7.629   3.649   2.681 -0.4777 -1.9183 -0.1719
18306SOL     OW56358   6.718   0.536   3.641 -0.4434  0.2960 -0.1100
18306SOL    HW156359   6.655   0.467   3.665  0.2726 -0.4145 -0.2388
18306SOL    HW256360   6.673   0.617   3.664 -0.6330 -0.2564  1.6543
18307SOL     OW56361   4.421   2.494   0.342  0.2161 -0.3040  0.0165
18307SOL    HW156362   4.341   2.449   0.317  0.5458 -0.1100 -1.4912
18307SOL    HW256363   4.391   2.572   0.389 -0.3627 -1.8201  2.3708
18308SOL     OW56364   0.129   2.316   1.917 -0.0971  0.4126  0.0505
18308SOL    HW156365   0.126   2.406   1.885 -1.8098  0.0260 -1.0311
18308SOL    HW256366   0.208   2.278   1.879 -0.3049  0.9632 -0.9463
18309SOL     OW56367   6.832   0.125   6.215 -0.2476 -0.0842  0.5467
18309SOL    HW156368   6.904   0.089   6.266  0.9101 -0.1693 -1.0762
18309SOL    HW256369   6.786   0.048   6.181 -0.0315 -0.0241  0.1227
18310SOL     OW56370   0.043   1.749   3.146  0.2627  0.2557  0.2853
18310SOL    HW156371   0.011   1.661   3.162  0.1285  0.1529 -0.4977
18310SOL    HW256372   0.123   1.738   3.095 -0.2655  0.5980 -0.6476
18311SOL     OW56373   6.910   1.593   0.692 -0.1029  0.5076 -0.1983
18311SOL    HW156374   6.914   1.501   0.721  1.1227  0.0651 -1.6523
18311SOL    HW256375   6.839   1.594   0.628  0.4025  0.3830 -0.7684
18312SOL     OW56376   6.854   7.226   2.028 -0.1229  0.3374  0.0694
18312SOL    HW156377   6.828   7.141   2.062  1.0481 -0.0595 -0.0016
18312SOL    HW256378   6.777   7.257   1.981 -1.0479 -0.0394  1.2828
18313SOL     OW56379   3.560   1.625   3.804  0.4142  0.5918 -0.3526
18313SOL    HW156380   3.510   1.687   3.751 -0.7639  0.3705  0.4653
18313SOL    HW256381   3.560   1.544   3.754  1.0091  0.9314 -0.9149
18314SOL     OW56382   0.753   2.139   1.897  0.3993 -0.2874  0.3491
18314SOL    HW156383   0.739   2.186   1.815 -0.6461  0.4913  0.9392
18314SOL    HW256384   0.797   2.058   1.872 -1.8544 -1.1107 -1.2551
18315SOL     OW56385   5.530   0.933   3.500 -0.8059 -0.1537  0.1728
18315SOL    HW156386   5.563   1.009   3.454 -1.1577  0.1043  0.3405
18315SOL    HW256387   5.438   0.953   3.516 -0.6474 -0.1689  1.1368
18316SOL     OW56388   6.566   0.619   5.290  0.4414  0.9383 -0.0522
18316SOL    HW156389   6.583   0.602   5.383 -0.1550  0.6236  0.0047
18316SOL    HW256390   6.488   0.674   5.289 -1.8474 -2.0408 -0.4396
18317SOL     OW56391   6.806   1.498   5.222 -0.8536 -0.4125 -0.0404
18317SOL    HW156392   6.868   1.425   5.223  0.7404  0.8791  0.3089
18317SOL    HW256393   6.797   1.521   5.129  1.2173  0.9524  0.0219
18318SOL     OW56394   4.259   0.832   3.179  0.0402 -0.1294  0.3779
18318SOL    HW156395   4.273   0.741   3.206 -0.0280  0.3638  2.2247
18318SOL    HW256396   4.329   0.880   3.224  0.5883  0.6421 -1.2431
18319SOL     OW56397   7.939   7.702   3.834 -0.1824 -0.0226 -0.3160
18319SOL    HW156398   7.994   7.719   3.910  2.4721  0.1856 -2.1690
18319SOL    HW256399   7.920   7.608   3.838  2.3422 -0.6211 -0.8112
18320SOL     OW56400   5.536   0.229   1.983  0.4206  0.1818 -0.0458
18320SOL    HW156401   5.490   0.229   1.900 -0.0472 -0.9403  0.1975
18320SOL    HW256402   5.521   0.142   2.020  0.5756  0.6673  1.2411
18321SOL     OW56403   5.711   0.900   1.685 -0.2095  0.3724  0.1588
18321SOL    HW156404   5.727   0.942   1.769  1.5276 -2.0664  1.1775
18321SOL    HW256405   5.740   0.810   1.698 -1.2076 -0.4580 -2.6683
18322SOL     OW56406   6.266   7.743   4.228 -0.3317 -0.0610  0.3974
18322SOL    HW156407   6.331   7.697   4.175 -0.1635  0.0979  0.4636
18322SOL    HW256408   6.316   7.810   4.275 -0.7022  0.8476 -0.4492
18323SOL     OW56409   0.028   1.960   3.303 -0.0642  0.5600  0.0958
18323SOL    HW156410  -0.059   1.997   3.290  0.4216  1.6325 -0.2023
18323SOL    HW256411   0.031   1.884   3.244 -0.4219  1.1458 -0.6901
18324SOL     OW56412   6.005   6.674   5.596  0.1807 -0.5582 -0.4074
18324SOL    HW156413   5.969   6.757   5.563 -0.2747  0.2689  1.9662
18324SOL    HW256414   6.086   6.699   5.640 -0.6445 -1.1149  1.5158
18325SOL     OW56415   7.925   1.355   2.927 -0.1931  0.0438  0.0745
18325SOL    HW156416   7.867   1.291   2.886 -0.1723 -1.3304  2.0404
18325SOL    HW256417   7.983   1.383   2.857 -1.2687 -0.8602 -1.2324
18326SOL     OW56418   7.682   2.306   4.684 -0.3616  0.1776 -0.0492
18326SOL    HW156419   7.777   2.305   4.700 -0.3722 -1.1954  0.0185
18326SOL    HW256420   7.664   2.222   4.642 -1.7161 -0.0202  0.8663
18327SOL     OW56421   0.178   1.268   1.402 -0.0666 -0.4486  0.4181
18327SOL    HW156422   0.147   1.226   1.322 -1.4887  0.2602  0.5716
18327SOL    HW256423   0.249   1.212   1.433  1.6930  0.1388 -2.2277
18328SOL     OW56424   6.073   0.676   2.805  0.5279  0.4807 -0.0771
18328SOL    HW156425   6.079   0.687   2.900 -3.4984  3.3053  0.0970
18328SOL    HW256426   6.016   0.599   2.793  0.8086  0.2928 -0.2203
18329SOL     OW56427   5.014   0.999   3.779  0.1968  0.0376 -0.5023
18329SOL    HW156428   4.986   0.954   3.699 -1.8819  0.2273  0.0628
18329SOL    HW256429   4.976   1.086   3.771  1.2880  0.5808  0.0108
18330SOL     OW56430   6.334   1.131   4.440  0.2752 -0.4473  0.3259
18330SOL    HW156431   6.314   1.191   4.512  1.1239 -0.6566  0.7523
18330SOL    HW256432   6.249   1.109   4.402 -0.1863 -0.3418  1.2769
18331SOL     OW56433   7.229   0.377   3.628  0.2788 -0.0715  0.0221
18331SOL    HW156434   7.246   0.471   3.622  0.5772 -0.0508  0.9343
18331SOL    HW256435   7.134   0.370   3.636  0.2102  0.1148 -0.6347
18332SOL     OW56436   5.871   1.449   3.433 -0.2015  0.1423  0.2193
18332SOL    HW156437   5.798   1.497   3.472 -0.5048 -0.7398  0.7717
18332SOL    HW256438   5.949   1.498   3.459 -0.4978  0.2625  0.8997
18333SOL     OW56439   6.126   3.129   2.667 -0.3407  0.7244 -0.7007
18333SOL    HW156440   6.102   3.176   2.747  0.9651 -2.7714  2.0223
18333SOL    HW256441   6.208   3.168   2.639 -0.1141  1.1381  0.4980
18334SOL     OW56442   5.430   7.262   3.061 -0.4191 -0.6395  0.6513
18334SOL    HW156443   5.440   7.295   3.150 -0.3043 -1.1194  0.8171
18334SOL    HW256444   5.511   7.214   3.044 -0.6496 -0.9660  0.4687
18335SOL     OW56445   7.116   1.004   4.652 -0.0805  0.1919 -0.5031
18335SOL    HW156446   7.086   0.918   4.623 -0.2479  0.9638 -2.7983
18335SOL    HW256447   7.167   0.986   4.731  0.0795 -2.0376 -1.0525
18336SOL     OW56448   7.454   1.931   0.817 -0.1121 -0.0821  0.4044
18336SOL    HW156449   7.409   2.015   0.810 -0.9535 -0.4884  0.7712
18336SOL    HW256450   7.414   1.889   0.893  0.4993 -0.6956  0.3966
18337SOL     OW56451   5.481   1.128   1.877  0.3673  0.2290  0.0042
18337SOL    HW156452   5.437   1.050   1.912  0.4605 -0.0557 -0.5003
18337SOL    HW256453   5.446   1.200   1.929 -0.0832 -0.0921  0.1574
18338SOL     OW56454   5.273   1.839   5.299  0.0705  0.8653  0.1815
18338SOL    HW156455   5.271   1.924   5.342 -0.8665 -0.1465  2.3143
18338SOL    HW256456   5.229   1.852   5.215 -2.2206  2.0121  1.4730
18339SOL     OW56457   5.539   2.406   5.429  0.2222  0.4347  0.4332
18339SOL    HW156458   5.546   2.322   5.475 -0.6811  0.2950  0.3426
18339SOL    HW256459   5.447   2.409   5.400 -0.1547  2.1185  1.6889
18340SOL     OW56460   5.919   0.928   2.836  0.4750  0.0951 -0.1462
18340SOL    HW156461   5.974   0.867   2.786 -1.4269  0.2060 -2.5949
18340SOL    HW256462   5.913   0.890   2.923  2.7075 -0.9752 -0.4049
18341SOL     OW56463   6.481   0.459   2.732  0.4386  0.5562  0.3611
18341SOL    HW156464   6.414   0.445   2.666  1.1279  1.0655 -0.4859
18341SOL    HW256465   6.478   0.382   2.788 -1.6251  1.0986  1.0633
18342SOL     OW56466   6.884   0.534   4.351 -0.0636 -0.1868  0.7514
18342SOL    HW156467   6.896   0.629   4.356  1.3462 -0.3951  2.3407
18342SOL    HW256468   6.841   0.511   4.434 -0.2362 -0.9617  0.4567
18343SOL     OW56469   4.277   7.241   2.700 -0.0162 -0.8935  0.0170
18343SOL    HW156470   4.215   7.182   2.656  0.7316 -1.6013 -0.1234
18343SOL    HW256471   4.360   7.223   2.657  0.4467 -0.5367  0.7532
18344SOL     OW56472   6.487   2.568   0.607  0.0523  0.2527  0.3224
18344SOL    HW156473   6.570   2.551   0.653 -0.0409  0.0629  0.4214
18344SOL    HW256474   6.425   2.588   0.676 -0.1571 -0.3185  0.3074
18345SOL     OW56475   6.718   0.091   3.401  0.0869  0.1011  0.3969
18345SOL    HW156476   6.669   0.169   3.427 -0.3615  0.5074 -1.5363
18345SOL    HW256477   6.751   0.055   3.484  0.3676  2.3641  1.3443
18346SOL     OW56478   5.208   1.035   3.985  0.3758  0.4822  0.0848
18346SOL    HW156479   5.171   1.106   4.039  1.9489  2.4657 -1.2866
18346SOL    HW256480   5.148   1.029   3.911  1.6207  2.3495 -1.1582
18347SOL     OW56481   5.747   2.015   3.886  0.6275 -0.2389  0.2828
18347SOL    HW156482   5.662   2.030   3.845  0.5804 -0.0470  0.4524
18347SOL    HW256483   5.769   1.925   3.862  0.7867  0.0007 -0.5070
18348SOL     OW56484   7.833   0.802   2.527 -0.6211 -0.0628 -0.3864
18348SOL    HW156485   7.896   0.813   2.599  0.3081 -2.6960 -0.6945
18348SOL    HW256486   7.772   0.875   2.538  0.5633  0.6943  1.9383
18349SOL     OW56487   6.114   1.111   3.380  0.4195 -0.1789 -0.2906
18349SOL    HW156488   6.100   1.017   3.369 -2.3022  0.1762 -0.4879
18349SOL    HW256489   6.128   1.143   3.291  2.7047 -0.4936 -0.1171
18350SOL     OW56490   7.868   1.661   2.649  0.1586  0.2820  0.4586
18350SOL    HW156491   7.790   1.609   2.631  0.3556  0.1138  0.0916
18350SOL    HW256492   7.854   1.694   2.738 -0.4340  0.4423  0.3129
18351SOL     OW56493   7.114   7.439   0.871 -0.1445 -0.0276  0.5454
18351SOL    HW156494   7.152   7.448   0.958 -0.1933 -1.2984  0.7172
18351SOL    HW256495   7.161   7.502   0.817  0.5288  0.1130  1.2837
18352SOL     OW56496   4.755   1.937   1.858 -0.4570 -0.0559  0.3259
18352SOL    HW156497   4.659   1.941   1.861 -0.5437  0.5586 -1.8032
18352SOL    HW256498   4.782   2.024   1.832  0.6493 -0.4215  0.2194
18353SOL     OW56499   7.436   1.871   0.544 -0.1318 -0.8837 -0.1298
18353SOL    HW156500   7.523   1.890   0.509 -1.1702  0.7227 -2.0163
18353SOL    HW256501   7.443   1.891   0.637  0.9624  1.4549 -0.6366
18354SOL     OW56502   6.109   7.375   3.069  1.0707  0.3432 -0.1939
18354SOL    HW156503   6.124   7.345   2.979  0.9709  1.2728 -0.5303
18354SOL    HW256504   6.039   7.319   3.101  1.9265 -0.8162 -0.2687
18355SOL     OW56505   5.655   6.686   5.413 -0.4326  0.1123 -0.3507
18355SOL    HW156506   5.623   6.754   5.472 -2.4400 -1.1391  0.0976
18355SOL    HW256507   5.673   6.611   5.470 -1.0073 -0.6479 -1.1429
18356SOL     OW56508   3.979   6.405   5.589  0.2196  0.5606  0.1312
18356SOL    HW156509   3.942   6.459   5.659  0.8550 -0.1989  1.0937
18356SOL    HW256510   3.914   6.407   5.519 -0.7650  0.7832  1.0218
18357SOL     OW56511   5.255   0.777   6.232  0.0142 -0.3522 -0.7248
18357SOL    HW156512   5.280   0.704   6.288 -1.2046  1.2281  2.1341
18357SOL    HW256513   5.165   0.798   6.259  0.2769  2.0873 -1.4925
18358SOL     OW56514   6.619   2.542   3.275  0.5110 -0.4974  0.1105
18358SOL    HW156515   6.624   2.636   3.294  0.6873 -0.6853  1.0521
18358SOL    HW256516   6.581   2.504   3.354  1.7417 -1.3899  0.3008
18359SOL     OW56517   6.129   0.439   4.458  0.3435  0.5381  1.0633
18359SOL    HW156518   6.149   0.490   4.536  2.1991 -1.7644  2.1792
18359SOL    HW256519   6.213   0.405   4.428 -0.0198  2.5595 -2.9502
18360SOL     OW56520   6.640   0.712   5.640 -0.0764  0.2801  0.1484
18360SOL    HW156521   6.587   0.790   5.622 -1.1872 -0.7601 -1.3143
18360SOL    HW256522   6.588   0.663   5.704 -0.0835  0.0497 -0.0349
18361SOL     OW56523   5.535   0.356   3.930  0.1655 -0.4498 -0.4486
18361SOL    HW156524   5.447   0.349   3.967 -0.3974  0.7841 -1.4550
18361SOL    HW256525   5.572   0.268   3.941 -1.1622 -0.9867  0.0653
18362SOL     OW56526   5.471   0.584   5.946  0.0585 -0.4755 -0.4962
18362SOL    HW156527   5.490   0.657   6.004  0.0405 -1.1506  0.3863
18362SOL    HW256528   5.429   0.518   6.003  0.3816 -1.3008 -1.1858
18363SOL     OW56529   4.383   2.065   4.506 -0.2749 -0.3626 -0.4200
18363SOL    HW156530   4.365   2.155   4.533 -0.8219 -0.1171 -1.5529
18363SOL    HW256531   4.302   2.035   4.466 -0.0548 -1.3244 -0.1763
18364SOL     OW56532   7.450   0.330   6.775 -0.1786  0.3854  0.1047
18364SOL    HW156533   7.421   0.376   6.853 -2.4726  0.6186 -0.8244
18364SOL    HW256534   7.370   0.309   6.727  1.1592  1.2218 -2.7411
18365SOL     OW56535   5.184   1.442   3.038  0.1650  0.1729  0.1051
18365SOL    HW156536   5.132   1.429   2.959 -0.3972  1.3010  0.2590
18365SOL    HW256537   5.138   1.393   3.106 -0.2869  0.5602  0.0810
18366SOL     OW56538   0.194   1.013   6.466  0.6180  0.0901 -0.7049
18366SOL    HW156539   0.286   1.014   6.491  0.8243  1.2638 -1.4211
18366SOL    HW256540   0.169   1.106   6.463 -1.0540 -0.2422  1.1072
18367SOL     OW56541   5.806   2.164   6.502  0.2579  0.0069 -0.0519
18367SOL    HW156542   5.804   2.091   6.563 -0.7338  0.6331  0.7014
18367SOL    HW256543   5.890   2.206   6.516  0.2766 -0.2017  0.4563
18368SOL     OW56544   0.409   7.721   5.105  0.9016 -0.0888 -0.0658
18368SOL    HW156545   0.407   7.685   5.016 -0.6758 -1.8683  0.6304
18368SOL    HW256546   0.478   7.788   5.102  1.3534 -0.5694 -2.4306
18369SOL     OW56547   5.064   2.324   5.007 -0.0336 -0.3081  0.3075
18369SOL    HW156548   5.054   2.419   4.998  0.8842 -0.3139 -1.0879
18369SOL    HW256549   4.976   2.289   4.990 -0.7405  0.3493  2.4127
18370SOL     OW56550   6.984   0.430   6.713  0.2626  0.1222 -0.5091
18370SOL    HW156551   7.026   0.405   6.631 -0.8410 -0.8909 -0.7984
18370SOL    HW256552   6.890   0.431   6.693  0.1081  2.2803  0.1202
18371SOL     OW56553   6.164   1.764   4.407 -0.0942 -0.0151  0.5097
18371SOL    HW156554   6.216   1.770   4.487  0.4220 -0.6222  0.2343
18371SOL    HW256555   6.213   1.816   4.343 -0.3774  0.2698  0.5253
18372SOL     OW56556   5.058   0.629   5.613  0.0248  0.2546  0.2308
18372SOL    HW156557   5.071   0.617   5.519 -0.7402 -0.1134  0.1706
18372SOL    HW256558   5.141   0.666   5.643 -0.2201  1.7426 -0.8174
18373SOL     OW56559   5.855   1.232   6.769 -0.7753 -0.4921 -0.4243
18373SOL    HW156560   5.885   1.302   6.710  0.0327  0.1203  0.6775
18373SOL    HW256561   5.760   1.246   6.776 -0.6080  0.5735 -0.1319
18374SOL     OW56562   5.480   7.600   2.735  0.0732  0.0201  0.4366
18374SOL    HW156563   5.491   7.507   2.758  0.1982 -0.2416 -0.6096
18374SOL    HW256564   5.443   7.640   2.814  2.1511 -0.4392  1.7104
18375SOL     OW56565   7.507   7.570   5.363 -0.0205  0.1250  0.1999
18375SOL    HW156566   7.437   7.519   5.323  1.1240 -2.7645  1.5947
18375SOL    HW256567   7.475   7.589   5.452  0.0532  0.8880  0.0771
18376SOL     OW56568   4.376   7.610   4.581  0.3334  0.0432  0.5743
18376SOL    HW156569   4.461   7.606   4.537 -0.5117 -0.1837 -1.1098
18376SOL    HW256570   4.373   7.530   4.633 -0.0981 -1.5942 -1.8229
18377SOL     OW56571   7.766   0.997   3.529  0.3447 -0.4093  0.3311
18377SOL    HW156572   7.726   0.934   3.589  0.3462 -0.4112  0.3303
18377SOL    HW256573   7.860   0.989   3.544  0.3499 -0.4726  0.2647
18378SOL     OW56574   4.578   2.085   4.286 -0.0892 -0.0402  0.3241
18378SOL    HW156575   4.518   2.103   4.359 -0.7578 -0.9709  0.0302
18378SOL    HW256576   4.646   2.152   4.293 -1.3417  1.2684  0.4732
18379SOL     OW56577   5.590   1.823   4.510  0.2004  0.3251 -0.1902
18379SOL    HW156578   5.561   1.784   4.427 -0.8473 -1.1176  0.8016
18379SOL    HW256579   5.561   1.914   4.506 -0.5358  0.0651 -1.0751
18380SOL     OW56580   6.918   1.255   5.096  0.0642 -0.3241 -0.5829
18380SOL    HW156581   6.924   1.192   5.024 -0.0719 -1.3144  0.2610
18380SOL    HW256582   6.924   1.202   5.175  0.9548  0.8214  0.1452
18381SOL     OW56583   6.275   6.707   5.680 -0.1424  0.1036  0.1643
18381SOL    HW156584   6.273   6.614   5.661 -0.8086  0.1931 -0.1996
18381SOL    HW256585   6.305   6.712   5.771 -2.2728 -0.5899  0.9588
18382SOL     OW56586   4.778   0.881   5.404  0.5011 -0.1979  0.3788
18382SOL    HW156587   4.838   0.851   5.336  0.4210  0.3895  0.0394
18382SOL    HW256588   4.834   0.895   5.480  0.3433 -2.4595  0.9681
18383SOL     OW56589   4.839   0.422   5.703 -0.6595 -0.2814 -0.7861
18383SOL    HW156590   4.747   0.449   5.693 -0.7982 -0.9901 -1.5055
18383SOL    HW256591   4.888   0.503   5.697 -1.3450  0.4022  1.6426
18384SOL     OW56592   7.672   0.792   4.255  0.3520 -0.0465 -0.1622
18384SOL    HW156593   7.702   0.853   4.322  0.6054  0.7277 -0.9654
18384SOL    HW256594   7.628   0.847   4.190  0.8330 -0.6862 -1.0451
18385SOL     OW56595   0.629   7.555   6.279  0.2676  0.2973  0.2455
18385SOL    HW156596   0.547   7.605   6.275 -1.4739 -2.2542  1.5524
18385SOL    HW256597   0.645   7.542   6.372  0.1578 -2.2379 -0.0272
18386SOL     OW56598   7.912   1.394   3.662 -0.0671 -0.0133  0.3039
18386SOL    HW156599   7.928   1.373   3.570  1.4038 -1.1668  0.7902
18386SOL    HW256600   7.823   1.430   3.663 -0.3198 -0.4978 -1.4814
18387SOL     OW56601   0.080   2.407   6.729  0.0122  0.2362 -0.0520
18387SOL    HW156602   0.003   2.403   6.786  1.1293  1.4678  1.6280
18387SOL    HW256603   0.132   2.331   6.755 -0.6571 -0.7057 -1.3202
18388SOL     OW56604   6.287   0.131   6.910 -0.0402 -0.0829  0.2981
18388SOL    HW156605   6.242   0.047   6.920 -0.6045  0.3953  2.0096
18388SOL    HW256606   6.376   0.114   6.938 -0.1088 -0.1541  0.4738
18389SOL     OW56607   0.397   1.118   4.766 -0.2648 -0.0558  0.1603
18389SOL    HW156608   0.411   1.212   4.777 -2.3372  0.2007  1.0526
18389SOL    HW256609   0.399   1.083   4.854  0.9392 -0.9786 -0.1961
18390SOL     OW56610   6.608   2.434   3.693 -0.1805 -0.4130  0.2774
18390SOL    HW156611   6.682   2.495   3.694 -0.0489 -0.5329  2.3770
18390SOL    HW256612   6.636   2.364   3.634  2.2032 -1.3352  2.2952
18391SOL     OW56613   7.132   0.850   2.707 -0.1043 -0.7431 -0.1990
18391SOL    HW156614   7.141   0.822   2.615 -0.8315 -2.2443  0.1465
18391SOL    HW256615   7.038   0.865   2.718 -0.1170 -1.2595  0.4689
18392SOL     OW56616   6.504   0.847   6.453  0.1926 -0.0843  0.7062
18392SOL    HW156617   6.414   0.838   6.422  0.0999  0.2491  0.8751
18392SOL    HW256618   6.535   0.757   6.464 -1.7131 -0.4439  5.2957
18393SOL     OW56619   6.360   1.986   4.571  0.4362  0.7292 -0.2761
18393SOL    HW156620   6.280   1.971   4.621  0.2953  0.5228 -0.5609
18393SOL    HW256621   6.359   2.080   4.552  0.0741  0.6665 -0.5853
18394SOL     OW56622   4.998   0.985   3.244  0.2468 -0.1281 -0.4518
18394SOL    HW156623   5.046   0.943   3.173  0.2104 -0.4451 -0.2916
18394SOL    HW256624   4.922   0.928   3.258 -0.8016  0.9590 -1.4780
18395SOL     OW56625   7.417   0.224   4.685 -0.0473  0.0843 -0.0879
18395SOL    HW156626   7.354   0.209   4.615  1.0082  0.0009 -1.0606
18395SOL    HW256627   7.470   0.297   4.654  0.6494 -0.1665  0.4741
18396SOL     OW56628   5.961   1.470   5.478  0.4410  0.3816 -0.0181
18396SOL    HW156629   5.928   1.386   5.446  0.5330  0.1863  0.3960
18396SOL    HW256630   5.935   1.473   5.570  0.1005  0.9789 -0.1257
18397SOL     OW56631   6.407   0.037   4.585  0.1684  0.4124  0.1661
18397SOL    HW156632   6.488  -0.005   4.614 -0.7956 -1.6298  0.1526
18397SOL    HW256633   6.372   0.079   4.664  1.7469  2.2720 -0.0814
18398SOL     OW56634   7.535   0.949   6.516 -0.3152 -0.0665  0.2794
18398SOL    HW156635   7.556   0.866   6.558  1.4911 -0.6970 -1.7109
18398SOL    HW256636   7.620   0.993   6.505 -1.3315  2.9862  2.9267
18399SOL     OW56637   4.102   7.687   6.125 -0.4737  0.1071 -0.1166
18399SOL    HW156638   4.143   7.762   6.167 -0.3302 -0.2261  0.3485
18399SOL    HW256639   4.026   7.667   6.180  1.5166 -2.3722  1.9695
18400SOL     OW56640   5.703   4.018   4.275 -0.2835 -0.7036  0.0833
18400SOL    HW156641   5.706   3.970   4.193  2.7735  0.1634 -0.4427
18400SOL    HW256642   5.614   4.053   4.280 -1.6419 -3.6964 -1.0250
18401SOL     OW56643   4.054   0.122   1.506  0.1252 -0.2139  0.6996
18401SOL    HW156644   4.079   0.195   1.563 -0.5641 -0.4571  1.3343
18401SOL    HW256645   4.108   0.049   1.537  0.7082 -0.0177  0.1613
18402SOL     OW56646   0.306   2.417   4.643  0.0068 -0.4367  0.1839
18402SOL    HW156647   0.223   2.402   4.689  0.3839 -0.4331  0.8774
18402SOL    HW256648   0.344   2.330   4.634  0.7423 -0.2755  1.4444
18403SOL     OW56649   0.868   1.224   4.665 -0.2551 -0.0192  0.1979
18403SOL    HW156650   0.961   1.224   4.685  0.6693  1.4958 -3.3570
18403SOL    HW256651   0.831   1.296   4.717  1.0525  0.9219 -0.1451
18404SOL     OW56652   3.701   5.392   4.619 -1.3040  0.4622 -0.2983
18404SOL    HW156653   3.774   5.443   4.654 -1.7721  0.3741  0.8400
18404SOL    HW256654   3.744   5.315   4.580 -0.8414 -0.5019  1.9443
18405SOL     OW56655   7.095   1.547   4.776  0.4384 -0.2048 -0.4019
18405SOL    HW156656   7.013   1.590   4.801  0.4603  0.1502 -0.9216
18405SOL    HW256657   7.117   1.491   4.851 -0.9139 -1.2391 -0.7403
18406SOL     OW56658   5.860   2.633   6.142  0.3841 -0.1144 -0.8773
18406SOL    HW156659   5.953   2.646   6.161  0.2376 -1.9000  1.5053
18406SOL    HW256660   5.858   2.593   6.055  1.7775  0.3692 -1.1551
18407SOL     OW56661   6.173   0.288   6.035  0.2193  0.1105  0.3908
18407SOL    HW156662   6.185   0.202   5.994 -1.0820  0.3683 -0.5723
18407SOL    HW256663   6.231   0.346   5.986 -0.9234  0.3068 -0.7904
18408SOL     OW56664   6.662   3.277   6.131  0.4639 -0.1790  0.0263
18408SOL    HW156665   6.661   3.342   6.061  1.1850  0.4865  0.6190
18408SOL    HW256666   6.588   3.299   6.187  0.7085  0.1399  0.2276
18409SOL     OW56667   5.097   7.430   3.854  0.5725 -0.6754  0.0933
18409SOL    HW156668   5.179   7.473   3.879  0.7114 -0.7934 -0.1624
18409SOL    HW256669   5.029   7.490   3.886  0.6936 -1.5048  2.0970
18410SOL     OW56670   7.342   0.387   3.248 -0.0722  0.6755 -0.1527
18410SOL    HW156671   7.406   0.359   3.182 -0.3169  1.0343 -0.5486
18410SOL    HW256672   7.371   0.475   3.272 -0.8780  1.1766 -0.9433
18411SOL     OW56673   4.535   1.560   5.179 -0.2247 -0.2553 -0.8021
18411SOL    HW156674   4.559   1.605   5.098  0.9336  2.0926  0.7039
18411SOL    HW256675   4.442   1.578   5.190 -0.2728 -0.1537 -1.3478
18412SOL     OW56676   6.774   1.337   3.532 -0.1604 -0.6313 -0.0553
18412SOL    HW156677   6.750   1.281   3.458  0.1678 -1.6579  0.6036
18412SOL    HW256678   6.858   1.376   3.506 -1.2713  1.0607 -1.3154
18413SOL     OW56679   4.905   7.114   4.527 -0.0730 -0.1615 -0.0806
18413SOL    HW156680   4.987   7.113   4.477  0.0091 -0.7820  0.0592
18413SOL    HW256681   4.893   7.206   4.551  1.3604 -0.2487  1.1341
18414SOL     OW56682   5.628   0.254   2.324 -0.4897  0.0171 -0.0264
18414SOL    HW156683   5.724   0.249   2.330 -0.4911 -0.7444 -0.5279
18414SOL    HW256684   5.597   0.214   2.406 -0.3799  0.3909  0.2001
18415SOL     OW56685   0.012   0.950   3.607 -0.1152 -0.2115  0.2140
18415SOL    HW156686   0.009   0.978   3.698 -0.1146 -0.8632  0.4174
18415SOL    HW256687   0.098   0.978   3.576 -0.2519  0.3233  0.3056
18416SOL     OW56688   7.338   6.962   5.543  0.3958 -0.2369  0.0323
18416SOL    HW156689   7.320   6.933   5.633  0.4374 -1.4893 -0.3444
18416SOL    HW256690   7.360   6.882   5.496 -0.0910  0.3362 -1.2175
18417SOL     OW56691   5.256   1.295   6.874 -0.0695  0.1260  1.1511
18417SOL    HW156692   5.322   1.241   6.831  0.1237 -0.2356  1.8829
18417SOL    HW256693   5.262   1.380   6.831 -1.5779 -0.8882 -1.2578
18418SOL     OW56694   4.799   0.216   2.716  0.9772 -0.3611 -0.3171
18418SOL    HW156695   4.786   0.306   2.746 -1.2488 -0.5594 -0.5009
18418SOL    HW256696   4.729   0.167   2.759  0.1511 -1.3800 -2.6784
18419SOL     OW56697   4.405   7.652   3.192  0.0220  0.4476 -0.0519
18419SOL    HW156698   4.319   7.619   3.165  0.5616 -0.6473 -0.5035
18419SOL    HW256699   4.402   7.647   3.288 -0.1720 -0.2686 -0.0846
18420SOL     OW56700   6.585   1.070   4.700  0.1483  0.1557  0.1577
18420SOL    HW156701   6.589   1.054   4.795 -0.2151 -1.2526 -0.0385
18420SOL    HW256702   6.534   1.150   4.691 -1.9250 -0.9905  1.0667
18421SOL     OW56703   5.753   0.566   2.188 -0.1040  0.1333 -0.2837
18421SOL    HW156704   5.797   0.506   2.248 -0.3358  0.4616  0.2141
18421SOL    HW256705   5.747   0.517   2.106 -0.7082 -0.7076  0.2446
18422SOL     OW56706   0.005   7.211   6.183  0.2636 -0.4904 -0.3089
18422SOL    HW156707  -0.088   7.231   6.197  0.6436  0.9882  0.3210
18422SOL    HW256708   0.041   7.206   6.271  1.2583  1.5362 -0.5365
18423SOL     OW56709   7.263   2.671   6.085 -0.1093 -0.3743  0.1862
18423SOL    HW156710   7.224   2.584   6.075  0.0788 -0.3065 -1.4712
18423SOL    HW256711   7.340   2.669   6.028  0.5029  0.5391  0.9509
18424SOL     OW56712   7.695   0.589   7.460  0.2974  0.3098 -0.0561
18424SOL    HW156713   7.681   0.498   7.487 -0.9138  0.9817  1.7623
18424SOL    HW256714   7.734   0.582   7.373  1.6670 -1.9734  0.6362
18425SOL     OW56715   7.646   0.616   6.364  0.2458  0.2068  0.2171
18425SOL    HW156716   7.708   0.581   6.300 -0.5051  0.5099 -0.6992
18425SOL    HW256717   7.700   0.666   6.425  0.9457  0.1465 -0.3417
18426SOL     OW56718   6.085   7.858   7.047 -0.6373 -0.0178 -0.0779
18426SOL    HW156719   6.109   7.845   6.955 -0.0008  0.0073  0.0851
18426SOL    HW256720   6.000   7.903   7.043 -1.4253 -1.4745 -0.6516
18427SOL     OW56721   5.700   0.729   4.876 -0.0433  0.1240  0.1137
18427SOL    HW156722   5.654   0.651   4.905 -0.1160 -0.0013 -0.3246
18427SOL    HW256723   5.714   0.715   4.782 -0.2425  0.7204 -0.0132
18428SOL     OW56724   7.409   1.369   4.230  0.3016 -0.2036  0.4095
18428SOL    HW156725   7.416   1.406   4.141  0.1521 -1.4704 -0.1532
18428SOL    HW256726   7.317   1.378   4.253  0.9614  4.1067  2.2857
18429SOL     OW56727   4.322   6.650   5.246 -0.3695 -0.2167 -0.5558
18429SOL    HW156728   4.285   6.699   5.320  1.5394 -0.0584  0.3518
18429SOL    HW256729   4.329   6.560   5.279  1.5582  0.0732 -0.0760
18430SOL     OW56730   6.786   0.579   3.964 -0.4243  0.5148 -0.5525
18430SOL    HW156731   6.859   0.521   3.987 -0.3905  0.6797 -0.2344
18430SOL    HW256732   6.708   0.536   3.999 -0.5384  0.1233 -1.2718
18431SOL     OW56733   4.598   2.303   5.773 -0.2829 -0.1974 -0.1975
18431SOL    HW156734   4.513   2.281   5.811 -0.2974  1.2660  0.7026
18431SOL    HW256735   4.577   2.360   5.700 -0.0701  0.4429  0.2347
18432SOL     OW56736   4.971   1.069   5.190 -0.3927  0.0210  1.0028
18432SOL    HW156737   4.955   0.975   5.191  0.4592 -0.1463 -0.0742
18432SOL    HW256738   4.912   1.102   5.122  0.6458 -0.0085  0.0639
18433SOL     OW56739   6.039   2.253   4.751  0.3101 -0.4996 -0.3026
18433SOL    HW156740   5.974   2.184   4.766  0.7014 -0.7054  0.4837
18433SOL    HW256741   5.995   2.334   4.777  0.7917 -0.7851  1.5088
18434SOL     OW56742   6.784   1.751   4.441 -0.2877  0.0258 -0.0819
18434SOL    HW156743   6.826   1.671   4.410  0.6050  0.0554  0.9846
18434SOL    HW256744   6.691   1.733   4.435 -0.1029 -0.9487 -0.2112
18435SOL     OW56745   6.656   6.928   5.170 -0.2591 -0.2657 -0.3361
18435SOL    HW156746   6.602   6.957   5.097 -0.3396 -0.8078 -0.4948
18435SOL    HW256747   6.593   6.901   5.237 -0.1865 -0.5045 -0.3630
18436SOL     OW56748   7.235   7.661   4.590 -0.4246 -0.3839 -0.2563
18436SOL    HW156749   7.323   7.626   4.608 -0.5935 -0.8245 -0.2792
18436SOL    HW256750   7.239   7.688   4.499  0.0066  0.5650  0.0352
18437SOL     OW56751   7.021   0.219   5.117 -1.0667  0.4853 -0.1767
18437SOL    HW156752   6.995   0.310   5.106  0.2931  0.8343 -0.7036
18437SOL    HW256753   6.985   0.174   5.041 -2.1322  0.4806  0.3202
18438SOL     OW56754   6.968   7.315   4.974 -0.1512  0.3132 -0.1118
18438SOL    HW156755   6.906   7.288   4.907  0.7199 -0.0610 -0.7773
18438SOL    HW256756   7.031   7.371   4.929  0.9536 -0.6536  0.1782
18439SOL     OW56757   7.949   6.644   5.819 -0.3121 -0.1978 -0.5909
18439SOL    HW156758   7.863   6.685   5.828 -1.1545 -1.9589  0.0850
18439SOL    HW256759   7.946   6.601   5.734  0.6034  1.1743 -1.3487
18440SOL     OW56760   6.207   2.510   4.819  0.1728 -0.2959 -0.2378
18440SOL    HW156761   6.274   2.452   4.854 -0.6604 -0.9196  0.3412
18440SOL    HW256762   6.124   2.472   4.847 -0.6389 -1.4531 -3.7420
18441SOL     OW56763   5.993   1.191   5.089 -0.7800 -0.1867 -0.6401
18441SOL    HW156764   6.016   1.251   5.160 -0.6309  0.8848 -1.5597
18441SOL    HW256765   6.077   1.163   5.053 -0.8467  0.3784 -1.2690
18442SOL     OW56766   7.578   0.508   3.553  0.1863 -0.2015  0.3727
18442SOL    HW156767   7.485   0.500   3.573  0.6037  0.1754  2.7537
18442SOL    HW256768   7.598   0.433   3.497 -2.0004  1.0131 -2.2675
18443SOL     OW56769   5.328   6.555   4.912 -0.1116 -0.4000  0.3787
18443SOL    HW156770   5.284   6.488   4.859  1.3224 -1.2632  0.2512
18443SOL    HW256771   5.259   6.619   4.931 -0.9919 -0.7554 -1.3855
18444SOL     OW56772   7.961   1.500   3.164  0.3735  0.0371 -0.1865
18444SOL    HW156773   7.895   1.459   3.220 -0.5332  1.3617 -0.2398
18444SOL    HW256774   7.944   1.465   3.077 -0.3624  0.4620 -0.2242
18445SOL     OW56775   7.510   0.635   4.391 -0.3763  0.2445 -0.0329
18445SOL    HW156776   7.576   0.683   4.341 -0.1398  0.0481  0.0867
18445SOL    HW256777   7.443   0.611   4.327  0.5787 -1.1894 -0.5552
18446SOL     OW56778   4.262   6.102   3.523 -0.8225 -0.4011  0.1497
18446SOL    HW156779   4.234   6.108   3.614 -0.2209 -0.4847  0.3451
18446SOL    HW256780   4.281   6.009   3.511  1.4718 -0.0639  0.6784
18447SOL     OW56781   1.103   7.910   3.568 -0.3837  0.2214 -0.3099
18447SOL    HW156782   1.113   7.908   3.663 -0.7024 -1.1986 -0.2805
18447SOL    HW256783   1.052   7.832   3.548 -0.0652  0.3403 -1.6759
18448SOL     OW56784   7.088   1.641   5.108  0.2663  0.3152 -0.3266
18448SOL    HW156785   7.005   1.623   5.063  0.3760 -2.0024  0.2626
18448SOL    HW256786   7.112   1.558   5.148  2.3802  1.1981  0.3917
18449SOL     OW56787   7.887   0.932   7.191  0.3580  0.3803  0.6255
18449SOL    HW156788   7.896   1.015   7.238  1.7836  0.5974 -0.0004
18449SOL    HW256789   7.951   0.874   7.232  1.0402  0.3252 -0.4754
18450SOL     OW56790   6.226   0.235   5.639  0.7214  0.0331 -0.2468
18450SOL    HW156791   6.245   0.143   5.618  0.6741  0.0587 -0.4080
18450SOL    HW256792   6.141   0.232   5.682  1.0219 -0.0673  0.3524
18451SOL     OW56793   7.326   0.628   4.177 -0.4211 -0.3525  0.2837
18451SOL    HW156794   7.249   0.572   4.163 -0.8681  0.5109 -0.8494
18451SOL    HW256795   7.357   0.649   4.089  1.0868 -0.6245  0.7331
18452SOL     OW56796   6.375   0.038   5.526  0.1324  0.3735 -0.2321
18452SOL    HW156797   6.327  -0.041   5.552 -0.5576  0.4357 -1.2315
18452SOL    HW256798   6.466   0.011   5.524 -0.0291 -0.2091  0.1349
18453SOL     OW56799   6.892   0.243   7.033  0.6647 -0.2259  0.8242
18453SOL    HW156800   6.887   0.333   7.065 -1.6814 -0.1861  0.4434
18453SOL    HW256801   6.831   0.194   7.088 -0.6544 -0.8937 -1.1498
18454SOL     OW56802   5.556   0.852   5.103  0.1206  0.2475 -0.1194
18454SOL    HW156803   5.526   0.932   5.061  0.2263  0.2231 -0.2413
18454SOL    HW256804   5.612   0.810   5.038 -0.7731 -0.4560 -0.4606
18455SOL     OW56805   7.036   0.153   6.835 -0.0171  0.1796  0.3078
18455SOL    HW156806   6.979   0.170   6.910 -0.3089  0.4978  0.0154
18455SOL    HW256807   7.038   0.235   6.787 -0.9145 -0.4134 -0.7726
18456SOL     OW56808   7.537   7.943   5.429  0.6468  0.2020 -0.5025
18456SOL    HW156809   7.603   7.888   5.386  1.5013  0.9742 -0.2059
18456SOL    HW256810   7.570   8.032   5.418 -0.3128  0.5928 -0.2678
18457SOL     OW56811   5.740   1.805   6.349  0.6505  0.5281  0.7832
18457SOL    HW156812   5.728   1.787   6.256  0.2475  1.7751  0.5731
18457SOL    HW256813   5.710   1.895   6.360  1.4619  0.6810  1.9709
18458SOL     OW56814   6.571   0.309   3.460 -0.2895  0.2471  0.3395
18458SOL    HW156815   6.480   0.329   3.483 -1.2902 -1.9664 -1.3745
18458SOL    HW256816   6.591   0.370   3.389 -0.9876 -0.2385 -0.2951
18459SOL     OW56817   3.718   7.727   5.145 -0.5026 -0.4832 -0.3129
18459SOL    HW156818   3.769   7.694   5.219 -1.7768 -2.1417 -0.1176
18459SOL    HW256819   3.769   7.801   5.113 -0.2778  0.8032  2.6746
18460SOL     OW56820   6.565   2.127   4.346 -0.4941  0.4778  0.1603
18460SOL    HW156821   6.496   2.115   4.412 -0.1919  0.0095  0.3984
18460SOL    HW256822   6.518   2.151   4.267 -0.7694  2.7391  0.9305
18461SOL     OW56823   7.703   7.599   4.172  0.1993 -0.7910  0.7449
18461SOL    HW156824   7.623   7.601   4.225  0.9201  0.0732  1.8706
18461SOL    HW256825   7.746   7.683   4.192  1.4553 -1.3056  0.2908
18462SOL     OW56826   6.441   0.434   4.091  0.4509 -0.7940 -0.0302
18462SOL    HW156827   6.445   0.529   4.095 -1.3841 -0.6462 -0.8395
18462SOL    HW256828   6.500   0.405   4.162  5.5614  0.7204 -3.1246
18463SOL     OW56829   5.792   1.546   4.463  0.0707  0.0580 -0.1434
18463SOL    HW156830   5.794   1.610   4.392  0.1617 -0.4350 -0.5885
18463SOL    HW256831   5.703   1.550   4.496  0.2059  0.7688  0.1644
18464SOL     OW56832   5.794   0.456   5.290 -0.3504  0.2524  0.3352
18464SOL    HW156833   5.799   0.467   5.385 -0.3147  1.4200  0.2238
18464SOL    HW256834   5.771   0.544   5.258 -1.5703 -0.4018 -0.6500
18465SOL     OW56835   6.802   7.184   4.798 -0.1898 -0.3422  0.3212
18465SOL    HW156836   6.714   7.219   4.806  0.1852  0.8279 -0.4168
18465SOL    HW256837   6.794   7.111   4.736 -0.7373 -0.6752  0.7779
18466SOL     OW56838   6.209   1.162   4.935 -0.2817 -0.0335  0.5743
18466SOL    HW156839   6.298   1.184   4.909 -0.6336  2.0674  0.8966
18466SOL    HW256840   6.155   1.192   4.862 -0.8016 -0.1497  0.9051
18467SOL     OW56841   0.503   7.960   5.295 -0.4201  0.2645  0.3163
18467SOL    HW156842   0.561   7.914   5.356 -0.1372 -2.0053 -1.5160
18467SOL    HW256843   0.445   8.012   5.351  1.1633 -0.0622  2.3643
18468SOL     OW56844   5.607   0.023   5.212 -0.1040 -0.2240 -0.0559
18468SOL    HW156845   5.596  -0.051   5.152  0.7887 -1.1466  0.8734
18468SOL    HW256846   5.537   0.011   5.276  0.3152 -0.5482  0.3530
18469SOL     OW56847   6.361   0.032   5.049  0.0536 -0.0426  0.6452
18469SOL    HW156848   6.445  -0.009   5.066  0.7041  0.4095 -1.2429
18469SOL    HW256849   6.367   0.118   5.091  1.1988  0.6319 -0.7888
18470SOL     OW56850   7.714   7.754   5.300  0.3715  0.2041  0.1825
18470SOL    HW156851   7.637   7.699   5.311 -0.6554  1.6170  0.1882
18470SOL    HW256852   7.711   7.781   5.208 -0.4561  2.1252  0.7290
18471SOL     OW56853   4.872   7.629   3.893 -0.2657  0.2079 -0.0999
18471SOL    HW156854   4.785   7.644   3.929 -0.0881  0.3407  0.2823
18471SOL    HW256855   4.863   7.649   3.800 -0.6460  0.2110 -0.0642
18472SOL     OW56856   4.657   7.555   5.319  0.3929  0.8692 -0.1021
18472SOL    HW156857   4.729   7.522   5.265  1.2411  0.3945  1.2785
18472SOL    HW256858   4.580   7.511   5.284  0.9395  0.4752 -0.8570
18473SOL     OW56859   6.560   0.992   4.060 -0.1457 -0.0695 -0.4907
18473SOL    HW156860   6.551   1.059   3.993 -3.0198 -0.1532 -0.3050
18473SOL    HW256861   6.535   1.036   4.141 -2.8549 -1.4470 -0.4754
18474SOL     OW56862   7.629   0.833   4.632 -0.6697  0.0237  0.5761
18474SOL    HW156863   7.630   0.805   4.724 -0.7708  1.1039  0.9257
18474SOL    HW256864   7.541   0.810   4.602 -0.6507 -0.2990  0.7527
18475SOL     OW56865   5.364   6.120   4.970 -0.1399 -0.0531  0.2087
18475SOL    HW156866   5.283   6.165   4.992 -0.5272 -0.9275  0.6494
18475SOL    HW256867   5.428   6.154   5.032 -0.1777  0.6265 -0.1253
18476SOL     OW56868   0.760   0.360   3.964 -0.6687 -0.4608 -0.0912
18476SOL    HW156869   0.697   0.374   3.893  0.1839 -0.1851 -0.8189
18476SOL    HW256870   0.725   0.411   4.037 -1.2017 -0.1613 -0.5430
18477SOL     OW56871   7.589   1.228   4.831  0.1119  0.4007 -0.4990
18477SOL    HW156872   7.638   1.185   4.901  1.8385  1.6253 -0.8739
18477SOL    HW256873   7.643   1.214   4.752 -1.0853  0.2395 -1.3131
18478SOL     OW56874   7.627   1.221   5.417 -0.7481 -0.1185 -0.3012
18478SOL    HW156875   7.547   1.273   5.426 -0.8978 -0.4403  0.2905
18478SOL    HW256876   7.678   1.242   5.495 -0.6146 -0.5234 -0.2750
18479SOL     OW56877   7.339   1.079   5.649  0.1877 -0.7626 -0.1338
18479SOL    HW156878   7.248   1.050   5.656  0.5001 -1.5269  0.9816
18479SOL    HW256879   7.390   0.999   5.657  1.0253 -0.1030  1.3676
18480SOL     OW56880   4.920   1.307   7.427 -0.2860  0.0788  0.2585
18480SOL    HW156881   4.905   1.401   7.442 -1.7135 -0.1868  0.6358
18480SOL    HW256882   5.005   1.290   7.467  0.7884  1.5269 -1.2513
18481SOL     OW56883   4.913   7.355   5.467 -0.3027 -0.7776 -0.0333
18481SOL    HW156884   4.865   7.307   5.535 -0.9504  1.9265  1.5640
18481SOL    HW256885   4.966   7.418   5.515 -0.3099  0.8517 -2.0334
18482SOL     OW56886   6.767   1.213   5.864 -0.4394  0.5437 -0.2746
18482SOL    HW156887   6.826   1.178   5.930 -0.3522  1.2132  0.0020
18482SOL    HW256888   6.739   1.135   5.815  0.9629  0.2568 -0.6670
18483SOL     OW56889   0.139   1.103   5.331 -0.8288  0.4217  0.4120
18483SOL    HW156890   0.097   1.047   5.397 -1.2522  1.2621  0.8696
18483SOL    HW256891   0.174   1.041   5.267  0.8849 -0.5409  2.1386
18484SOL     OW56892   5.409   0.027   3.766 -0.5328  0.4867  0.1821
18484SOL    HW156893   5.392  -0.034   3.838  1.4729 -0.8444 -0.3855
18484SOL    HW256894   5.390   0.113   3.803  0.0505 -0.1943  2.2107
18485SOL     OW56895   5.909   0.355   3.948 -0.4341 -0.0914 -0.1407
18485SOL    HW156896   6.004   0.350   3.963 -0.4128  1.6495  0.5976
18485SOL    HW256897   5.894   0.446   3.922 -1.8155 -0.5522 -1.1085
18486SOL     OW56898   6.241   0.180   6.443  0.4826 -0.3498  0.5991
18486SOL    HW156899   6.273   0.147   6.359  0.0562  2.2049 -0.6541
18486SOL    HW256900   6.318   0.182   6.499  1.3419  0.3330 -0.5639
18487SOL     OW56901   6.249   1.880   5.154  0.0843  0.2086  0.2456
18487SOL    HW156902   6.262   1.971   5.127  1.8570 -0.8497 -2.9998
18487SOL    HW256903   6.183   1.846   5.093  0.5263 -1.0396  0.4380
18488SOL     OW56904   4.929   0.196   4.537 -0.1132  0.2418 -0.0576
18488SOL    HW156905   4.868   0.199   4.611  1.4737  0.8929  1.2984
18488SOL    HW256906   4.904   0.270   4.483  0.4673  1.5438  1.3717
18489SOL     OW56907   5.090   0.608   5.007 -0.4668  0.1494  0.7325
18489SOL    HW156908   5.185   0.592   5.005 -0.6763 -1.0140 -0.2938
18489SOL    HW256909   5.075   0.669   4.935 -0.5815 -0.1479  0.5040
18490SOL     OW56910   5.407   0.065   5.742 -0.0989  0.2495  0.5529
18490SOL    HW156911   5.432   0.097   5.656  2.6537 -2.3410  0.2070
18490SOL    HW256912   5.473   0.102   5.801 -0.8199  0.4803  1.2235
18491SOL     OW56913   5.718   7.829   4.157 -0.4763 -0.1574  0.1499
18491SOL    HW156914   5.730   7.914   4.116 -0.4610 -0.6114 -0.8064
18491SOL    HW256915   5.767   7.835   4.239 -0.4164  0.7228  0.0545
18492SOL     OW56916   5.621   2.867   5.426 -0.3495  0.3818  0.2164
18492SOL    HW156917   5.575   2.804   5.482 -0.6283  0.7754  0.4318
18492SOL    HW256918   5.701   2.821   5.400 -0.7103 -0.1875  0.0997
18493SOL     OW56919   6.129   7.285   5.440  0.0915 -0.2216 -0.3257
18493SOL    HW156920   6.069   7.332   5.382  0.8950  0.8908 -0.2977
18493SOL    HW256921   6.141   7.343   5.515  0.5401 -0.8044  0.0626
18494SOL     OW56922   6.782   0.501   5.582 -0.1160  0.4756 -0.3565
18494SOL    HW156923   6.716   0.445   5.623  0.7863  0.4445  1.1322
18494SOL    HW256924   6.752   0.590   5.601  0.3245  0.4614  0.4602
18495SOL     OW56925   5.075   7.472   4.824  0.4112  0.1492  0.0579
18495SOL    HW156926   5.083   7.549   4.881  2.6497 -0.5062  0.7047
18495SOL    HW256927   5.147   7.480   4.762 -0.1695 -0.7393 -0.7639
18496SOL     OW56928   6.381   1.914   3.123  0.2138  0.3310 -0.5748
18496SOL    HW156929   6.288   1.895   3.130  0.1983  0.5690 -0.1546
18496SOL    HW256930   6.386   2.009   3.119  0.5849  0.4522  1.7049
18497SOL     OW56931   6.831   2.850   4.185  0.2951  0.2766  0.3662
18497SOL    HW156932   6.811   2.770   4.135  2.1445  1.0840 -1.8508
18497SOL    HW256933   6.901   2.824   4.244 -1.7183 -0.6172  2.5071
18498SOL     OW56934   6.749   0.071   3.116 -0.0509  0.3663  0.5764
18498SOL    HW156935   6.733   0.102   3.206 -0.2862  0.5199  0.4814
18498SOL    HW256936   6.843   0.053   3.114  0.0822  1.0189  0.6587
18499SOL     OW56937   6.104   0.722   5.247 -0.6023  0.0125  0.2108
18499SOL    HW156938   6.026   0.723   5.193  0.0899 -1.8025 -0.9315
18499SOL    HW256939   6.168   0.774   5.199  0.0561 -1.7130 -0.8866
18500SOL     OW56940   4.908   0.902   2.782  0.1476 -0.7039  0.3388
18500SOL    HW156941   4.949   0.822   2.748 -0.3109 -0.5616 -0.5556
18500SOL    HW256942   4.965   0.928   2.855 -0.3814 -2.5187  1.4474
18501SOL     OW56943   6.228   1.081   5.768 -0.7614 -0.5324  0.1758
18501SOL    HW156944   6.208   1.164   5.811 -2.3348 -0.7198 -0.1335
18501SOL    HW256945   6.323   1.075   5.771 -0.7403  0.0627  2.4966
18502SOL     OW56946   6.181   1.977   5.404 -0.5307  0.4031 -0.3837
18502SOL    HW156947   6.154   1.892   5.440 -0.1008  0.7561  0.8232
18502SOL    HW256948   6.224   1.955   5.321 -0.9841 -0.4994 -0.3959
18503SOL     OW56949   7.361   0.364   2.630  0.0565  0.2949  0.5022
18503SOL    HW156950   7.294   0.394   2.692  0.2844  1.8105  0.0392
18503SOL    HW256951   7.312   0.342   2.551 -0.2447 -1.7115  1.1840
18504SOL     OW56952   7.820   2.779   5.876  0.4644 -0.4876  0.1976
18504SOL    HW156953   7.731   2.796   5.907  0.4949  0.7733 -0.3620
18504SOL    HW256954   7.872   2.851   5.911  1.1229 -0.8176 -0.0895
18505SOL     OW56955   6.073   1.594   5.202 -0.3960 -0.2020 -0.2694
18505SOL    HW156956   6.032   1.571   5.119 -0.8294 -2.1689  0.4486
18505SOL    HW256957   6.113   1.513   5.233  1.9741  1.0788  0.2472
18506SOL     OW56958   4.819   1.471   4.960  0.1918 -0.2150  0.1624
18506SOL    HW156959   4.900   1.521   4.971 -0.2047  0.7754 -1.2000
18506SOL    HW256960   4.752   1.537   4.945 -0.7411 -1.0653  0.5396
18507SOL     OW56961   7.534   2.236   4.343 -0.2317  0.1635 -0.0034
18507SOL    HW156962   7.597   2.209   4.410  0.9116  1.6253 -0.4439
18507SOL    HW256963   7.556   2.183   4.267  1.0740  1.2612 -0.4245
18508SOL     OW56964   6.888   0.504   3.366 -0.1740 -0.7074  0.9384
18508SOL    HW156965   6.956   0.489   3.300  1.2299  1.9613  1.6093
18508SOL    HW256966   6.917   0.454   3.442  1.6486  1.0680  1.5115
18509SOL     OW56967   7.105   7.875   4.355  0.2485 -0.2804  0.2753
18509SOL    HW156968   7.102   7.906   4.446 -0.1836  0.2085  0.0985
18509SOL    HW256969   7.013   7.861   4.331  0.1620  1.8519 -0.8337
18510SOL     OW56970   6.492   2.789   6.011 -0.2882  0.4721 -0.5812
18510SOL    HW156971   6.443   2.863   5.974 -0.4833  0.0858 -1.1076
18510SOL    HW256972   6.478   2.796   6.105  0.8160  1.9055 -0.5000
18511SOL     OW56973   0.764   0.852   4.608 -0.7235  0.0913 -0.1351
18511SOL    HW156974   0.712   0.929   4.585 -0.7252 -0.4805 -2.2772
18511SOL    HW256975   0.738   0.831   4.697 -2.9014  0.8595 -0.5335
18512SOL     OW56976   1.378   2.498   5.856 -0.7054  0.1932  0.3660
18512SOL    HW156977   1.346   2.578   5.899  0.5965  0.9841 -0.0851
18512SOL    HW256978   1.339   2.500   5.769 -1.2774 -0.0565  0.6165
18513SOL     OW56979   6.788   2.620   3.663 -0.1337 -0.0950 -0.2503
18513SOL    HW156980   6.873   2.654   3.637 -0.1464  0.6683  0.6670
18513SOL    HW256981   6.725   2.678   3.620 -0.1553  1.1012  1.3241
18514SOL     OW56982   6.370   1.150   6.094  0.2094 -0.2328 -0.0080
18514SOL    HW156983   6.299   1.198   6.052  1.0915  2.0107  0.9384
18514SOL    HW256984   6.381   1.192   6.179  3.1999  0.0364 -0.4348
18515SOL     OW56985   7.445   7.176   5.260  0.2192  0.2413  0.4551
18515SOL    HW156986   7.393   7.253   5.281 -0.1979 -0.2084  1.1109
18515SOL    HW256987   7.531   7.210   5.236 -0.1600  0.9495  0.0551
18516SOL     OW56988   5.269   6.930   4.026 -0.3090 -0.7053 -0.4865
18516SOL    HW156989   5.294   6.949   4.116  0.1095 -0.7397 -0.5961
18516SOL    HW256990   5.223   6.846   4.030  2.7345 -2.5255 -0.7560
18517SOL     OW56991   4.914   2.763   2.141  0.1562 -0.0800 -0.5396
18517SOL    HW156992   4.956   2.705   2.206  1.2566  0.6064 -0.6281
18517SOL    HW256993   4.946   2.850   2.162  1.7212  0.0024 -2.8950
18518SOL     OW56994   6.635   1.941   5.232 -0.2866 -0.0267 -0.0032
18518SOL    HW156995   6.652   1.851   5.259  1.6286  0.2393 -0.2106
18518SOL    HW256996   6.626   1.990   5.313 -0.2382 -0.2112  0.1139
18519SOL     OW56997   6.640   0.652   4.768 -0.2871 -0.1423  0.3775
18519SOL    HW156998   6.573   0.591   4.798 -0.0733 -0.5460  0.0423
18519SOL    HW256999   6.592   0.731   4.744 -0.5471 -0.1128  0.9880
18520SOL     OW57000   7.756   2.186   4.989 -0.0916 -0.3688 -0.1579
18520SOL    HW157001   7.787   2.239   5.062  0.4115 -0.0962 -0.5585
18520SOL    HW257002   7.827   2.191   4.924 -1.0703  0.4501 -1.1982
18521SOL     OW57003   5.279   0.252   6.387  0.1630  0.3048  0.0691
18521SOL    HW157004   5.223   0.176   6.404  1.7683 -0.4561  2.4912
18521SOL    HW257005   5.362   0.231   6.430  0.1349  4.1656  2.4411
18522SOL     OW57006   0.708   0.460   5.788  0.2282  1.0241 -0.8413
18522SOL    HW157007   0.773   0.393   5.811 -1.4290 -0.0781  0.9935
18522SOL    HW257008   0.742   0.540   5.826 -0.7443 -0.1054  2.8993
18523SOL     OW57009   7.190   1.802   4.516  0.1132  0.4864  0.4972
18523SOL    HW157010   7.107   1.845   4.494  0.3056  1.4798  1.6275
18523SOL    HW257011   7.257   1.869   4.501  0.7838 -0.4205 -0.7656
18524SOL     OW57012   7.639   7.678   4.457 -0.0885 -0.0639 -0.4772
18524SOL    HW157013   7.596   7.599   4.491  0.5286  0.8309  2.6082
18524SOL    HW257014   7.570   7.723   4.408 -1.7423 -0.3669  1.4578
18525SOL     OW57015   7.195   0.840   5.824  0.0184  0.6991 -0.4730
18525SOL    HW157016   7.199   0.935   5.839  1.7793  0.6844 -0.6643
18525SOL    HW257017   7.207   0.802   5.911  1.8450  0.6581 -0.7206
18526SOL     OW57018   0.227   0.831   6.188  0.6906  0.4274  0.6262
18526SOL    HW157019   0.254   0.912   6.230 -0.1755  1.4761 -0.7396
18526SOL    HW257020   0.155   0.798   6.243 -0.2254  1.6126  0.1937
18527SOL     OW57021   4.001   7.929   5.358  0.1557 -0.0099 -0.3603
18527SOL    HW157022   4.081   7.920   5.410  0.0387  2.2525  0.3160
18527SOL    HW257023   3.938   7.969   5.418 -0.6065  0.8291 -1.6724
18528SOL     OW57024   5.056   6.758   5.685 -0.4171 -0.0633 -0.1772
18528SOL    HW157025   5.017   6.706   5.756 -1.0594 -0.0705 -0.5297
18528SOL    HW257026   5.105   6.826   5.731  1.2934 -1.5498  0.3172
18529SOL     OW57027   6.018   6.381   4.063  0.9402  0.1558 -0.2655
18529SOL    HW157028   5.990   6.324   3.991 -0.5944  0.5632 -0.0307
18529SOL    HW257029   5.940   6.433   4.084  1.6489  0.7409  1.0309
18530SOL     OW57030   6.265   7.180   4.834 -0.0034  0.5768 -0.2765
18530SOL    HW157031   6.224   7.096   4.851  0.5531  0.6524  1.6873
18530SOL    HW257032   6.296   7.174   4.744 -1.0058 -0.8652 -0.5551
18531SOL     OW57033   6.757   1.026   4.382 -0.0300  0.0888  0.4103
18531SOL    HW157034   6.680   1.033   4.439 -0.0320  0.5154  0.3623
18531SOL    HW257035   6.741   1.092   4.313  1.2658  1.5512  1.4542
18532SOL     OW57036   6.352   0.756   5.392  0.2922 -0.3490  0.1688
18532SOL    HW157037   6.259   0.738   5.376  0.0333 -1.5261  2.5417
18532SOL    HW257038   6.356   0.783   5.484  2.3934 -1.1559  0.3774
18533SOL     OW57039   5.155   7.434   5.636  0.1043  0.0508 -0.3856
18533SOL    HW157040   5.086   7.500   5.640  0.6152  0.5534  2.0615
18533SOL    HW257041   5.236   7.484   5.640  0.5257 -0.6600  0.2728
18534SOL     OW57042   7.043   1.968   4.774 -0.0370  0.1024  0.4716
18534SOL    HW157043   7.031   1.963   4.679 -0.4662 -1.4409  0.5746
18534SOL    HW257044   6.964   1.927   4.810 -1.1556  2.9995  1.6093
18535SOL     OW57045   0.765   1.133   3.798 -0.1858  0.4700  0.1810
18535SOL    HW157046   0.731   1.044   3.790 -1.6948  0.8966  1.3418
18535SOL    HW257047   0.695   1.188   3.762 -0.3708  1.3306  1.8046
18536SOL     OW57048   6.222   6.775   4.728  0.1147  0.4502  0.2816
18536SOL    HW157049   6.158   6.704   4.735 -0.1564  0.7978  1.5326
18536SOL    HW257050   6.185   6.846   4.780  1.2966  0.8334  0.6184
18537SOL     OW57051   6.463   0.559   5.828 -0.1483  0.0872  0.4406
18537SOL    HW157052   6.380   0.551   5.781  0.6965  0.1536 -1.1242
18537SOL    HW257053   6.439   0.595   5.914 -1.6614  0.7595 -0.2307
18538SOL     OW57054   5.151   1.570   4.976  0.7336 -0.5096  0.2972
18538SOL    HW157055   5.146   1.535   5.065  0.6182 -0.7203  0.2084
18538SOL    HW257056   5.241   1.556   4.949  0.7656 -0.4562  0.3764
18539SOL     OW57057   6.316   1.647   5.357 -0.0318  0.5592  0.4340
18539SOL    HW157058   6.283   1.707   5.289  0.6869  1.5139  0.8999
18539SOL    HW257059   6.237   1.613   5.399 -0.4819  0.1566 -0.7045
18540SOL     OW57060   5.769   2.136   5.379 -0.4359  0.2828 -0.3392
18540SOL    HW157061   5.808   2.078   5.445  0.1190  0.7853 -0.2157
18540SOL    HW257062   5.678   2.148   5.409 -1.3426 -2.4446 -1.6664
18541SOL     OW57063   6.449   0.935   5.621  0.0640 -0.2907  0.5846
18541SOL    HW157064   6.502   0.972   5.692  0.0639  0.7862  0.0465
18541SOL    HW257065   6.441   1.006   5.557 -3.9093  0.4284  1.6134
18542SOL     OW57066   3.062   7.312   5.394 -0.0238  0.4465 -0.0561
18542SOL    HW157067   3.093   7.264   5.471 -1.1495 -2.2091 -1.1003
18542SOL    HW257068   3.015   7.387   5.430 -0.2667 -0.5449  1.8768
18543SOL     OW57069   5.983   1.187   5.683 -0.3662  0.1774 -0.0076
18543SOL    HW157070   5.966   1.174   5.590 -0.1188 -0.3893  0.0296
18543SOL    HW257071   6.075   1.163   5.695  0.0246  1.6382  0.1146
18544SOL     OW57072   6.795   1.322   3.970  0.2989  0.0598  0.3852
18544SOL    HW157073   6.724   1.270   3.931  0.8129 -0.2293 -0.1755
18544SOL    HW257074   6.773   1.412   3.948  0.2322 -0.0495 -0.0114
18545SOL     OW57075   7.152   1.255   4.009  0.3778  0.0224 -0.4029
18545SOL    HW157076   7.150   1.273   4.103  0.0898 -1.2025 -0.1621
18545SOL    HW257077   7.072   1.205   3.992  1.0346 -0.8302 -1.0652
18546SOL     OW57078   6.369   0.328   3.212  0.3978 -0.1935 -0.2516
18546SOL    HW157079   6.442   0.383   3.182  1.2005 -0.0133  1.8067
18546SOL    HW257080   6.410   0.244   3.231 -0.3581 -0.7558 -1.0747
18547SOL     OW57081   6.286   1.337   6.832  0.0995  0.3478 -0.1370
18547SOL    HW157082   6.277   1.241   6.838 -2.2883  0.5327 -0.0057
18547SOL    HW257083   6.307   1.364   6.921  3.9517 -0.2073 -0.6713
18548SOL     OW57084   0.970   1.899   3.102  0.7328  0.0222 -0.2187
18548SOL    HW157085   1.017   1.858   3.029 -0.9959 -0.7983 -0.9416
18548SOL    HW257086   0.990   1.992   3.094  2.7780 -0.3473 -0.0351
18549SOL     OW57087   6.091   1.738   6.708 -0.2715  0.3024  0.4060
18549SOL    HW157088   6.176   1.763   6.671 -0.5569  0.5317 -0.1020
18549SOL    HW257089   6.032   1.737   6.633 -0.3717 -1.4947  0.4786
18550SOL     OW57090   5.252   0.668   4.662 -0.3049 -0.4860 -0.0342
18550SOL    HW157091   5.295   0.739   4.616 -1.9951 -0.5640 -1.8422
18550SOL    HW257092   5.210   0.710   4.737  0.2754  0.0963 -0.0303
18551SOL     OW57093   6.852   2.412   4.424 -0.8016 -0.1120  0.6253
18551SOL    HW157094   6.817   2.463   4.497 -1.4259 -0.1335  0.3492
18551SOL    HW257095   6.858   2.323   4.458 -1.0140 -0.1072  0.6744
18552SOL     OW57096   6.347   7.316   5.289 -0.1243 -0.4849 -0.4250
18552SOL    HW157097   6.263   7.290   5.327 -0.0854  1.1627  0.9392
18552SOL    HW257098   6.408   7.249   5.318 -0.8454 -1.3659 -0.9128
18553SOL     OW57099   5.211   1.351   3.792  0.2490  0.2659  0.1077
18553SOL    HW157100   5.302   1.325   3.778  0.0464 -0.0772 -0.6525
18553SOL    HW257101   5.200   1.431   3.739  0.2533  0.6114  0.6251
18554SOL     OW57102   0.849   2.007   6.429  0.0328  0.0413 -0.0706
18554SOL    HW157103   0.816   1.975   6.513 -2.4230  1.0259 -0.5882
18554SOL    HW257104   0.773   2.005   6.371  2.0823 -2.7442 -3.0006
18555SOL     OW57105   5.084   7.198   6.308  0.2243  0.0116  0.1128
18555SOL    HW157106   5.160   7.172   6.256  0.2240 -1.8566  0.9772
18555SOL    HW257107   5.025   7.239   6.245  1.2123 -0.0542 -0.8909
18556SOL     OW57108   0.118   2.124   5.375  0.1667  0.5656  0.0199
18556SOL    HW157109   0.079   2.116   5.462 -0.3832 -0.7837 -0.3371
18556SOL    HW257110   0.201   2.170   5.391  0.3106 -0.0942  1.3191
18557SOL     OW57111   5.408   7.449   3.750  0.5089  0.1383  0.1876
18557SOL    HW157112   5.367   7.488   3.827 -0.2758 -1.8482  0.8374
18557SOL    HW257113   5.474   7.390   3.785  1.1199  0.2448 -0.7359
18558SOL     OW57114   7.455   7.548   6.333  0.2269 -0.3723 -0.2953
18558SOL    HW157115   7.456   7.612   6.404  0.1887  0.1847 -0.7898
18558SOL    HW257116   7.363   7.542   6.307  0.3162 -0.1672 -0.6603
18559SOL     OW57117   7.149   1.695   6.369  0.3105 -0.7123  0.2214
18559SOL    HW157118   7.204   1.647   6.430  1.0755 -0.3105 -0.1436
18559SOL    HW257119   7.062   1.657   6.381  0.6085 -1.1892  0.9749
18560SOL     OW57120   7.543   7.844   6.069  0.5763  0.2394 -0.2264
18560SOL    HW157121   7.469   7.886   6.113  1.0983  0.9219  0.0271
18560SOL    HW257122   7.566   7.905   5.998  1.5520  0.5535  0.3497
18561SOL     OW57123   4.573   1.259   2.426  0.1439 -0.0418  0.1771
18561SOL    HW157124   4.649   1.276   2.481 -0.3890 -1.2249  1.3212
18561SOL    HW257125   4.589   1.173   2.388 -0.2362  0.0703 -0.2477
18562SOL     OW57126   6.024   0.831   5.846 -0.1771  0.0865  0.1841
18562SOL    HW157127   6.083   0.905   5.860  0.5125 -0.4440  0.1277
18562SOL    HW257128   5.971   0.826   5.926 -0.4449  0.8268  0.0592
18563SOL     OW57129   5.963   7.431   5.275 -0.7205 -0.1739  0.2617
18563SOL    HW157130   6.010   7.494   5.220 -0.7956  1.5425  2.0323
18563SOL    HW257131   5.871   7.455   5.266 -0.7161  0.2526  1.2376
18564SOL     OW57132   5.144   6.651   3.966 -0.4199 -0.2981 -0.4745
18564SOL    HW157133   5.077   6.583   3.964  1.7681 -2.6047 -1.9822
18564SOL    HW257134   5.190   6.637   4.049  0.0765 -0.7821 -0.8175
18565SOL     OW57135   7.223   0.182   3.409  0.0916 -0.2417  0.2248
18565SOL    HW157136   7.226   0.223   3.495  0.4345 -0.4844  0.3290
18565SOL    HW257137   7.266   0.245   3.351 -1.1102  0.4242  0.0139
18566SOL     OW57138   4.951   0.857   6.839 -0.1474  0.4105  0.5068
18566SOL    HW157139   4.986   0.930   6.788  0.0069 -0.5495 -0.8031
18566SOL    HW257140   4.871   0.831   6.793 -0.2942 -0.1409  1.0537
18567SOL     OW57141   5.054   0.304   5.583 -0.2408 -0.2769  0.2085
18567SOL    HW157142   4.975   0.330   5.631 -0.4499 -0.0897 -0.2357
18567SOL    HW257143   5.085   0.385   5.542  0.6075 -0.1851  0.9828
18568SOL     OW57144   5.045   1.133   6.156 -0.0940 -0.5134  0.2795
18568SOL    HW157145   5.010   1.045   6.174 -1.0436 -0.7098 -2.1009
18568SOL    HW257146   5.135   1.118   6.128  0.6988 -0.3882  2.5196
18569SOL     OW57147   6.011   0.235   5.776  1.1086  0.1496 -0.3084
18569SOL    HW157148   5.960   0.170   5.824  0.9636  0.2047 -0.3834
18569SOL    HW257149   5.956   0.314   5.778  0.7081 -0.0873 -1.2892
18570SOL     OW57150   0.692   1.017   8.998 -0.2758  0.1971 -0.0473
18570SOL    HW157151   0.726   1.094   8.953 -0.5137  0.7436  0.7000
18570SOL    HW257152   0.755   0.999   9.067  0.1072 -0.6628 -0.6002
18571SOL     OW57153   6.934   2.320   5.336  0.4532  0.2830  0.5752
18571SOL    HW157154   6.999   2.262   5.297 -0.1921 -0.6723  0.8547
18571SOL    HW257155   6.978   2.404   5.347  0.8482  0.3914 -1.5585
18572SOL     OW57156   7.520   0.869   5.736  0.3561 -0.3875  0.3717
18572SOL    HW157157   7.536   0.807   5.806  2.2695  0.4857  0.7664
18572SOL    HW257158   7.499   0.815   5.660  1.4705 -1.4978  0.8196
18573SOL     OW57159   6.492   1.919   5.952 -0.1189  0.4390 -0.5611
18573SOL    HW157160   6.398   1.930   5.937 -0.2047 -0.2727 -0.5393
18573SOL    HW257161   6.500   1.910   6.047 -0.3668 -2.4637 -0.7274
18574SOL     OW57162   6.747   1.023   6.319 -0.5704 -0.3608 -0.2370
18574SOL    HW157163   6.776   0.964   6.249 -0.6856  0.9717 -1.4487
18574SOL    HW257164   6.651   1.014   6.319 -0.5047 -1.3624  0.7029
18575SOL     OW57165   6.391   0.166   5.290 -0.3205  0.5188  0.4807
18575SOL    HW157166   6.364   0.096   5.349  1.6940 -1.9535 -1.3228
18575SOL    HW257167   6.480   0.187   5.316 -0.8160  2.3303  0.8459
18576SOL     OW57168   6.282   1.067   6.910 -0.4328 -0.2821 -0.0384
18576SOL    HW157169   6.296   0.989   6.856  1.3515  0.1521 -0.2628
18576SOL    HW257170   6.368   1.087   6.947 -1.0549  1.0142  0.8072
18577SOL     OW57171   5.101   0.825   6.479 -0.3991  0.1290  0.1122
18577SOL    HW157172   5.061   0.762   6.539 -0.5526  1.8583  1.9352
18577SOL    HW257173   5.176   0.860   6.527 -1.5411  2.8426  0.0848
18578SOL     OW57174   5.881   2.031   7.118  0.6458 -0.4165 -0.0831
18578SOL    HW157175   5.959   2.067   7.074  0.2261  2.3810  1.2629
18578SOL    HW257176   5.884   2.067   7.206 -1.1884 -1.8292  0.6211
18579SOL     OW57177   6.368   0.598   6.506 -0.3452 -0.0449  0.3572
18579SOL    HW157178   6.400   0.538   6.438  0.3510 -0.4325  1.0081
18579SOL    HW257179   6.399   0.559   6.588 -0.7652  0.6727  0.8645
18580SOL     OW57180   0.083   0.480   5.402 -0.5191  0.1107  0.2662
18580SOL    HW157181   0.003   0.497   5.452 -0.7587  0.9770 -0.3918
18580SOL    HW257182   0.147   0.455   5.469 -1.0960  0.2891  0.8993
18581SOL     OW57183   7.135   3.628   7.391 -0.3159 -0.5666  0.1132
18581SOL    HW157184   7.053   3.579   7.381 -0.9061  0.5646 -0.7815
18581SOL    HW257185   7.108   3.715   7.421  0.7513 -0.8469  2.0834
18582SOL     OW57186   7.628   1.313   7.714 -0.1398  0.2209  0.1131
18582SOL    HW157187   7.703   1.255   7.728 -0.4077 -0.0586  0.4095
18582SOL    HW257188   7.576   1.305   7.794 -0.5652  0.2988 -0.1522
18583SOL     OW57189   4.972   1.961   6.842  0.0831  0.0030  0.2169
18583SOL    HW157190   5.008   1.911   6.770  1.6663  1.3716 -0.0107
18583SOL    HW257191   4.904   2.015   6.802 -0.0243 -0.2672  0.0315
18584SOL     OW57192   5.335   1.167   6.533  0.2385  0.4011 -0.6762
18584SOL    HW157193   5.252   1.208   6.510  0.3023  0.5844 -0.5835
18584SOL    HW257194   5.347   1.098   6.468  0.0947  0.4819 -0.7880
18585SOL     OW57195   5.546   2.601   7.335  0.3965 -0.7190  0.4421
18585SOL    HW157196   5.539   2.630   7.426 -0.1034 -1.2318  0.5719
18585SOL    HW257197   5.458   2.569   7.312  0.4481 -0.3591 -0.3035
18586SOL     OW57198   7.959   0.520   6.812  0.2361  0.1468  0.2415
18586SOL    HW157199   7.864   0.519   6.805  0.3458 -0.1007 -1.7136
18586SOL    HW257200   7.984   0.610   6.790  0.4758  0.1756  0.6153
18587SOL     OW57201   7.447   0.703   7.597 -0.1147 -0.4845  0.4502
18587SOL    HW157202   7.428   0.777   7.540  2.1885  0.0586  0.2825
18587SOL    HW257203   7.531   0.669   7.565  1.0939 -0.4087  3.2346
18588SOL     OW57204   5.781   2.059   6.001  0.7684 -0.0139  0.8459
18588SOL    HW157205   5.735   2.143   6.010  0.4337 -0.2363  1.2290
18588SOL    HW257206   5.838   2.071   5.925  1.1149  0.7435  1.2177
18589SOL     OW57207   6.831   0.579   6.213  0.1220  0.5039 -0.2674
18589SOL    HW157208   6.745   0.538   6.214  0.7665 -0.8842 -0.2032
18589SOL    HW257209   6.827   0.641   6.139 -0.5285 -0.4581 -1.0658
18590SOL     OW57210   5.058   2.355   6.034  0.0694 -0.3221  0.1934
18590SOL    HW157211   5.084   2.446   6.046  0.1346 -0.4786  1.4475
18590SOL    HW257212   4.975   2.360   5.987  0.5831  0.3265 -0.6751
18591SOL     OW57213   3.287   7.491   6.879 -0.4879  0.0219  0.0759
18591SOL    HW157214   3.325   7.427   6.939  0.4913  0.4150 -0.1090
18591SOL    HW257215   3.223   7.538   6.932 -1.1343 -1.0173  0.2486
18592SOL     OW57216   7.222   2.682   6.675  0.6951 -0.0994  0.3637
18592SOL    HW157217   7.196   2.772   6.658  0.2043 -0.0723  1.2127
18592SOL    HW257218   7.292   2.664   6.612  0.1804  0.5793 -0.4109
18593SOL     OW57219   4.670   0.175   7.641 -0.9488 -0.1677 -0.6662
18593SOL    HW157220   4.657   0.242   7.708  0.0709 -1.1922  0.6145
18593SOL    HW257221   4.734   0.214   7.581  0.4086 -0.3316  0.6231
18594SOL     OW57222   6.083   3.179   4.849  0.0351 -0.0504 -0.0659
18594SOL    HW157223   6.113   3.256   4.896 -0.9739 -0.1232  0.7164
18594SOL    HW257224   6.121   3.188   4.761  3.6060 -0.9062  1.2378
18595SOL     OW57225   0.827   0.898   9.240  0.1493  0.6030  0.5227
18595SOL    HW157226   0.886   0.827   9.214  0.9969  1.3185  0.4349
18595SOL    HW257227   0.764   0.857   9.297 -0.2433 -0.5098 -0.6691
18596SOL     OW57228   6.726   7.935   7.371 -0.0516  0.4182 -0.1802
18596SOL    HW157229   6.646   7.888   7.395 -0.3127  0.2647 -1.2850
18596SOL    HW257230   6.765   7.960   7.454  0.1773 -1.8704  0.4718
18597SOL     OW57231   5.646   3.324   7.825  0.2053 -0.3560 -0.1010
18597SOL    HW157232   5.562   3.333   7.869  0.5778 -2.1851  1.1008
18597SOL    HW257233   5.625   3.322   7.732 -0.9007  0.7262  0.1060
18598SOL     OW57234   7.683   1.610   5.473 -0.2520 -0.1023  0.0316
18598SOL    HW157235   7.660   1.620   5.566  0.3638  0.5245  0.1236
18598SOL    HW257236   7.773   1.576   5.475 -1.0074 -2.2621 -0.3201
18599SOL     OW57237   7.263   0.425   7.138 -0.5920  0.0242  0.0770
18599SOL    HW157238   7.333   0.458   7.082  0.6237 -0.9252  1.0011
18599SOL    HW257239   7.247   0.496   7.201 -0.7003  0.3669 -0.3306
18600SOL     OW57240   5.229   0.782   7.593  0.0364  0.0871  0.2052
18600SOL    HW157241   5.279   0.826   7.524 -2.2535  1.1168 -0.9101
18600SOL    HW257242   5.169   0.725   7.545 -1.3124  0.4891  1.3748
18601SOL     OW57243   7.589   3.602   7.076 -0.1772  0.1297  0.4434
18601SOL    HW157244   7.494   3.598   7.078 -0.2369  1.0541 -0.0930
18601SOL    HW257245   7.609   3.691   7.047  0.8086 -0.7528 -1.8275
18602SOL     OW57246   7.654   3.190   5.462 -0.7026  0.1439 -0.1695
18602SOL    HW157247   7.619   3.250   5.397 -2.2049  0.1751  0.6279
18602SOL    HW257248   7.686   3.115   5.412 -0.1155  0.9635 -1.0548
18603SOL     OW57249   6.547   3.043   6.386 -0.6323  0.0549  0.5462
18603SOL    HW157250   6.603   3.108   6.430  0.0225 -1.0541  1.3870
18603SOL    HW257251   6.460   3.084   6.384 -0.1426  1.1315  0.6746
18604SOL     OW57252   7.770   1.105   6.324 -0.7598 -0.9132 -0.2108
18604SOL    HW157253   7.848   1.080   6.275  0.8628 -0.1015  1.8158
18604SOL    HW257254   7.785   1.071   6.413 -2.2241  0.1635  0.4945
18605SOL     OW57255   5.664   2.302   6.121 -0.2122 -0.5734 -0.2452
18605SOL    HW157256   5.636   2.362   6.191 -0.7267  0.0403 -0.9657
18605SOL    HW257257   5.649   2.351   6.040  2.8940 -0.1877 -0.7159
18606SOL     OW57258   6.322   0.853   9.024 -0.2550 -0.4780  0.2585
18606SOL    HW157259   6.288   0.812   8.944 -0.2957  0.2782 -0.1172
18606SOL    HW257260   6.267   0.930   9.036  0.8134  0.3288  0.0868
18607SOL     OW57261   6.399   1.606   5.760  0.2399 -0.4676 -0.3780
18607SOL    HW157262   6.332   1.668   5.731  1.8004  0.8669 -1.3307
18607SOL    HW257263   6.478   1.635   5.715  1.1280 -2.9311 -0.5087
18608SOL     OW57264   7.114   1.302   6.291 -0.2965 -0.7896 -0.6912
18608SOL    HW157265   7.040   1.358   6.266 -0.2469 -0.5231 -0.2521
18608SOL    HW257266   7.190   1.343   6.250  0.0892  0.7475  1.3543
18609SOL     OW57267   6.662   1.492   5.955  0.3290  0.5096 -0.7108
18609SOL    HW157268   6.587   1.538   5.993 -0.0952 -0.8542  0.1828
18609SOL    HW257269   6.624   1.419   5.905  0.9589  1.3586 -2.5280
18610SOL     OW57270   0.388   0.595   5.332 -0.0569 -0.0065 -0.1057
18610SOL    HW157271   0.430   0.562   5.411  2.6173  1.4407 -0.8117
18610SOL    HW257272   0.331   0.665   5.363  1.1545  0.7172  0.5865
18611SOL     OW57273   7.016   0.352   7.421  0.0635 -0.4837 -0.5858
18611SOL    HW157274   6.986   0.370   7.510  0.8640 -0.2910 -0.3507
18611SOL    HW257275   6.946   0.386   7.365 -0.0474  0.1836 -0.0515
18612SOL     OW57276   4.876   2.678   6.883 -0.1531 -0.7869 -0.6841
18612SOL    HW157277   4.784   2.671   6.910  0.0320 -0.9838 -0.0808
18612SOL    HW257278   4.872   2.717   6.796 -0.8929 -2.0071 -1.2327
18613SOL     OW57279   6.233   2.061   5.931 -0.4505 -0.2128  0.5397
18613SOL    HW157280   6.182   2.123   5.878  1.0922  0.3229 -0.3661
18613SOL    HW257281   6.306   2.112   5.965  2.4327 -1.9452 -2.4332
18614SOL     OW57282   6.736   1.315   7.015  0.2710  0.0996  0.4250
18614SOL    HW157283   6.747   1.408   6.995 -1.3998 -0.0872 -1.8134
18614SOL    HW257284   6.812   1.273   6.975  0.8156  0.4532  1.0793
18615SOL     OW57285   7.841   7.982   6.645  0.1627  0.0567 -0.2288
18615SOL    HW157286   7.876   7.956   6.730  0.9494 -0.8963 -0.8222
18615SOL    HW257287   7.875   8.071   6.632  0.8109 -0.1409  0.0501
18616SOL     OW57288   5.868   1.137   7.680  0.2743  0.0207  0.3055
18616SOL    HW157289   5.876   1.213   7.623  3.0843 -0.2612  0.1494
18616SOL    HW257290   5.815   1.075   7.631 -3.0166  2.1317  0.8775
18617SOL     OW57291   7.233   0.282   6.257 -0.0842  0.0132 -0.5635
18617SOL    HW157292   7.304   0.234   6.300  0.6739  1.1991 -0.4583
18617SOL    HW257293   7.178   0.314   6.328 -1.1227 -1.4424 -0.6650
18618SOL     OW57294   4.934   2.090   7.215  0.3671 -0.0418  0.0624
18618SOL    HW157295   5.007   2.136   7.175 -0.1213  0.0231 -0.7662
18618SOL    HW257296   4.865   2.092   7.149  0.3287 -1.9450 -0.0100
18619SOL     OW57297   6.361   2.388   8.606  0.0186 -0.5848  0.3946
18619SOL    HW157298   6.337   2.344   8.524 -0.9369 -0.4449  0.5811
18619SOL    HW257299   6.281   2.386   8.658  0.3172  0.2576  0.9043
18620SOL     OW57300   6.632   1.371   6.609 -0.2584  0.4626 -0.2961
18620SOL    HW157301   6.669   1.441   6.662  0.7008 -0.1374 -0.1464
18620SOL    HW257302   6.539   1.369   6.632  0.0694  0.4602  1.0669
18621SOL     OW57303   0.050   7.791   6.518 -0.0643 -0.0841  0.5774
18621SOL    HW157304   0.114   7.857   6.546 -0.2042  1.0379 -1.5662
18621SOL    HW257305   0.003   7.768   6.598  1.7517  0.4631  1.8554
18622SOL     OW57306   0.115   0.248   7.006  0.4018  0.4612  0.0012
18622SOL    HW157307   0.144   0.157   7.001 -2.5392 -0.5309 -0.8538
18622SOL    HW257308   0.100   0.264   7.099  0.3831 -0.1408  0.1028
18623SOL     OW57309   6.587   2.436   6.859 -0.1336 -0.1350 -0.0907
18623SOL    HW157310   6.634   2.490   6.795  1.8913 -1.0340  0.5774
18623SOL    HW257311   6.495   2.440   6.830  0.0449  2.8704 -0.5939
18624SOL     OW57312   6.411   2.431   5.066  0.1925 -0.0229  0.0165
18624SOL    HW157313   6.444   2.444   4.977 -0.6717  1.5414 -0.1021
18624SOL    HW257314   6.423   2.337   5.082 -0.6988 -0.5742 -2.1766
18625SOL     OW57315   5.623   7.553   7.240 -0.4765  0.0726  0.0075
18625SOL    HW157316   5.695   7.600   7.198 -1.9628  2.5191 -0.0335
18625SOL    HW257317   5.566   7.528   7.167  0.0429 -1.4189  0.0819
18626SOL     OW57318   7.928   2.546   6.072  0.3303 -0.2775  0.3446
18626SOL    HW157319   7.940   2.625   6.018  0.9845  1.0378  2.2909
18626SOL    HW257320   7.833   2.533   6.074  0.2589  0.0247 -0.5831
18627SOL     OW57321   7.655   2.007   5.886 -0.2855  0.5243  0.3683
18627SOL    HW157322   7.650   1.965   5.799 -1.8218  0.9411  0.2259
18627SOL    HW257323   7.741   2.050   5.887 -1.1500  2.4865 -1.8876
18628SOL     OW57324   6.939   7.750   5.700 -0.0296  0.3754  0.8106
18628SOL    HW157325   6.990   7.826   5.727 -0.6142  0.7222  0.9723
18628SOL    HW257326   6.848   7.777   5.714 -0.2127 -1.0864  2.9143
18629SOL     OW57327   5.388   3.593   7.509  0.1058  0.3244 -0.0555
18629SOL    HW157328   5.389   3.637   7.594 -0.4773 -1.0891  0.7161
18629SOL    HW257329   5.352   3.507   7.527 -0.8595  0.2926 -1.9037
18630SOL     OW57330   6.743   0.720   8.901 -0.4566  0.6872  0.2929
18630SOL    HW157331   6.813   0.695   8.962 -0.2195  1.2862  0.2649
18630SOL    HW257332   6.745   0.652   8.834  0.5561  1.0775 -0.0838
18631SOL     OW57333   6.091   7.917   6.043 -0.1500  0.4956 -0.0317
18631SOL    HW157334   6.141   7.977   5.987 -0.6705  0.1366 -0.9051
18631SOL    HW257335   6.023   7.883   5.986  0.0673 -0.8544  0.4769
18632SOL     OW57336   6.025   1.443   6.703 -0.0620  0.2609  0.6397
18632SOL    HW157337   6.044   1.537   6.699  0.6514  0.2148  2.1713
18632SOL    HW257338   6.096   1.406   6.755 -0.3979 -1.1250  0.1664
18633SOL     OW57339   6.787   7.025   6.687 -0.2332  0.2618 -0.4531
18633SOL    HW157340   6.848   6.959   6.719 -1.4904 -1.4720 -1.3899
18633SOL    HW257341   6.800   7.101   6.744  1.2534 -0.7974  0.7003
18634SOL     OW57342   0.263   5.544   7.351 -0.0997  0.1560 -0.1496
18634SOL    HW157343   0.269   5.473   7.288  1.8298  0.3557 -0.2411
18634SOL    HW257344   0.280   5.503   7.436  0.5916  0.4157 -0.1538
18635SOL     OW57345   5.171   3.031   6.596  0.0899  0.0614  0.1789
18635SOL    HW157346   5.119   2.976   6.537 -0.3092 -0.0206  0.6031
18635SOL    HW257347   5.109   3.057   6.664  0.8570 -0.8264  1.2284
18636SOL     OW57348   0.103   7.399   6.687 -0.1159  0.0113 -0.1038
18636SOL    HW157349   0.151   7.330   6.734 -0.0638  0.3029  0.2736
18636SOL    HW257350   0.126   7.480   6.733 -1.0956  0.1393  0.1926
18637SOL     OW57351   6.387   0.631   6.076  0.1348  0.3052  0.2059
18637SOL    HW157352   6.310   0.609   6.129  0.4518  2.1537  1.5470
18637SOL    HW257353   6.393   0.727   6.082  0.7166  0.5202 -2.4808
18638SOL     OW57354   0.322   7.399   6.390 -0.3353 -0.1031  0.4650
18638SOL    HW157355   0.231   7.386   6.415 -0.2336 -0.4853  0.6510
18638SOL    HW257356   0.372   7.350   6.456  0.0445  0.7784  0.8559
18639SOL     OW57357   7.161   1.023   6.339 -0.0189 -0.0445  0.0642
18639SOL    HW157358   7.137   1.113   6.316 -0.3691 -0.3506 -0.8126
18639SOL    HW257359   7.236   1.002   6.283  0.1187 -0.2648  0.3277
18640SOL     OW57360   5.825   0.864   6.027  0.0617 -0.7798  0.1724
18640SOL    HW157361   5.865   0.860   6.114 -1.3889  0.8207  0.9729
18640SOL    HW257362   5.815   0.957   6.010  0.1482 -1.0736 -1.6690
18641SOL     OW57363   6.062   6.265   5.724 -0.2234 -0.0927 -0.0744
18641SOL    HW157364   5.995   6.265   5.792  0.7719  1.5489  0.9708
18641SOL    HW257365   6.097   6.176   5.724 -1.4938 -0.6085  0.2600
18642SOL     OW57366   6.129   1.089   7.128  0.5561  0.2112 -0.3851
18642SOL    HW157367   6.072   1.162   7.102 -0.1434 -0.2591 -0.1879
18642SOL    HW257368   6.186   1.075   7.052  1.4883  1.7033 -0.0134
18643SOL     OW57369   6.454   7.033   6.225  0.3867  0.1281  0.6946
18643SOL    HW157370   6.389   7.049   6.156  1.5490  1.4615 -0.1472
18643SOL    HW257371   6.498   6.952   6.198 -0.6781 -0.6146  1.1063
18644SOL     OW57372   7.175   7.347   8.873  0.2204  0.2042 -0.2206
18644SOL    HW157373   7.201   7.439   8.880 -1.2220  0.6740 -0.7473
18644SOL    HW257374   7.093   7.341   8.922  0.5250 -0.9030  0.1797
18645SOL     OW57375   7.598   2.718   7.366  0.0315  0.1474  0.1246
18645SOL    HW157376   7.515   2.690   7.326 -0.1992  1.0228 -0.0165
18645SOL    HW257377   7.645   2.636   7.380 -0.8097 -0.3594  0.1049
18646SOL     OW57378   7.678   2.643   5.203 -0.1380  0.0853  0.3948
18646SOL    HW157379   7.755   2.696   5.223 -0.0322 -1.1300  3.8245
18646SOL    HW257380   7.625   2.698   5.145  0.2048  3.7902  3.2359
18647SOL     OW57381   5.442   2.745   4.705  1.0495  0.0910  0.5957
18647SOL    HW157382   5.382   2.764   4.777  0.1924 -1.6488  0.3717
18647SOL    HW257383   5.399   2.677   4.654  3.4376 -1.6489  0.7335
18648SOL     OW57384   5.432   6.760   8.197 -0.4829  0.7142 -0.1561
18648SOL    HW157385   5.371   6.725   8.262 -0.3650  0.7925 -0.0047
18648SOL    HW257386   5.498   6.692   8.186 -0.8023  0.4711 -0.5960
18649SOL     OW57387   5.238   0.107   9.037  0.1234 -0.2279  0.3065
18649SOL    HW157388   5.185   0.156   8.974  0.8462 -1.9436 -1.7766
18649SOL    HW257389   5.325   0.148   9.033  0.3460 -0.7398 -0.3637
18650SOL     OW57390   5.161   0.217   7.726  0.0330 -0.1950 -0.0554
18650SOL    HW157391   5.251   0.187   7.714  0.3357 -0.0549  1.6205
18650SOL    HW257392   5.123   0.153   7.787 -0.9475 -0.1345 -0.5883
18651SOL     OW57393   7.583   7.396   8.682 -0.0565 -0.0379 -0.0567
18651SOL    HW157394   7.578   7.326   8.747 -3.1915 -0.2095 -0.3277
18651SOL    HW257395   7.586   7.476   8.734 -0.2938 -0.2528  0.2984
18652SOL     OW57396   6.841   2.125   7.360 -0.1882 -0.1819  0.1756
18652SOL    HW157397   6.801   2.209   7.339  0.2911 -0.1922 -0.8272
18652SOL    HW257398   6.857   2.129   7.454 -1.5995  0.2112  0.4248
18653SOL     OW57399   7.881   7.759   7.010 -0.0002 -0.4178  0.1970
18653SOL    HW157400   7.972   7.789   7.003  0.4630 -1.9654 -1.1079
18653SOL    HW257401   7.829   7.840   7.010  1.3725  0.5280  1.6013
18654SOL     OW57402   7.811   1.846   6.688 -0.5506  0.1582  0.1729
18654SOL    HW157403   7.854   1.834   6.772 -0.8807 -2.2378  0.0548
18654SOL    HW257404   7.862   1.915   6.644 -0.4113  1.4822  2.2958
18655SOL     OW57405   5.210   0.032   5.477 -0.6968 -0.1009 -0.2960
18655SOL    HW157406   5.129   0.067   5.513 -1.6105 -1.9041 -0.4913
18655SOL    HW257407   5.276   0.099   5.496 -1.9799  0.8710  0.9256
18656SOL     OW57408   6.861   2.569   5.860  0.3481  0.6251  0.6166
18656SOL    HW157409   6.908   2.578   5.778  0.0129  1.5850  0.5141
18656SOL    HW257410   6.870   2.477   5.884  0.9789  0.4801 -0.1691
18657SOL     OW57411   7.537   2.643   3.877  0.1605 -0.0197 -0.4329
18657SOL    HW157412   7.448   2.635   3.914 -0.9374  2.6674 -2.1908
18657SOL    HW257413   7.528   2.611   3.787  1.0632  0.0200 -0.5410
18658SOL     OW57414   6.938   7.200   6.890  0.0232  0.2479  0.0279
18658SOL    HW157415   6.949   7.146   6.968  0.0379 -0.1956 -0.2753
18658SOL    HW257416   6.999   7.273   6.903  0.0203  0.1832  0.4302
18659SOL     OW57417   7.588   1.909   7.306 -0.6987 -0.3628 -0.3192
18659SOL    HW157418   7.648   1.947   7.242 -0.5346 -0.0622  0.0164
18659SOL    HW257419   7.508   1.961   7.299 -0.0519  0.8727  1.0237
18660SOL     OW57420   7.965   0.264   7.300  0.3802 -0.4042  0.9060
18660SOL    HW157421   8.043   0.256   7.354  0.2641 -3.3167  0.8003
18660SOL    HW257422   7.895   0.227   7.354 -0.3551 -0.4842 -0.0833
18661SOL     OW57423   7.478   2.649   5.908 -0.9070  0.0775  0.0053
18661SOL    HW157424   7.428   2.707   5.851 -1.5489  1.5576  1.9459
18661SOL    HW257425   7.471   2.563   5.866 -2.3957  0.8468 -1.4617
18662SOL     OW57426   0.338   7.202   7.003  0.2395 -0.8108 -0.7092
18662SOL    HW157427   0.360   7.278   6.948  1.5888  0.1342  1.0471
18662SOL    HW257428   0.276   7.151   6.950 -2.2002  2.4264 -1.2462
18663SOL     OW57429   6.733   2.076   6.719  0.4348 -0.0280  0.0907
18663SOL    HW157430   6.826   2.058   6.727  0.5434 -0.2803 -1.4285
18663SOL    HW257431   6.722   2.103   6.628 -1.0299 -0.3311  0.1589
18664SOL     OW57432   7.207   7.616   8.865  0.1643 -0.2456 -0.1273
18664SOL    HW157433   7.196   7.656   8.779  2.0995 -1.9415 -1.2586
18664SOL    HW257434   7.152   7.668   8.923 -0.7562  1.3133 -2.2687
18665SOL     OW57435   0.459   6.567   8.421  0.6865 -0.1886 -0.5202
18665SOL    HW157436   0.371   6.550   8.456  0.6255  0.3670 -0.3945
18665SOL    HW257437   0.518   6.522   8.482  0.7291  2.4757  1.5854
18666SOL     OW57438   7.271   2.159   6.113  0.1962  0.1454  0.0692
18666SOL    HW157439   7.350   2.156   6.060  0.3364  0.0907  0.2832
18666SOL    HW257440   7.264   2.072   6.151  0.5804  0.4440  0.8508
18667SOL     OW57441   5.304   0.716   8.272  0.5525  0.8400  0.2079
18667SOL    HW157442   5.322   0.782   8.339 -0.5990  0.4053  0.9742
18667SOL    HW257443   5.346   0.636   8.306  0.6512  0.8144  0.0247
18668SOL     OW57444   7.235   7.284   6.894 -0.8531  0.1901  0.2779
18668SOL    HW157445   7.248   7.193   6.867  1.8867  0.7293 -0.5361
18668SOL    HW257446   7.264   7.286   6.985 -1.8642  0.0877  0.6162
18669SOL     OW57447   5.217   1.624   7.338  0.0971  0.2977  0.3768
18669SOL    HW157448   5.207   1.708   7.293 -0.3286  0.0977  0.0936
18669SOL    HW257449   5.137   1.614   7.389 -0.0065 -0.0934  0.1409
18670SOL     OW57450   7.264   0.410   7.448  0.4160 -0.0469 -0.0622
18670SOL    HW157451   7.262   0.499   7.414 -0.7319 -1.0199 -2.8219
18670SOL    HW257452   7.172   0.382   7.449  0.5397 -0.6755  2.5057
18671SOL     OW57453   6.148   1.326   6.433  0.3861 -0.0230  0.4579
18671SOL    HW157454   6.114   1.356   6.517  0.7703  3.6890 -0.5503
18671SOL    HW257455   6.071   1.322   6.376  0.4812 -0.0516  0.3308
18672SOL     OW57456   5.326   0.884   6.629  0.2266  0.0977  0.4763
18672SOL    HW157457   5.368   0.910   6.547 -0.1989 -1.5623 -0.3237
18672SOL    HW257458   5.338   0.959   6.687  1.2250  1.0164 -0.8432
18673SOL     OW57459   7.730   2.301   7.675 -0.5760 -0.7959 -0.5137
18673SOL    HW157460   7.691   2.217   7.655  0.4784 -0.9675 -2.0314
18673SOL    HW257461   7.798   2.282   7.739  0.9092 -1.4595 -2.1918
18674SOL     OW57462   0.346   1.098   6.226  0.2180 -0.3040  0.0602
18674SOL    HW157463   0.425   1.113   6.279  0.6678 -1.8914 -0.1073
18674SOL    HW257464   0.304   1.183   6.220  2.8605  1.0009 -1.3630
18675SOL     OW57465   6.044   2.276   7.542  0.5388 -1.0124  0.5154
18675SOL    HW157466   5.975   2.221   7.504  0.9326 -1.3088  0.2062
18675SOL    HW257467   6.116   2.269   7.479 -0.3625  2.1405 -1.0435
18676SOL     OW57468   5.395   1.652   7.607 -0.3958 -0.6023  0.0714
18676SOL    HW157469   5.467   1.708   7.635 -1.0263  0.6436 -0.7017
18676SOL    HW257470   5.316   1.706   7.618 -1.0631 -1.4444 -0.3822
18677SOL     OW57471   7.182   0.976   7.147 -0.1274  0.0316  0.1615
18677SOL    HW157472   7.218   0.933   7.225 -1.9919  0.7833  1.5067
18677SOL    HW257473   7.180   1.069   7.170 -1.3958  0.1831 -0.4696
18678SOL     OW57474   6.931   2.294   5.923  0.0237  0.2260  0.0365
18678SOL    HW157475   6.954   2.211   5.882 -0.3573  0.2517 -0.2352
18678SOL    HW257476   6.897   2.270   6.009  1.6406  0.2284  0.7033
18679SOL     OW57477   6.266   1.214   8.552  0.6882  0.0701 -0.3329
18679SOL    HW157478   6.180   1.182   8.578  1.7130 -1.8794  0.8221
18679SOL    HW257479   6.267   1.203   8.456 -0.1122 -0.4810 -0.2888
18680SOL     OW57480   5.532   7.820   5.833  0.1686 -0.4935 -0.1669
18680SOL    HW157481   5.549   7.774   5.915  1.2147 -1.0536 -0.6933
18680SOL    HW257482   5.465   7.885   5.856 -0.4435 -1.4483  0.8509
18681SOL     OW57483   7.789   0.353   5.118 -0.1908 -0.3363 -0.3925
18681SOL    HW157484   7.781   0.429   5.060  0.2712  2.0082  2.3769
18681SOL    HW257485   7.883   0.337   5.125 -0.2866 -1.1749 -0.9518
18682SOL     OW57486   0.431   0.362   6.628  0.5727 -0.0744 -0.6065
18682SOL    HW157487   0.443   0.424   6.700 -1.3173  0.0858 -0.3864
18682SOL    HW257488   0.469   0.407   6.552  1.4441  0.2844  0.0196
18683SOL     OW57489   6.363   0.150   7.611 -0.1682  0.7561  0.2704
18683SOL    HW157490   6.331   0.238   7.591  0.1505  0.9834  0.7666
18683SOL    HW257491   6.341   0.099   7.533 -0.8424  1.1433  0.1979
18684SOL     OW57492   0.231   0.966   6.902 -0.1642  0.2341  0.2818
18684SOL    HW157493   0.217   1.058   6.923 -0.0046  0.3858 -0.2676
18684SOL    HW257494   0.306   0.940   6.956 -0.0966  0.4728  0.3037
18685SOL     OW57495   6.298   4.113   6.375  0.6152 -0.1854 -0.2691
18685SOL    HW157496   6.359   4.174   6.417  0.4277 -0.2189  0.0577
18685SOL    HW257497   6.319   4.028   6.415  1.1167 -0.4059 -0.9802
18686SOL     OW57498   0.261   7.816   7.833 -0.2912  0.1508 -0.4668
18686SOL    HW157499   0.286   7.761   7.759 -0.8994 -1.9657  0.8088
18686SOL    HW257500   0.166   7.822   7.828 -0.3996 -0.5906  0.5085
18687SOL     OW57501   3.393   1.434   7.490  0.0972 -0.1539 -0.4099
18687SOL    HW157502   3.461   1.429   7.557 -0.2386 -0.3563 -0.0831
18687SOL    HW257503   3.322   1.379   7.523 -0.8343  1.1887 -0.0446
18688SOL     OW57504   6.314   0.062   5.946 -0.3227 -0.2427  0.1529
18688SOL    HW157505   6.368   0.111   5.883 -1.1875  0.4306 -0.0941
18688SOL    HW257506   6.317  -0.028   5.915 -0.8693  0.1079 -0.9867
18689SOL     OW57507   0.109   0.306   5.178  0.1998  0.0041  0.0299
18689SOL    HW157508   0.183   0.272   5.228 -0.0661  0.9308  1.0990
18689SOL    HW257509   0.085   0.387   5.224 -0.6618  0.3813 -1.0543
18690SOL     OW57510   7.331   2.898   7.792 -0.3812 -0.2224 -0.0219
18690SOL    HW157511   7.262   2.833   7.781 -1.2617  0.8866 -1.3558
18690SOL    HW257512   7.349   2.930   7.703  1.4271 -0.0351  0.3568
18691SOL     OW57513   0.270   1.905   5.880  0.3192 -0.3858  0.1853
18691SOL    HW157514   0.211   1.913   5.955  1.3123  1.5417  0.8331
18691SOL    HW257515   0.279   1.810   5.867  0.4594 -0.8194  2.7848
18692SOL     OW57516   4.276   1.769   6.451  0.2088 -0.0738 -0.1153
18692SOL    HW157517   4.279   1.736   6.362 -1.3926  1.1396 -0.6705
18692SOL    HW257518   4.227   1.703   6.500  0.7334 -0.5453 -0.2212
18693SOL     OW57519   7.806   0.979   6.952 -0.6972  0.6040 -0.3764
18693SOL    HW157520   7.828   1.072   6.946  0.2652  0.3853 -0.4179
18693SOL    HW257521   7.849   0.949   7.032  1.2803 -0.3721 -1.7146
18694SOL     OW57522   5.809   0.870   4.397 -0.1521 -0.1729  0.0678
18694SOL    HW157523   5.798   0.781   4.433  4.5447 -0.0180  2.7286
18694SOL    HW257524   5.841   0.856   4.308  2.9082 -1.4929  1.2184
18695SOL     OW57525   0.114   2.913   6.665  0.2634  0.2203 -0.0033
18695SOL    HW157526   0.027   2.951   6.675 -0.1217 -0.5234 -0.4740
18695SOL    HW257527   0.099   2.820   6.652  1.1647 -0.0104  0.4756
18696SOL     OW57528   7.450   6.664   6.032  0.6758  0.1799  0.5409
18696SOL    HW157529   7.496   6.581   6.016  1.7411  1.0968 -1.5888
18696SOL    HW257530   7.371   6.658   5.977  0.9630  0.7236  0.0607
18697SOL     OW57531   7.444   3.448   6.070  0.2654 -0.0954 -0.5969
18697SOL    HW157532   7.354   3.441   6.037 -0.0769 -1.2446  0.5029
18697SOL    HW257533   7.442   3.403   6.154  1.7953  0.1960 -0.3826
18698SOL     OW57534   6.001   0.180   6.228 -0.1365 -0.3918  0.4189
18698SOL    HW157535   6.030   0.165   6.318 -1.6773  1.3971  1.2853
18698SOL    HW257536   6.077   0.223   6.186 -0.3821  1.5309  1.7891
18699SOL     OW57537   6.206   1.103   5.361 -0.4016 -0.7527 -0.5473
18699SOL    HW157538   6.194   1.037   5.429 -1.1785 -1.5535 -1.4250
18699SOL    HW257539   6.216   1.052   5.280 -0.8009  0.1937 -1.2088
18700SOL     OW57540   5.773   0.610   4.616  0.2297 -0.2067  0.7483
18700SOL    HW157541   5.714   0.537   4.598 -0.5342  0.4683  0.4685
18700SOL    HW257542   5.833   0.611   4.541  0.0822 -0.3888  0.6267
18701SOL     OW57543   7.409   0.902   8.037  0.5055  0.1449  0.0797
18701SOL    HW157544   7.473   0.832   8.051  0.8049  0.0330 -1.6664
18701SOL    HW257545   7.456   0.982   8.059  0.8429 -0.0295 -0.0006
18702SOL     OW57546   7.321   2.802   5.724  0.0822  0.1060  0.3941
18702SOL    HW157547   7.238   2.768   5.758  0.0721  0.0974  0.3620
18702SOL    HW257548   7.294   2.874   5.666 -0.0424 -1.1632 -1.1954
18703SOL     OW57549   7.002   2.091   6.912 -0.0213  0.1594  0.3672
18703SOL    HW157550   7.084   2.134   6.888 -0.6203  0.7665 -0.6317
18703SOL    HW257551   6.956   2.155   6.967 -1.1768  1.1208 -1.5986
18704SOL     OW57552   4.248   1.483   6.465  0.6603 -0.2464 -0.1176
18704SOL    HW157553   4.153   1.481   6.453  0.7045  0.6825 -0.7479
18704SOL    HW257554   4.282   1.431   6.393  0.6490 -0.0812 -0.2437
18705SOL     OW57555   4.724   0.791   7.832  0.1013 -0.1401 -0.4348
18705SOL    HW157556   4.792   0.739   7.874  2.2663  1.2623 -2.0149
18705SOL    HW257557   4.765   0.876   7.815 -1.9695  0.6903 -1.6571
18706SOL     OW57558   0.401   0.182   8.143  0.0440 -0.5263  0.0629
18706SOL    HW157559   0.394   0.098   8.097 -0.2254 -1.7072  2.1708
18706SOL    HW257560   0.344   0.174   8.218 -0.0490  1.6119  0.2873
18707SOL     OW57561   6.605   6.653   4.455  0.1449  0.0662 -0.2573
18707SOL    HW157562   6.575   6.695   4.536  0.3984  1.5884 -0.9330
18707SOL    HW257563   6.536   6.670   4.392  0.5291 -0.0210 -0.7022
18708SOL     OW57564   7.856   1.411   5.875  0.0903 -0.1301 -0.0726
18708SOL    HW157565   7.771   1.427   5.916 -0.4231 -1.7152 -0.4407
18708SOL    HW257566   7.878   1.322   5.900  0.4639 -0.6291 -1.9954
18709SOL     OW57567   4.466   0.548   6.321 -0.0103 -0.1123  0.3828
18709SOL    HW157568   4.509   0.528   6.404 -0.4144  0.0336  0.6246
18709SOL    HW257569   4.375   0.523   6.334 -0.4534  1.4955  0.5642
18710SOL     OW57570   7.703   0.912   7.940  0.2562 -0.2183 -0.3469
18710SOL    HW157571   7.780   0.863   7.970  0.2925 -0.6575 -1.1189
18710SOL    HW257572   7.638   0.845   7.921  0.7347 -0.1110 -2.6620
18711SOL     OW57573   4.922   1.591   7.475  0.5745  0.3690 -0.2654
18711SOL    HW157574   4.924   1.606   7.569  2.1508  0.9943 -0.3790
18711SOL    HW257575   4.858   1.654   7.442 -0.5400 -0.3502  0.4409
18712SOL     OW57576   6.487   0.574   6.759  0.1154  0.1520 -0.2743
18712SOL    HW157577   6.517   0.484   6.769 -1.1877 -0.3133 -0.4587
18712SOL    HW257578   6.566   0.627   6.775  1.4232 -1.0545 -2.2294
18713SOL     OW57579   6.284   1.057   7.343  0.1707 -0.2649  0.0224
18713SOL    HW157580   6.214   1.085   7.285 -0.8325 -0.2967  1.1652
18713SOL    HW257581   6.364   1.063   7.290 -0.6724 -0.1330 -1.2759
18714SOL     OW57582   0.186   2.925   7.434 -0.4439 -0.7110  0.2775
18714SOL    HW157583   0.130   2.962   7.503  0.5561 -1.1614  1.3666
18714SOL    HW257584   0.226   3.002   7.393 -1.9854 -0.3705 -0.6623
18715SOL     OW57585   6.399   1.389   7.080  0.0218  0.3495  0.2204
18715SOL    HW157586   6.471   1.327   7.095 -0.4691  0.1455  1.9706
18715SOL    HW257587   6.408   1.454   7.150 -0.7845  1.0179 -0.2690
18716SOL     OW57588   0.861   0.953   8.196  0.1711  0.4038 -0.2596
18716SOL    HW157589   0.948   0.991   8.210 -0.3754  2.3203 -1.5834
18716SOL    HW257590   0.802   1.029   8.195 -0.9505 -0.3712 -3.5296
18717SOL     OW57591   0.495   3.712   7.911 -0.0857  0.5939 -0.2503
18717SOL    HW157592   0.584   3.749   7.910  0.4582 -0.4722  1.6145
18717SOL    HW257593   0.440   3.781   7.947  0.3204  0.7192  0.1429
18718SOL     OW57594   6.616   2.298   5.737 -0.2204  0.1193  0.0118
18718SOL    HW157595   6.702   2.261   5.718  0.1924  1.6325 -1.2772
18718SOL    HW257596   6.630   2.393   5.736 -1.6951  0.3795  0.8650
18719SOL     OW57597   7.135   0.717   6.118  0.2059 -0.3159 -0.1620
18719SOL    HW157598   7.150   0.707   6.212  1.2156 -0.7949 -0.3710
18719SOL    HW257599   7.193   0.654   6.077  0.7212  0.7782 -1.1630
18720SOL     OW57600   7.420   0.185   6.431  0.4809  0.3956 -0.0820
18720SOL    HW157601   7.504   0.140   6.424 -0.5404 -1.5850 -0.2234
18720SOL    HW257602   7.357   0.116   6.454 -1.0780  1.8577  0.2368
18721SOL     OW57603   6.335   2.062   6.477  0.4639  0.1596 -0.2911
18721SOL    HW157604   6.371   2.132   6.532 -0.5873  1.1818 -0.8651
18721SOL    HW257605   6.319   1.990   6.538 -0.8178  1.3207  0.8060
18722SOL     OW57606   7.721   2.524   8.072  0.5351  0.4736  0.3728
18722SOL    HW157607   7.627   2.508   8.083  0.6220  0.5345  1.3320
18722SOL    HW257608   7.762   2.474   8.143  1.3950 -1.1047 -1.1563
18723SOL     OW57609   6.789   1.606   8.429  0.1114  0.2644  0.1082
18723SOL    HW157610   6.819   1.517   8.407  1.4881  0.8745 -0.5846
18723SOL    HW257611   6.864   1.662   8.411 -1.1333  1.7500 -0.7340
18724SOL     OW57612   6.657   1.906   7.352 -0.0568 -0.2453 -0.3189
18724SOL    HW157613   6.726   1.972   7.346  1.0430 -1.4666 -1.9807
18724SOL    HW257614   6.622   1.915   7.441  1.1376  1.4811  0.0140
18725SOL     OW57615   7.066   2.122   7.200  0.4776 -0.2385 -0.4725
18725SOL    HW157616   7.068   2.217   7.196 -2.0609 -0.0112  1.2956
18725SOL    HW257617   6.981   2.101   7.239  0.8401 -3.2511 -1.0339
18726SOL     OW57618   0.325   0.879   7.380 -0.1215 -0.1140 -1.1915
18726SOL    HW157619   0.267   0.956   7.377  2.1003  2.1094  2.9911
18726SOL    HW257620   0.405   0.908   7.336  0.8017  0.1453  0.5813
18727SOL     OW57621   0.598   5.893   7.080  0.1631 -1.2096 -0.5700
18727SOL    HW157622   0.672   5.877   7.021 -1.0074 -1.0171 -2.1694
18727SOL    HW257623   0.530   5.832   7.051 -0.9561 -0.0982 -0.4035
18728SOL     OW57624   5.970   2.070   5.789 -0.7122 -0.1758 -0.2056
18728SOL    HW157625   5.931   2.013   5.723  0.3275  0.3025 -1.2449
18728SOL    HW257626   6.019   2.136   5.740 -0.1669  0.3838  1.0304
18729SOL     OW57627   5.455   0.660   5.690 -0.0698 -0.3649 -0.0796
18729SOL    HW157628   5.443   0.633   5.781 -0.0921 -1.1846 -0.3150
18729SOL    HW257629   5.541   0.701   5.688  0.8027 -2.0809 -0.0483
18730SOL     OW57630   6.511   6.346   5.793 -0.0655  0.2769 -0.0664
18730SOL    HW157631   6.582   6.381   5.739 -1.7805 -0.1028 -2.7473
18730SOL    HW257632   6.436   6.402   5.775 -0.6410  0.4354  2.4002
18731SOL     OW57633   7.488   1.499   4.878 -0.8669  0.3048  0.6680
18731SOL    HW157634   7.453   1.536   4.797 -0.3445  0.7178  0.6246
18731SOL    HW257635   7.540   1.424   4.850 -0.8491  0.3278  0.6401
18732SOL     OW57636   7.910   2.315   5.291  0.0280 -0.2864 -0.0086
18732SOL    HW157637   7.980   2.250   5.293 -1.0814 -1.5979 -1.0376
18732SOL    HW257638   7.851   2.288   5.362 -0.1934 -0.1087 -0.1260
18733SOL     OW57639   5.866   1.053   6.566 -0.1062  0.3300  0.2201
18733SOL    HW157640   5.859   1.114   6.639 -1.0428  1.0454 -0.4328
18733SOL    HW257641   5.948   1.076   6.523 -1.3046  2.4610 -1.1197
18734SOL     OW57642   7.779   1.262   6.985 -0.4550 -0.2103  0.0587
18734SOL    HW157643   7.689   1.231   7.001 -0.3188 -0.3624  0.5436
18734SOL    HW257644   7.782   1.347   7.029 -0.2422 -0.3836  0.3792
18735SOL     OW57645   7.081   7.396   6.340  0.5703  0.6309 -0.1825
18735SOL    HW157646   7.123   7.480   6.316  2.2701 -0.4065 -1.0623
18735SOL    HW257647   6.996   7.421   6.376  1.5861  2.8157  0.8655
18736SOL     OW57648   0.428   0.737   7.607  0.0453 -0.4170 -0.6786
18736SOL    HW157649   0.488   0.666   7.584 -0.2828 -0.7605 -0.4868
18736SOL    HW257650   0.395   0.769   7.523  1.2140  0.4089 -0.8362
18737SOL     OW57651   0.044   3.832   7.824  0.1807  0.0510 -0.2044
18737SOL    HW157652   0.112   3.894   7.799  0.5477  0.0132  0.6454
18737SOL    HW257653   0.058   3.818   7.918 -1.1085  0.1676  0.0232
18738SOL     OW57654   0.755   7.962   5.862  0.0722 -0.0800 -0.0307
18738SOL    HW157655   0.773   7.868   5.860  1.2379  0.1256  0.1037
18738SOL    HW257656   0.779   7.993   5.774 -0.4355  0.0665 -0.1180
18739SOL     OW57657   6.465   1.337   5.724 -0.3620  0.4861  0.0306
18739SOL    HW157658   6.496   1.344   5.634  0.5766  1.4475  0.4103
18739SOL    HW257659   6.431   1.424   5.744 -2.5688 -0.2864 -0.0783
18740SOL     OW57660   6.432   1.062   8.043 -0.1856  0.4594  0.0673
18740SOL    HW157661   6.480   1.137   8.078 -1.3066  0.3206  2.0377
18740SOL    HW257662   6.390   1.096   7.963  1.4046  1.1629 -0.5100
18741SOL     OW57663   4.320   0.478   8.190  0.5526 -0.5042 -0.6553
18741SOL    HW157664   4.320   0.534   8.112  0.1343  0.1225 -0.2113
18741SOL    HW257665   4.395   0.507   8.241 -0.0056  0.0684 -0.1405
18742SOL     OW57666   5.146   1.730   7.943  0.0557 -0.2362  0.0261
18742SOL    HW157667   5.194   1.778   8.010  0.4615 -4.2294  2.9378
18742SOL    HW257668   5.057   1.724   7.977 -0.7606  0.9236 -1.7729
18743SOL     OW57669   7.342   1.133   6.086 -0.0942 -0.0814 -0.5333
18743SOL    HW157670   7.411   1.181   6.041  0.6824 -1.3234 -0.6914
18743SOL    HW257671   7.387   1.063   6.133 -1.2756 -1.1466 -0.9481
18744SOL     OW57672   5.713   7.802   6.290 -1.0085 -0.1070  0.6249
18744SOL    HW157673   5.689   7.743   6.362  1.1833  0.1165  1.6156
18744SOL    HW257674   5.807   7.791   6.280 -1.0239  1.0005 -1.2393
18745SOL     OW57675   0.281   1.329   5.071  0.0442  0.1094 -0.3743
18745SOL    HW157676   0.366   1.328   5.027 -0.3315 -0.1980 -1.1119
18745SOL    HW257677   0.287   1.260   5.137  0.4277  0.2047 -0.3095
18746SOL     OW57678   6.925   2.874   7.325  0.2440  0.1492  0.4472
18746SOL    HW157679   6.973   2.919   7.256  1.0624 -0.8351  0.3504
18746SOL    HW257680   6.861   2.939   7.356  1.0454  1.1991 -0.0166
18747SOL     OW57681   6.899   0.877   6.129  0.5451 -0.4785  0.5331
18747SOL    HW157682   6.985   0.837   6.115  1.8397  1.9065  1.1322
18747SOL    HW257683   6.910   0.968   6.102 -2.0076 -0.2442  0.0330
18748SOL     OW57684   0.556   1.257   7.796 -0.0638 -0.1710 -0.1359
18748SOL    HW157685   0.485   1.287   7.739  0.6108  0.6176 -0.5855
18748SOL    HW257686   0.617   1.212   7.738  0.2263 -0.0845  0.1004
18749SOL     OW57687   0.519   1.904   7.757 -0.2964  0.0506 -0.0599
18749SOL    HW157688   0.521   1.911   7.853 -0.1772 -1.0659  0.0403
18749SOL    HW257689   0.426   1.902   7.736 -0.3242  0.0697  0.0584
18750SOL     OW57690   5.916   0.894   8.831 -0.3208 -0.1527 -0.3704
18750SOL    HW157691   5.874   0.816   8.794 -0.1905 -0.4404  0.0877
18750SOL    HW257692   5.856   0.923   8.899 -0.8789  0.7545 -1.2223
18751SOL     OW57693   7.884   7.832   7.524 -0.2591  0.0793  0.4015
18751SOL    HW157694   7.844   7.885   7.456  2.8201 -0.7138 -2.2647
18751SOL    HW257695   7.937   7.893   7.574  0.7209  0.0889 -0.6072
18752SOL     OW57696   5.170   1.446   5.238 -0.1201  0.0249 -0.2550
18752SOL    HW157697   5.114   1.387   5.289  0.2572 -1.2401 -1.2420
18752SOL    HW257698   5.257   1.437   5.278 -0.1390  0.1969 -0.1749
18753SOL     OW57699   6.977   1.718   5.530 -0.7749  0.1231  0.2305
18753SOL    HW157700   7.059   1.678   5.560 -0.9399 -0.8024 -0.5194
18753SOL    HW257701   6.929   1.738   5.610 -0.2602 -0.2790  0.6428
18754SOL     OW57702   7.421   1.321   5.135  0.1595  0.2048 -0.2800
18754SOL    HW157703   7.452   1.401   5.176 -0.3727  0.8303 -1.0788
18754SOL    HW257704   7.447   1.329   5.043  0.5835 -0.7902 -0.2631
18755SOL     OW57705   0.261   2.565   7.238 -0.2952 -0.4358  0.5432
18755SOL    HW157706   0.306   2.524   7.311 -1.9156 -0.7607  1.4153
18755SOL    HW257707   0.172   2.580   7.270 -1.3731 -1.5421 -1.6885
18756SOL     OW57708   5.230   0.813   5.757 -0.1193  0.5072 -0.4899
18756SOL    HW157709   5.299   0.752   5.733  0.0923  0.4872  0.1355
18756SOL    HW257710   5.267   0.865   5.828 -0.6869  0.6021 -0.2517
18757SOL     OW57711   5.707   0.860   6.394 -0.5673  0.5970  0.6354
18757SOL    HW157712   5.752   0.917   6.456  0.0359  0.7899  0.0289
18757SOL    HW257713   5.775   0.802   6.360 -0.6726  1.1763 -0.6128
18758SOL     OW57714   5.774   0.516   5.828  0.0212 -0.1204 -0.1658
18758SOL    HW157715   5.685   0.529   5.862  0.5788 -1.7688  2.1235
18758SOL    HW257716   5.825   0.486   5.903  1.6282 -2.9642 -2.1845
18759SOL     OW57717   6.541   0.946   5.309  0.8048  0.2397  0.1831
18759SOL    HW157718   6.481   0.882   5.348  1.6938 -0.9149 -0.3048
18759SOL    HW257719   6.545   0.921   5.216  3.9865 -1.3585  0.6181
18760SOL     OW57720   2.015   0.592   8.269  0.0224  0.0197 -0.1116
18760SOL    HW157721   1.986   0.579   8.179 -1.0408 -0.3439  0.2778
18760SOL    HW257722   2.076   0.665   8.264  0.7200 -0.6040 -1.2679
18761SOL     OW57723   5.732   1.328   6.050  0.4455 -0.3567 -0.2949
18761SOL    HW157724   5.710   1.415   6.017  1.4629 -0.2713 -0.7791
18761SOL    HW257725   5.660   1.306   6.110  1.2411  1.7851  1.6159
18762SOL     OW57726   4.725   1.748   7.333  0.5578  0.0175 -0.0665
18762SOL    HW157727   4.715   1.791   7.248  0.0586 -1.0880 -0.5873
18762SOL    HW257728   4.649   1.691   7.341  1.2297 -0.8392  0.5484
18763SOL     OW57729   0.291   2.678   7.545  0.0355  0.0726  0.7916
18763SOL    HW157730   0.232   2.733   7.493  0.6072  0.4784  0.5550
18763SOL    HW257731   0.248   2.593   7.549 -0.0178  0.0275 -0.3662
18764SOL     OW57732   5.637   1.172   6.428 -0.1502  0.3114  0.0021
18764SOL    HW157733   5.552   1.128   6.430 -0.5423  1.0486 -0.1500
18764SOL    HW257734   5.694   1.115   6.479 -0.9368  0.2296  0.8231
18765SOL     OW57735   0.126   0.705   5.760 -0.0030  0.3748 -0.0511
18765SOL    HW157736   0.087   0.787   5.790  0.2157  0.9855 -1.3644
18765SOL    HW257737   0.073   0.637   5.802 -1.6854  1.1791 -0.7506
18766SOL     OW57738   7.267   0.861   7.767 -0.1901  0.2180 -0.5325
18766SOL    HW157739   7.317   0.886   7.690 -0.4377  2.8992  0.0542
18766SOL    HW257740   7.329   0.868   7.839 -0.7565  1.1450 -0.1066
18767SOL     OW57741   5.196   0.912   6.995  0.8264 -0.5663  0.0435
18767SOL    HW157742   5.158   0.999   7.001  0.8356 -0.4250 -1.6716
18767SOL    HW257743   5.129   0.859   6.951  0.1991 -1.8477  2.3574
18768SOL     OW57744   7.259   1.950   6.293 -0.0358  0.1148 -0.0492
18768SOL    HW157745   7.345   1.969   6.330  1.9927  0.5374 -4.3383
18768SOL    HW257746   7.235   1.865   6.329  1.2632  0.7789  2.6054
18769SOL     OW57747   0.928   7.782   4.972 -0.0480  0.4960  0.2235
18769SOL    HW157748   0.968   7.738   5.047  0.8834  1.4479  0.3025
18769SOL    HW257749   0.975   7.865   4.965 -1.9229  1.6171  0.2358
18770SOL     OW57750   7.244   7.977   6.389 -0.2634  0.0314 -0.1913
18770SOL    HW157751   7.150   7.958   6.386 -0.4986  1.1535 -0.3803
18770SOL    HW257752   7.277   7.944   6.306 -0.8680  1.3718 -1.0081
18771SOL     OW57753   2.235   7.646   5.935  0.2675  0.4435  0.1518
18771SOL    HW157754   2.287   7.713   5.890 -0.5660 -0.5594 -2.5106
18771SOL    HW257755   2.147   7.682   5.938 -0.2580 -0.5713 -1.5983
18772SOL     OW57756   1.117   1.336   9.173 -0.0774 -0.3540  0.3445
18772SOL    HW157757   1.027   1.369   9.173 -0.4479 -1.3031  1.1539
18772SOL    HW257758   1.107   1.240   9.175  0.9423 -0.4635  0.6685
18773SOL     OW57759   6.380   1.544   6.675 -0.7022 -0.2422 -0.6603
18773SOL    HW157760   6.349   1.462   6.713  0.6209 -1.4636 -2.0738
18773SOL    HW257761   6.427   1.587   6.747 -1.3724 -0.7453  0.0878
18774SOL     OW57762   6.340   0.040   6.210  0.2615 -0.0892 -0.3999
18774SOL    HW157763   6.323  -0.054   6.201 -1.5778 -0.1554  2.4898
18774SOL    HW257764   6.334   0.074   6.120  0.1801 -2.6011 -1.4173
18775SOL     OW57765   7.367   7.659   7.100  0.0696 -0.6550  0.3449
18775SOL    HW157766   7.381   7.749   7.071  3.2743 -1.5129 -1.2631
18775SOL    HW257767   7.334   7.668   7.189  0.6229  2.1279  0.3800
18776SOL     OW57768   5.960   0.301   5.168 -0.1862  0.3002 -0.6567
18776SOL    HW157769   5.886   0.357   5.186 -1.3652 -1.5640  0.6579
18776SOL    HW257770   5.988   0.269   5.254 -1.5868 -3.4811 -1.3763
18777SOL     OW57771   7.600   2.471   5.445 -0.3982  0.4705 -0.3742
18777SOL    HW157772   7.602   2.555   5.492  2.0584 -0.8236  2.1469
18777SOL    HW257773   7.662   2.484   5.373  1.4117  0.3807  1.0778
18778SOL     OW57774   3.850   1.013   7.822 -0.5343 -0.0578 -0.1095
18778SOL    HW157775   3.783   1.043   7.761 -2.1659 -0.3630  1.4655
18778SOL    HW257776   3.808   0.943   7.872  1.8261 -2.2339 -0.8909
18779SOL     OW57777   5.984   7.558   9.408  0.1509 -0.1434  0.3203
18779SOL    HW157778   5.973   7.592   9.497  2.2352  1.5570 -0.0046
18779SOL    HW257779   5.905   7.505   9.394 -0.5908  0.1056  2.8936
18780SOL     OW57780   5.737   0.302   9.411 -0.0850  0.1837  0.9718
18780SOL    HW157781   5.681   0.225   9.423  0.8468 -0.6304  0.2470
18780SOL    HW257782   5.767   0.324   9.499  1.1553 -1.4605  0.9922
18781SOL     OW57783   6.687   1.600   9.349 -0.1330  0.0057  0.2657
18781SOL    HW157784   6.716   1.516   9.313  0.6978  0.9535 -1.3859
18781SOL    HW257785   6.596   1.608   9.319 -0.2537 -0.3641  0.5316
18782SOL     OW57786   7.102   2.388   7.152  0.1858  0.1922 -0.3314
18782SOL    HW157787   7.132   2.464   7.203 -0.2463  0.5367 -0.5840
18782SOL    HW257788   7.034   2.423   7.095 -1.5851 -0.7700  1.0758
18783SOL     OW57789   0.844   1.396   9.204 -0.2324  0.0974 -0.1051
18783SOL    HW157790   0.838   1.486   9.236  1.5421  0.2594 -0.1161
18783SOL    HW257791   0.805   1.343   9.273 -3.3201  0.9727 -1.0252
18784SOL     OW57792   5.643   2.755   9.346  0.0895 -0.0409 -0.4433
18784SOL    HW157793   5.684   2.715   9.423  1.3780 -0.9829 -1.5576
18784SOL    HW257794   5.612   2.680   9.294 -1.6947  0.6101 -0.3827
18785SOL     OW57795   6.687   0.131   7.207 -0.5032  0.2550 -0.5062
18785SOL    HW157796   6.613   0.186   7.232 -0.7704 -0.4458  0.2902
18785SOL    HW257797   6.696   0.068   7.279  0.1476 -0.3861 -1.1298
18786SOL     OW57798   7.483   0.054   6.915  0.0324 -0.1096 -0.4762
18786SOL    HW157799   7.389   0.037   6.922  0.0254 -2.0255 -3.3538
18786SOL    HW257800   7.489   0.147   6.893 -1.0694  0.2963  0.8264
18787SOL     OW57801   6.833   0.949   8.783  0.5446 -0.4564 -0.0964
18787SOL    HW157802   6.748   0.951   8.739  0.4024  1.4786  0.1656
18787SOL    HW257803   6.823   0.881   8.849 -0.0505 -1.7402 -1.4439
18788SOL     OW57804   7.337   2.283   6.997 -0.0252 -0.0990 -0.2281
18788SOL    HW157805   7.246   2.278   7.024 -0.2631 -0.3020 -1.0497
18788SOL    HW257806   7.334   2.307   6.904  0.7754  1.0295  0.0099
18789SOL     OW57807   7.428   2.567   8.140  0.2492  0.1555 -0.0550
18789SOL    HW157808   7.353   2.556   8.082  0.4340 -1.1225 -0.0748
18789SOL    HW257809   7.421   2.657   8.171 -0.6893  0.3873 -0.8897
18790SOL     OW57810   4.000   2.287   7.029 -0.4677  0.5534  0.3960
18790SOL    HW157811   4.057   2.315   6.958 -0.7224  1.5790  0.5871
18790SOL    HW257812   3.988   2.193   7.014  0.1237  0.6014 -0.4503
18791SOL     OW57813   0.526   1.761   8.209  0.0986  0.2040 -0.3409
18791SOL    HW157814   0.453   1.742   8.268  0.1735  2.4173  0.5823
18791SOL    HW257815   0.565   1.675   8.190 -1.8834 -0.8784  0.2445
18792SOL     OW57816   4.445   1.227   6.518 -0.3479  0.1361 -0.2917
18792SOL    HW157817   4.483   1.143   6.494  0.9891 -0.3364  2.9030
18792SOL    HW257818   4.514   1.291   6.502 -0.1787  0.1091  0.2944
18793SOL     OW57819   7.527   1.311   9.113  0.4491  0.6526  0.6036
18793SOL    HW157820   7.467   1.341   9.181  0.9862  2.4654  0.3244
18793SOL    HW257821   7.609   1.292   9.159  0.0213 -0.7746  0.8250
18794SOL     OW57822   6.130   3.066   6.793  0.1581 -0.5803  0.3130
18794SOL    HW157823   6.184   3.127   6.744 -1.2626  0.6654  0.2203
18794SOL    HW257824   6.061   3.120   6.832 -1.0941 -2.0906  0.3208
18795SOL     OW57825   0.203   1.855   8.013 -0.0313 -0.4633  0.2106
18795SOL    HW157826   0.288   1.900   8.008 -0.7350  0.7937 -2.1975
18795SOL    HW257827   0.170   1.858   7.923 -3.7149  1.3037  1.4499
18796SOL     OW57828   5.883   2.915   9.409 -0.4449 -0.5612  0.4057
18796SOL    HW157829   5.792   2.892   9.393 -1.0997  1.6623  0.6091
18796SOL    HW257830   5.878   2.991   9.467  1.5490 -0.3847  0.3990
18797SOL     OW57831   7.713   1.703   8.595 -0.2678  0.3156  0.1584
18797SOL    HW157832   7.673   1.642   8.657 -0.4547  1.0300  0.7475
18797SOL    HW257833   7.805   1.706   8.621 -0.1033 -0.2536 -0.3236
18798SOL     OW57834   7.890   6.198   8.856 -0.2233 -0.5189  0.0212
18798SOL    HW157835   7.804   6.161   8.872 -0.7780  0.0635 -1.4309
18798SOL    HW257836   7.892   6.278   8.910  0.3204 -1.6660  1.8061
18799SOL     OW57837   7.065   7.590   6.615  0.1214  0.3126  0.0429
18799SOL    HW157838   6.996   7.580   6.680 -0.9518  2.0183 -0.7741
18799SOL    HW257839   7.146   7.600   6.666 -0.7097  1.7457  1.1234
18800SOL     OW57840   6.299   3.474   6.807 -0.1848 -0.3367 -0.2878
18800SOL    HW157841   6.346   3.392   6.789 -0.4505 -0.6136  0.2720
18800SOL    HW257842   6.240   3.483   6.732  0.1638 -0.4259 -0.5750
18801SOL     OW57843   5.875   0.956   7.330  0.6778 -0.6466  0.2136
18801SOL    HW157844   5.884   0.967   7.236 -1.8782  1.6507  0.1018
18801SOL    HW257845   5.957   0.991   7.366  0.3486  1.6756 -1.1005
18802SOL     OW57846   6.979   3.313   7.479  0.2920 -0.0033 -0.4231
18802SOL    HW157847   6.975   3.224   7.515 -0.8663 -0.1448 -0.8636
18802SOL    HW257848   6.945   3.304   7.391  1.2544  0.6936 -0.8799
18803SOL     OW57849   7.176   1.754  10.092 -0.4400  0.5412 -0.1382
18803SOL    HW157850   7.081   1.749  10.079 -0.3038  0.7329 -1.2775
18803SOL    HW257851   7.198   1.670  10.132 -1.2286  0.9136  1.1387
18804SOL     OW57852   5.656   1.762   9.666 -0.4162  0.5587  0.1466
18804SOL    HW157853   5.663   1.821   9.591 -2.3039  2.0414  1.0366
18804SOL    HW257854   5.642   1.676   9.628  1.0701  0.8497 -1.1874
18805SOL     OW57855   5.929   1.532   7.670  0.0452 -0.1170 -0.6108
18805SOL    HW157856   5.871   1.607   7.686 -0.5834 -0.6339 -0.4162
18805SOL    HW257857   5.978   1.522   7.751 -0.3876 -0.3586 -0.3755
18806SOL     OW57858   7.309   2.543   8.471  0.3531  0.4320  0.2390
18806SOL    HW157859   7.230   2.490   8.486  0.3887  0.3042 -0.0059
18806SOL    HW257860   7.379   2.493   8.512  1.1070 -1.7972 -3.2394
18807SOL     OW57861   0.099   0.567   7.047 -0.0404  0.2305  0.1169
18807SOL    HW157862   0.078   0.642   6.991  0.7435  0.7807  0.5225
18807SOL    HW257863   0.079   0.490   6.994  2.3945  0.6922 -1.6931
18808SOL     OW57864   4.747   7.887  10.308  0.3151 -0.1422 -0.2678
18808SOL    HW157865   4.674   7.914  10.364 -0.8838  0.2774 -1.9388
18808SOL    HW257866   4.786   7.969  10.279 -0.0768 -0.2811 -1.2512
18809SOL     OW57867   7.517   1.665   8.084  0.2180 -0.1697 -0.0631
18809SOL    HW157868   7.447   1.599   8.089 -0.2815  0.4148  1.0568
18809SOL    HW257869   7.552   1.670   8.173  0.7509  0.5320 -0.3031
18810SOL     OW57870   0.485   1.333   9.649  0.1595  0.2077  0.4574
18810SOL    HW157871   0.570   1.328   9.692  0.6293 -0.7905 -0.5480
18810SOL    HW257872   0.469   1.427   9.639  1.0011  0.4082  0.9127
18811SOL     OW57873   5.723   2.103  10.143 -0.3320  0.2265 -0.0954
18811SOL    HW157874   5.803   2.089  10.094 -0.6574  0.0867 -0.5945
18811SOL    HW257875   5.700   2.194  10.127 -0.0578  0.3838  0.3788
18812SOL     OW57876   0.451   1.812   8.794 -0.0604  0.4540  0.1610
18812SOL    HW157877   0.481   1.840   8.707 -2.5070 -1.7712 -1.5880
18812SOL    HW257878   0.451   1.716   8.788 -0.5444  0.2617  2.5599
18813SOL     OW57879   1.061   2.423   9.558  0.5747 -0.4257 -1.0546
18813SOL    HW157880   1.045   2.475   9.637  1.8917 -0.0565 -1.0063
18813SOL    HW257881   1.153   2.440   9.537  1.6964 -4.2132  0.0693
18814SOL     OW57882   5.439   0.820   7.759  0.2936 -0.1165 -0.2141
18814SOL    HW157883   5.357   0.805   7.713 -0.8889  1.5900  1.1768
18814SOL    HW257884   5.421   0.794   7.849  1.6936 -0.8916 -0.1374
18815SOL     OW57885   7.906   0.220   9.250 -0.1874  0.2728  0.5164
18815SOL    HW157886   7.872   0.303   9.282 -0.8883 -0.1723  0.9519
18815SOL    HW257887   7.994   0.213   9.288  0.1739  1.1523 -0.1277
18816SOL     OW57888   6.552   3.332   7.152 -0.3122 -0.3671 -0.1419
18816SOL    HW157889   6.473   3.281   7.167 -1.1372  0.7104 -0.6827
18816SOL    HW257890   6.534   3.417   7.192  0.4665 -0.0140 -0.5138
18817SOL     OW57891   5.608   0.591   8.579 -0.0570 -0.6994 -0.2945
18817SOL    HW157892   5.644   0.532   8.513  0.2317 -0.5762 -0.2500
18817SOL    HW257893   5.514   0.589   8.565  0.0777  0.3201 -1.5702
18818SOL     OW57894   6.935   1.521  10.253  0.0925  0.1167  0.0896
18818SOL    HW157895   6.997   1.449  10.248 -1.8017 -1.6757  0.6717
18818SOL    HW257896   6.921   1.535  10.347 -1.9366 -1.0509  0.0284
18819SOL     OW57897   5.822   0.551  10.910  0.1451 -0.7389  0.0719
18819SOL    HW157898   5.774   0.623  10.952  0.2633 -1.8013  2.2031
18819SOL    HW257899   5.781   0.541  10.825 -0.2031  1.5076 -0.0850
18820SOL     OW57900   6.613   7.959   9.069 -0.5029  0.4735 -0.3136
18820SOL    HW157901   6.636   7.959   9.162 -0.6363  0.2101 -0.2808
18820SOL    HW257902   6.580   7.871   9.052  1.1948 -0.0827 -1.0251
18821SOL     OW57903   6.559   1.083   6.894  0.5540  0.4335  0.1660
18821SOL    HW157904   6.524   1.081   6.805  1.0732 -1.7299 -0.0393
18821SOL    HW257905   6.585   1.174   6.908 -0.1958  0.9532 -1.6180
18822SOL     OW57906   6.414   0.797   8.604 -0.3227 -0.0057 -0.0393
18822SOL    HW157907   6.324   0.827   8.587 -0.8937 -2.4772 -1.9792
18822SOL    HW257908   6.403   0.716   8.653  0.7949 -0.7309 -0.9376
18823SOL     OW57909   3.884   0.950  11.360 -0.0440 -0.7018  0.0072
18823SOL    HW157910   3.797   0.928  11.394  0.3148 -1.2171  0.6020
18823SOL    HW257911   3.894   1.043  11.380 -0.3881 -0.6826  0.1007
18824SOL     OW57912   0.595   7.898   6.765 -0.2216 -0.1781  0.3859
18824SOL    HW157913   0.668   7.895   6.703  0.8484  0.8412  1.5172
18824SOL    HW257914   0.544   7.974   6.739  1.0588  1.1477  1.5624
18825SOL     OW57915   1.008   0.766   9.714  0.1298  0.3627 -0.1210
18825SOL    HW157916   0.959   0.848   9.717  0.5771  0.6148  0.5017
18825SOL    HW257917   0.997   0.734   9.625 -1.4191  0.2531  0.0878
18826SOL     OW57918   7.089   2.545   8.062  0.8745  0.0265 -0.6088
18826SOL    HW157919   7.157   2.525   7.999 -1.8423 -2.3187 -3.1118
18826SOL    HW257920   7.048   2.625   8.030  0.4411 -0.3390 -0.9763
18827SOL     OW57921   7.445   0.083   9.640  0.1086 -0.5002 -0.0813
18827SOL    HW157922   7.408   0.168   9.614 -0.2921 -0.1346  1.5857
18827SOL    HW257923   7.407   0.021   9.578 -2.8895 -0.0501  1.1219
18828SOL     OW57924   7.106   1.925   7.508 -0.7818  0.2991  0.0579
18828SOL    HW157925   7.097   2.020   7.506 -0.2069  0.4923  2.5862
18828SOL    HW257926   7.200   1.909   7.518 -0.8255 -0.5622 -0.7997
18829SOL     OW57927   5.925   2.685   9.079  0.0834  0.0183 -0.0339
18829SOL    HW157928   5.888   2.773   9.093  0.4868  0.2848 -0.5594
18829SOL    HW257929   5.850   2.626   9.087 -0.3355  0.4848 -0.4147
18830SOL     OW57930   7.043   1.778   8.377  0.4668 -0.1508 -0.0150
18830SOL    HW157931   7.115   1.756   8.436  1.6572  0.0261 -1.3348
18830SOL    HW257932   6.996   1.849   8.421  1.0322 -0.3332  0.9139
18831SOL     OW57933   7.207   2.212   9.018 -0.0349  0.1304 -0.9903
18831SOL    HW157934   7.139   2.154   9.053  0.0184  0.1479 -0.8582
18831SOL    HW257935   7.228   2.175   8.932 -0.4054  0.2853 -1.1471
18832SOL     OW57936   7.016   0.414   8.417  0.3104 -0.2457  0.1111
18832SOL    HW157937   7.037   0.328   8.379  0.3218 -0.7248  1.1655
18832SOL    HW257938   6.931   0.437   8.379  0.0189 -1.0076  0.2861
18833SOL     OW57939   7.500   2.408   8.594 -0.0178  0.2773  0.3677
18833SOL    HW157940   7.495   2.313   8.591  1.3000  0.1965  0.2775
18833SOL    HW257941   7.583   2.430   8.551 -0.5449  1.5005 -0.0959
18834SOL     OW57942   7.806   1.135   8.893  0.2922 -0.6425  0.0466
18834SOL    HW157943   7.714   1.109   8.895  0.3157 -0.6925  1.0616
18834SOL    HW257944   7.832   1.122   8.802 -1.1497  0.9720 -0.6586
18835SOL     OW57945   0.162   0.935   8.235  0.4579 -0.2089  0.2294
18835SOL    HW157946   0.188   0.852   8.195  0.4666 -0.5660  0.9635
18835SOL    HW257947   0.245   0.978   8.257  0.5187  0.9051 -1.9203
18836SOL     OW57948   6.531   0.948   7.201 -0.0080 -0.2075  0.5126
18836SOL    HW157949   6.538   0.899   7.119 -3.8884 -0.7382  0.3426
18836SOL    HW257950   6.589   0.902   7.262  2.3966 -0.2375 -1.6244
18837SOL     OW57951   1.097   1.466   7.654 -0.6095 -0.4563 -0.1838
18837SOL    HW157952   1.022   1.476   7.595 -1.7692 -0.4587  1.2407
18837SOL    HW257953   1.090   1.376   7.686 -1.0536  0.0892  1.3203
18838SOL     OW57954   5.621   0.491   7.215  0.3239 -0.6094 -0.2285
18838SOL    HW157955   5.633   0.577   7.255 -0.9734  0.6542 -2.3596
18838SOL    HW257956   5.571   0.442   7.280  1.0289  0.2428  1.0070
18839SOL     OW57957   5.931   0.567   7.481 -0.0749 -0.3993 -0.1698
18839SOL    HW157958   5.958   0.486   7.524 -1.4054 -0.4548  0.6262
18839SOL    HW257959   5.990   0.575   7.406  1.3035 -1.1093  0.7859
18840SOL     OW57960   7.365   2.252  10.405  0.1909  0.0367  0.1348
18840SOL    HW157961   7.298   2.299  10.354  1.3595  0.6255 -0.9226
18840SOL    HW257962   7.416   2.321  10.447 -0.3429 -0.4344  1.6111
18841SOL     OW57963   6.632   1.596   6.807  0.5958  0.2342 -0.0903
18841SOL    HW157964   6.695   1.624   6.741 -0.2320  2.9298  0.1583
18841SOL    HW257965   6.663   1.637   6.888 -1.8433  2.4159 -0.1242
18842SOL     OW57966   6.867   0.972   7.648  0.0793 -0.0269 -0.2535
18842SOL    HW157967   6.781   0.981   7.689  0.6344  2.3548  0.5565
18842SOL    HW257968   6.851   0.991   7.555 -0.7078 -2.6462 -0.7376
18843SOL     OW57969   7.590   7.807   9.086  0.1416 -0.1738 -0.6830
18843SOL    HW157970   7.588   7.876   9.152  1.2197  0.5139 -1.3292
18843SOL    HW257971   7.532   7.838   9.017 -0.9205 -0.8545 -0.1240
18844SOL     OW57972   6.762   0.631   7.900  0.1761 -0.2654  0.2259
18844SOL    HW157973   6.754   0.692   7.973 -2.9660 -0.0803 -0.1370
18844SOL    HW257974   6.681   0.641   7.851  1.3829 -1.7034 -2.2944
18845SOL     OW57975   5.958   0.466   6.681 -0.8175 -0.3024  0.3144
18845SOL    HW157976   6.040   0.476   6.729 -0.4495 -0.5408 -0.2473
18845SOL    HW257977   5.900   0.423   6.742 -0.3594 -0.5941  0.5525
18846SOL     OW57978   7.502   0.711   9.430  0.0902  0.1241  0.0179
18846SOL    HW157979   7.539   0.689   9.345  1.2968 -1.3058  0.8652
18846SOL    HW257980   7.569   0.686   9.493 -2.0661 -2.1011  1.6298
18847SOL     OW57981   5.943   1.289   7.056  0.5166  0.2061 -0.6363
18847SOL    HW157982   5.932   1.381   7.032  1.4453  0.4016 -0.3232
18847SOL    HW257983   5.887   1.242   6.994 -0.1473  0.9900 -0.6532
18848SOL     OW57984   6.094   2.438   8.037  0.3124  0.0970 -0.0396
18848SOL    HW157985   6.045   2.473   8.111  1.2719  0.2717  0.5270
18848SOL    HW257986   6.029   2.386   7.988  0.1237 -1.8316  2.0831
18849SOL     OW57987   6.925   1.986   8.545 -0.4011  0.0886  0.2058
18849SOL    HW157988   6.880   1.938   8.615  1.1345 -0.4653  0.8565
18849SOL    HW257989   6.950   2.069   8.586  0.3317 -0.1578  0.2730
18850SOL     OW57990   7.757   0.430   9.275 -0.0961 -0.0304  0.0867
18850SOL    HW157991   7.700   0.493   9.319 -0.2916 -0.0814 -0.0902
18850SOL    HW257992   7.752   0.455   9.182 -0.6076 -0.6463 -0.0543
18851SOL     OW57993   5.608   0.996   7.614  0.1985  0.0348 -0.0676
18851SOL    HW157994   5.558   0.983   7.695 -0.1180 -0.4518 -0.3449
18851SOL    HW257995   5.566   0.940   7.550 -0.1448  1.1351 -0.8290
18852SOL     OW57996   6.662   1.647   7.758 -0.3021 -0.5051 -0.1057
18852SOL    HW157997   6.570   1.665   7.736  0.1255  0.7318 -1.0049
18852SOL    HW257998   6.704   1.633   7.673  0.5083 -0.2435  0.2511
18853SOL     OW57999   7.675   0.286   8.878  0.4063  0.0215  0.1628
18853SOL    HW158000   7.732   0.213   8.902 -1.1896 -0.4967  2.7567
18853SOL    HW258001   7.724   0.364   8.905  1.7840 -0.0444 -1.9135
18854SOL     OW58002   5.678   1.167   9.601  0.1335 -0.0684  0.6039
18854SOL    HW158003   5.697   1.078   9.632  0.0807 -0.4734 -0.4760
18854SOL    HW258004   5.657   1.155   9.508 -0.9758  0.9311  0.7104
18855SOL     OW58005   7.727   2.742   8.518 -0.1440 -0.4457 -0.2170
18855SOL    HW158006   7.778   2.810   8.475 -0.9361 -0.5148 -1.2870
18855SOL    HW258007   7.640   2.780   8.529 -0.1265 -0.6628  0.7631
18856SOL     OW58008   4.511   1.441   7.613 -0.1145  0.1445  0.3734
18856SOL    HW158009   4.460   1.461   7.534  1.6371  1.4877 -0.5008
18856SOL    HW258010   4.586   1.391   7.581  1.4535  2.0390  0.8670
18857SOL     OW58011   6.500   1.661   7.265  0.2399 -0.2579 -0.6789
18857SOL    HW158012   6.502   1.750   7.300 -0.3355  0.0208 -1.3288
18857SOL    HW258013   6.407   1.637   7.264  0.4930 -1.6496  1.3682
18858SOL     OW58014   5.746   1.679   6.864  0.0977 -0.1711  0.0423
18858SOL    HW158015   5.665   1.652   6.906  0.1361  0.5663  0.5999
18858SOL    HW258016   5.771   1.760   6.909  1.2613 -0.5110  0.0419
18859SOL     OW58017   6.065   2.311  11.128 -0.4000  0.0804  0.5251
18859SOL    HW158018   6.094   2.225  11.160 -0.5899  0.1108  0.7765
18859SOL    HW258019   5.970   2.310  11.137 -0.2188  1.5840  3.7974
18860SOL     OW58020   5.021   6.897  11.572 -0.6394  0.3054 -0.1338
18860SOL    HW158021   4.942   6.935  11.610  0.3211  1.9481  0.3129
18860SOL    HW258022   5.048   6.830  11.634 -0.0023  1.8425  1.3072
18861SOL     OW58023   5.887   0.882  10.827 -0.0184  0.2794 -0.7042
18861SOL    HW158024   5.815   0.845  10.878  0.0955 -1.1861 -1.5599
18861SOL    HW258025   5.845   0.923  10.752  0.0388 -0.8327 -1.3567
18862SOL     OW58026   6.368   7.288   7.900 -0.0481 -0.0410  0.3865
18862SOL    HW158027   6.292   7.239   7.866  0.2117 -0.0994 -0.1231
18862SOL    HW258028   6.409   7.228   7.963 -1.3190  0.5823  1.8673
18863SOL     OW58029   7.349   1.587   7.488 -0.5219 -0.4800 -0.0014
18863SOL    HW158030   7.268   1.580   7.438 -1.2283  1.8115  0.6977
18863SOL    HW258031   7.323   1.627   7.571  1.1108 -1.0927  0.8554
18864SOL     OW58032   7.873   1.143   8.209 -0.0153 -0.6831  0.1439
18864SOL    HW158033   7.841   1.060   8.244  0.7492 -0.2566  1.9617
18864SOL    HW258034   7.914   1.120   8.126 -1.2093 -1.8623 -0.1462
18865SOL     OW58035   1.619   2.927   9.309 -0.0786  0.0857  0.4164
18865SOL    HW158036   1.678   3.002   9.302  0.4549 -0.2288  1.4094
18865SOL    HW258037   1.586   2.914   9.220  1.2713  0.3275 -0.1329
18866SOL     OW58038   6.439   3.269   6.706  0.0054  0.3217  0.3894
18866SOL    HW158039   6.507   3.248   6.641 -0.7522  0.2697 -0.4143
18866SOL    HW258040   6.465   3.222   6.785 -0.0235 -1.1481 -0.4376
18867SOL     OW58041   7.619   1.606   8.336 -0.1833  0.4546  0.0745
18867SOL    HW158042   7.690   1.610   8.399  1.1129 -2.3350 -1.0510
18867SOL    HW258043   7.576   1.523   8.353 -0.5666  0.2032 -1.8775
18868SOL     OW58044   0.785   0.594   8.536  0.0848  0.2589 -0.0444
18868SOL    HW158045   0.826   0.680   8.546  2.1599 -0.8529  2.3097
18868SOL    HW258046   0.859   0.534   8.521 -1.2769 -1.1730 -1.4490
18869SOL     OW58047   5.765   1.530   8.211  0.5453 -0.5319  0.4756
18869SOL    HW158048   5.704   1.585   8.260  0.6905 -1.1821  1.4167
18869SOL    HW258049   5.852   1.561   8.236  0.6298 -1.2325  1.0868
18870SOL     OW58050   1.325   1.590   8.689  0.1877  0.0013  0.0384
18870SOL    HW158051   1.295   1.571   8.600  1.6850  0.5406 -0.6229
18870SOL    HW258052   1.402   1.645   8.677  1.8432 -1.7974  1.5646
18871SOL     OW58053   0.356   2.029   8.947  0.2152 -0.2033 -0.7051
18871SOL    HW158054   0.358   2.106   8.890 -0.2908 -0.1408 -0.6507
18871SOL    HW258055   0.413   1.966   8.905  0.7507  0.2565 -0.6757
18872SOL     OW58056   7.196   2.090   8.766  0.1989  0.4485  0.3724
18872SOL    HW158057   7.183   2.130   8.680  1.6716 -0.9534 -0.5752
18872SOL    HW258058   7.107   2.072   8.798 -0.4064 -0.8122 -1.7895
18873SOL     OW58059   5.884   1.551   7.055  0.2245  0.7214 -0.5366
18873SOL    HW158060   5.846   1.583   6.973  2.2184 -0.5114 -2.0340
18873SOL    HW258061   5.973   1.588   7.055  0.3267  0.5122  0.9700
18874SOL     OW58062   6.737   2.727   8.571  0.4189 -0.0128 -0.0945
18874SOL    HW158063   6.672   2.798   8.574 -0.5317 -0.8444 -0.3750
18874SOL    HW258064   6.708   2.666   8.638  1.6740  0.2037  0.6728
18875SOL     OW58065   7.539   7.904   8.668  0.1644 -0.0393 -0.1450
18875SOL    HW158066   7.591   7.981   8.645  0.6052 -0.0991  0.6425
18875SOL    HW258067   7.550   7.845   8.593  0.3616  0.3852 -0.4553
18876SOL     OW58068   7.642   0.079   9.812  0.4101 -0.2564  0.0530
18876SOL    HW158069   7.575   0.064   9.744 -0.0301 -0.1679  0.4588
18876SOL    HW258070   7.605   0.040   9.891  1.3896 -1.3162  0.0128
18877SOL     OW58071   0.933   0.949   7.590  0.7944 -0.2078  0.0418
18877SOL    HW158072   0.937   0.887   7.663 -0.9616 -1.5156 -0.8758
18877SOL    HW258073   1.009   0.928   7.536 -0.0040 -1.9509 -0.4870
18878SOL     OW58074   5.832   1.963   9.792  0.2239  0.2840 -0.3514
18878SOL    HW158075   5.805   1.875   9.763  1.4226 -0.1635 -0.1681
18878SOL    HW258076   5.820   1.962   9.886 -1.5671  0.9836 -0.5484
18879SOL     OW58077   6.948   2.397   9.108  0.0675 -0.0564 -0.5429
18879SOL    HW158078   6.862   2.394   9.067 -0.2866 -0.5593  0.2112
18879SOL    HW258079   6.975   2.306   9.115  0.2975  0.0457 -0.0375
18880SOL     OW58080   6.941   0.392   9.791 -0.4805  0.2108  0.7650
18880SOL    HW158081   6.953   0.485   9.808  1.4915 -0.0808  1.2081
18880SOL    HW258082   6.855   0.372   9.828 -0.2854  1.5416  2.0301
18881SOL     OW58083   7.558   0.044   5.850 -0.2519  0.0528  0.2896
18881SOL    HW158084   7.479   0.002   5.816 -1.2984  0.2154  2.3495
18881SOL    HW258085   7.533   0.136   5.860  1.0764  0.6480 -1.4562
18882SOL     OW58086   7.524   0.305   8.587 -0.0639 -0.7080 -0.2246
18882SOL    HW158087   7.545   0.219   8.621  0.6934 -0.1263  0.8132
18882SOL    HW258088   7.608   0.350   8.578 -0.4231 -0.1389 -0.9661
18883SOL     OW58089   7.094   1.310   7.479 -0.4105  0.1952  0.2073
18883SOL    HW158090   7.119   1.283   7.567 -1.1516 -0.2386  0.2898
18883SOL    HW258091   7.051   1.395   7.490 -2.0925 -0.6629  0.4915
18884SOL     OW58092   5.966   2.320   8.478 -0.5396  0.0618  0.4374
18884SOL    HW158093   5.936   2.411   8.483  1.8803  0.9211  1.0452
18884SOL    HW258094   6.024   2.318   8.401 -1.3810 -1.2698 -0.1993
18885SOL     OW58095   0.446   1.539   8.730  0.3449 -0.3321 -0.5077
18885SOL    HW158096   0.481   1.522   8.643  3.2522 -1.5904  0.7947
18885SOL    HW258097   0.438   1.452   8.770 -0.9728  0.2183  0.5202
18886SOL     OW58098   6.248   2.643  10.460 -0.0234  0.5993 -0.1168
18886SOL    HW158099   6.235   2.622  10.367  0.7775 -0.5402  0.0124
18886SOL    HW258100   6.201   2.574  10.507 -0.2385  1.0477  0.3464
18887SOL     OW58101   6.413   7.074   8.716 -0.2732 -0.6357  0.5992
18887SOL    HW158102   6.323   7.078   8.682 -0.6057 -1.0070  1.4088
18887SOL    HW258103   6.415   7.139   8.786 -0.0362 -0.9232  0.8612
18888SOL     OW58104   7.661   1.551  10.627 -0.1452 -0.6351 -0.2336
18888SOL    HW158105   7.729   1.598  10.578 -0.3776 -0.1011 -0.0443
18888SOL    HW258106   7.636   1.479  10.570 -0.6763  0.1956 -1.0606
18889SOL     OW58107   6.738   0.703   6.743  0.2048 -0.0608 -0.0280
18889SOL    HW158108   6.811   0.763   6.753 -1.3625  1.6094  2.6655
18889SOL    HW258109   6.754   0.659   6.659  4.6191 -0.3860  0.7292
18890SOL     OW58110   4.863   0.070   9.332  0.2992 -0.3337 -0.7204
18890SOL    HW158111   4.952   0.039   9.316  0.5973  0.4706 -0.6834
18890SOL    HW258112   4.875   0.155   9.375 -0.4879 -1.0254  0.9431
18891SOL     OW58113   7.559   0.937   9.138 -0.2691  0.2687 -0.2462
18891SOL    HW158114   7.492   1.001   9.114 -2.7561 -1.3828  1.6667
18891SOL    HW258115   7.592   0.968   9.222  0.2387  0.2458 -0.4350
18892SOL     OW58116   6.459   0.608   8.782  0.1058 -0.0292 -0.6503
18892SOL    HW158117   6.418   0.590   8.866 -0.2856  2.1193 -0.3291
18892SOL    HW258118   6.524   0.538   8.772 -0.3739 -0.7773  1.0400
18893SOL     OW58119   7.549   7.678   7.828 -0.1935 -0.1442  0.0445
18893SOL    HW158120   7.492   7.700   7.901 -1.0936 -0.3011 -0.5956
18893SOL    HW258121   7.617   7.622   7.867 -0.3646  0.1856  0.8446
18894SOL     OW58122   6.083   7.685   9.084  0.2635 -0.4567  0.0188
18894SOL    HW158123   6.146   7.742   9.039 -0.7529  0.1437 -0.6902
18894SOL    HW258124   6.085   7.714   9.175 -1.3876  1.8845 -0.5904
18895SOL     OW58125   6.932   0.384   8.725  0.3178  0.2081  0.2355
18895SOL    HW158126   6.985   0.335   8.663  2.0995  1.3150  0.8208
18895SOL    HW258127   6.881   0.444   8.671 -0.1835 -0.6802 -0.3078
18896SOL     OW58128   7.240   0.601   8.534  0.0317  0.5105 -0.1088
18896SOL    HW158129   7.196   0.678   8.569 -0.5390  1.2323 -2.2414
18896SOL    HW258130   7.177   0.562   8.473  0.8466 -0.8229 -0.1547
18897SOL     OW58131   7.162   2.060   9.401 -0.1564 -0.2987 -0.2464
18897SOL    HW158132   7.218   2.137   9.394 -0.9317  0.2169 -0.9645
18897SOL    HW258133   7.193   2.014   9.479 -0.4329  1.3373  0.8607
18898SOL     OW58134   7.018   7.495   7.417  0.0469 -0.0181  0.1388
18898SOL    HW158135   6.980   7.432   7.356  0.8932  0.4703 -0.9251
18898SOL    HW258136   7.048   7.442   7.491 -0.9718 -0.6223  0.1406
18899SOL     OW58137   6.827   0.655   9.528 -0.1387 -0.3657 -0.0407
18899SOL    HW158138   6.891   0.710   9.484  0.4312  0.6187  1.9195
18899SOL    HW258139   6.747   0.664   9.476  0.6725  0.2078 -1.2201
18900SOL     OW58140   6.590   0.472   7.463 -0.3689 -0.3051 -0.5865
18900SOL    HW158141   6.518   0.455   7.524  0.8987 -0.6509  0.8748
18900SOL    HW258142   6.547   0.502   7.383 -2.0684  2.9089  1.3065
18901SOL     OW58143   5.917   2.061   9.306  0.3125  1.0050  0.3994
18901SOL    HW158144   5.839   2.093   9.260  0.9586  0.0407 -1.4782
18901SOL    HW258145   5.916   1.967   9.291  0.8420  0.7281  1.9978
18902SOL     OW58146   7.014   1.793   7.891 -0.2218  0.1247  0.1082
18902SOL    HW158147   6.925   1.802   7.926 -0.5138 -0.8693 -0.3399
18902SOL    HW258148   7.071   1.817   7.964 -0.8091  4.3347 -0.5480
18903SOL     OW58149   7.531   0.891  10.492 -0.5458  0.3510 -0.0153
18903SOL    HW158150   7.584   0.926  10.564 -0.1385  1.0253 -0.6297
18903SOL    HW258151   7.482   0.966  10.459 -1.6447 -0.1984  0.3241
18904SOL     OW58152   7.470   7.745   8.433  0.0977 -0.6593 -0.1703
18904SOL    HW158153   7.471   7.677   8.366  1.6463 -1.5404  0.7029
18904SOL    HW258154   7.464   7.827   8.383 -0.0132 -1.3469 -1.3134
18905SOL     OW58155   7.642   1.420   9.797  0.5924  0.1531  0.7614
18905SOL    HW158156   7.732   1.406   9.828  0.4762  0.7808  1.4014
18905SOL    HW258157   7.610   1.332   9.777  1.7404  0.0079 -0.6034
18906SOL     OW58158   5.464   0.192   6.900 -0.1754 -0.1718 -0.2014
18906SOL    HW158159   5.495   0.269   6.852  3.6200 -1.4520 -0.1726
18906SOL    HW258160   5.371   0.207   6.913  0.2484  4.0713 -0.7819
18907SOL     OW58161   5.902   0.327   9.741  0.0783 -0.3927 -0.2378
18907SOL    HW158162   5.941   0.363   9.820 -0.2190  0.9812 -0.6811
18907SOL    HW258163   5.970   0.271   9.704  0.5038 -0.4261  0.5760
18908SOL     OW58164   5.877   1.327   8.353 -1.0149 -0.2473  0.3776
18908SOL    HW158165   5.836   1.401   8.307 -0.2471  0.3736  0.6652
18908SOL    HW258166   5.896   1.264   8.283 -0.0958  0.5784 -0.1409
18909SOL     OW58167   7.123   7.164  10.607  0.5642 -0.0917  0.3367
18909SOL    HW158168   7.215   7.187  10.594  0.7046 -1.0487 -0.4723
18909SOL    HW258169   7.101   7.201  10.693  2.0588 -0.8728  1.0999
18910SOL     OW58170   6.779   0.726  10.060  0.1310 -0.2989 -0.4126
18910SOL    HW158171   6.684   0.730  10.070  0.1379 -0.7470 -0.1320
18910SOL    HW258172   6.793   0.710   9.967 -0.0621 -0.0698 -0.4811
18911SOL     OW58173   5.835   3.135   7.747  0.1651 -0.1006  0.1833
18911SOL    HW158174   5.787   3.211   7.781  1.6981  0.2438  1.7124
18911SOL    HW258175   5.796   3.060   7.791 -0.4596 -0.0642 -0.3014
18912SOL     OW58176   0.354   2.794   8.233  0.3352  0.2947  0.3491
18912SOL    HW158177   0.329   2.703   8.223  0.0115  0.4023  0.1845
18912SOL    HW258178   0.304   2.825   8.309  0.0098  0.4940  0.0524
18913SOL     OW58179   7.149   2.320   8.287 -0.1770 -0.3993  0.3614
18913SOL    HW158180   7.224   2.285   8.239 -1.5432 -0.3943 -1.9486
18913SOL    HW258181   7.118   2.393   8.233 -0.8135  0.7267  2.1638
18914SOL     OW58182   7.971   1.563   8.111  0.1298  0.2831  0.0112
18914SOL    HW158183   7.893   1.562   8.057  0.2620  0.8194 -0.1997
18914SOL    HW258184   8.041   1.533   8.053  0.1756  0.3279  0.0440
18915SOL     OW58185   6.922   1.662   9.469  0.1509  0.1405 -0.0993
18915SOL    HW158186   6.838   1.621   9.450 -0.1278  0.0453  1.2290
18915SOL    HW258187   6.899   1.740   9.519  0.7970  0.8012 -0.7971
18916SOL     OW58188   5.247   0.211   9.907 -0.1442  0.1661 -0.3794
18916SOL    HW158189   5.188   0.219   9.982 -0.9555 -0.0177 -0.9880
18916SOL    HW258190   5.201   0.154   9.845  0.0655  1.1132 -1.4413
18917SOL     OW58191   1.044   2.085  10.299  0.0624  0.2085  0.2253
18917SOL    HW158192   0.949   2.080  10.305  0.0286  0.2179 -0.3056
18917SOL    HW258193   1.075   1.996  10.317 -0.1061 -0.0481 -0.6995
18918SOL     OW58194   5.769   2.263   6.806 -0.5151  0.9597 -0.3141
18918SOL    HW158195   5.840   2.218   6.760  0.0196  0.1864  1.2033
18918SOL    HW258196   5.810   2.297   6.886 -1.9288  0.0250  0.8622
18919SOL     OW58197   6.638   1.760   8.240 -0.1093 -0.3214 -0.2740
18919SOL    HW158198   6.681   1.709   8.308 -0.1218 -0.1906 -0.1683
18919SOL    HW258199   6.545   1.752   8.258 -0.2316 -1.8802 -1.3976
18920SOL     OW58200   6.522   0.670   9.667 -0.4762 -0.3247  0.0842
18920SOL    HW158201   6.429   0.651   9.657 -0.0874 -1.9515 -0.7761
18920SOL    HW258202   6.552   0.612   9.736 -0.2562  0.8472  1.0068
18921SOL     OW58203   4.613   1.922  10.441  0.0079 -0.2121 -0.6979
18921SOL    HW158204   4.584   1.958  10.526 -0.2828 -1.8841 -0.0634
18921SOL    HW258205   4.675   1.988  10.408 -0.3078  0.7497  0.5430
18922SOL     OW58206   0.103   3.268   9.433  0.5790  0.1232  0.1446
18922SOL    HW158207   0.089   3.258   9.339  0.1412 -0.3800  0.2552
18922SOL    HW258208   0.158   3.346   9.442 -2.0499  2.1669 -0.3268
18923SOL     OW58209   5.814   1.921   7.619 -0.4758 -0.1574  0.3144
18923SOL    HW158210   5.803   2.014   7.639 -1.6483 -0.4045  0.8755
18923SOL    HW258211   5.861   1.885   7.694  1.8187  0.3336 -0.7930
18924SOL     OW58212   7.256   1.517   8.099  0.1111  0.2263  0.3945
18924SOL    HW158213   7.217   1.445   8.048 -0.3914  0.7765 -0.0168
18924SOL    HW258214   7.215   1.510   8.185 -0.9429  0.8101 -0.0380
18925SOL     OW58215   6.899   1.793   9.183  0.2726 -0.5180  0.3943
18925SOL    HW158216   6.827   1.773   9.123  0.5932 -0.8120  0.1088
18925SOL    HW258217   6.872   1.754   9.266  0.7436 -1.8843 -0.0716
18926SOL     OW58218   7.969   1.364   8.318  0.9878 -0.2066  0.1363
18926SOL    HW158219   7.960   1.428   8.248  1.3052  0.7060  0.9077
18926SOL    HW258220   7.945   1.280   8.278 -1.1239  0.6196 -0.4500
18927SOL     OW58221   7.774   2.717  10.800 -0.2128 -0.0485 -0.7147
18927SOL    HW158222   7.792   2.787  10.738 -0.8529  1.0142  0.2489
18927SOL    HW258223   7.723   2.760  10.869  0.7226 -1.1141  0.6816
18928SOL     OW58224   7.237   1.928   9.900 -0.1557  0.6186  0.0078
18928SOL    HW158225   7.238   2.007   9.953 -0.3716  0.5510  0.1113
18928SOL    HW258226   7.216   1.858   9.962  1.6010  0.2447  0.2511
18929SOL     OW58227   6.715   2.783   6.830  0.2248  0.4259  0.0620
18929SOL    HW158228   6.741   2.694   6.805 -0.9566 -0.0787  0.4959
18929SOL    HW258229   6.629   2.795   6.788  0.9827  1.9160 -1.1532
18930SOL     OW58230   6.484   0.908   9.508  0.0323  0.0604 -0.6491
18930SOL    HW158231   6.444   0.857   9.437 -0.3693 -0.1828 -0.2494
18930SOL    HW258232   6.499   0.844   9.577 -0.9554  0.5744  0.0587
18931SOL     OW58233   6.659   2.405   9.042 -0.1091  0.0706  0.7236
18931SOL    HW158234   6.668   2.344   8.969  0.1566 -0.2921  1.0548
18931SOL    HW258235   6.565   2.422   9.048 -0.0759  0.6204 -0.1171
18932SOL     OW58236   0.637   2.125   9.844 -0.2610 -0.4041  0.2677
18932SOL    HW158237   0.627   2.152   9.935  0.2782  3.3236 -0.6148
18932SOL    HW258238   0.712   2.176   9.812 -1.4000 -0.3621 -2.6539
18933SOL     OW58239   6.493   2.442  10.595 -0.1875 -0.1400 -0.1404
18933SOL    HW158240   6.432   2.501  10.640 -0.4943 -0.2500 -0.4072
18933SOL    HW258241   6.437   2.388  10.540  0.0065 -1.1619  0.6231
18934SOL     OW58242   6.864   1.597   6.393  0.0466 -0.6324  0.1140
18934SOL    HW158243   6.839   1.688   6.376  0.1193 -0.5420  0.4761
18934SOL    HW258244   6.798   1.545   6.347 -0.4554 -0.3934  0.5615
18935SOL     OW58245   6.758   3.445   9.836 -0.2741 -0.0320 -0.6394
18935SOL    HW158246   6.662   3.452   9.834 -0.1868  1.9322  0.0573
18935SOL    HW258247   6.778   3.413   9.923 -0.2233  2.6238  0.4147
18936SOL     OW58248   6.623   3.302   6.460  0.3690  0.2372 -0.0309
18936SOL    HW158249   6.705   3.312   6.412  0.0681 -1.7396 -1.0796
18936SOL    HW258250   6.621   3.376   6.521  3.3585 -0.1268  0.6684
18937SOL     OW58251   0.840   3.236   8.627 -0.4770  0.0041 -0.0867
18937SOL    HW158252   0.779   3.165   8.650 -1.5497  0.9994  0.1984
18937SOL    HW258253   0.834   3.297   8.700  0.6018  0.2962 -0.2345
18938SOL     OW58254   0.690   0.580   7.940  0.2058 -0.0010 -0.6677
18938SOL    HW158255   0.628   0.641   7.981 -0.6063  0.1630 -2.1105
18938SOL    HW258256   0.775   0.624   7.948 -0.0496  0.3630  0.1519
18939SOL     OW58257   7.049   1.039   7.831  0.1865 -0.1408  0.2360
18939SOL    HW158258   7.116   0.972   7.841  0.2440 -0.5145 -2.0740
18939SOL    HW258259   6.995   1.009   7.758 -0.3491  1.8638 -0.2729
18940SOL     OW58260   0.105   1.599   8.434 -0.8957  0.1676  0.3027
18940SOL    HW158261   0.163   1.594   8.358  0.7692  2.0740  1.3576
18940SOL    HW258262   0.049   1.522   8.426  0.2567 -0.5299 -1.9987
18941SOL     OW58263   6.387   2.349   9.114 -0.0069  0.4772  0.2102
18941SOL    HW158264   6.318   2.284   9.102  0.0402  0.3157  0.7488
18941SOL    HW258265   6.345   2.419   9.164 -0.2006  1.1151 -0.8380
18942SOL     OW58266   5.103   1.890   9.597 -0.4876 -0.7522  0.4888
18942SOL    HW158267   5.119   1.974   9.554 -2.1010 -0.6383  0.0487
18942SOL    HW258268   5.063   1.835   9.530  1.6071 -2.3091  0.4278
18943SOL     OW58269   0.162   0.597   7.647 -0.2992  0.2712  0.4227
18943SOL    HW158270   0.207   0.534   7.703 -1.7433 -0.6694  0.5721
18943SOL    HW258271   0.232   0.640   7.598  0.8716  0.0175  1.8105
18944SOL     OW58272   5.337   7.657  11.166  0.6599 -0.0021 -0.1124
18944SOL    HW158273   5.255   7.614  11.192 -0.0320  0.5040 -1.4136
18944SOL    HW258274   5.343   7.642  11.072  2.5569 -0.8374  0.1060
18945SOL     OW58275   0.617   1.565  10.305  0.2633 -0.1770  0.0891
18945SOL    HW158276   0.529   1.575  10.268  0.4043 -2.1428 -0.8748
18945SOL    HW258277   0.671   1.628  10.257  0.0017 -1.1993 -1.6146
18946SOL     OW58278   5.786   2.859   6.338  0.0343 -0.2748 -0.2416
18946SOL    HW158279   5.697   2.821   6.338 -0.7599  1.4886 -0.1486
18946SOL    HW258280   5.840   2.792   6.297 -1.4516 -1.1688 -0.8464
18947SOL     OW58281   0.333   1.089   8.990  0.5045  0.6465  0.8765
18947SOL    HW158282   0.329   0.996   9.012 -1.7816  0.7372  0.9945
18947SOL    HW258283   0.342   1.134   9.075 -1.8679  0.6707  1.1594
18948SOL     OW58284   5.849   1.704   7.363  0.5000  0.1567  0.6607
18948SOL    HW158285   5.800   1.761   7.423  1.6034 -0.1569  1.8861
18948SOL    HW258286   5.921   1.758   7.332  0.9068 -0.2082  0.9557
18949SOL     OW58287   7.722   1.017   7.674  0.0404 -0.6635 -0.7086
18949SOL    HW158288   7.702   0.972   7.756 -1.8593 -0.4198 -1.0093
18949SOL    HW258289   7.752   0.948   7.616  1.9217 -0.7669  0.3015
18950SOL     OW58290   7.035   2.227   7.612  0.4310  0.2179 -0.1029
18950SOL    HW158291   7.058   2.211   7.703 -0.3089 -2.2752 -0.2946
18950SOL    HW258292   6.947   2.191   7.602  0.3338  0.7986 -1.7260
18951SOL     OW58293   6.195   1.747   9.412 -0.5608 -0.4276 -0.7851
18951SOL    HW158294   6.158   1.804   9.480 -0.0732 -0.6171 -0.3585
18951SOL    HW258295   6.245   1.681   9.460 -1.1426 -1.2409 -1.2736
18952SOL     OW58296   7.107   7.474   8.165  0.0113  0.1447  0.3775
18952SOL    HW158297   7.120   7.406   8.231  2.5962  0.1004 -0.0464
18952SOL    HW258298   7.066   7.546   8.213 -2.8869 -1.6522  0.8134
18953SOL     OW58299   5.835   0.015   7.048  0.3809 -0.6113 -0.2949
18953SOL    HW158300   5.757   0.063   7.073  0.7096  0.2755 -0.9022
18953SOL    HW258301   5.856   0.047   6.960  2.1042  0.0664  0.3141
18954SOL     OW58302   6.454   6.984   7.121  0.0291  0.2370  0.1395
18954SOL    HW158303   6.439   6.890   7.118 -1.0035  0.3754  0.6082
18954SOL    HW258304   6.490   7.000   7.209  2.2865  0.0231 -0.6750
18955SOL     OW58305   6.960   6.176   8.018 -0.1292 -0.6516  0.1079
18955SOL    HW158306   6.922   6.171   7.931  0.5688 -0.7745 -0.1934
18955SOL    HW258307   6.904   6.121   8.072 -1.1412  0.1876 -0.0434
18956SOL     OW58308   7.697   1.724   9.461  0.8609  0.0056 -0.4590
18956SOL    HW158309   7.663   1.679   9.384 -0.5950  0.9546 -0.4152
18956SOL    HW258310   7.736   1.805   9.427  1.8053 -0.3940 -0.3563
18957SOL     OW58311   7.262   2.352   9.476 -0.0214 -0.2718  0.1722
18957SOL    HW158312   7.174   2.374   9.507 -0.7019 -1.6995 -0.6021
18957SOL    HW258313   7.260   2.372   9.382  0.3081 -0.7662  0.0524
18958SOL     OW58314   6.150   2.602  10.770 -0.2207 -0.1795  0.1685
18958SOL    HW158315   6.179   2.560  10.851 -2.8238  0.2997  1.4261
18958SOL    HW258316   6.131   2.529  10.711  2.7938 -0.5251 -0.5461
18959SOL     OW58317   6.142   6.458  10.052  0.2628  0.1710  0.4765
18959SOL    HW158318   6.069   6.519  10.060  0.0669 -0.3039  2.7434
18959SOL    HW258319   6.103   6.381  10.010 -0.1743  0.4903  0.2803
18960SOL     OW58320   7.018   1.065   9.946  0.2587  0.3153 -0.2480
18960SOL    HW158321   7.107   1.063   9.981  0.2701  1.7018 -0.1608
18960SOL    HW258322   7.022   1.009   9.869  1.1004  0.0176 -0.0037
18961SOL     OW58323   6.880   2.588   7.285 -0.6918  0.1924  0.6806
18961SOL    HW158324   6.871   2.682   7.273 -2.4661 -0.0417 -0.0180
18961SOL    HW258325   6.974   2.572   7.277 -0.2028  2.0315  1.9924
18962SOL     OW58326   6.957   0.603   9.047 -0.3404 -0.2728  0.2295
18962SOL    HW158327   6.971   0.613   9.141 -1.5840  0.3487  0.3710
18962SOL    HW258328   6.927   0.513   9.037  2.7530 -1.3975  0.0002
18963SOL     OW58329   7.724   7.993   7.036  0.1051  0.1272  0.0722
18963SOL    HW158330   7.765   8.074   7.007  0.2725  0.3205  0.8445
18963SOL    HW258331   7.632   8.002   7.012  0.1307  0.5282  0.1279
18964SOL     OW58332   3.447   2.438   6.855 -0.0331  0.0451 -0.5711
18964SOL    HW158333   3.533   2.480   6.848 -0.1963  0.4062 -0.4414
18964SOL    HW258334   3.441   2.411   6.947 -1.2221  2.5850  0.1648
18965SOL     OW58335   0.416   2.060   9.663  0.6330  0.2006 -0.1651
18965SOL    HW158336   0.506   2.076   9.692  0.0440  0.5950  1.5390
18965SOL    HW258337   0.399   2.130   9.600  1.0408  1.0417  0.6301
18966SOL     OW58338   6.723   2.084   7.883  0.0212  0.1795 -0.1787
18966SOL    HW158339   6.801   2.129   7.913  1.8469 -1.5811 -1.9654
18966SOL    HW258340   6.726   1.998   7.925 -0.4460 -0.2496 -0.9933
18967SOL     OW58341   6.017   1.366   7.503 -0.0571 -0.4046  0.3788
18967SOL    HW158342   5.964   1.364   7.424 -1.5970 -0.6631  1.3745
18967SOL    HW258343   5.987   1.444   7.550  0.7138 -0.3506  0.8028
18968SOL     OW58344   6.396   1.190   9.570 -0.1093 -0.0103  0.7301
18968SOL    HW158345   6.459   1.119   9.576 -0.8649 -0.7372  0.1878
18968SOL    HW258346   6.450   1.270   9.577  0.6951 -0.6103  1.7910
18969SOL     OW58347   6.277   0.676   8.037  0.0544 -0.5112 -0.6159
18969SOL    HW158348   6.192   0.708   8.069 -0.9169 -2.1848 -1.3426
18969SOL    HW258349   6.280   0.585   8.067  1.5948 -0.4793 -0.6371
18970SOL     OW58350   6.938   1.467   6.060  0.5090  0.3101 -0.0547
18970SOL    HW158351   6.946   1.530   5.988  1.1346  0.1975 -0.0902
18970SOL    HW258352   6.846   1.470   6.084  0.5135  1.1890 -0.1100
18971SOL     OW58353   6.309   5.253   7.517  0.0042  0.0371  0.1170
18971SOL    HW158354   6.350   5.213   7.440  2.1262 -0.6206  1.5202
18971SOL    HW258355   6.268   5.180   7.563  0.0548  0.1974  0.4146
18972SOL     OW58356   6.125   1.570   8.786 -0.3859 -0.1756 -0.5391
18972SOL    HW158357   6.055   1.628   8.817  1.1481  0.7545  1.4069
18972SOL    HW258358   6.204   1.623   8.792  0.6543 -1.4936 -1.8132
18973SOL     OW58359   5.917   1.768   8.768 -0.0450  0.2645 -0.2550
18973SOL    HW158360   5.978   1.783   8.696  0.5414 -0.6026  0.0427
18973SOL    HW258361   5.831   1.763   8.726  0.2475  0.1235 -0.8526
18974SOL     OW58362   6.894   1.587  11.791  0.0019 -0.5092 -0.3594
18974SOL    HW158363   6.948   1.585  11.713 -0.5742 -0.0614 -0.7801
18974SOL    HW258364   6.813   1.630  11.763 -0.8060 -1.6830  0.1056
18975SOL     OW58365   5.882   7.940   9.014  0.4678 -0.6243 -0.3468
18975SOL    HW158366   5.866   7.983   9.098 -1.6035  0.3536 -1.1654
18975SOL    HW258367   5.826   7.862   9.016 -0.5417  0.0410 -1.2343
18976SOL     OW58368   4.964   0.333   6.847 -0.0415 -0.2390  0.3395
18976SOL    HW158369   4.926   0.363   6.764  0.1609 -0.8563  0.0136
18976SOL    HW258370   5.034   0.396   6.865 -0.2664  0.0579  0.1840
18977SOL     OW58371   0.615   2.542   8.309  0.2237 -0.3951 -0.0471
18977SOL    HW158372   0.699   2.531   8.354  2.6325 -1.5064 -4.1735
18977SOL    HW258373   0.624   2.626   8.263 -0.5521 -0.8663 -1.1166
18978SOL     OW58374   5.820   2.172   8.167 -0.3648  0.0866  0.0569
18978SOL    HW158375   5.766   2.139   8.096  1.0174  1.5583 -1.7661
18978SOL    HW258376   5.842   2.261   8.141  0.6177  0.5021  2.1030
18979SOL     OW58377   6.136   1.261   8.012  0.1472  0.2653 -0.7651
18979SOL    HW158378   6.143   1.355   8.030  3.1396 -0.1647  1.0197
18979SOL    HW258379   6.207   1.243   7.950 -0.4822 -0.8330 -1.2051
18980SOL     OW58380   0.047   0.901   7.721 -0.4487  0.2645  0.0745
18980SOL    HW158381   0.015   0.816   7.750 -1.0652  0.9025  1.3106
18980SOL    HW258382  -0.018   0.931   7.658 -0.3631 -0.0553 -0.1693
18981SOL     OW58383   6.723   7.372   9.032  0.2768  0.2177 -0.5156
18981SOL    HW158384   6.813   7.343   9.016  0.1083  0.2920 -1.7061
18981SOL    HW258385   6.686   7.303   9.087  1.1726  0.3915  0.3395
18982SOL     OW58386   0.375   1.059   7.652 -0.0179 -0.5480  0.3312
18982SOL    HW158387   0.375   0.977   7.701  0.1662 -0.5041  0.4039
18982SOL    HW258388   0.403   1.033   7.563  2.5904 -0.2083  0.9595
18983SOL     OW58389   5.551   3.263   9.186  0.0481  0.1981  0.1607
18983SOL    HW158390   5.557   3.168   9.197 -0.5317  0.2763  1.4027
18983SOL    HW258391   5.568   3.278   9.094  2.6741 -0.8852  0.3897
18984SOL     OW58392   5.458   0.409   7.447  0.1122 -0.0168  0.0603
18984SOL    HW158393   5.396   0.476   7.417  0.9969  0.5054 -0.6329
18984SOL    HW258394   5.403   0.332   7.464 -0.6585  0.2460 -1.1076
18985SOL     OW58395   7.665   7.197   8.878 -0.7516  0.2023  0.1314
18985SOL    HW158396   7.608   7.190   8.955  0.4957 -1.1763  0.9671
18985SOL    HW258397   7.721   7.272   8.896 -0.8429  0.2341  0.2850
18986SOL     OW58398   0.697   7.400   8.139 -1.0336  0.5240  0.0847
18986SOL    HW158399   0.686   7.397   8.044 -0.0905  2.3584 -0.1244
18986SOL    HW258400   0.639   7.470   8.168 -2.4216 -0.9629  1.0957
18987SOL     OW58401   5.651   0.633   7.681 -0.4450  0.2594 -0.4052
18987SOL    HW158402   5.696   0.642   7.596  0.9383 -1.3306  0.0801
18987SOL    HW258403   5.588   0.705   7.683  1.0060  1.6686 -1.8407
18988SOL     OW58404   4.616   3.076   7.572  0.1066 -0.3475 -0.1961
18988SOL    HW158405   4.585   3.152   7.620  2.1721  0.3623  0.1309
18988SOL    HW258406   4.551   3.062   7.504  0.3980  2.7086 -1.2564
18989SOL     OW58407   5.635   1.702   9.149  0.1217 -0.1792  0.5481
18989SOL    HW158408   5.581   1.626   9.173  2.1671 -2.7192 -2.1652
18989SOL    HW258409   5.725   1.670   9.153  1.3412  3.0439  2.0348
18990SOL     OW58410   5.984   0.865  11.616  0.2588 -0.7065 -0.7903
18990SOL    HW158411   5.966   0.772  11.599  0.9946 -1.8075  3.2042
18990SOL    HW258412   6.075   0.866  11.645 -0.2124  0.9131  0.8100
18991SOL     OW58413   5.072   0.543  10.412  0.0890  0.7296  1.0709
18991SOL    HW158414   5.089   0.450  10.428  0.3450  0.3245 -1.2818
18991SOL    HW258415   5.159   0.581  10.396 -0.2107  0.8006 -0.5582
18992SOL     OW58416   6.300   0.426  10.962  0.0782  0.0641 -0.4306
18992SOL    HW158417   6.279   0.430  10.869 -0.2037  0.0049 -0.3689
18992SOL    HW258418   6.387   0.386  10.965 -0.0094 -0.1420 -0.6561
18993SOL     OW58419   6.120   2.783  12.367  0.2096  0.1168 -0.0006
18993SOL    HW158420   6.200   2.734  12.388  0.6713 -0.2455 -2.3373
18993SOL    HW258421   6.063   2.718  12.326 -1.0663  0.5269  1.0704
18994SOL     OW58422   6.056   1.550  10.019 -0.0821 -0.0809  0.5063
18994SOL    HW158423   6.123   1.582  10.079 -0.7755  0.6463  0.9277
18994SOL    HW258424   6.104   1.511   9.946  0.7839  0.1585  0.9437
18995SOL     OW58425   1.098   2.749  10.248 -0.1783 -0.5960  0.4903
18995SOL    HW158426   1.131   2.663  10.275  0.7920 -0.1821  0.6928
18995SOL    HW258427   1.178   2.801  10.234 -0.6980 -0.1884 -1.1577
18996SOL     OW58428   5.545   1.722  10.128  0.2947  0.1299 -0.0065
18996SOL    HW158429   5.509   1.725  10.039 -1.1165  2.5008  0.5271
18996SOL    HW258430   5.469   1.739  10.184  1.4502  0.4194  1.5264
18997SOL     OW58431   4.779   7.194   0.830  0.1530  0.1151  0.3083
18997SOL    HW158432   4.798   7.135   0.758  1.6800 -0.4301  1.1138
18997SOL    HW258433   4.702   7.243   0.801  0.4199 -0.4348 -1.4577
18998SOL     OW58434   7.670   0.176  10.321 -0.2063 -0.6629  0.0044
18998SOL    HW158435   7.731   0.249  10.321 -0.7384 -0.2023  0.7624
18998SOL    HW258436   7.640   0.169  10.412 -1.0243 -1.0890 -0.2851
18999SOL     OW58437   6.052   1.880  10.250  0.7738  0.1681 -0.0985
18999SOL    HW158438   6.137   1.869  10.207  0.5528 -1.4338 -0.1908
18999SOL    HW258439   6.008   1.795  10.239  0.2341  0.0639  2.2711
19000SOL     OW58440   6.690   1.513  11.226 -0.0840  0.2442  0.3999
19000SOL    HW158441   6.777   1.473  11.222  0.2451  1.0069 -0.1451
19000SOL    HW258442   6.706   1.605  11.243 -0.7308  0.6012 -0.8414
19001SOL     OW58443   6.858   7.758   9.889 -0.3303  0.0118 -0.7164
19001SOL    HW158444   6.950   7.783   9.885 -0.9567  2.4226 -2.6986
19001SOL    HW258445   6.852   7.698   9.963  2.7352  0.1079 -0.2828
19002SOL     OW58446   6.906   1.415  11.519 -0.0786  0.1904  0.5828
19002SOL    HW158447   6.919   1.400  11.425  1.3322 -0.4859  0.8563
19002SOL    HW258448   6.963   1.489  11.539 -1.2520  1.0914  0.7102
19003SOL     OW58449   7.925   7.660   9.954 -0.0075 -0.1141 -0.0808
19003SOL    HW158450   7.964   7.674   9.868 -1.2546 -0.7755 -0.7693
19003SOL    HW258451   7.926   7.566   9.967  2.2053  0.0654  1.6350
19004SOL     OW58452   5.745   2.640   9.573  0.1127 -0.2110  0.2214
19004SOL    HW158453   5.820   2.601   9.528 -0.2830 -0.3717 -0.3080
19004SOL    HW258454   5.752   2.609   9.663  1.5287  0.9994  0.5585
19005SOL     OW58455   6.130   1.817  10.605 -0.5435 -0.2158  0.1635
19005SOL    HW158456   6.049   1.855  10.571 -0.0851  1.9272  1.2478
19005SOL    HW258457   6.198   1.853  10.548 -0.2199 -0.7763  0.1933
19006SOL     OW58458   5.129   0.296  10.479 -0.3068 -0.1143 -0.5496
19006SOL    HW158459   5.196   0.295  10.547  0.6623  0.8486 -1.4565
19006SOL    HW258460   5.083   0.212  10.489 -0.2941  0.0593  1.3649
19007SOL     OW58461   6.166   1.147  11.651 -0.6187 -0.3948 -0.1999
19007SOL    HW158462   6.197   1.171  11.738  0.3233 -0.2342 -0.5671
19007SOL    HW258463   6.213   1.067  11.629 -0.9694 -0.5239 -0.4976
19008SOL     OW58464   4.950   1.859  12.377 -0.0817 -0.7483 -0.0955
19008SOL    HW158465   4.854   1.860  12.383 -0.2286 -0.0296 -1.7896
19008SOL    HW258466   4.967   1.818  12.292  0.8649  3.1167 -1.9946
19009SOL     OW58467   5.971   0.568  10.189  0.5402 -0.1478 -0.9620
19009SOL    HW158468   5.888   0.616  10.190 -1.0855 -2.7794  0.6639
19009SOL    HW258469   6.033   0.628  10.230 -1.2031  0.9059  0.2898
19010SOL     OW58470   6.910   7.584  10.816 -0.5144  0.0999 -0.5093
19010SOL    HW158471   6.998   7.585  10.780 -0.6978  1.2482 -0.9512
19010SOL    HW258472   6.860   7.643  10.761 -1.2401  0.4896  0.5259
19011SOL     OW58473   6.252   7.167   9.841  1.0468  0.3783  0.2535
19011SOL    HW158474   6.176   7.136   9.891  0.8875 -0.2316 -0.3545
19011SOL    HW258475   6.288   7.237   9.895  0.1648  0.5517  0.6500
19012SOL     OW58476   7.418   2.404   7.326 -0.1592  0.0749  0.2338
19012SOL    HW158477   7.387   2.436   7.241 -2.6153 -0.8146  0.7145
19012SOL    HW258478   7.367   2.454   7.390  0.6051 -0.3178  1.1796
19013SOL     OW58479   4.455   0.601  10.855 -0.2940 -0.1802  0.4690
19013SOL    HW158480   4.370   0.640  10.838 -0.8980 -1.6661 -0.0950
19013SOL    HW258481   4.452   0.517  10.810  1.1938 -0.5898  1.0774
19014SOL     OW58482   0.229   0.182  11.227  0.4872  0.4518  0.5184
19014SOL    HW158483   0.163   0.202  11.161  1.0862  0.7097 -0.0093
19014SOL    HW258484   0.199   0.100  11.267  1.2386 -0.8899 -1.5505
19015SOL     OW58485   6.526   3.485   9.349  0.3325 -0.2031  0.1877
19015SOL    HW158486   6.536   3.426   9.424  1.0104  0.7791  0.8896
19015SOL    HW258487   6.436   3.471   9.319  0.4207 -1.4355  0.4656
19016SOL     OW58488   6.937   1.451  10.994 -0.3434  0.2057 -0.6991
19016SOL    HW158489   6.920   1.367  10.951  0.4163  0.5539 -1.6992
19016SOL    HW258490   6.872   1.511  10.957 -0.0837  0.3561 -0.9174
19017SOL     OW58491   7.027   0.762  10.576  0.6848  0.3743  0.5218
19017SOL    HW158492   7.050   0.697  10.643  1.3679  0.0715  0.0081
19017SOL    HW258493   6.959   0.719  10.524 -0.0797  0.7356  1.2086
19018SOL     OW58494   7.317   0.403  10.503 -0.4876 -0.6217  0.2805
19018SOL    HW158495   7.371   0.362  10.436  0.7523  0.1151  0.8013
19018SOL    HW258496   7.353   0.491  10.513 -1.0640 -0.4947  1.4515
19019SOL     OW58497   0.640   1.007   9.785  0.1569  0.1061  0.3353
19019SOL    HW158498   0.675   0.925   9.820  1.8491  0.1390 -1.1462
19019SOL    HW258499   0.715   1.050   9.745 -0.9188  1.8869  0.1253
19020SOL     OW58500   5.587   1.112  11.558 -0.3743  0.4954  0.6874
19020SOL    HW158501   5.544   1.175  11.499 -1.2437  0.3792  1.1716
19020SOL    HW258502   5.679   1.115  11.533 -0.5641  1.2034  0.0099
19021SOL     OW58503   7.258   1.189   7.709 -0.0226 -0.3613  0.7327
19021SOL    HW158504   7.189   1.152   7.765  1.7062  0.4912  3.6633
19021SOL    HW258505   7.269   1.279   7.741  1.3501  0.0397 -0.7466
19022SOL     OW58506   7.289   1.686  10.654 -0.6911 -0.7528  0.3736
19022SOL    HW158507   7.220   1.691  10.720 -0.5107 -2.1155  0.7082
19022SOL    HW258508   7.284   1.596  10.621  0.6882 -0.7840  0.1705
19023SOL     OW58509   6.043   7.925  11.140 -0.2954 -0.3160 -0.0057
19023SOL    HW158510   6.094   7.863  11.192 -1.5896 -1.4851 -0.0939
19023SOL    HW258511   6.015   7.876  11.064  0.1116  0.8996 -0.9785
19024SOL     OW58512   7.429   7.353   9.345 -0.0746 -0.4386 -0.2531
19024SOL    HW158513   7.470   7.317   9.423 -0.1431  1.1136  0.5313
19024SOL    HW258514   7.335   7.333   9.355 -0.6348  2.6605  1.8201
19025SOL     OW58515   7.982   1.752   9.683  0.0201 -0.2350  0.0455
19025SOL    HW158516   8.071   1.716   9.677  0.7425  1.5390 -0.4380
19025SOL    HW258517   7.991   1.843   9.655 -1.8925  0.0987  0.3942
19026SOL     OW58518   7.178   2.093   7.860  0.0584  0.2766 -0.3818
19026SOL    HW158519   7.134   2.009   7.853  1.2239 -0.2624 -1.8771
19026SOL    HW258520   7.271   2.071   7.860  0.3816  1.4409  1.5315
19027SOL     OW58521   7.524   0.761  11.327 -0.0622 -0.1349  0.2280
19027SOL    HW158522   7.541   0.829  11.262 -1.6477  0.4696  0.4173
19027SOL    HW258523   7.463   0.701  11.285  1.2142 -1.4134  0.1115
19028SOL     OW58524   6.996   1.975  10.626  0.1341 -0.3867  0.5660
19028SOL    HW158525   6.966   2.030  10.554 -0.5522 -1.2456  0.1870
19028SOL    HW258526   7.082   2.012  10.650 -0.1039  0.5546  0.0265
19029SOL     OW58527   6.598   1.313  10.203 -0.2614 -0.0135  0.1808
19029SOL    HW158528   6.513   1.276  10.226 -0.8028  0.7347 -0.5604
19029SOL    HW258529   6.608   1.295  10.110 -0.2635  1.1447 -0.0577
19030SOL     OW58530   7.311   1.038  11.088 -0.1576  0.0835  0.6426
19030SOL    HW158531   7.240   1.019  11.027 -0.1326 -0.8280  0.8750
19030SOL    HW258532   7.268   1.042  11.174  0.2309 -2.1026  1.0209
19031SOL     OW58533   6.163   1.318  10.423  0.2814 -0.0207 -0.4038
19031SOL    HW158534   6.081   1.323  10.374 -0.5367  0.0132  0.9297
19031SOL    HW258535   6.150   1.375  10.498  2.5683  2.1946 -1.5624
19032SOL     OW58536   0.204   0.153  10.368  1.2073 -0.1519  0.2963
19032SOL    HW158537   0.232   0.065  10.343  1.3402 -0.0199 -0.0181
19032SOL    HW258538   0.275   0.210  10.341  1.1165  0.0561  0.4908
19033SOL     OW58539   5.509   7.838  10.351 -0.1590  0.0164  0.1658
19033SOL    HW158540   5.435   7.866  10.298  0.8308  1.6637 -0.4029
19033SOL    HW258541   5.553   7.771  10.299 -1.5692 -1.4685  0.7946
19034SOL     OW58542   4.936   1.378  11.839  0.4214  0.4108  0.6141
19034SOL    HW158543   4.957   1.286  11.855  2.0103  0.6875  0.2715
19034SOL    HW258544   4.846   1.377  11.806  1.1764 -1.2639 -1.5713
19035SOL     OW58545   6.822   2.834  10.212 -0.0662 -0.3399 -0.3205
19035SOL    HW158546   6.737   2.861  10.247 -0.6656  0.2108 -2.0872
19035SOL    HW258547   6.803   2.755  10.162  0.2662  0.2332 -1.4031
19036SOL     OW58548   6.671   7.779   8.456 -0.3504  0.4638  0.1587
19036SOL    HW158549   6.725   7.769   8.378 -0.0767  2.0146  0.1054
19036SOL    HW258550   6.733   7.801   8.526 -0.6718 -0.1257  0.6358
19037SOL     OW58551   0.496   1.993  12.166  0.0293  0.7613  0.2105
19037SOL    HW158552   0.539   1.919  12.210 -1.2149 -0.1282 -0.0356
19037SOL    HW258553   0.482   1.962  12.076  0.0366  1.5236 -0.0553
19038SOL     OW58554   1.379   1.692  11.351  0.1645 -0.4739 -0.4923
19038SOL    HW158555   1.423   1.770  11.319 -0.7191  0.3355  0.2176
19038SOL    HW258556   1.425   1.669  11.431 -0.4106  0.1140  0.0142
19039SOL     OW58557   7.324   7.036  12.015  0.4804  0.2983  0.6541
19039SOL    HW158558   7.237   7.074  12.029  0.7700  0.5566  1.9214
19039SOL    HW258559   7.336   6.978  12.091  1.5395  0.5088  0.6566
19040SOL     OW58560   6.531   3.272   9.139  0.1312 -0.0701  0.1820
19040SOL    HW158561   6.540   3.191   9.089 -0.9861 -1.5734  2.2857
19040SOL    HW258562   6.621   3.301   9.154  0.5432 -0.8035 -0.7256
19041SOL     OW58563   6.456   0.473  11.196  0.2782  0.2247  0.1931
19041SOL    HW158564   6.476   0.449  11.286 -0.1900 -0.1776  0.1921
19041SOL    HW258565   6.361   0.463  11.188  0.2576  0.6739 -0.2231
19042SOL     OW58566   0.266   3.764  11.007  1.0134  0.0086  0.1801
19042SOL    HW158567   0.185   3.814  10.998  0.3466 -0.7171  1.6706
19042SOL    HW258568   0.279   3.723  10.922  2.0392  3.2395 -1.3907
19043SOL     OW58569   6.896   0.038  10.645  0.2483 -0.7688  0.1006
19043SOL    HW158570   6.963   0.007  10.585  0.0738 -1.7961  0.4148
19043SOL    HW258571   6.924   0.126  10.670  1.4403 -1.1595  0.1743
19044SOL     OW58572   6.756   0.559   8.528 -0.6196  0.1122 -0.2642
19044SOL    HW158573   6.763   0.521   8.440 -0.5334 -0.9769  0.1898
19044SOL    HW258574   6.677   0.520   8.565 -0.4427  0.2545  0.2801
19045SOL     OW58575   1.175   7.747   9.841 -0.6290 -0.2242 -0.0509
19045SOL    HW158576   1.235   7.679   9.810  1.0164 -0.2005  2.7733
19045SOL    HW258577   1.089   7.704   9.840  0.1936 -1.9919  0.5863
19046SOL     OW58578   4.741   0.928  10.293 -0.5007 -0.6113 -0.5631
19046SOL    HW158579   4.806   0.859  10.300  0.9532  0.6687 -0.9415
19046SOL    HW258580   4.784   1.006  10.328 -2.2603  0.0344  0.3058
19047SOL     OW58581   0.635   0.618   8.944  0.0028 -0.0965  0.2430
19047SOL    HW158582   0.596   0.694   8.987 -0.8573  0.4410 -1.3702
19047SOL    HW258583   0.697   0.656   8.881 -0.6512 -0.6889 -0.7878
19048SOL     OW58584   6.104   5.969  10.702  0.6939  0.3460 -0.1723
19048SOL    HW158585   6.080   5.955  10.611  0.9248 -0.9523 -0.0558
19048SOL    HW258586   6.070   5.892  10.748  0.1509  1.2065  0.9261
19049SOL     OW58587   7.222   2.534  10.739 -0.1935 -0.5258  0.2487
19049SOL    HW158588   7.146   2.576  10.778 -0.2762 -1.2700  0.9104
19049SOL    HW258589   7.296   2.589  10.764 -0.1833 -1.2250  1.8743
19050SOL     OW58590   5.967   0.226  10.739 -0.2915  0.0977  0.0161
19050SOL    HW158591   5.884   0.256  10.701 -0.7416 -1.2609 -0.1273
19050SOL    HW258592   5.953   0.231  10.834 -1.5191 -2.4736  0.0674
19051SOL     OW58593   7.025   7.652   9.654  0.2464  0.6569 -0.0025
19051SOL    HW158594   7.037   7.714   9.582  0.5207  2.2146  1.3056
19051SOL    HW258595   6.974   7.701   9.719  2.5562  0.4220  2.1350
19052SOL     OW58596   5.485   2.806  10.412  0.4935  0.0171  0.1627
19052SOL    HW158597   5.509   2.746  10.482  0.4134 -0.0540  0.1298
19052SOL    HW258598   5.556   2.798  10.348 -0.3384 -1.3424 -0.6596
19053SOL     OW58599   7.439   0.275   9.911  0.3863 -0.2945 -0.1366
19053SOL    HW158600   7.496   0.199   9.922  1.7545  0.5284 -1.2036
19053SOL    HW258601   7.417   0.275   9.817  1.5227  1.3529 -0.4417
19054SOL     OW58602   7.485   7.996   8.353  0.4323  0.0800 -0.2163
19054SOL    HW158603   7.435   8.055   8.296 -2.5743 -3.2535 -1.4728
19054SOL    HW258604   7.576   8.010   8.328 -0.3059  2.5941 -1.9062
19055SOL     OW58605   7.302   7.864  11.654 -0.2699  0.2223 -0.0284
19055SOL    HW158606   7.372   7.922  11.625 -0.3980  0.7615  0.6977
19055SOL    HW258607   7.246   7.919  11.709 -1.2931 -0.1871 -0.6286
19056SOL     OW58608   7.041   7.039   9.307  0.4505 -0.4587 -0.1344
19056SOL    HW158609   7.045   7.034   9.211  1.7484  0.2846 -0.1463
19056SOL    HW258610   7.077   6.955   9.336 -0.5402 -0.9525 -0.2744
19057SOL     OW58611   5.060   7.768  10.346 -0.1662  0.2418 -0.0824
19057SOL    HW158612   5.023   7.777  10.258  0.1401 -0.7640 -0.3253
19057SOL    HW258613   5.143   7.722  10.333 -1.6420 -3.0606  1.0088
19058SOL     OW58614   6.830   3.987  10.747  0.3132  0.4463 -0.2805
19058SOL    HW158615   6.847   4.073  10.785  1.1278  0.0174  0.3567
19058SOL    HW258616   6.778   4.005  10.668  0.8623  1.5556 -0.4057
19059SOL     OW58617   6.391   0.260   0.186  0.0632 -0.1584  0.3716
19059SOL    HW158618   6.413   0.203   0.111 -0.0174 -1.9388  1.6418
19059SOL    HW258619   6.350   0.201   0.249 -2.5567  1.8509  0.6877
19060SOL     OW58620   0.053   0.853  10.313 -0.1073 -0.4682 -0.0211
19060SOL    HW158621   0.021   0.867  10.224 -1.9203  0.8212  0.7792
19060SOL    HW258622   0.103   0.932  10.333 -3.6869  1.6013  1.6828
19061SOL     OW58623   5.815   1.251  10.578  0.3962  0.0225  0.2622
19061SOL    HW158624   5.737   1.306  10.588  0.2260  0.5218 -2.9147
19061SOL    HW258625   5.886   1.303  10.616 -0.2664  1.1017  0.0596
19062SOL     OW58626   5.286   7.395  10.440  0.1733  0.2267  0.4218
19062SOL    HW158627   5.372   7.363  10.415 -0.2379 -1.0813  0.5890
19062SOL    HW258628   5.267   7.465  10.378  1.7281  1.1768  0.9633
19063SOL     OW58629   7.626   1.291  10.160 -0.2653 -0.4679 -0.1539
19063SOL    HW158630   7.663   1.244  10.085  1.3306 -0.5015  0.6134
19063SOL    HW258631   7.676   1.372  10.166 -2.0198  0.7237 -0.5634
19064SOL     OW58632   7.499   0.029   9.252  0.8221  0.4770 -1.1596
19064SOL    HW158633   7.459   0.112   9.227  1.8174  1.1860 -0.4278
19064SOL    HW258634   7.542   0.046   9.335 -1.1247 -1.4287  0.3575
19065SOL     OW58635   7.630   0.178  11.010  0.0910  0.0647 -0.3297
19065SOL    HW158636   7.686   0.116  10.963 -1.3392 -1.4066 -0.1521
19065SOL    HW258637   7.662   0.264  10.982  1.9326 -0.7250 -0.8064
19066SOL     OW58638   6.074   1.137   0.264 -0.1278 -0.0903  0.4239
19066SOL    HW158639   6.051   1.051   0.229  1.4184  0.0619 -1.0697
19066SOL    HW258640   6.152   1.123   0.317 -0.6262  0.2109  1.2736
19067SOL     OW58641   7.834   2.919  10.138  0.1979 -0.6132  0.7426
19067SOL    HW158642   7.804   2.925  10.047  0.3678 -0.2977  0.7038
19067SOL    HW258643   7.846   2.826  10.154  1.3185 -0.6098  0.0571
19068SOL     OW58644   6.997   7.343   9.125 -0.1182  0.1838  0.0970
19068SOL    HW158645   7.047   7.361   9.204  2.0521 -0.3204 -1.0971
19068SOL    HW258646   7.036   7.263   9.090 -1.7124 -0.1761 -0.9536
19069SOL     OW58647   7.607   1.615  10.899 -0.7005  0.5137 -0.2784
19069SOL    HW158648   7.632   1.602  10.807 -2.3254 -0.6944 -0.6021
19069SOL    HW258649   7.608   1.710  10.911  0.0198  0.6658 -1.3988
19070SOL     OW58650   5.961   6.996   9.781  0.6847 -0.7604  0.5021
19070SOL    HW158651   5.929   7.035   9.863  0.0359  0.5498 -0.3380
19070SOL    HW258652   5.971   6.903   9.801  1.1136 -0.3724  2.2363
19071SOL     OW58653   7.729   0.078  11.331  0.2981 -0.0543  0.1714
19071SOL    HW158654   7.749   0.171  11.321  0.7591 -0.2816 -1.1960
19071SOL    HW258655   7.753   0.058  11.422  1.8706  0.7727 -0.0195
19072SOL     OW58656   5.739   7.612  11.005 -0.7446 -0.4303  0.5190
19072SOL    HW158657   5.727   7.548  11.075 -2.3655  0.9601  1.5511
19072SOL    HW258658   5.718   7.563  10.925 -1.1609 -1.4050  1.2051
19073SOL     OW58659   6.301   0.782   9.333  0.1924 -0.2553  0.0034
19073SOL    HW158660   6.280   0.786   9.240  0.4170 -0.0463 -0.0397
19073SOL    HW258661   6.314   0.689   9.351 -1.8059 -0.5288  0.2587
19074SOL     OW58662   5.985   0.912  10.445 -0.3577  0.3114 -0.1053
19074SOL    HW158663   5.902   0.914  10.492  0.1128 -0.5426  0.8004
19074SOL    HW258664   6.036   0.984  10.483 -0.3992  0.3470 -0.1163
19075SOL     OW58665   5.911   0.305  11.004  0.1965  0.1933 -0.3417
19075SOL    HW158666   5.822   0.269  11.008  0.7749 -1.2975 -0.5145
19075SOL    HW258667   5.898   0.396  10.976 -1.4589  0.8477  2.2196
19076SOL     OW58668   0.479   0.034   8.867  0.7396 -0.0335 -0.1423
19076SOL    HW158669   0.439   0.057   8.950 -0.3065  0.9383 -0.8916
19076SOL    HW258670   0.417  -0.025   8.825  0.8829  0.1216 -0.5842
19077SOL     OW58671   0.802   1.289  11.197 -0.1021 -0.2220 -0.8321
19077SOL    HW158672   0.794   1.226  11.125 -0.6706  0.1714 -1.1203
19077SOL    HW258673   0.743   1.360  11.173  0.5990  0.4707 -0.5546
19078SOL     OW58674   5.502   7.645   8.589  0.1461  0.0881 -0.8640
19078SOL    HW158675   5.585   7.604   8.567  1.3012  1.5946  0.4594
19078SOL    HW258676   5.502   7.650   8.685 -1.0289  0.9698 -0.8853
19079SOL     OW58677   0.325   7.764   9.438  0.3868 -0.5258  0.2041
19079SOL    HW158678   0.382   7.783   9.364  1.9546 -2.1789  0.9229
19079SOL    HW258679   0.241   7.805   9.415  1.1275 -0.1217 -1.9785
19080SOL     OW58680   7.102   0.078   7.998  0.0417 -0.3385 -0.2612
19080SOL    HW158681   7.079   0.165   8.030  0.1705 -1.4487  3.1701
19080SOL    HW258682   7.026   0.023   8.018  0.5566 -1.3619 -0.9859
19081SOL     OW58683   7.145   6.737   8.330 -0.7815 -0.2293  0.1907
19081SOL    HW158684   7.159   6.645   8.353  3.0751  0.3024  0.6389
19081SOL    HW258685   7.106   6.776   8.409  0.8748 -0.8436  1.3604
19082SOL     OW58686   7.690   0.772  11.901 -0.0543  0.5244  0.1986
19082SOL    HW158687   7.736   0.803  11.979  1.9819  0.0836 -0.7691
19082SOL    HW258688   7.620   0.836  11.888  1.4473  2.3742  0.6582
19083SOL     OW58689   6.647   2.337  10.160  0.0766 -0.3433 -0.6651
19083SOL    HW158690   6.557   2.306  10.162  0.0296 -0.3063  2.5991
19083SOL    HW258691   6.699   2.257  10.149 -0.3031 -0.5906 -0.6900
19084SOL     OW58692   7.854   0.871   9.169 -0.3473 -0.0888 -0.4683
19084SOL    HW158693   7.879   0.962   9.152 -0.1492 -0.1036 -0.2589
19084SOL    HW258694   7.800   0.846   9.093 -2.0357  0.8075  0.3888
19085SOL     OW58695   6.612   3.314  10.535 -0.3769  0.2047 -0.1765
19085SOL    HW158696   6.656   3.254  10.475 -0.6466  1.1037 -1.2795
19085SOL    HW258697   6.675   3.384  10.551 -0.4919  0.2269  0.2139
19086SOL     OW58698   0.907   0.895  12.211  0.1219 -0.0567  0.1760
19086SOL    HW158699   0.813   0.896  12.190  0.3459 -0.5028 -0.9215
19086SOL    HW258700   0.931   0.987  12.217 -0.4240  0.0597  0.6476
19087SOL     OW58701   6.671   0.076  10.454  0.0340  0.3141  0.3773
19087SOL    HW158702   6.749   0.058  10.506 -0.7088 -0.8049  1.1280
19087SOL    HW258703   6.598   0.062  10.514 -0.9600 -2.8815 -1.3780
19088SOL     OW58704   5.531   7.533  10.710  0.6194 -0.2531  0.0593
19088SOL    HW158705   5.529   7.486  10.627  1.6954 -2.0700  1.0001
19088SOL    HW258706   5.620   7.521  10.742  0.1689  0.2349  1.5693
19089SOL     OW58707   2.263   2.806   8.958  0.0859  0.8152 -0.1881
19089SOL    HW158708   2.280   2.883   9.012  0.2930  1.4427 -1.1263
19089SOL    HW258709   2.274   2.732   9.017 -1.6584  1.5435  1.1198
19090SOL     OW58710   5.220   0.784  10.963 -0.4386  0.2764 -0.6183
19090SOL    HW158711   5.135   0.740  10.961  0.1543 -0.9031 -0.5078
19090SOL    HW258712   5.284   0.713  10.968  0.5500  1.1552 -0.4457
19091SOL     OW58713   6.926   1.571   8.774 -0.2935  0.6327 -0.3203
19091SOL    HW158714   6.897   1.480   8.766 -3.2146  1.4781 -0.6737
19091SOL    HW258715   6.978   1.587   8.696 -0.2685 -0.5758 -0.5605
19092SOL     OW58716   5.426   1.357  10.128 -0.0605 -0.3441 -0.0605
19092SOL    HW158717   5.464   1.314  10.052 -0.2847  0.0895 -0.4220
19092SOL    HW258718   5.359   1.416  10.092  0.4738  0.5638  0.3924
19093SOL     OW58719   6.660   0.252  10.223 -0.0749 -0.0936 -0.4552
19093SOL    HW158720   6.733   0.313  10.209 -1.0080  1.0240 -0.6547
19093SOL    HW258721   6.667   0.225  10.314 -0.5019  1.5391  0.0979
19094SOL     OW58722   6.325   0.373  10.695 -0.4172  0.0929  0.4583
19094SOL    HW158723   6.325   0.282  10.725  3.6722 -0.7932 -1.4297
19094SOL    HW258724   6.324   0.367  10.599 -1.8027  2.1785  0.2794
19095SOL     OW58725   7.027   2.423   8.711  0.5714  0.6184 -0.1691
19095SOL    HW158726   6.990   2.491   8.654  0.9604 -0.2005 -1.4413
19095SOL    HW258727   7.089   2.471   8.767 -1.1222  1.7273  0.8393
19096SOL     OW58728   6.206   1.175   8.285  0.3597  0.0957 -0.1360
19096SOL    HW158729   6.249   1.091   8.274 -1.4166 -0.8092 -0.5361
19096SOL    HW258730   6.178   1.200   8.197 -1.1040 -0.0202  0.2701
19097SOL     OW58731   7.079   0.165   9.791 -0.2230 -0.1252 -0.0744
19097SOL    HW158732   7.031   0.243   9.763 -0.0889  0.5672  1.5637
19097SOL    HW258733   7.157   0.198   9.834 -0.4016 -1.1373  1.0919
19098SOL     OW58734   5.115   1.071   9.827 -0.3886  0.0414  0.6236
19098SOL    HW158735   5.102   1.018   9.748  0.6630 -0.1842  0.5807
19098SOL    HW258736   5.029   1.108   9.846 -0.6981 -0.0583 -0.5190
19099SOL     OW58737   5.915   0.455  11.754 -0.2084 -0.0237  0.3251
19099SOL    HW158738   5.846   0.417  11.809  0.5688  1.6381  2.5927
19099SOL    HW258739   5.991   0.397  11.768  0.1958  0.7761  1.6681
19100SOL     OW58740   5.739   1.450  12.139 -0.0932  0.3819 -0.0415
19100SOL    HW158741   5.650   1.420  12.118 -0.3177  0.5601  0.6268
19100SOL    HW258742   5.788   1.370  12.157 -0.0042  0.2537 -0.8026
19101SOL     OW58743   7.473   7.996  10.648 -0.4826 -0.0712  0.2899
19101SOL    HW158744   7.517   8.075  10.619 -2.3465  0.5965 -0.8917
19101SOL    HW258745   7.441   8.017  10.736 -0.1033  0.1072  0.3869
19102SOL     OW58746   7.303   1.414  11.584  0.3288  0.0310 -0.2318
19102SOL    HW158747   7.284   1.329  11.624  1.8766  1.1450  3.3037
19102SOL    HW258748   7.392   1.435  11.613  1.0257  1.7985 -3.1559
19103SOL     OW58749   5.206   0.349  11.463  0.3180 -0.0470  0.2252
19103SOL    HW158750   5.186   0.442  11.467 -0.4908 -0.1222 -1.2951
19103SOL    HW258751   5.123   0.307  11.441  0.8445 -1.0461  0.0444
19104SOL     OW58752   7.334   0.465  11.689 -0.3875  0.7432 -0.5861
19104SOL    HW158753   7.274   0.426  11.753  1.3914  1.0579  1.4245
19104SOL    HW258754   7.338   0.557  11.714  2.1017  0.4407  0.4476
19105SOL     OW58755   0.141   6.841   8.323 -0.1448  0.4986 -0.2108
19105SOL    HW158756   0.136   6.858   8.417 -1.7879  1.0006 -0.3590
19105SOL    HW258757   0.050   6.834   8.295  0.2905  1.1187 -1.9078
19106SOL     OW58758   5.075   6.384  11.794 -0.6251 -0.5848  0.0636
19106SOL    HW158759   5.023   6.330  11.853  0.5768 -0.9171  0.8514
19106SOL    HW258760   5.162   6.346  11.797  0.2526  1.3554  0.5914
19107SOL     OW58761   6.681   2.563   9.322 -0.3072  0.3122 -0.1323
19107SOL    HW158762   6.751   2.507   9.355 -1.7219 -1.0504  0.6633
19107SOL    HW258763   6.652   2.520   9.242 -1.1036  0.1332  0.2458
19108SOL     OW58764   7.359   1.079  10.364 -0.5858 -0.5313  0.2021
19108SOL    HW158765   7.338   1.153  10.422  0.5310 -1.3994  1.7775
19108SOL    HW258766   7.302   1.008  10.394 -1.3457 -0.4800 -1.0290
19109SOL     OW58767   0.427   1.518  11.263 -0.2022  0.3108  0.3745
19109SOL    HW158768   0.410   1.613  11.257  1.3832  0.6991  1.4911
19109SOL    HW258769   0.355   1.484  11.315 -1.5824  0.6247 -1.2265
19110SOL     OW58770   6.945   6.926  12.220 -0.0496  0.4041 -0.0751
19110SOL    HW158771   6.896   6.963  12.294 -0.4840  1.1837 -0.7376
19110SOL    HW258772   7.034   6.915  12.253 -0.6916 -1.2845  1.2359
19111SOL     OW58773   7.663   0.809   8.585  0.1540 -0.3231  0.3363
19111SOL    HW158774   7.622   0.762   8.656  0.6299 -1.3768 -0.0697
19111SOL    HW258775   7.591   0.838   8.529 -0.1234 -0.8423  0.4255
19112SOL     OW58776   5.975   1.296   9.463  0.0531 -0.2262 -0.1250
19112SOL    HW158777   6.021   1.310   9.546  0.3892 -0.4880 -0.2661
19112SOL    HW258778   5.889   1.262   9.489  0.7913 -2.0095  0.0600
19113SOL     OW58779   6.279   1.925  10.067  0.1903  0.0118  0.1384
19113SOL    HW158780   6.253   1.967   9.985 -0.1471  0.2550  0.3683
19113SOL    HW258781   6.358   1.972  10.093  0.3761 -0.1557 -0.1156
19114SOL     OW58782   0.216   2.858  10.246 -0.3056 -0.6761 -0.1482
19114SOL    HW158783   0.191   2.918  10.176 -0.5988  0.6572  1.0448
19114SOL    HW258784   0.257   2.784  10.201 -0.8631 -0.0628 -1.7379
19115SOL     OW58785   7.354   1.523   0.545  0.1176 -0.1498  0.6986
19115SOL    HW158786   7.371   1.617   0.532 -1.0477  0.0296  0.3777
19115SOL    HW258787   7.317   1.518   0.633  0.2032 -0.3169  0.7251
19116SOL     OW58788   7.590   1.062   9.388  0.4581  0.4090 -0.1448
19116SOL    HW158789   7.638   1.143   9.403  0.4612  0.5063 -0.6717
19116SOL    HW258790   7.500   1.082   9.415  0.9760 -0.2247  2.3058
19117SOL     OW58791   7.205   1.404   8.989 -0.3253 -0.1703  0.3445
19117SOL    HW158792   7.165   1.491   8.998 -1.5708 -0.8676  2.1676
19117SOL    HW258793   7.292   1.422   8.954 -1.5307  1.5694 -2.0398
19118SOL     OW58794   0.361   0.733  10.160 -0.2421 -0.8923 -0.1130
19118SOL    HW158795   0.427   0.800  10.175  0.9463 -1.6406 -1.7653
19118SOL    HW258796   0.289   0.779  10.117 -0.6222 -0.1708  1.2513
19119SOL     OW58797   7.049   0.081   9.526 -0.4690 -0.2383 -0.0832
19119SOL    HW158798   7.060   0.104   9.619 -2.2211  0.2360  0.0300
19119SOL    HW258799   7.015   0.160   9.485 -1.2986 -0.9529 -0.8011
19120SOL     OW58800   6.595   0.423  10.478  0.1058 -0.7032  0.1255
19120SOL    HW158801   6.579   0.389  10.566  0.0265  0.2304  0.4836
19120SOL    HW258802   6.515   0.403  10.430  0.3605 -1.7097  0.0977
19121SOL     OW58803   6.520   1.974  10.960 -0.8254  0.1367  0.2398
19121SOL    HW158804   6.610   1.997  10.937 -0.8714  0.0719 -0.0079
19121SOL    HW258805   6.499   1.899  10.904 -0.6369 -0.5959  1.1176
19122SOL     OW58806   5.978   7.352  11.506  0.3873 -0.9797  0.2778
19122SOL    HW158807   5.975   7.399  11.422 -0.2286 -1.3152  0.1099
19122SOL    HW258808   6.035   7.406  11.561 -1.2467  0.6460  0.4889
19123SOL     OW58809   4.736   0.584   9.971 -0.4023  0.2090  0.0953
19123SOL    HW158810   4.786   0.634   9.906  0.4804  0.3251  0.8563
19123SOL    HW258811   4.771   0.611  10.055 -0.6115 -0.9386  0.5738
19124SOL     OW58812   4.877   1.983   9.396  0.0221  0.1308  0.1617
19124SOL    HW158813   4.825   1.971   9.475 -0.0734  0.5942  0.1732
19124SOL    HW258814   4.954   2.032   9.425  1.0836 -1.5524  0.3732
19125SOL     OW58815   7.805   1.192   9.972 -0.3329 -0.7179 -0.0380
19125SOL    HW158816   7.832   1.154   9.889 -1.4811 -1.4706 -0.0909
19125SOL    HW258817   7.860   1.270   9.982  0.0216 -0.7785 -1.3465
19126SOL     OW58818   6.916   1.009   8.230  0.2419  0.0885  0.2443
19126SOL    HW158819   6.884   1.094   8.260  0.5868 -0.7285  3.3113
19126SOL    HW258820   6.868   0.991   8.150 -0.1315  2.9633 -0.2772
19127SOL     OW58821   4.781   0.316  10.684  0.8408 -0.0329 -0.3678
19127SOL    HW158822   4.862   0.347  10.724  0.4402 -0.5070  0.8650
19127SOL    HW258823   4.777   0.223  10.707 -1.4474  0.5402  2.1701
19128SOL     OW58824   5.403   1.240  10.396  0.2884 -0.3731 -0.1840
19128SOL    HW158825   5.407   1.276  10.308 -1.1548 -0.4532 -0.3031
19128SOL    HW258826   5.464   1.294  10.447  1.6858 -0.7831 -1.3527
19129SOL     OW58827   5.290   0.886  10.729 -0.9814  0.2969  0.0275
19129SOL    HW158828   5.246   0.807  10.697  2.1174 -1.4633 -0.3820
19129SOL    HW258829   5.269   0.889  10.822 -0.8147 -1.3544  0.1598
19130SOL     OW58830   6.261   0.261   8.541 -0.0039  0.8071  0.8637
19130SOL    HW158831   6.351   0.268   8.573  0.8595 -1.7001 -0.7741
19130SOL    HW258832   6.217   0.203   8.603  0.5088 -0.6837 -0.1111
19131SOL     OW58833   7.903   0.308  11.300 -0.2529 -0.0320 -0.3626
19131SOL    HW158834   7.965   0.342  11.236 -0.8121  2.4946  0.3101
19131SOL    HW258835   7.842   0.381  11.316 -0.9266 -1.0059  2.0309
19132SOL     OW58836   6.559   2.810   0.191  0.2487 -0.3313  0.3789
19132SOL    HW158837   6.596   2.724   0.172  0.4510 -0.1759  0.0560
19132SOL    HW258838   6.609   2.870   0.137  1.0822  0.1779  1.6648
19133SOL     OW58839   6.295   0.436  10.408  0.4624  0.2734 -0.4198
19133SOL    HW158840   6.305   0.408  10.317 -1.0586  0.6043 -0.7236
19133SOL    HW258841   6.206   0.472  10.412  1.7091  3.6531  0.3029
19134SOL     OW58842   5.320   2.761   9.745 -0.0970  0.1972 -0.6803
19134SOL    HW158843   5.355   2.766   9.834 -0.4539  1.0418 -0.5699
19134SOL    HW258844   5.345   2.844   9.705 -0.2703 -0.0179 -1.2442
19135SOL     OW58845   5.311   0.899   9.004  0.1131 -0.1476  0.8547
19135SOL    HW158846   5.215   0.897   9.008  0.1625 -1.1035  2.3922
19135SOL    HW258847   5.338   0.939   9.087  1.0317  2.4048 -0.5811
19136SOL     OW58848   6.109   0.777   9.553 -0.2243  0.8457  0.4592
19136SOL    HW158849   6.155   0.703   9.592 -0.2845  0.5182 -0.0831
19136SOL    HW258850   6.174   0.819   9.497 -0.1079  1.3785  0.9835
19137SOL     OW58851   6.273   0.680  11.053 -0.7356 -0.2656  0.4860
19137SOL    HW158852   6.294   0.589  11.029 -3.3434 -0.6523 -0.7139
19137SOL    HW258853   6.252   0.676  11.147 -0.5560 -0.8544  0.5056
19138SOL     OW58854   7.461   0.358  10.188  0.2709 -0.1798  0.2407
19138SOL    HW158855   7.542   0.321  10.224 -0.2029 -0.1451  1.3653
19138SOL    HW258856   7.476   0.359  10.093  1.3548 -0.7245  0.3866
19139SOL     OW58857   6.158   7.496  11.656  0.0101  0.0576 -0.6508
19139SOL    HW158858   6.163   7.584  11.693 -0.2477  0.7885 -2.2847
19139SOL    HW258859   6.230   7.448  11.698 -1.8545 -0.0330  2.8681
19140SOL     OW58860   7.190   1.135   8.899  0.6733 -0.3265 -0.1197
19140SOL    HW158861   7.197   1.214   8.953  0.9947  0.1078 -0.7913
19140SOL    HW258862   7.169   1.066   8.962 -0.5441  0.4386  0.3593
19141SOL     OW58863   7.063   7.827   9.445 -0.0988 -0.0996 -0.2787
19141SOL    HW158864   7.046   7.911   9.486 -1.7707  0.1569 -1.4125
19141SOL    HW258865   7.134   7.844   9.384  0.8832  0.0098  0.8439
19142SOL     OW58866   5.325   1.981  12.007 -0.2835  0.2047  0.4916
19142SOL    HW158867   5.301   1.966  11.916 -2.9043 -0.3826  1.2015
19142SOL    HW258868   5.288   2.067  12.027  1.4188  0.9260  0.6807
19143SOL     OW58869   6.528   0.756  10.170 -0.3228 -0.0569  0.1843
19143SOL    HW158870   6.549   0.762  10.263 -0.9188 -0.7077  0.3730
19143SOL    HW258871   6.513   0.846  10.143  0.9178  0.2489  0.4562
19144SOL     OW58872   6.819   1.089  11.148 -0.7165  0.2165 -0.1410
19144SOL    HW158873   6.802   1.002  11.111  0.7721 -0.1511 -0.0187
19144SOL    HW258874   6.756   1.098  11.219 -0.7960 -0.8326 -0.0677
19145SOL     OW58875   5.487   2.277  12.118  0.4262 -0.0324  0.2514
19145SOL    HW158876   5.495   2.336  12.043 -0.0379 -0.7040 -0.3308
19145SOL    HW258877   5.393   2.263  12.128  0.5269 -0.5821  0.4583
19146SOL     OW58878   6.348   1.588  10.529  0.0065  0.1997  0.2278
19146SOL    HW158879   6.397   1.542  10.461  1.2459  0.1494  1.1024
19146SOL    HW258880   6.352   1.680  10.504  2.3253  0.4658  1.2473
19147SOL     OW58881   6.332   0.801  10.824  0.4495  1.0110  0.2254
19147SOL    HW158882   6.302   0.891  10.809 -0.3478  0.8918  1.0171
19147SOL    HW258883   6.305   0.782  10.914 -0.8931 -0.6007 -0.4625
19148SOL     OW58884   7.894   0.141   9.667 -0.8283  0.4783 -0.4229
19148SOL    HW158885   7.827   0.120   9.732  0.1347 -0.4518  0.3107
19148SOL    HW258886   7.973   0.159   9.718  0.2590 -1.4267 -1.3249
19149SOL     OW58887   0.384   0.043  11.612  0.4109 -0.2292  0.1499
19149SOL    HW158888   0.369   0.071  11.702 -0.2356 -1.1563  0.3366
19149SOL    HW258889   0.377   0.124  11.561 -2.5640 -0.1359  0.5311
19150SOL     OW58890   6.456   0.029  10.636  0.1129 -0.1024  0.4441
19150SOL    HW158891   6.440  -0.063  10.656 -1.7574  0.3655  1.3779
19150SOL    HW258892   6.375   0.073  10.662  0.6548  1.7035 -0.7525
19151SOL     OW58893   5.628   5.916  11.033  0.1321  0.6263 -0.7353
19151SOL    HW158894   5.558   5.975  11.059  0.8212  1.5277 -0.8760
19151SOL    HW258895   5.588   5.829  11.035 -0.7231  1.0193  0.1071
19152SOL     OW58896   6.129   4.120   9.027  0.3254 -0.2740  0.7014
19152SOL    HW158897   6.090   4.039   8.995  0.4005  0.0276 -0.1900
19152SOL    HW258898   6.136   4.176   8.949  0.8278  0.3616  1.1861
19153SOL     OW58899   7.861   0.878  11.330  0.1972 -0.6251 -0.2143
19153SOL    HW158900   7.946   0.884  11.286 -0.2318 -0.6956 -1.0683
19153SOL    HW258901   7.803   0.932  11.277 -0.6785 -1.8937 -0.5851
19154SOL     OW58902   5.994   1.368   9.772 -0.2038 -0.3761 -0.1189
19154SOL    HW158903   5.994   1.287   9.823 -2.0288  0.1345  0.7619
19154SOL    HW258904   5.907   1.404   9.784  0.6281  1.8446 -0.3358
19155SOL     OW58905   6.297   1.327   9.795 -0.5536 -0.0781  0.2003
19155SOL    HW158906   6.311   1.263   9.725  0.6708  0.0972  0.2561
19155SOL    HW258907   6.240   1.394   9.756  0.3226  0.1547 -0.7341
19156SOL     OW58908   6.426   2.639   9.925  0.2546  0.4094  0.1532
19156SOL    HW158909   6.480   2.646   9.846  0.4073  0.1530  0.2329
19156SOL    HW258910   6.379   2.722   9.929  0.5037  0.5622 -0.0200
19157SOL     OW58911   0.060   0.943  10.948  0.3764  0.1882 -0.0581
19157SOL    HW158912   0.023   0.942  10.860 -1.7303  1.8235  0.7449
19157SOL    HW258913   0.048   1.033  10.979  1.0794 -0.3290  1.9037
19158SOL     OW58914   7.605   0.233  10.577  0.0498  0.1029  0.1109
19158SOL    HW158915   7.691   0.216  10.615 -0.9305 -0.0078  2.4241
19158SOL    HW258916   7.575   0.313  10.620 -0.6962  0.5971 -1.2673
19159SOL     OW58917   6.192   1.085  11.217  0.0267  0.1341 -0.0309
19159SOL    HW158918   6.248   1.063  11.143 -0.1604  0.1653 -0.1797
19159SOL    HW258919   6.233   1.040  11.291  1.5594  1.9476  0.3188
19160SOL     OW58920   4.620   7.355   9.643  0.4727  0.6452  0.5518
19160SOL    HW158921   4.538   7.339   9.595 -0.8631  1.1188  2.5540
19160SOL    HW258922   4.624   7.450   9.652  0.6485  0.5538  1.4642
19161SOL     OW58923   0.412   0.797   9.858 -0.0296  0.1940 -0.0044
19161SOL    HW158924   0.379   0.838   9.938 -0.0816  1.8382 -0.8342
19161SOL    HW258925   0.333   0.766   9.812 -0.1813  1.1026 -0.3797
19162SOL     OW58926   6.442   0.099   9.754  0.3082 -0.4110  0.0811
19162SOL    HW158927   6.407   0.053   9.678 -3.9364  3.0899 -0.4873
19162SOL    HW258928   6.380   0.081   9.824  1.2709  0.4921  1.2082
19163SOL     OW58929   5.515   2.189  11.454  0.0638  0.1213  0.3515
19163SOL    HW158930   5.448   2.168  11.389  0.2047 -1.1179  0.5983
19163SOL    HW258931   5.526   2.284  11.446 -0.7436  0.1515 -0.6306
19164SOL     OW58932   4.779   0.243  10.430  0.0942 -0.9293  1.0417
19164SOL    HW158933   4.718   0.310  10.400  1.9955  0.0292 -0.9653
19164SOL    HW258934   4.808   0.273  10.516 -0.1601  0.0733  0.7861
19165SOL     OW58935   5.218   6.596   9.479 -0.5170 -0.0330  0.3541
19165SOL    HW158936   5.183   6.562   9.561 -1.5473 -0.0100 -0.0590
19165SOL    HW258937   5.173   6.546   9.411  0.1513  0.1079 -0.2103
19166SOL     OW58938   5.903   7.805  10.930  0.4352  0.0727  0.0791
19166SOL    HW158939   5.850   7.864  10.876  0.1704 -1.1367 -1.0323
19166SOL    HW258940   5.839   7.753  10.979  0.6260 -0.2004  0.0422
19167SOL     OW58941   5.002   0.016  10.496 -0.5390  0.0030 -0.5048
19167SOL    HW158942   5.052  -0.032  10.431 -0.8797 -0.2463 -0.5860
19167SOL    HW258943   4.912   0.011  10.465 -0.9597 -1.5422  0.8227
19168SOL     OW58944   6.173   0.693  10.311  0.3780 -0.2336  0.2294
19168SOL    HW158945   6.199   0.748  10.384 -0.5349 -1.6627  1.7095
19168SOL    HW258946   6.244   0.702  10.247  1.2167  1.0333  1.2941
19169SOL     OW58947   4.598   1.638  11.081 -0.2434 -0.1735 -0.8237
19169SOL    HW158948   4.593   1.707  11.146 -0.3526 -1.2703  0.3718
19169SOL    HW258949   4.561   1.677  11.001  0.9405  1.5497 -0.5754
19170SOL     OW58950   6.166   3.456   9.501 -0.0516  0.2531 -0.3201
19170SOL    HW158951   6.188   3.363   9.504  1.8264  0.6719  0.0534
19170SOL    HW258952   6.194   3.491   9.586 -2.2892  0.8730  0.2262
19171SOL     OW58953   5.838   0.046  12.351  0.0394  0.1992  0.0962
19171SOL    HW158954   5.778   0.110  12.313 -0.9504 -1.1353 -0.7103
19171SOL    HW258955   5.790  -0.037  12.345  0.4401 -0.3495  2.9009
19172SOL     OW58956   6.287   1.641  10.128 -0.2144 -0.1747 -0.2279
19172SOL    HW158957   6.373   1.631  10.088 -0.5061  1.2220 -1.3118
19172SOL    HW258958   6.275   1.736  10.135 -1.4915 -0.3467  0.2847
19173SOL     OW58959   5.515   1.740  11.430  0.5363  0.3868 -0.2547
19173SOL    HW158960   5.555   1.810  11.378 -0.0259  0.0691 -1.1393
19173SOL    HW258961   5.589   1.692  11.466  0.9332  1.2423  0.1022
19174SOL     OW58962   7.083   7.488  10.288  0.1257 -0.3895  0.2165
19174SOL    HW158963   7.087   7.583  10.299 -0.6987 -0.2233 -0.7455
19174SOL    HW258964   7.044   7.456  10.370 -0.5599  0.2103  0.1361
19175SOL     OW58965   7.365   7.447  10.257  0.1904 -0.0154  0.1743
19175SOL    HW158966   7.388   7.488  10.173 -0.8744 -1.7142 -1.0118
19175SOL    HW258967   7.274   7.420  10.245  0.0322 -0.3019  1.8986
19176SOL     OW58968   7.024   1.673   9.836  0.2487  0.0076  0.3111
19176SOL    HW158969   7.117   1.654   9.822  0.0587 -0.5484 -0.2106
19176SOL    HW258970   7.007   1.751   9.783  0.7857  1.0957  1.6591
19177SOL     OW58971   7.998   7.731  10.340 -0.5411  0.0522  0.3211
19177SOL    HW158972   8.046   7.655  10.374 -0.6888 -0.0471  0.3056
19177SOL    HW258973   7.925   7.693  10.292 -0.0815  0.1716 -0.4962
19178SOL     OW58974   6.897   1.149  10.207  0.0116  0.0541 -0.5870
19178SOL    HW158975   6.841   1.132  10.283  0.6501  1.4810  0.2498
19178SOL    HW258976   6.838   1.140  10.131 -0.6329 -1.4185  0.0311
19179SOL     OW58977   7.224   7.625   8.549 -0.1352  0.5581 -0.2628
19179SOL    HW158978   7.270   7.546   8.520  1.5530  1.3932  0.0037
19179SOL    HW258979   7.283   7.697   8.526 -1.5799  1.7388 -0.3849
19180SOL     OW58980   7.119   3.368   9.597  0.5388 -0.1528  0.1596
19180SOL    HW158981   7.126   3.290   9.652 -0.0936 -2.5461 -2.8599
19180SOL    HW258982   7.208   3.385   9.567  0.6705  0.2932  0.7870
19181SOL     OW58983   1.383   0.750  10.311 -0.0568 -0.0988 -0.6150
19181SOL    HW158984   1.401   0.682  10.246  1.3399 -0.6430  0.2903
19181SOL    HW258985   1.291   0.736  10.335 -0.0307 -1.1348 -1.0557
19182SOL     OW58986   7.387   0.923   8.663  0.2506  0.2433 -0.2254
19182SOL    HW158987   7.299   0.889   8.652  1.3700 -2.6176 -1.1005
19182SOL    HW258988   7.382   1.013   8.629 -2.0319 -0.2405 -1.3607
19183SOL     OW58989   7.786   1.247   9.553  0.2626 -0.3941 -0.0689
19183SOL    HW158990   7.696   1.272   9.533  0.4367 -0.7125 -1.3337
19183SOL    HW258991   7.828   1.329   9.580 -0.5833 -0.3843  1.2866
19184SOL     OW58992   4.992   2.414  10.006 -0.7856  0.2555  0.4328
19184SOL    HW158993   4.897   2.423  10.012 -1.0589 -0.4089 -1.9679
19184SOL    HW258994   5.021   2.498   9.969 -0.3506  0.6244  1.5633
19185SOL     OW58995   7.482   2.915  11.341 -0.3656 -0.0424  0.5606
19185SOL    HW158996   7.401   2.881  11.378 -1.1434 -0.2884 -1.2693
19185SOL    HW258997   7.456   2.956  11.259  1.2931  0.3788  0.1966
19186SOL     OW58998   0.948   1.506   0.199 -0.5308  0.2066 -0.2674
19186SOL    HW158999   0.924   1.587   0.244 -1.1406 -0.4592  0.6463
19186SOL    HW259000   1.028   1.477   0.244  0.1379  0.6879 -1.1090
19187SOL     OW59001   5.540   6.879   9.443 -0.2438  0.7797 -0.2575
19187SOL    HW159002   5.540   6.946   9.374 -0.2734  1.0267 -0.0223
19187SOL    HW259003   5.611   6.905   9.502  0.7208 -0.2295 -0.9540
19188SOL     OW59004   7.998   1.949  10.529  0.2354  0.0239 -0.1971
19188SOL    HW159005   7.954   1.957  10.444  1.3660 -0.1267 -0.8215
19188SOL    HW259006   7.930   1.969  10.593 -0.6162  0.2605 -1.1419
19189SOL     OW59007   5.424   1.235  11.360 -0.4943 -0.8956  0.6466
19189SOL    HW159008   5.335   1.205  11.377 -0.6373 -1.4486 -0.9147
19189SOL    HW259009   5.414   1.324  11.328 -0.6446 -1.4321 -0.8862
19190SOL     OW59010   6.954   3.696   9.270 -0.5705 -0.1468  0.3436
19190SOL    HW159011   6.982   3.784   9.243  1.0834 -0.0057  2.2572
19190SOL    HW259012   6.925   3.707   9.361 -0.0923 -1.6054  0.7030
19191SOL     OW59013   7.765   2.742   9.802  0.3170 -0.0669 -0.7852
19191SOL    HW159014   7.705   2.726   9.729 -1.6143 -0.1410  0.7439
19191SOL    HW259015   7.761   2.837   9.816  1.0674  0.0115 -1.0806
19192SOL     OW59016   6.595   1.558  10.388  0.2715 -0.3428 -0.6514
19192SOL    HW159017   6.597   1.549  10.292  1.5298 -1.9583 -0.5213
19192SOL    HW259018   6.645   1.483  10.420  1.0250  0.8983  1.2446
19193SOL     OW59019   6.721   1.042  10.004  0.1077 -0.4736 -0.0304
19193SOL    HW159020   6.629   1.026  10.028 -0.4279 -1.4931 -2.4996
19193SOL    HW259021   6.762   0.956  10.010  1.3344  0.1876  2.3879
19194SOL     OW59022   6.258   3.553   8.564  0.0739  0.4146  0.0365
19194SOL    HW159023   6.190   3.530   8.500  1.2961  0.2956 -1.2643
19194SOL    HW259024   6.322   3.482   8.556  1.1740  1.3857  0.0036
19195SOL     OW59025   1.002   1.347   8.773 -0.6251 -0.0659  0.4455
19195SOL    HW159026   1.073   1.409   8.789 -2.3494  3.0606 -2.5597
19195SOL    HW259027   0.937   1.368   8.841  0.0478 -0.8450  1.3551
19196SOL     OW59028   7.326   7.745   9.871  0.4183 -0.1919  0.0333
19196SOL    HW159029   7.344   7.693   9.949  2.5397 -0.1328 -0.3510
19196SOL    HW259030   7.340   7.684   9.798 -2.2507 -0.4585 -0.3682
19197SOL     OW59031   0.387   1.377  10.242  0.4838 -0.2872  0.0073
19197SOL    HW159032   0.374   1.431  10.320  1.0438  0.0496 -0.1326
19197SOL    HW259033   0.416   1.438  10.175 -1.6469 -0.2616 -0.9651
19198SOL     OW59034   5.294   0.845   9.445 -0.1480 -0.3959  0.4095
19198SOL    HW159035   5.346   0.913   9.403 -0.2820 -0.5223  0.0375
19198SOL    HW259036   5.207   0.852   9.404  0.1168 -1.4622 -0.3831
19199SOL     OW59037   7.031   0.865   9.711 -0.3476 -0.0949 -0.4114
19199SOL    HW159038   7.010   0.905   9.627 -2.3505 -1.9929 -0.8884
19199SOL    HW259039   6.947   0.854   9.755  0.1854 -2.6073  0.1716
19200SOL     OW59040   7.070   1.199   0.522  0.4227 -0.1033  0.5584
19200SOL    HW159041   7.099   1.213   0.431 -0.4098 -0.6458  0.1955
19200SOL    HW259042   7.104   1.113   0.546  0.2503 -0.1633  0.5923
19201SOL     OW59043   5.186   1.401   4.325  0.1512 -0.2478  0.3788
19201SOL    HW159044   5.250   1.413   4.255 -0.6444 -0.3954 -0.3838
19201SOL    HW259045   5.131   1.479   4.320 -1.2450 -1.2590 -0.5917
19202SOL     OW59046   5.750   6.363  11.479 -0.4142 -0.0217  0.3852
19202SOL    HW159047   5.768   6.278  11.439  0.3230  0.0390  0.5792
19202SOL    HW259048   5.801   6.425  11.427  0.8227  0.0149  1.6135
19203SOL     OW59049   7.253   1.884  10.343  0.0343  0.2692 -0.1008
19203SOL    HW159050   7.317   1.849  10.404  0.8651 -0.8214 -1.5246
19203SOL    HW259051   7.247   1.818  10.273 -3.3609 -0.1358  0.4016
19204SOL     OW59052   6.595   0.767  12.090  0.5938 -0.1294  1.0596
19204SOL    HW159053   6.522   0.743  12.032  0.6944 -0.1934  0.9576
19204SOL    HW259054   6.640   0.684  12.106  0.9435 -0.0151  0.7064
19205SOL     OW59055   7.936   3.336  11.413 -0.4443  0.1810 -0.1541
19205SOL    HW159056   7.977   3.350  11.499  0.8054  0.4459 -0.7713
19205SOL    HW259057   8.009   3.340  11.351 -1.3034 -0.2224 -1.2149
19206SOL     OW59058   5.997   0.739  11.054 -0.1836 -0.2846 -0.1009
19206SOL    HW159059   5.950   0.734  10.971  0.7844 -1.0242 -0.6291
19206SOL    HW259060   6.074   0.792  11.035 -1.3109  1.9115  1.0509
19207SOL     OW59061   0.050   1.349  11.442 -0.5613  0.2524 -0.8730
19207SOL    HW159062   0.034   1.428  11.390  0.1763  0.6335 -0.5311
19207SOL    HW259063   0.053   1.279  11.377 -0.6467  0.5832 -1.2428
19208SOL     OW59064   6.210   1.554  11.815 -0.1089 -0.3536 -0.0941
19208SOL    HW159065   6.168   1.638  11.796 -0.0239  0.6220  3.3110
19208SOL    HW259066   6.194   1.501  11.737 -3.5354  1.5436 -0.8918
19209SOL     OW59067   5.771   7.806  11.397 -0.4581  0.4240 -0.2355
19209SOL    HW159068   5.688   7.761  11.386 -1.1827  1.4917  0.6031
19209SOL    HW259069   5.750   7.899  11.382  0.4943  0.7518  0.3668
19210SOL     OW59070   6.494   0.245  10.973  0.1865 -1.2031 -0.6364
19210SOL    HW159071   6.525   0.288  11.052 -2.5732  0.8203 -0.4711
19210SOL    HW259072   6.433   0.177  11.005 -2.7914  1.1493 -0.8180
19211SOL     OW59073   5.855   1.680   0.486  0.7906 -0.0318  0.4142
19211SOL    HW159074   5.856   1.732   0.406 -1.4147 -1.8317 -0.8780
19211SOL    HW259075   5.944   1.689   0.521  2.1436  0.0410 -2.7240
19212SOL     OW59076   6.013   2.642  12.063 -0.6595 -0.4756 -0.3707
19212SOL    HW159077   6.018   2.556  12.020 -0.0153  0.5887 -2.5820
19212SOL    HW259078   6.105   2.669  12.073 -0.8623  0.7256 -1.4474
19213SOL     OW59079   5.227   0.995  11.177 -0.3178  0.1746 -0.2016
19213SOL    HW159080   5.249   0.915  11.128  0.1269 -1.6874  2.7703
19213SOL    HW259081   5.276   1.064  11.133  1.4916 -1.6710 -1.2713
19214SOL     OW59082   7.115   2.471  11.468  0.2440 -0.1147  0.4890
19214SOL    HW159083   7.142   2.379  11.462  2.0179  0.3786  0.3359
19214SOL    HW259084   7.075   2.489  11.383 -2.3913 -1.3637  1.3692
19215SOL     OW59085   6.614   7.352  12.415 -0.6577  0.5326  0.1587
19215SOL    HW159086   6.601   7.330  12.322 -0.6717  1.6015 -0.1090
19215SOL    HW259087   6.529   7.382  12.445 -0.8598 -0.6038  0.7628
19216SOL     OW59088   0.534   7.846  10.113  0.4367 -0.3853 -0.0295
19216SOL    HW159089   0.593   7.902  10.063 -1.6230  1.0865 -0.9727
19216SOL    HW259090   0.451   7.848  10.064 -0.4147 -2.3833  1.1860
19217SOL     OW59091   6.301   1.784   0.855 -0.4051  0.4632 -0.2610
19217SOL    HW159092   6.322   1.693   0.834  1.5127  0.6476  0.7082
19217SOL    HW259093   6.382   1.833   0.838 -1.3665  2.0077 -0.6756
19218SOL     OW59094   7.286   2.158  10.076 -0.0253  0.2135  0.1086
19218SOL    HW159095   7.298   2.250  10.052 -0.2434  0.0841 -0.5284
19218SOL    HW259096   7.260   2.160  10.168  3.1620  0.5883  1.1210
19219SOL     OW59097   7.571   2.320  11.474  0.1213 -0.0223  0.2036
19219SOL    HW159098   7.617   2.335  11.392 -0.0722 -0.1583  0.0683
19219SOL    HW259099   7.495   2.266  11.449 -0.2702  0.4365  0.3767
19220SOL     OW59100   5.221   6.854   0.786  0.1451 -0.0333 -0.2381
19220SOL    HW159101   5.248   6.773   0.829 -1.0393 -0.3755 -0.0937
19220SOL    HW259102   5.135   6.874   0.824  0.5704  1.4973 -0.0056
19221SOL     OW59103   0.151   0.534  11.263 -0.4382  0.3547 -0.2316
19221SOL    HW159104   0.131   0.596  11.333 -3.1241 -0.4232 -0.1953
19221SOL    HW259105   0.108   0.571  11.186 -0.7688 -0.6852 -0.5606
19222SOL     OW59106   5.662   7.600   0.097 -0.2600 -0.0251  0.0972
19222SOL    HW159107   5.622   7.675   0.141  2.8129  2.4450 -0.9073
19222SOL    HW259108   5.737   7.577   0.152  0.3194 -0.6601 -0.9260
19223SOL     OW59109   4.940   1.085  11.095 -0.6030 -0.0740 -0.0456
19223SOL    HW159110   5.030   1.054  11.107 -0.8727 -0.4530  1.1377
19223SOL    HW259111   4.950   1.173  11.060  0.1975 -0.6838 -1.4444
19224SOL     OW59112   6.846   1.801   0.000  0.6494  0.2220 -0.1436
19224SOL    HW159113   6.789   1.779  -0.073  1.1523 -0.7180 -0.2715
19224SOL    HW259114   6.932   1.815  -0.039  0.5270  1.5957  0.0519
19225SOL     OW59115   6.158   4.349   9.912  0.0808 -0.1692 -0.1935
19225SOL    HW159116   6.196   4.270   9.873  0.8718 -1.3425  2.6978
19225SOL    HW259117   6.165   4.335  10.006 -1.4987  2.5663  0.4373
19226SOL     OW59118   7.288   3.193  10.845 -0.0336  0.2190  0.2612
19226SOL    HW159119   7.372   3.238  10.834  0.4748 -1.1186 -1.8330
19226SOL    HW259120   7.226   3.263  10.866  1.1134  1.6195 -0.8219
19227SOL     OW59121   5.750   1.432   0.387 -0.6359  0.0376  0.2302
19227SOL    HW159122   5.813   1.386   0.443 -0.5882 -0.8644 -0.5393
19227SOL    HW259123   5.765   1.525   0.406  2.9495  0.0937 -1.9203
19228SOL     OW59124   7.003   1.491  12.379 -0.4952 -0.1186 -0.7723
19228SOL    HW159125   6.970   1.487  12.289 -0.1108 -0.6409 -0.8937
19228SOL    HW259126   6.932   1.530  12.429 -0.7846 -0.0007 -1.2733
19229SOL     OW59127   6.615   4.156  11.259  0.7806  0.1464 -0.7036
19229SOL    HW159128   6.560   4.102  11.315 -1.0840  1.6765 -0.9466
19229SOL    HW259129   6.662   4.094  11.203 -1.7169 -1.2449 -1.3844
19230SOL     OW59130   7.202   6.817  12.276 -0.0284 -0.8801  0.1412
19230SOL    HW159131   7.168   6.776  12.356  0.6621 -0.7602  0.4968
19230SOL    HW259132   7.287   6.852  12.301 -0.1196 -0.2066 -0.4588
19231SOL     OW59133   4.282   2.608  11.727 -0.0881 -1.0801  0.2301
19231SOL    HW159134   4.322   2.662  11.659  1.4080 -1.8847  0.4356
19231SOL    HW259135   4.304   2.652  11.809 -1.3101 -0.4846  0.2730
19232SOL     OW59136   5.599   1.214  10.899  0.2080 -0.2037 -0.1373
19232SOL    HW159137   5.591   1.132  10.849  2.0338 -0.1551 -0.5972
19232SOL    HW259138   5.600   1.282  10.832 -2.1543  0.3281  0.2852
19233SOL     OW59139   7.767   1.087  11.154  0.4181 -0.7931 -0.5511
19233SOL    HW159140   7.858   1.092  11.184  0.7744 -1.2492 -1.5406
19233SOL    HW259141   7.744   1.178  11.134  0.4891 -0.6111  0.1558
19234SOL     OW59142   5.986   1.507  12.476 -0.4343 -0.0988  0.4361
19234SOL    HW159143   5.912   1.455  12.508 -3.7992  1.6090 -3.5203
19234SOL    HW259144   6.023   1.547  12.554 -3.4580 -1.4151  2.7415
19235SOL     OW59145   6.544   6.218  11.968 -0.0859  0.2817  0.2282
19235SOL    HW159146   6.605   6.153  11.933 -0.0280  0.6699 -0.3998
19235SOL    HW259147   6.574   6.233  12.058  1.6724  1.5879 -0.5317
19236SOL     OW59148   7.842   1.863  12.082 -0.3790  0.4591  0.2549
19236SOL    HW159149   7.806   1.792  12.030  1.8773 -0.8116  0.3090
19236SOL    HW259150   7.840   1.939  12.024  0.5493 -0.5398 -1.1436
19237SOL     OW59151   5.927   0.307   0.011 -0.5221  0.0100  0.4876
19237SOL    HW159152   5.914   0.376   0.076 -0.0550 -0.2725  0.8808
19237SOL    HW259153   5.885   0.342  -0.068  1.7670  1.8538 -0.0445
19238SOL     OW59154   6.298   0.239  12.210 -0.3692  0.1325  0.2848
19238SOL    HW159155   6.278   0.177  12.141 -0.5369 -0.2975  0.7139
19238SOL    HW259156   6.375   0.287  12.179  0.0622 -0.6299  0.1734
19239SOL     OW59157   6.576   1.643   9.985 -0.0713  0.1694 -0.3586
19239SOL    HW159158   6.670   1.661   9.989  0.1492 -0.9131 -0.5187
19239SOL    HW259159   6.569   1.548   9.987 -1.0467  0.1380 -2.5415
19240SOL     OW59160   7.771   1.043  12.305  0.3964 -0.3896 -0.4369
19240SOL    HW159161   7.733   1.131  12.294  0.9849 -0.1613 -0.6935
19240SOL    HW259162   7.743   1.015  12.392  0.4012  0.1558 -0.2553
19241SOL     OW59163   5.350   1.809   9.639 -0.0906  0.2405  0.6522
19241SOL    HW159164   5.366   1.810   9.734  1.4399 -0.5655  0.4276
19241SOL    HW259165   5.264   1.851   9.629  0.7461  2.5664  2.2026
19242SOL     OW59166   6.930   0.621   0.365  0.1561  0.2571 -0.8841
19242SOL    HW159167   6.906   0.561   0.295 -0.7978  0.3211 -0.6293
19242SOL    HW259168   7.026   0.623   0.364  0.1780 -0.7335 -1.3333
19243SOL     OW59169   5.641   1.955  11.330  0.4970 -0.5073 -0.0438
19243SOL    HW159170   5.603   2.012  11.263  0.6939 -2.0217 -1.5079
19243SOL    HW259171   5.617   1.997  11.413 -0.0504  1.2438 -1.0266
19244SOL     OW59172   7.529   0.243  11.816  0.1645  0.1996 -0.6230
19244SOL    HW159173   7.493   0.325  11.783 -2.3864 -0.6134 -0.0435
19244SOL    HW259174   7.471   0.175  11.783  1.5875 -1.3073 -0.1917
19245SOL     OW59175   6.356   1.499   0.763 -0.2443  0.5776 -0.4598
19245SOL    HW159176   6.277   1.460   0.723  0.2139 -1.2563  0.2986
19245SOL    HW259177   6.385   1.433   0.826  1.6070  1.4529 -0.3507
19246SOL     OW59178   6.670   1.839  10.437  0.4214  0.4121  0.1021
19246SOL    HW159179   6.712   1.858  10.353  0.2799 -0.3615 -0.1561
19246SOL    HW259180   6.623   1.757  10.422  1.1166 -0.2088  1.1828
19247SOL     OW59181   5.524   6.442  12.379 -0.4620  0.2666 -0.3204
19247SOL    HW159182   5.585   6.481  12.441  0.2754 -0.1255 -0.7781
19247SOL    HW259183   5.573   6.370  12.339 -1.3257 -0.2513 -0.4874
19248SOL     OW59184   5.700   6.059  11.262  0.4666 -0.1488  0.2197
19248SOL    HW159185   5.782   6.047  11.214  0.0786  1.1317 -0.8275
19248SOL    HW259186   5.674   5.970  11.287  2.4685 -0.5439  1.1254
19249SOL     OW59187   6.810   0.680   1.007  0.1865 -0.2511  0.2753
19249SOL    HW159188   6.843   0.739   0.940 -2.4001 -0.5946 -1.3973
19249SOL    HW259189   6.778   0.737   1.076  0.3280  0.1915 -0.0216
19250SOL     OW59190   7.325   2.077  11.688  0.0141 -0.3519  0.2521
19250SOL    HW159191   7.339   2.172  11.691 -1.1195 -0.1817  1.2919
19250SOL    HW259192   7.413   2.040  11.693  0.5283  0.6341 -0.9188
19251SOL     OW59193   6.142   7.683  11.329  0.4021 -0.0669 -0.3672
19251SOL    HW159194   6.129   7.595  11.365 -0.5827  0.3749  0.4049
19251SOL    HW259195   6.181   7.668  11.243 -0.1994 -1.2779 -0.4534
19252SOL     OW59196   6.365   7.773  10.739 -0.1625  0.2577  0.0168
19252SOL    HW159197   6.448   7.760  10.785 -0.1536 -0.4834 -0.1974
19252SOL    HW259198   6.299   7.734  10.796 -0.3239  0.5580  0.0371
19253SOL     OW59199   7.240   1.150  11.709  0.0691 -0.5140 -0.2381
19253SOL    HW159200   7.289   1.092  11.768 -1.6218 -0.6180  1.1260
19253SOL    HW259201   7.151   1.115  11.710 -0.3832  0.5368 -1.5088
19254SOL     OW59202   5.299   7.911  10.738  0.2147 -0.0215 -0.1060
19254SOL    HW159203   5.379   7.867  10.710 -0.0100 -0.3441 -0.2447
19254SOL    HW259204   5.310   7.924  10.832 -1.1607 -3.4793  0.6750
19255SOL     OW59205   5.866   1.699   0.817  0.0184  0.0647  0.1583
19255SOL    HW159206   5.772   1.701   0.799  0.2222  2.0592 -0.9761
19255SOL    HW259207   5.872   1.694   0.912 -1.2523  0.2872  0.2737
19256SOL     OW59208   6.139   1.539  11.160  0.6969 -0.2394 -0.3737
19256SOL    HW159209   6.232   1.520  11.146  0.2705 -3.5233  0.3263
19256SOL    HW259210   6.100   1.530  11.073  0.9666  0.8635 -0.6202
19257SOL     OW59211   6.334   3.355  10.596 -0.1655 -0.6893 -0.0107
19257SOL    HW159212   6.288   3.400  10.525 -1.4314 -1.1303  0.4967
19257SOL    HW259213   6.408   3.312  10.554 -0.3590 -0.1650 -0.9017
19258SOL     OW59214   6.610   7.704  11.951  0.3697 -0.1619 -0.6175
19258SOL    HW159215   6.657   7.781  11.921  1.6300  1.0448  3.6618
19258SOL    HW259216   6.524   7.736  11.976  0.3654 -0.4207 -0.2790
19259SOL     OW59217   5.335   0.860  12.096  0.2161 -0.3886  0.1039
19259SOL    HW159218   5.389   0.871  12.174 -1.3989 -1.0742  1.3690
19259SOL    HW259219   5.318   0.766  12.091  2.0048 -0.6835 -2.3332
19260SOL     OW59220   6.059   2.905   9.648 -0.0875 -0.5991 -0.3708
19260SOL    HW159221   6.001   2.894   9.573 -0.2052  1.2646 -0.6072
19260SOL    HW259222   6.145   2.877   9.616 -0.5373 -1.8848 -0.5042
19261SOL     OW59223   4.822   7.808  11.192  0.4245  0.3052  0.4674
19261SOL    HW159224   4.856   7.743  11.130  0.2423 -0.5329  1.2133
19261SOL    HW259225   4.900   7.850  11.228  0.5598  0.2434  0.2491
19262SOL     OW59226   6.943   2.146   0.856 -0.3940  0.4595  0.2909
19262SOL    HW159227   6.939   2.133   0.761 -1.7796  0.5651  0.3095
19262SOL    HW259228   7.022   2.099   0.883  1.4205  2.4377 -1.1972
19263SOL     OW59229   5.882   1.105  11.578  0.2622  0.1137  0.9607
19263SOL    HW159230   5.970   1.142  11.576  1.2246 -1.8840 -2.1796
19263SOL    HW259231   5.891   1.024  11.628 -0.0435  0.4009  1.4861
19264SOL     OW59232   0.068   0.947  11.608  0.2371 -0.4125 -0.9595
19264SOL    HW159233   0.024   0.896  11.675 -0.1073  0.9615 -0.0975
19264SOL    HW259234  -0.003   0.996  11.565  0.8462  1.7416  0.3669
19265SOL     OW59235   7.737   1.572  10.114  0.1970 -0.3572  0.1164
19265SOL    HW159236   7.671   1.637  10.088  2.9114  2.4940 -0.2106
19265SOL    HW259237   7.746   1.583  10.209  2.1634  1.4092 -0.2142
19266SOL     OW59238   0.974   2.526  11.475 -0.0801  0.1666 -0.3526
19266SOL    HW159239   0.924   2.457  11.518  0.1899  0.0345 -0.2503
19266SOL    HW259240   0.931   2.607  11.502  0.4384  0.1218  0.6440
19267SOL     OW59241   6.917   7.858  12.081  0.0127  0.0997  0.2104
19267SOL    HW159242   6.946   7.772  12.051 -1.0406 -0.4781  0.7752
19267SOL    HW259243   6.857   7.888  12.012  0.1899  0.2743  0.1308
19268SOL     OW59244   6.018   7.458  10.195  0.3808  0.0376 -0.5066
19268SOL    HW159245   6.054   7.502  10.119 -0.2922 -0.7458 -1.3070
19268SOL    HW259246   6.065   7.374  10.198  0.7760  0.2802  0.2579
19269SOL     OW59247   0.374   1.669  12.182 -0.2047 -0.0975 -0.4570
19269SOL    HW159248   0.468   1.684  12.175 -0.2241  1.6567  1.9905
19269SOL    HW259249   0.334   1.739  12.131 -0.1782  0.5801  0.4351
19270SOL     OW59250   7.095   1.607  11.580  0.4240 -0.2091  0.2802
19270SOL    HW159251   7.169   1.554  11.609  1.4943  2.2250  2.5104
19270SOL    HW259252   7.135   1.676  11.527 -0.3955  0.4383  0.4878
19271SOL     OW59253   6.540   0.430  11.476 -0.2222 -0.0976  0.2422
19271SOL    HW159254   6.540   0.342  11.437 -1.2190 -0.2602  0.5571
19271SOL    HW259255   6.468   0.427  11.540  2.5178 -0.4714  3.6063
19272SOL     OW59256   7.064   1.639  12.043  0.2132 -0.0964 -0.1580
19272SOL    HW159257   7.051   1.598  11.957  1.1444  0.3281 -0.5207
19272SOL    HW259258   7.158   1.655  12.047 -0.0253  1.2753  0.3092
19273SOL     OW59259   7.271   1.783  11.430 -0.3352  0.1144  0.2498
19273SOL    HW159260   7.238   1.786  11.340  1.0028 -1.1774 -0.3189
19273SOL    HW259261   7.219   1.848  11.477 -1.3159  0.5418 -1.3707
19274SOL     OW59262   5.967   0.449   0.288 -0.0215  0.6335  0.2189
19274SOL    HW159263   5.923   0.383   0.341 -2.2062  1.6248 -0.2720
19274SOL    HW259264   5.956   0.531   0.338  2.2957  0.7825  0.6330
19275SOL     OW59265   7.180   0.862  11.446 -0.3762  0.5147  0.0217
19275SOL    HW159266   7.125   0.832  11.374 -0.3896 -0.2960  0.3622
19275SOL    HW259267   7.155   0.807  11.520 -0.2286  1.2130  0.6013
19276SOL     OW59268   7.245   2.675  12.184  0.1771 -0.1925 -0.5340
19276SOL    HW159269   7.223   2.582  12.194 -0.5219 -0.1069 -1.2086
19276SOL    HW259270   7.307   2.678  12.111  1.6973 -0.3103  0.6743
19277SOL     OW59271   5.660   7.241   0.967 -0.1378 -0.4285  1.0834
19277SOL    HW159272   5.679   7.148   0.953  0.7552 -0.5886  3.0169
19277SOL    HW259273   5.628   7.246   1.056 -0.5229  1.0936  0.8840
19278SOL     OW59274   6.957   1.113  11.639  0.4287  0.1901  0.2182
19278SOL    HW159275   6.895   1.177  11.673  2.0263  1.2307  1.3249
19278SOL    HW259276   6.949   1.119  11.544 -1.3656  0.0407  0.3212
19279SOL     OW59277   7.448   1.483  11.915 -0.0379  0.1300  0.5343
19279SOL    HW159278   7.418   1.568  11.947 -1.1354 -0.1252  0.2211
19279SOL    HW259279   7.507   1.504  11.843  0.5422  0.6435  1.1414
19280SOL     OW59280   7.498   1.885  12.008 -0.4298 -0.2297  0.3146
19280SOL    HW159281   7.589   1.861  12.024  0.3645  1.4485 -1.3985
19280SOL    HW259282   7.502   1.968  11.961 -2.7708 -1.0357 -1.5339
19281SOL     OW59283   6.744   0.901   1.133  0.1174 -0.2494  0.0899
19281SOL    HW159284   6.700   0.967   1.079 -0.8164 -0.8189  0.1297
19281SOL    HW259285   6.799   0.952   1.192  0.6537  0.4163 -0.9404
19282SOL     OW59286   7.336   7.975   0.588  0.3250 -0.8802  0.5024
19282SOL    HW159287   7.286   7.930   0.520 -0.3993 -0.2429  0.6093
19282SOL    HW259288   7.329   7.918   0.665 -1.9857  0.1558  1.1334
19283SOL     OW59289   5.665   6.139  11.759 -1.0453 -0.3515 -0.2182
19283SOL    HW159290   5.652   6.198  11.684 -0.8151 -0.0376 -0.0166
19283SOL    HW259291   5.586   6.151  11.812 -0.9708 -0.1696 -0.1451
19284SOL     OW59292   5.863   1.759   1.272  0.2506 -0.0621  0.1027
19284SOL    HW159293   5.893   1.772   1.361 -0.8813 -0.1796  0.5207
19284SOL    HW259294   5.933   1.710   1.229  1.4698  1.2905  0.4789
19285SOL     OW59295   6.329   1.326  11.465 -0.2121  0.3738 -0.1995
19285SOL    HW159296   6.270   1.286  11.401 -0.3383  1.3200 -0.6961
19285SOL    HW259297   6.273   1.385  11.515 -0.2334 -0.7904  1.2008
19286SOL     OW59298   5.937   0.557  11.509  0.4375  0.0990  0.2407
19286SOL    HW159299   5.868   0.504  11.468  1.4829 -1.3668  0.3319
19286SOL    HW259300   5.940   0.527  11.599 -0.2205  1.6658  0.8310
19287SOL     OW59301   5.890   1.172  11.907  0.2100  0.3732  0.2720
19287SOL    HW159302   5.929   1.086  11.921  1.1976  0.7475 -0.0803
19287SOL    HW259303   5.798   1.154  11.887 -0.1734 -0.4547  2.4860
19288SOL     OW59304   6.624   0.342   0.600 -0.2086  0.5774  0.2624
19288SOL    HW159305   6.699   0.358   0.657 -0.8061  0.6764  1.0502
19288SOL    HW259306   6.658   0.291   0.527  0.1515 -1.5861  1.8743
19289SOL     OW59307   0.689   7.628  10.164 -1.2904  0.1703 -0.7341
19289SOL    HW159308   0.630   7.704  10.168  0.0100  1.2833 -1.6659
19289SOL    HW259309   0.643   7.564  10.110 -2.0613  0.6232 -0.6223
19290SOL     OW59310   7.195   2.855  11.736  0.7697  0.0548  0.6142
19290SOL    HW159311   7.241   2.878  11.816  0.4780  0.4943  0.6600
19290SOL    HW259312   7.167   2.939  11.699  0.8660 -0.1422  0.0726
19291SOL     OW59313   5.138   1.863  10.244 -0.4084 -0.1884 -0.5179
19291SOL    HW159314   5.048   1.831  10.251 -0.3002 -0.3264  0.3522
19291SOL    HW259315   5.141   1.939  10.302  0.2831 -0.7555  0.2166
19292SOL     OW59316   6.074   0.596   0.644 -0.2433 -0.6299 -0.3858
19292SOL    HW159317   6.005   0.531   0.629 -1.5547  0.5135  0.4962
19292SOL    HW259318   6.127   0.559   0.715  0.8947 -2.1180 -1.9347
19293SOL     OW59319   4.478   7.733  10.531 -0.1733  0.3876  0.3856
19293SOL    HW159320   4.487   7.730  10.436  0.5387 -0.2680  0.4570
19293SOL    HW259321   4.564   7.761  10.562  0.0170 -0.7047  0.8890
19294SOL     OW59322   0.664   0.063  11.189 -0.3656  0.2420 -0.0773
19294SOL    HW159323   0.632  -0.025  11.210  0.3708  0.1457  0.7145
19294SOL    HW259324   0.728   0.082  11.258 -1.6046  2.0263  0.6445
19295SOL     OW59325   5.316   2.093  10.397 -0.5522 -0.0948  0.2055
19295SOL    HW159326   5.318   2.186  10.418 -0.7908 -0.1020  0.2549
19295SOL    HW259327   5.339   2.090  10.304  0.1503 -0.0408  0.3713
19296SOL     OW59328   5.115   0.990  12.374  0.2220 -0.0742 -0.2845
19296SOL    HW159329   5.156   0.904  12.378  0.2775 -0.1056 -1.3067
19296SOL    HW259330   5.085   1.006  12.464 -0.9499 -1.7318 -0.3185
19297SOL     OW59331   6.586   1.683  10.964 -0.5697  0.4733  0.0652
19297SOL    HW159332   6.658   1.634  10.923  0.3776  0.6096  1.4801
19297SOL    HW259333   6.508   1.631  10.946  0.1199 -0.5071 -0.1933
19298SOL     OW59334   0.653   0.610  11.855 -0.1764  0.4552  0.2810
19298SOL    HW159335   0.687   0.595  11.767 -0.2035 -0.4682  0.4228
19298SOL    HW259336   0.635   0.523  11.889  2.5354  0.5716  2.2995
19299SOL     OW59337   5.524   0.522  11.611 -0.3119 -0.3228 -0.0920
19299SOL    HW159338   5.441   0.546  11.653 -1.1726 -1.6331 -0.9986
19299SOL    HW259339   5.584   0.593  11.636 -1.6809  0.6451  0.5977
19300SOL     OW59340   6.953   2.443  11.691  0.2492  0.0606 -0.0117
19300SOL    HW159341   6.962   2.525  11.740 -1.5355  0.8834 -0.9638
19300SOL    HW259342   6.993   2.460  11.606  0.5445 -0.3105  0.0498
19301SOL     OW59343   7.990   2.210   1.330 -0.0589  0.0587 -0.0158
19301SOL    HW159344   7.956   2.128   1.292 -2.0117  0.8192  0.0069
19301SOL    HW259345   7.963   2.278   1.269  0.4867  0.8357  0.5874
19302SOL     OW59346   5.714   1.745  10.817 -0.2845  0.8536  0.7997
19302SOL    HW159347   5.798   1.720  10.856 -0.3411 -2.5484 -0.8779
19302SOL    HW259348   5.651   1.733  10.888  0.2850  0.4131  1.2486
19303SOL     OW59349   6.226   0.691  11.630 -0.0034 -0.0900  0.3886
19303SOL    HW159350   6.302   0.748  11.616  0.0911 -0.3846 -0.3321
19303SOL    HW259351   6.207   0.700  11.723  1.1554 -0.3081  0.6704
19304SOL     OW59352   5.090   7.755  11.529 -0.1012  0.0507  0.1957
19304SOL    HW159353   5.064   7.672  11.489 -0.1736 -0.4726  1.2815
19304SOL    HW259354   5.164   7.732  11.585  0.2879  0.8432  0.0246
19305SOL     OW59355   6.927   0.438  12.455  0.0305  0.0318  0.0321
19305SOL    HW159356   7.014   0.459  12.489 -0.3588  0.0173  1.0808
19305SOL    HW259357   6.868   0.453  12.529 -0.9727  0.8175 -0.8946
19306SOL     OW59358   7.404   0.137  10.886  0.0180  0.3441  0.0769
19306SOL    HW159359   7.471   0.133  10.954  1.3581  1.7104 -1.0965
19306SOL    HW259360   7.322   0.117  10.932  1.3419 -3.4582  1.1906
19307SOL     OW59361   0.143   2.004   0.369  0.3284 -0.2898  0.1344
19307SOL    HW159362   0.192   1.925   0.393  1.1607  0.2851  0.3756
19307SOL    HW259363   0.188   2.038   0.292 -0.0346 -0.0569  0.0212
19308SOL     OW59364   4.486   2.958   1.790  0.0708  0.0426  0.4187
19308SOL    HW159365   4.458   2.990   1.876  0.0765  0.2981  0.3264
19308SOL    HW259366   4.577   2.987   1.782 -0.6398  2.2098 -0.7014
19309SOL     OW59367   7.601   0.973  11.708  0.2818  0.2944  0.1835
19309SOL    HW159368   7.523   0.980  11.654  0.2873  2.2658  0.3381
19309SOL    HW259369   7.652   0.902  11.669 -0.6639  0.2984 -1.1170
19310SOL     OW59370   6.998   3.267  11.058 -0.0973 -0.2100  0.1388
19310SOL    HW159371   7.036   3.294  11.142 -0.5071  0.9207 -0.0198
19310SOL    HW259372   6.993   3.348  11.007  2.0532 -1.1719 -1.7850
19311SOL     OW59373   0.069   4.187  11.371 -0.3733 -0.4148  0.1946
19311SOL    HW159374  -0.003   4.233  11.327  0.1762  1.7009  1.3684
19311SOL    HW259375   0.108   4.253  11.428  1.0812 -2.1330  1.2917
19312SOL     OW59376   6.420   4.025  10.172 -0.3398 -0.7599  0.0573
19312SOL    HW159377   6.488   4.084  10.206  0.3346  0.6904 -3.3994
19312SOL    HW259378   6.338   4.066  10.197  0.1138  0.4829 -0.4408
19313SOL     OW59379   6.399   1.806  11.279 -0.1823 -0.4270  0.3276
19313SOL    HW159380   6.307   1.820  11.255  0.0297 -1.3546 -1.1598
19313SOL    HW259381   6.444   1.795  11.195  1.2715 -0.1738  1.0448
19314SOL     OW59382   1.257   1.093  11.973  0.1187 -0.0367 -0.2039
19314SOL    HW159383   1.216   1.036  11.909  0.7564 -0.6583 -0.0788
19314SOL    HW259384   1.322   1.143  11.924 -0.7862  0.9618 -0.4065
19315SOL     OW59385   4.841   5.095  10.801  0.2028  0.2525  0.9129
19315SOL    HW159386   4.933   5.102  10.826  0.9592 -1.0134 -1.3031
19315SOL    HW259387   4.841   5.045  10.719 -2.5675 -0.9718  1.5316
19316SOL     OW59388   7.396   7.577  11.286 -0.2390 -0.2778 -0.3663
19316SOL    HW159389   7.310   7.616  11.305 -0.0386 -0.0139  0.0120
19316SOL    HW259390   7.441   7.643  11.233 -0.5733 -0.7640 -1.2778
19317SOL     OW59391   7.949   7.403   0.331 -0.0401 -0.1320  0.0049
19317SOL    HW159392   7.858   7.426   0.347 -0.0774 -0.5968  0.4969
19317SOL    HW259393   7.952   7.374   0.240 -0.5354 -0.8532  0.2172
19318SOL     OW59394   5.838   7.860   0.070  0.1941 -0.5553  0.1610
19318SOL    HW159395   5.800   7.816  -0.005  1.2885  0.1516 -0.8490
19318SOL    HW259396   5.772   7.852   0.139 -1.4269 -0.0466 -1.2572
19319SOL     OW59397   7.836   3.173  11.685 -0.2052  0.1048  0.2444
19319SOL    HW159398   7.807   3.152  11.596 -0.8843  2.1212 -0.0492
19319SOL    HW259399   7.920   3.218  11.673  0.2867 -0.6646  0.7202
19320SOL     OW59400   7.178   0.331   9.996 -0.2314  0.0709 -0.3220
19320SOL    HW159401   7.272   0.323   9.984 -0.1335  0.1047  0.3681
19320SOL    HW259402   7.159   0.423   9.979  0.0671  0.3536  0.8209
19321SOL     OW59403   6.785   1.784  11.365  0.4431  0.4451 -0.2477
19321SOL    HW159404   6.727   1.859  11.357 -0.3124 -0.0753  0.2452
19321SOL    HW259405   6.790   1.767  11.459 -2.4230 -2.3753 -0.4263
19322SOL     OW59406   6.388   1.603  11.462  0.4278  0.8065  0.4010
19322SOL    HW159407   6.387   1.677  11.401 -0.5387 -0.8311 -1.6927
19322SOL    HW259408   6.382   1.526  11.406  1.5690 -0.9097  2.4882
19323SOL     OW59409   1.301   0.602   0.275  0.3691 -0.2606  0.0118
19323SOL    HW159410   1.358   0.550   0.219 -0.2533 -1.5905  0.5785
19323SOL    HW259411   1.220   0.551   0.280 -0.6236  1.2315 -0.1933
19324SOL     OW59412   6.195   4.846  10.884  0.1746  0.1042 -0.0392
19324SOL    HW159413   6.103   4.861  10.866  0.7326  0.8769 -2.6611
19324SOL    HW259414   6.197   4.809  10.972 -2.6840 -0.7079 -0.2255
19325SOL     OW59415   5.793   1.644  11.436  0.6376 -0.6917 -0.0116
19325SOL    HW159416   5.849   1.567  11.436  2.7154  0.7208  0.1356
19325SOL    HW259417   5.854   1.718  11.427 -1.3708  0.8595 -2.0950
19326SOL     OW59418   7.382   1.601  11.066 -0.6957 -0.1515  0.0946
19326SOL    HW159419   7.421   1.630  10.984 -4.1546  0.9357 -1.3195
19326SOL    HW259420   7.381   1.680  11.121  0.2888 -0.5265  0.6834
19327SOL     OW59421   0.142   2.517  11.129  0.5265 -0.0654 -0.0200
19327SOL    HW159422   0.220   2.561  11.160  0.7404 -0.3044 -0.2161
19327SOL    HW259423   0.098   2.581  11.073 -1.6860  1.7054  3.4003
19328SOL     OW59424   5.390   2.669   0.508  0.0700 -0.2442  0.3238
19328SOL    HW159425   5.453   2.671   0.435 -1.0849  0.4851 -0.7044
19328SOL    HW259426   5.349   2.756   0.505  0.0527 -0.1757  1.9249
19329SOL     OW59427   6.671   0.876  11.015  0.0194 -0.2600  0.1253
19329SOL    HW159428   6.671   0.788  11.053 -0.7319  0.4160  1.7851
19329SOL    HW259429   6.725   0.868  10.936 -1.3910 -2.5880 -0.7217
19330SOL     OW59430   7.185   0.005  11.843  0.1342 -0.3426 -0.1794
19330SOL    HW159431   7.243   0.008  11.919  0.8755  1.4160 -0.7533
19330SOL    HW259432   7.113   0.065  11.866  0.4865  0.3891 -0.9276
19331SOL     OW59433   6.693   2.183  11.144 -0.1535 -0.4931 -0.3341
19331SOL    HW159434   6.732   2.167  11.230  0.9524  0.0681 -0.7002
19331SOL    HW259435   6.606   2.216  11.162  0.5496  0.9259  0.6260
19332SOL     OW59436   1.141   1.105   0.240 -0.2026 -0.4358  0.2397
19332SOL    HW159437   1.224   1.151   0.250  0.1178  0.0832 -3.4594
19332SOL    HW259438   1.156   1.019   0.279  1.6233  0.0946  0.7913
19333SOL     OW59439   6.108   0.934  12.226  0.2085  0.1365  0.1702
19333SOL    HW159440   6.093   0.913  12.133  3.2537  0.5936 -0.5235
19333SOL    HW259441   6.047   1.006  12.243  0.7315  1.2004 -2.0063
19334SOL     OW59442   7.125   1.348  10.213 -0.5118  0.0058 -0.2307
19334SOL    HW159443   7.206   1.322  10.169  0.1030  1.1834  0.1475
19334SOL    HW259444   7.069   1.270  10.210  0.5616 -0.7693 -0.6688
19335SOL     OW59445   6.816   1.132   0.281 -0.1625 -0.2201  0.2329
19335SOL    HW159446   6.859   1.202   0.232  1.2449 -0.7299  0.6773
19335SOL    HW259447   6.870   1.055   0.265 -1.2992 -1.0592  0.3046
19336SOL     OW59448   7.173   1.448  10.628 -0.2905  0.5872 -0.2033
19336SOL    HW159449   7.110   1.382  10.600 -0.6760  0.1712  1.5147
19336SOL    HW259450   7.123   1.503  10.690  0.5770  1.2590 -0.0843
19337SOL     OW59451   7.790   3.514  10.945  0.3156  0.3164  0.1974
19337SOL    HW159452   7.719   3.574  10.925  0.6181  0.5055 -0.3112
19337SOL    HW259453   7.832   3.552  11.022  0.7872  1.0076 -0.3922
19338SOL     OW59454   7.517   0.940  12.247  0.3267 -1.0223 -0.3970
19338SOL    HW159455   7.540   0.991  12.325  0.8817 -0.6414 -0.8012
19338SOL    HW259456   7.570   0.861  12.254  1.0748 -0.5722 -0.8480
19339SOL     OW59457   0.195   0.858   0.088 -0.2239  0.4752  0.2210
19339SOL    HW159458   0.241   0.790   0.039 -0.0544 -0.0812  1.1289
19339SOL    HW259459   0.227   0.849   0.178 -1.6190  0.5025  0.7510
19340SOL     OW59460   6.537   7.345   0.392 -0.0616  0.1568 -0.0981
19340SOL    HW159461   6.571   7.431   0.416  1.6955 -0.9408  1.6579
19340SOL    HW259462   6.606   7.306   0.337 -0.9824 -0.0490 -1.1629
19341SOL     OW59463   6.080   1.834   0.975 -0.3378 -0.0583 -0.0373
19341SOL    HW159464   6.049   1.892   0.905 -1.3151 -0.9325 -0.3586
19341SOL    HW259465   6.167   1.806   0.947 -0.5276 -0.0239 -0.6787
19342SOL     OW59466   7.695   0.785  11.531 -0.2726  0.3122 -0.7784
19342SOL    HW159467   7.743   0.832  11.463 -0.8993  0.9168 -0.8206
19342SOL    HW259468   7.611   0.763  11.490 -0.4697  0.2645 -0.3595
19343SOL     OW59469   7.755   0.533  11.296  0.2863  0.0591  0.3681
19343SOL    HW159470   7.802   0.617  11.295 -0.1122  0.2938  1.0088
19343SOL    HW259471   7.684   0.544  11.233  1.7553 -0.7052 -1.5123
19344SOL     OW59472   0.270   2.566  12.461 -0.3816  0.0333  0.2813
19344SOL    HW159473   0.340   2.533  12.517 -0.3926 -0.4301  0.0260
19344SOL    HW259474   0.246   2.491  12.406  0.0874  0.6592 -0.8095
19345SOL     OW59475   6.138   7.624  12.290  0.1242  0.1228 -0.4103
19345SOL    HW159476   6.130   7.719  12.281  1.5726  0.3531  0.3605
19345SOL    HW259477   6.154   7.592  12.201  0.2427  0.6808 -0.5923
19346SOL     OW59478   5.599   6.854  10.704 -0.7273  0.0653  0.1393
19346SOL    HW159479   5.510   6.847  10.737  0.2253 -1.5554  2.5715
19346SOL    HW259480   5.647   6.783  10.745  2.1436  1.9467  0.3668
19347SOL     OW59481   7.707   0.725  12.226 -0.1711 -0.2301  0.4503
19347SOL    HW159482   7.697   0.641  12.180  0.7563 -2.4540  3.9314
19347SOL    HW259483   7.795   0.755  12.202 -0.0882 -0.8231 -0.0090
19348SOL     OW59484   7.991   1.442  12.325  0.1457  0.4929  0.0143
19348SOL    HW159485   8.042   1.362  12.327 -1.5727 -0.6994 -0.9325
19348SOL    HW259486   8.018   1.490  12.404  1.0868 -1.0904  0.7007
19349SOL     OW59487   6.004   0.050  11.743 -0.4774  0.1121 -0.1223
19349SOL    HW159488   5.974   0.078  11.830 -3.2156  1.0641 -1.2695
19349SOL    HW259489   5.963  -0.036  11.731  1.2892 -0.8073  0.1467
19350SOL     OW59490   0.430   1.089   9.910  0.2997 -0.3359 -0.1504
19350SOL    HW159491   0.502   1.067   9.851 -0.5136 -1.5376 -0.7476
19350SOL    HW259492   0.351   1.066   9.861 -0.4746  0.4047  0.7117
19351SOL     OW59493   6.417   1.476  11.154 -0.0090 -0.3068 -0.1722
19351SOL    HW159494   6.510   1.496  11.169 -0.1795 -0.2448  0.8674
19351SOL    HW259495   6.415   1.381  11.139 -0.0817 -0.8496  2.7650
19352SOL     OW59496   5.968   2.972   1.825  0.5507  0.6705  0.0856
19352SOL    HW159497   5.936   2.946   1.739  0.2036 -1.0861  0.6843
19352SOL    HW259498   6.047   3.023   1.808 -0.9882  2.6943 -1.3252
19353SOL     OW59499   5.851   3.884   2.100  0.0227 -0.5214  0.2131
19353SOL    HW159500   5.887   3.968   2.128  0.7252 -0.9256  0.5364
19353SOL    HW259501   5.774   3.908   2.048 -0.8355  0.2744  1.7539
19354SOL     OW59502   7.307   2.700   0.657  0.3168  0.2717 -0.2388
19354SOL    HW159503   7.320   2.770   0.720  0.4062 -0.3460  0.4431
19354SOL    HW259504   7.253   2.739   0.588 -1.5221  0.4188  1.2048
19355SOL     OW59505   7.557   2.376   1.274  0.1330  0.5774  0.5355
19355SOL    HW159506   7.491   2.372   1.343 -0.8485 -1.7499 -0.4166
19355SOL    HW259507   7.516   2.427   1.204 -1.7261 -2.5591 -0.9096
19356SOL     OW59508   6.219   2.265   0.800 -0.9464 -0.4342  0.4576
19356SOL    HW159509   6.131   2.227   0.795 -1.2356  0.3114 -0.2835
19356SOL    HW259510   6.205   2.359   0.787  0.2391 -0.5875 -2.6073
19357SOL     OW59511   6.076   2.393  12.254 -0.5633 -0.6731  0.3068
19357SOL    HW159512   6.050   2.429  12.169  0.1290 -0.3902  0.2089
19357SOL    HW259513   6.165   2.363  12.241  0.3543  1.3066  1.4963
19358SOL     OW59514   5.023   3.688   2.086  0.3652  0.2194  0.1477
19358SOL    HW159515   4.984   3.674   2.173 -2.0918 -0.3764 -0.9717
19358SOL    HW259516   5.017   3.783   2.072 -2.5685 -0.0180 -0.7420
19359SOL     OW59517   4.974   2.404   1.559 -0.2275 -0.2808 -0.5987
19359SOL    HW159518   4.897   2.372   1.512  0.0191  0.1858 -1.3301
19359SOL    HW259519   4.996   2.487   1.516 -1.1566  1.1723  1.5494
19360SOL     OW59520   7.883   3.678   0.036  0.2363  0.3900 -0.8818
19360SOL    HW159521   7.942   3.703   0.107 -0.6211 -0.1392  0.0321
19360SOL    HW259522   7.795   3.699   0.069 -0.1765  0.1076 -1.7706
19361SOL     OW59523   6.494   1.868   0.095 -0.0165 -0.0491  0.0292
19361SOL    HW159524   6.477   1.811   0.169 -2.6082 -2.5611 -2.2892
19361SOL    HW259525   6.550   1.816   0.037 -0.1427  0.8516 -0.9289
19362SOL     OW59526   7.438   3.843  12.284 -0.1710 -0.2192 -0.3070
19362SOL    HW159527   7.365   3.810  12.232  0.0771 -1.6788  0.2403
19362SOL    HW259528   7.399   3.911  12.339 -1.5088 -2.0278  1.0951
19363SOL     OW59529   6.560   3.039   0.468 -0.3523  0.2130 -0.1652
19363SOL    HW159530   6.529   2.949   0.471  0.0406  0.0854  0.1903
19363SOL    HW259531   6.550   3.065   0.376 -2.5153  0.5497  0.1147
19364SOL     OW59532   5.754   1.655   1.723 -0.5794 -0.2437  0.3171
19364SOL    HW159533   5.700   1.693   1.654 -0.0497 -1.8204 -1.0453
19364SOL    HW259534   5.711   1.573   1.745 -0.8556  0.3230  2.0753
19365SOL     OW59535   7.512   2.215   0.297 -0.2294  0.1537 -0.4231
19365SOL    HW159536   7.435   2.244   0.346  0.2110 -0.1169  0.4398
19365SOL    HW259537   7.587   2.241   0.350  0.2007 -3.2699  0.9318
19366SOL     OW59538   5.005   3.369   0.333 -0.0519 -0.1349 -0.2244
19366SOL    HW159539   4.911   3.356   0.319 -0.1557 -0.3706  0.6623
19366SOL    HW259540   5.036   3.286   0.369  0.1606  0.5136  1.1473
19367SOL     OW59541   1.432   3.187   3.217  0.1989  0.3526 -0.9065
19367SOL    HW159542   1.473   3.269   3.246  0.5065  0.3355 -1.2803
19367SOL    HW259543   1.500   3.144   3.165 -0.0148 -0.0698 -0.8366
19368SOL     OW59544   3.749   3.260  12.095  0.1231 -0.7467 -0.1636
19368SOL    HW159545   3.814   3.293  12.033 -0.4437 -1.7374 -1.3401
19368SOL    HW259546   3.765   3.166  12.100 -1.9232 -1.2276 -1.4307
19369SOL     OW59547   6.461   4.062   2.664  0.1288 -0.2983 -0.1162
19369SOL    HW159548   6.407   4.071   2.585  0.7282 -0.7954 -0.5913
19369SOL    HW259549   6.465   3.967   2.679  1.4038 -0.3145 -0.4674
19370SOL     OW59550   6.409   2.917   2.445  0.4047  0.0151 -0.5293
19370SOL    HW159551   6.393   2.837   2.495  1.2033 -1.1969 -2.1430
19370SOL    HW259552   6.344   2.916   2.375  1.0868  0.2209 -1.1804
19371SOL     OW59553   4.717   3.600  11.701  0.0237 -0.2627 -0.0054
19371SOL    HW159554   4.789   3.612  11.639  0.7262  0.0592  0.8543
19371SOL    HW259555   4.646   3.562  11.649  0.8346 -0.6463 -0.8498
19372SOL     OW59556   6.400   0.999   1.394  0.4835 -0.0006 -0.1922
19372SOL    HW159557   6.419   1.060   1.323  2.3986 -0.7893 -0.4325
19372SOL    HW259558   6.313   0.965   1.375 -0.3377  2.1162 -0.4251
19373SOL     OW59559   6.458   2.177   0.681 -0.0140  0.1532  0.0437
19373SOL    HW159560   6.480   2.243   0.615 -1.3871 -2.2647 -3.0643
19373SOL    HW259561   6.375   2.207   0.718 -0.9082 -0.0112 -1.7297
19374SOL     OW59562   1.082   3.608   0.417 -0.6316  0.3254 -0.4538
19374SOL    HW159563   1.126   3.608   0.333  0.1466  2.8943 -0.1372
19374SOL    HW259564   1.070   3.700   0.438 -3.1516 -0.2544  1.0671
19375SOL     OW59565   5.400   3.239   0.009  0.3761  0.0205  0.3169
19375SOL    HW159566   5.420   3.158   0.056  0.2211  0.9163  1.9903
19375SOL    HW259567   5.307   3.254   0.025 -0.4239 -1.0871 -2.6384
19376SOL     OW59568   7.379   1.718   0.052 -0.3314  0.1654 -0.6722
19376SOL    HW159569   7.459   1.740   0.100 -0.2694  2.1402 -1.5984
19376SOL    HW259570   7.318   1.688   0.119 -0.0940  2.3916  0.6300
19377SOL     OW59571   6.554   3.046   0.923 -0.3227 -0.5460 -0.5983
19377SOL    HW159572   6.555   3.097   0.842 -1.2193  0.4393 -0.0103
19377SOL    HW259573   6.624   2.981   0.911 -0.2662 -0.2541 -2.0407
19378SOL     OW59574   5.766   2.178   1.813  0.0389  0.1891 -0.0368
19378SOL    HW159575   5.728   2.216   1.893  1.5959  0.2103  0.7290
19378SOL    HW259576   5.840   2.127   1.845  1.3198  1.0283 -1.5549
19379SOL     OW59577   6.045   2.847   0.152  0.4495  0.3766  0.0363
19379SOL    HW159578   5.950   2.851   0.145  0.4022 -0.9819 -0.5496
19379SOL    HW259579   6.075   2.833   0.062  1.1011 -0.4321  0.3610
19380SOL     OW59580   7.105   2.522   2.687 -0.0109 -0.7687 -0.0550
19380SOL    HW159581   7.085   2.456   2.621 -0.6094  0.4025 -1.0866
19380SOL    HW259582   7.052   2.597   2.662 -0.4427 -0.3663  1.9188
19381SOL     OW59583   3.484   3.493   1.964 -0.5696  0.3616  0.2222
19381SOL    HW159584   3.516   3.484   2.054  1.5542 -0.6661 -0.5570
19381SOL    HW259585   3.446   3.407   1.943 -0.2908  0.3211 -0.1298
19382SOL     OW59586   6.684   2.453   1.930  0.3500 -0.1091 -0.3370
19382SOL    HW159587   6.592   2.446   1.957  0.4467 -0.8471 -0.1559
19382SOL    HW259588   6.731   2.475   2.011  0.5128 -1.2875 -0.0916
19383SOL     OW59589   7.360   5.253  11.786 -0.5479 -0.1318  0.3793
19383SOL    HW159590   7.441   5.303  11.794 -0.6279  0.2670 -1.0655
19383SOL    HW259591   7.389   5.161  11.790 -0.2724 -0.0181  1.8131
19384SOL     OW59592   7.200   2.721   3.315  0.0778 -0.3850 -0.4795
19384SOL    HW159593   7.242   2.667   3.248 -0.7483 -0.9965 -0.5197
19384SOL    HW259594   7.210   2.811   3.283 -1.3834 -0.7422 -2.0736
19385SOL     OW59595   5.858   0.739   1.303 -0.2249  0.2504  0.2343
19385SOL    HW159596   5.819   0.803   1.243 -0.2510  0.6777  0.7058
19385SOL    HW259597   5.802   0.661   1.295 -0.8248  0.6532  0.4604
19386SOL     OW59598   7.099   0.769   1.120 -0.1529  0.0141 -0.6597
19386SOL    HW159599   7.040   0.837   1.153  1.2741  2.0844 -2.1037
19386SOL    HW259600   7.079   0.764   1.026  0.5356 -0.7777 -0.7781
19387SOL     OW59601   6.761   4.474   0.127  0.1631  0.1809  0.0185
19387SOL    HW159602   6.710   4.462   0.207  1.9255 -0.4904  1.0918
19387SOL    HW259603   6.702   4.448   0.057 -1.4116  0.7487  1.0911
19388SOL     OW59604   6.639   3.331   0.002  0.3726 -0.1980  0.2080
19388SOL    HW159605   6.735   3.329  -0.003  0.3977  0.1574  0.5480
19388SOL    HW259606   6.610   3.334  -0.089  0.6670 -1.0480  0.0724
19389SOL     OW59607   7.516   3.253  12.261 -0.9019 -0.0817  0.4258
19389SOL    HW159608   7.584   3.237  12.327 -0.2510 -1.5561 -0.5535
19389SOL    HW259609   7.528   3.345  12.236  1.1067 -0.4460 -0.1081
19390SOL     OW59610   6.514   2.679  12.302 -0.3938 -0.1633  0.4015
19390SOL    HW159611   6.446   2.663  12.367 -1.2491  2.1362  0.1976
19390SOL    HW259612   6.555   2.594  12.287 -1.7023 -1.1760  2.2207
19391SOL     OW59613   6.366   1.387   0.401  0.0660  0.2251  0.3987
19391SOL    HW159614   6.461   1.383   0.394  0.0968 -0.7078  1.1305
19391SOL    HW259615   6.339   1.296   0.412 -1.0547  0.2923 -1.3410
19392SOL     OW59616   0.111   4.099   0.464 -0.4218 -0.2028 -0.6330
19392SOL    HW159617   0.191   4.068   0.421  0.9192  1.3044  0.6676
19392SOL    HW259618   0.095   4.034   0.533  0.4755  0.1908 -0.0375
19393SOL     OW59619   5.617   2.333   0.831 -0.3040  0.2539 -0.0835
19393SOL    HW159620   5.688   2.390   0.802 -0.6770  0.4150 -0.6932
19393SOL    HW259621   5.631   2.251   0.783  0.8079 -0.5535  1.5143
19394SOL     OW59622   6.996   2.825   0.962  0.6062  0.3819  0.1341
19394SOL    HW159623   6.974   2.823   1.055  0.7929 -0.9193  0.1773
19394SOL    HW259624   6.996   2.732   0.936  1.7982  0.6368 -0.8606
19395SOL     OW59625   6.208   3.025  11.669 -0.1316  0.3888 -0.8124
19395SOL    HW159626   6.226   2.980  11.586 -0.7560 -1.6060  0.0854
19395SOL    HW259627   6.113   3.024  11.677 -0.0521 -0.0466  0.2338
19396SOL     OW59628   6.713   2.590   0.111 -0.4973  0.2112  0.2336
19396SOL    HW159629   6.676   2.502   0.102  0.0147  0.0485 -0.2723
19396SOL    HW259630   6.783   2.594   0.047  0.6748  0.3641  1.4717
19397SOL     OW59631   4.344   2.575   1.306  0.1417 -0.4683  0.5799
19397SOL    HW159632   4.405   2.573   1.380 -0.5615 -0.6672  1.1672
19397SOL    HW259633   4.361   2.658   1.262  1.8878 -1.1731 -0.1775
19398SOL     OW59634   7.946   2.253  11.907 -0.1506 -0.6254  0.0533
19398SOL    HW159635   7.867   2.259  11.962 -0.5237  0.7755 -0.6002
19398SOL    HW259636   7.927   2.182  11.846 -0.1848 -1.4541  0.9927
19399SOL     OW59637   5.807   3.610   0.726 -0.4523  0.7307 -0.0803
19399SOL    HW159638   5.738   3.667   0.693  0.4979  0.5914 -2.5616
19399SOL    HW259639   5.764   3.553   0.790 -1.9996  2.3784  0.4061
19400SOL     OW59640   6.227   3.579   0.861  0.2318  0.5192  0.1600
19400SOL    HW159641   6.149   3.551   0.909  1.0611  1.4724  2.1629
19400SOL    HW259642   6.201   3.662   0.819 -0.7377 -0.7070 -1.8113
19401SOL     OW59643   6.109   1.390   1.005 -0.0032  0.3099  0.3340
19401SOL    HW159644   6.092   1.419   0.915  1.5776  0.1746 -0.0515
19401SOL    HW259645   6.067   1.304   1.011  0.6674 -0.1073 -0.6165
19402SOL     OW59646   7.435   4.359   1.741  0.0643  0.0079 -0.2278
19402SOL    HW159647   7.471   4.446   1.756  1.3818 -0.3472 -1.1611
19402SOL    HW259648   7.374   4.369   1.669 -1.0522  0.4369  0.7404
19403SOL     OW59649   6.248   1.939   1.205  0.6720  0.5287  0.1036
19403SOL    HW159650   6.179   1.893   1.158  1.8477 -0.3187 -0.8450
19403SOL    HW259651   6.290   1.993   1.139  1.1125  0.8075  0.6045
19404SOL     OW59652   6.927   2.554  12.064  0.7172  0.2447  0.5283
19404SOL    HW159653   6.922   2.575  11.971 -1.6801 -0.1148  0.5093
19404SOL    HW259654   6.969   2.468  12.068  0.0181 -0.1516 -0.3253
19405SOL     OW59655   7.323   3.799   2.268  0.2368  0.0992 -0.3366
19405SOL    HW159656   7.332   3.724   2.328  0.8736  0.4032 -0.0489
19405SOL    HW259657   7.268   3.766   2.197  0.1836 -0.5247 -0.0127
19406SOL     OW59658   5.024   2.172  11.816 -0.4646  0.1647 -0.4046
19406SOL    HW159659   5.008   2.111  11.744  0.1867 -1.4329  0.7345
19406SOL    HW259660   5.118   2.190  11.811 -0.4289  0.0933  0.0065
19407SOL     OW59661   7.126   3.852   1.750 -0.6848 -0.0452 -0.0271
19407SOL    HW159662   7.157   3.941   1.735 -1.2246  0.4386  1.5041
19407SOL    HW259663   7.034   3.863   1.775 -0.6485 -0.9900  0.5766
19408SOL     OW59664   5.700   2.326   1.090 -0.1587  0.3499  0.0089
19408SOL    HW159665   5.671   2.308   1.001  0.7553  1.0991 -0.4521
19408SOL    HW259666   5.727   2.417   1.090  2.3707 -0.3125  0.3182
19409SOL     OW59667   5.698   1.493  11.708  0.5529 -0.1870 -0.0071
19409SOL    HW159668   5.611   1.469  11.740 -0.1074 -0.2677 -1.7946
19409SOL    HW259669   5.697   1.589  11.706  0.3664 -0.1967 -0.3931
19410SOL     OW59670   5.253   2.260   3.646  0.1657 -0.3147  0.1068
19410SOL    HW159671   5.274   2.273   3.738  0.8581 -0.9901  0.0629
19410SOL    HW259672   5.338   2.263   3.602 -0.3424  2.1380 -0.8108
19411SOL     OW59673   7.433   3.958   0.446  0.6146  0.2345  0.3932
19411SOL    HW159674   7.446   4.046   0.481  0.6296 -0.8226  3.3546
19411SOL    HW259675   7.338   3.943   0.453  0.1049  0.9687 -2.9413
19412SOL     OW59676   6.423   3.590   2.276 -0.2422 -0.5223  0.4810
19412SOL    HW159677   6.376   3.651   2.334  0.7028  0.6612  0.0562
19412SOL    HW259678   6.496   3.558   2.329 -0.4158 -0.8556  0.5210
19413SOL     OW59679   7.160   2.815  12.424  0.1302  0.1788  0.1593
19413SOL    HW159680   7.141   2.740  12.368  0.8256 -0.3215  0.5834
19413SOL    HW259681   7.180   2.886  12.362  1.2063 -0.4532 -0.2329
19414SOL     OW59682   5.914   4.240   1.065  0.1326 -1.1786 -0.0520
19414SOL    HW159683   5.984   4.278   1.012 -0.1469  0.3189  0.5933
19414SOL    HW259684   5.925   4.145   1.056  2.5089 -0.9903  0.4050
19415SOL     OW59685   5.782   1.249   1.635 -0.0873 -0.3653  0.3799
19415SOL    HW159686   5.734   1.169   1.616 -0.9942  0.3573 -0.5253
19415SOL    HW259687   5.786   1.254   1.730  0.4895 -1.7594  0.4461
19416SOL     OW59688   6.748   0.037   1.362 -0.4885  1.0262 -0.1973
19416SOL    HW159689   6.787  -0.006   1.439  1.1533 -0.4881 -1.7603
19416SOL    HW259690   6.653   0.029   1.376 -0.2567 -1.3416  0.6219
19417SOL     OW59691   6.673   1.402   1.100  0.1962 -0.3952 -0.2583
19417SOL    HW159692   6.609   1.371   1.164  1.0890  0.1983  0.9689
19417SOL    HW259693   6.629   1.475   1.056 -0.2960 -0.5649 -0.0565
19418SOL     OW59694   6.848   1.829   0.273  0.1267 -0.4523  0.6116
19418SOL    HW159695   6.911   1.759   0.283  3.0327  1.7272 -0.8637
19418SOL    HW259696   6.848   1.848   0.179  1.1643  2.8296  1.1339
19419SOL     OW59697   7.237   1.805   0.398 -0.2191 -0.2924 -0.4191
19419SOL    HW159698   7.236   1.876   0.334  1.5356  0.9721  0.8435
19419SOL    HW259699   7.301   1.833   0.464 -1.4765 -1.8008  1.5816
19420SOL     OW59700   6.871   3.522   1.446  0.1574 -0.2438 -0.3970
19420SOL    HW159701   6.896   3.459   1.514 -2.5197 -1.3466 -0.3264
19420SOL    HW259702   6.910   3.487   1.366  0.1795 -1.0185 -0.0601
19421SOL     OW59703   0.010   3.186   0.584 -0.1068 -0.0635 -0.1301
19421SOL    HW159704  -0.065   3.194   0.643  0.1141  0.4627  0.0853
19421SOL    HW259705  -0.029   3.164   0.499 -0.4444 -0.5925  0.1502
19422SOL     OW59706   7.239   2.854   2.407  0.1210  0.4152 -0.1719
19422SOL    HW159707   7.242   2.758   2.415  3.0643  0.4777  0.4643
19422SOL    HW259708   7.312   2.885   2.460 -1.4686  3.1480  0.6255
19423SOL     OW59709   6.302   7.779  12.007  0.1853  0.6085  0.4314
19423SOL    HW159710   6.262   7.778  11.920 -1.6024  1.0542  1.1958
19423SOL    HW259711   6.312   7.687  12.030  1.0854  0.4778 -0.3893
19424SOL     OW59712   5.532   2.012  11.659 -0.3554  0.2571 -0.0101
19424SOL    HW159713   5.619   2.031  11.694 -0.0452  0.8867 -1.0995
19424SOL    HW259714   5.522   2.070  11.585 -0.4182 -1.9867 -1.8765
19425SOL     OW59715   6.902   3.354  12.479 -0.1863 -0.2469 -0.2268
19425SOL    HW159716   6.912   3.427  12.541 -1.2744 -0.4045  0.1618
19425SOL    HW259717   6.947   3.281  12.522  0.5992  0.0922 -0.4529
19426SOL     OW59718   6.410   6.816  10.344  0.1077  0.4607  0.1563
19426SOL    HW159719   6.492   6.861  10.364  1.5230 -0.9396 -2.1090
19426SOL    HW259720   6.420   6.729  10.382 -0.2593  0.2266 -0.2636
19427SOL     OW59721   4.007   2.789  12.035  0.3412 -0.1515  0.3002
19427SOL    HW159722   4.057   2.708  12.036  1.7095  0.6613  0.0609
19427SOL    HW259723   4.004   2.814  11.943  1.1650  0.7867  0.5080
19428SOL     OW59724   6.504   1.573  12.126  0.0664  0.3961 -0.2621
19428SOL    HW159725   6.593   1.607  12.115  0.7964 -2.0270 -3.2944
19428SOL    HW259726   6.512   1.480  12.107 -3.1987  0.1370 -0.8935
19429SOL     OW59727   5.186   1.607   0.510  0.0335  0.2704 -0.7608
19429SOL    HW159728   5.110   1.638   0.460 -0.2090  0.0327 -0.5437
19429SOL    HW259729   5.261   1.633   0.457 -0.1462  1.4723 -0.4507
19430SOL     OW59730   6.313   2.203   1.359  0.3065 -0.4923 -0.3217
19430SOL    HW159731   6.349   2.121   1.325  0.0742 -1.0068  0.6492
19430SOL    HW259732   6.247   2.229   1.294  1.1194 -0.5011 -1.1760
19431SOL     OW59733   5.869   4.752   1.319 -0.5480  0.4959 -0.1762
19431SOL    HW159734   5.898   4.709   1.239  0.9833  0.1069  0.5385
19431SOL    HW259735   5.791   4.802   1.294 -1.5490 -1.5515 -1.3432
19432SOL     OW59736   6.515   2.101  11.729  0.2044  0.5888 -0.3201
19432SOL    HW159737   6.450   2.144  11.784 -0.1689  0.4051 -0.6126
19432SOL    HW259738   6.569   2.172  11.696  0.3868  0.7070  0.2189
19433SOL     OW59739   6.803   2.814  11.972  0.3543 -0.0304  0.0250
19433SOL    HW159740   6.871   2.764  11.927  0.2808 -0.7393  0.6781
19433SOL    HW259741   6.800   2.777  12.060 -1.0058 -0.1564 -0.0488
19434SOL     OW59742   4.572   0.954  11.039  0.0656 -0.1292 -0.0734
19434SOL    HW159743   4.571   1.026  11.103 -2.4425  1.9917 -2.2260
19434SOL    HW259744   4.568   0.875  11.092 -2.2441  1.4944  2.4978
19435SOL     OW59745   4.222   2.151   1.112 -0.2172  0.6061  0.0691
19435SOL    HW159746   4.257   2.062   1.118  0.7824  0.9224 -0.8003
19435SOL    HW259747   4.265   2.198   1.184  2.5518  1.4034 -1.9266
19436SOL     OW59748   6.524   0.678   0.801  0.5038 -0.3506 -0.6406
19436SOL    HW159749   6.466   0.625   0.746 -0.1471 -1.9536  1.4850
19436SOL    HW259750   6.612   0.648   0.779  0.3621 -0.0887 -1.6479
19437SOL     OW59751   7.044   4.128   1.594 -0.1023 -0.1606  0.1829
19437SOL    HW159752   7.097   4.201   1.625  0.4632 -0.5453  0.1365
19437SOL    HW259753   7.107   4.064   1.562 -0.6429 -0.0712 -1.1287
19438SOL     OW59754   6.403   3.959  11.926  0.0649 -0.4312  0.0422
19438SOL    HW159755   6.420   4.015  11.850 -0.8080 -0.8002 -0.4427
19438SOL    HW259756   6.441   3.875  11.903 -1.2233 -0.8908 -0.5167
19439SOL     OW59757   0.276   4.939  11.544 -0.0733 -0.3631  0.3690
19439SOL    HW159758   0.247   4.918  11.633 -0.2058  1.6829  0.8690
19439SOL    HW259759   0.196   4.966  11.499  0.1584 -0.3623 -0.0460
19440SOL     OW59760   5.595   3.044  11.393  0.2160  0.3926 -0.0337
19440SOL    HW159761   5.558   2.957  11.408 -1.2067  1.1403  1.0094
19440SOL    HW259762   5.627   3.041  11.303 -0.2237 -1.0492 -0.1734
19441SOL     OW59763   7.637   4.131  12.126 -0.1745 -0.2258 -0.6066
19441SOL    HW159764   7.550   4.090  12.134  0.3301 -1.0069  1.4946
19441SOL    HW259765   7.688   4.068  12.076 -0.9093  0.4760 -2.3257
19442SOL     OW59766   7.875   2.143  12.388  0.2495 -0.0047  0.1892
19442SOL    HW159767   7.920   2.169  12.468 -0.5022  0.0266  0.6022
19442SOL    HW259768   7.806   2.084  12.416 -0.1765  0.1983 -0.4028
19443SOL     OW59769   6.097   3.013   0.355 -0.4422  0.3106 -0.3040
19443SOL    HW159770   6.077   2.961   0.277 -1.9715 -0.2744  0.4457
19443SOL    HW259771   6.189   3.037   0.344 -1.0650  1.8341 -3.2066
19444SOL     OW59772   0.695   1.715   2.625 -0.1956  0.0613  0.4372
19444SOL    HW159773   0.785   1.748   2.623  0.2244 -1.0585  0.1227
19444SOL    HW259774   0.643   1.785   2.585  0.7735  0.0536 -0.9179
19445SOL     OW59775   7.280   2.582   3.105 -0.4629  0.9958  0.1346
19445SOL    HW159776   7.301   2.598   3.013 -1.4516  0.5074 -0.1928
19445SOL    HW259777   7.195   2.538   3.103  0.0917 -0.2157  1.2115
19446SOL     OW59778   7.279   3.830   1.268  0.0680  0.4708 -0.2784
19446SOL    HW159779   7.301   3.741   1.295 -2.2648 -0.4540 -1.1922
19446SOL    HW259780   7.266   3.824   1.174  0.3897  1.9231 -0.4389
19447SOL     OW59781   6.834   3.499   0.387  0.2800 -0.1649 -0.5598
19447SOL    HW159782   6.867   3.532   0.304  1.0316  0.8249  0.0984
19447SOL    HW259783   6.886   3.421   0.405  2.2599  1.2972  0.3936
19448SOL     OW59784   0.527   1.305   0.615  0.5403 -0.2687  0.2559
19448SOL    HW159785   0.592   1.234   0.607  2.2034  1.0639  1.1829
19448SOL    HW259786   0.553   1.368   0.547 -0.4253 -0.1645 -0.0260
19449SOL     OW59787   5.759   2.243   2.846  0.0084 -0.2517 -0.3382
19449SOL    HW159788   5.848   2.266   2.821  0.4437 -0.0447  1.2920
19449SOL    HW259789   5.741   2.297   2.923 -0.6190 -2.0443  0.8325
19450SOL     OW59790   7.251   2.195   2.170  0.9294  0.0232  0.2448
19450SOL    HW159791   7.224   2.194   2.078  0.4959 -0.6317  0.3704
19450SOL    HW259792   7.244   2.287   2.196 -0.6589 -0.0230  0.1020
19451SOL     OW59793   4.937   2.961   1.121  0.5835 -0.6253  0.3892
19451SOL    HW159794   4.995   2.982   1.048  1.2067 -1.1620  0.7265
19451SOL    HW259795   4.885   2.887   1.091 -0.4509  0.3049 -0.1812
19452SOL     OW59796   5.575   3.128   2.287  0.2723  0.3398  0.1104
19452SOL    HW159797   5.560   3.197   2.222  0.3400  0.0426 -0.2203
19452SOL    HW259798   5.487   3.104   2.317  0.1989 -0.0281 -0.3970
19453SOL     OW59799   3.777   2.512   1.289 -0.0899  0.2393 -0.2004
19453SOL    HW159800   3.795   2.575   1.358 -0.0608  0.7617 -0.6781
19453SOL    HW259801   3.771   2.565   1.209 -1.9827 -0.1082 -0.3421
19454SOL     OW59802   6.494   2.536   1.221 -0.6567 -0.1376  0.0908
19454SOL    HW159803   6.464   2.485   1.296 -2.8189 -0.2374 -0.7801
19454SOL    HW259804   6.443   2.504   1.147 -0.7163  1.9559 -0.8589
19455SOL     OW59805   4.711   3.949  12.015  0.3039  0.3023  0.8774
19455SOL    HW159806   4.671   4.034  12.031  1.3907  0.7145  1.4858
19455SOL    HW259807   4.718   3.908  12.101  0.9032  0.1171  0.7467
19456SOL     OW59808   5.485   0.417   0.400 -0.6417 -0.0722 -0.5744
19456SOL    HW159809   5.528   0.502   0.392  1.0930 -0.7174  1.2063
19456SOL    HW259810   5.499   0.391   0.491 -0.2403 -2.7153 -1.3215
19457SOL     OW59811   7.174   2.058   1.464 -0.2122  0.1589  0.2036
19457SOL    HW159812   7.230   2.086   1.537 -0.5127 -1.3127  1.0354
19457SOL    HW259813   7.087   2.093   1.486  0.0272  1.0375 -0.2434
19458SOL     OW59814   7.511   3.702   1.387 -0.1777 -0.0614 -0.0111
19458SOL    HW159815   7.587   3.655   1.351  0.2004  0.0035  0.6885
19458SOL    HW259816   7.548   3.781   1.425 -0.6115 -0.0046  0.2951
19459SOL     OW59817   6.778   1.378   0.577 -0.1514  0.0028  0.8101
19459SOL    HW159818   6.721   1.383   0.654 -0.2652  0.5767  0.6955
19459SOL    HW259819   6.813   1.289   0.578 -0.2115 -0.0147  1.4834
19460SOL     OW59820   7.696   3.403   2.130  0.1107  0.1205 -0.0513
19460SOL    HW159821   7.705   3.316   2.091 -0.2147  0.2594 -0.4348
19460SOL    HW259822   7.602   3.417   2.136 -0.0530 -1.2754  3.8228
19461SOL     OW59823   7.345   2.419   1.995  0.1742 -0.0118  0.0013
19461SOL    HW159824   7.350   2.510   2.026 -1.0826 -0.0470  0.3473
19461SOL    HW259825   7.283   2.422   1.922 -0.1198 -0.6530  0.2261
19462SOL     OW59826   0.713   0.959   1.029  0.2297 -0.2429 -0.5232
19462SOL    HW159827   0.784   1.018   1.052 -0.8426  0.5259  1.0611
19462SOL    HW259828   0.639   1.016   1.008 -0.2639 -1.0131 -0.9462
19463SOL     OW59829   6.163   1.857   2.405 -0.5131 -0.3696 -0.3474
19463SOL    HW159830   6.248   1.833   2.442 -1.0920 -3.1561 -0.6132
19463SOL    HW259831   6.101   1.838   2.475 -1.1998 -1.4280 -1.2362
19464SOL     OW59832   7.079   2.317   4.084  0.3524  0.5301  0.4289
19464SOL    HW159833   7.059   2.268   4.164  1.7852  1.6146  1.4957
19464SOL    HW259834   7.159   2.278   4.051  0.5272  0.9928  0.3002
19465SOL     OW59835   7.097   3.403   0.497  0.3475 -0.1458 -0.4209
19465SOL    HW159836   7.090   3.359   0.582 -0.2508 -0.1318 -0.4563
19465SOL    HW259837   7.184   3.380   0.465  0.6284 -0.0430  0.2571
19466SOL     OW59838   5.913   1.215  12.201  0.4068  0.2180  0.0056
19466SOL    HW159839   5.990   1.264  12.229  0.5656 -0.0667  0.0754
19466SOL    HW259840   5.912   1.222  12.106 -0.0242  1.0280  0.0602
19467SOL     OW59841   4.032   3.686  12.032  0.5730  0.1144  0.0048
19467SOL    HW159842   3.997   3.762  11.985  0.4859 -0.0595 -0.2157
19467SOL    HW259843   4.031   3.712  12.124 -2.5401 -0.7842  0.3354
19468SOL     OW59844   6.692   2.223   2.316  0.3945 -0.2498  0.1143
19468SOL    HW159845   6.617   2.268   2.357 -0.9108 -1.0691 -1.2937
19468SOL    HW259846   6.682   2.132   2.342 -0.4339 -0.7790 -1.8958
19469SOL     OW59847   6.209   4.528   0.867  0.2382 -0.3020  0.5989
19469SOL    HW159848   6.210   4.613   0.825  1.0487 -0.4876  0.2273
19469SOL    HW259849   6.244   4.544   0.955  1.0218 -0.3642  0.3008
19470SOL     OW59850   6.112   1.672   0.147  0.5342 -0.2753  0.1636
19470SOL    HW159851   6.192   1.684   0.096  0.7076  0.3821  0.5816
19470SOL    HW259852   6.142   1.641   0.233  0.3555  0.1289  0.3750
19471SOL     OW59853   6.587   3.772   2.969 -0.0366  0.3719  0.3312
19471SOL    HW159854   6.536   3.828   3.028  0.3097 -0.5049  1.5130
19471SOL    HW259855   6.661   3.743   3.023 -1.0254 -2.4785  0.3060
19472SOL     OW59856   5.991   1.974   0.788  0.2222  0.0897 -0.1938
19472SOL    HW159857   5.902   1.941   0.797  0.9666 -2.1050 -0.3329
19472SOL    HW259858   5.983   2.068   0.804 -2.1485  0.0064 -0.5268
19473SOL     OW59859   7.214   2.390  12.139  0.1300  0.3749 -0.2433
19473SOL    HW159860   7.150   2.328  12.173  0.9832 -0.0412  0.6694
19473SOL    HW259861   7.197   2.394  12.045  0.1384 -1.3564 -0.3504
19474SOL     OW59862   5.613   1.705   0.241 -0.0334  0.0309 -0.0124
19474SOL    HW159863   5.701   1.733   0.217 -0.6019  0.6158 -1.5970
19474SOL    HW259864   5.605   1.617   0.204 -0.7148  0.7099 -1.6076
19475SOL     OW59865   6.963   4.631  12.030  0.1428  0.4766 -0.2132
19475SOL    HW159866   6.892   4.612  12.092 -1.0895  3.0643 -0.7043
19475SOL    HW259867   6.940   4.716  11.993  2.3968  0.3696 -2.0516
19476SOL     OW59868   7.888   3.566   0.468 -0.8149  0.3453  0.1091
19476SOL    HW159869   7.908   3.515   0.546 -1.1404 -1.2425 -0.8028
19476SOL    HW259870   7.813   3.621   0.493 -0.1709  0.7428  1.2408
19477SOL     OW59871   6.596   1.311   0.807  0.7230  0.2681  0.4397
19477SOL    HW159872   6.563   1.399   0.825  0.9160 -0.0276  2.4217
19477SOL    HW259873   6.616   1.274   0.893  0.4767 -1.7864 -0.3215
19478SOL     OW59874   7.446   4.479  12.091 -0.6642  0.1734  0.4217
19478SOL    HW159875   7.470   4.415  12.024 -0.6699  0.1965  0.3978
19478SOL    HW259876   7.512   4.548  12.082 -0.8425  0.3190  0.2412
19479SOL     OW59877   6.670   3.001   0.035  0.0638 -0.5386 -0.5332
19479SOL    HW159878   6.601   3.014  -0.030  0.0228 -1.4281 -0.6737
19479SOL    HW259879   6.750   2.993  -0.017 -0.0342 -1.7399 -0.5129
19480SOL     OW59880   7.186   3.673   0.324  0.0381 -0.1431  0.0887
19480SOL    HW159881   7.209   3.614   0.395  1.8663  1.2499  0.7100
19480SOL    HW259882   7.199   3.761   0.359 -1.8201  0.6698 -1.0706
19481SOL     OW59883   5.593   1.171   1.402  0.3914 -1.0985  0.2550
19481SOL    HW159884   5.666   1.233   1.392  0.2207 -0.9419 -0.0307
19481SOL    HW259885   5.550   1.196   1.483  0.3064 -0.8246  0.1258
19482SOL     OW59886   5.106   1.430   1.851  0.0892  0.7522 -0.1161
19482SOL    HW159887   5.076   1.505   1.902 -1.3093 -0.2766  0.6368
19482SOL    HW259888   5.193   1.410   1.886 -0.2170  0.9992  0.8153
19483SOL     OW59889   7.253   2.217   1.674  0.0849 -0.3453  0.3698
19483SOL    HW159890   7.294   2.271   1.606  0.3054 -0.7762  0.1645
19483SOL    HW259891   7.202   2.280   1.726 -0.8854 -0.1425 -0.7823
19484SOL     OW59892   7.341   2.529   0.028 -0.1814  0.3414 -0.0775
19484SOL    HW159893   7.370   2.603   0.081 -0.5987  0.0970  0.5030
19484SOL    HW259894   7.350   2.559  -0.063  0.4958  0.7809  0.1269
19485SOL     OW59895   4.382   5.366   1.363 -0.2205  0.1199  0.2089
19485SOL    HW159896   4.294   5.377   1.399 -0.2055  2.4764 -0.3051
19485SOL    HW259897   4.429   5.445   1.390  1.5582 -0.7898 -0.0718
19486SOL     OW59898   0.361   2.889  11.595  0.1988 -0.0153  0.3111
19486SOL    HW159899   0.448   2.887  11.556 -0.7934  0.4059 -2.1154
19486SOL    HW259900   0.370   2.840  11.677  2.9195  0.9417  0.6896
19487SOL     OW59901   6.599   0.994   1.849  0.5886  0.7623  0.0982
19487SOL    HW159902   6.566   1.036   1.929  0.2609  0.1892  0.2677
19487SOL    HW259903   6.537   1.020   1.781 -0.1595 -0.1922  0.3873
19488SOL     OW59904   6.911   2.856   1.209 -0.3474 -0.1407  0.4543
19488SOL    HW159905   6.833   2.806   1.233 -0.6017 -0.9695 -1.8441
19488SOL    HW259906   6.946   2.887   1.293 -1.3849 -2.3716  1.8240
19489SOL     OW59907   6.692   2.710   1.342  0.6505 -0.2098 -0.7943
19489SOL    HW159908   6.738   2.636   1.303 -0.0019 -1.0520  0.0085
19489SOL    HW259909   6.600   2.696   1.320  0.4839  0.1971 -0.3661
19490SOL     OW59910   6.205   2.071   1.617  0.5846 -0.7122  0.1042
19490SOL    HW159911   6.219   1.981   1.646  0.5374 -0.9192 -0.5022
19490SOL    HW259912   6.273   2.086   1.552 -0.1210 -0.6989 -0.6440
19491SOL     OW59913   6.764   2.953  11.088 -0.0142 -0.2431 -0.0352
19491SOL    HW159914   6.778   3.028  11.146 -0.0043 -0.4118  0.1797
19491SOL    HW259915   6.782   2.987  11.000  2.8968 -0.6867  0.2839
19492SOL     OW59916   6.228   1.091   3.112 -0.3385 -0.5716 -0.3673
19492SOL    HW159917   6.264   1.007   3.141  0.7390  0.1115  0.4021
19492SOL    HW259918   6.301   1.133   3.066 -0.9165 -0.1229 -0.8868
19493SOL     OW59919   6.620   1.649   1.988  0.3577  0.4579 -0.0976
19493SOL    HW159920   6.692   1.608   2.037 -0.1883  1.0228  1.2198
19493SOL    HW259921   6.664   1.701   1.920  1.2308  1.1438  0.9632
19494SOL     OW59922   6.497   2.157   1.858 -0.5658 -0.2535  0.2048
19494SOL    HW159923   6.490   2.245   1.895 -0.9819  1.0043 -2.5926
19494SOL    HW259924   6.511   2.172   1.764 -0.6142 -3.1916 -0.3587
19495SOL     OW59925   7.505   3.592  12.225 -0.1549 -0.1500  0.3325
19495SOL    HW159926   7.495   3.687  12.225 -1.1374 -0.2422 -0.0449
19495SOL    HW259927   7.563   3.574  12.298 -0.3262  0.7084  0.6911
19496SOL     OW59928   5.616   2.395   1.343 -0.4044  0.2664  0.2290
19496SOL    HW159929   5.641   2.321   1.398  0.0637  0.1638 -0.1074
19496SOL    HW259930   5.671   2.386   1.265  1.4024  2.2770  1.1582
19497SOL     OW59931   6.597   3.164   0.220 -0.1854 -0.0225  0.3664
19497SOL    HW159932   6.606   3.236   0.157 -0.4515 -0.5573 -0.2913
19497SOL    HW259933   6.639   3.090   0.178  1.8558  0.2056  1.8668
19498SOL     OW59934   5.650   1.431   2.851 -0.0342  0.0640 -0.4726
19498SOL    HW159935   5.560   1.465   2.856 -0.5624 -1.3647  0.6109
19498SOL    HW259936   5.649   1.355   2.908  2.0583  0.3680  0.0195
19499SOL     OW59937   7.977   2.980   1.345  0.4636 -0.0240 -0.1089
19499SOL    HW159938   7.899   2.951   1.297 -1.2053  1.9049  1.2677
19499SOL    HW259939   8.012   2.900   1.384 -0.5122 -1.0117 -1.1691
19500SOL     OW59940   1.100   4.821   1.905  0.1654  0.1509 -0.1742
19500SOL    HW159941   1.006   4.799   1.909  0.3766 -0.6139  1.4159
19500SOL    HW259942   1.101   4.916   1.895 -0.7704  0.0599 -1.4303
19501SOL     OW59943   7.221   2.095   0.554  0.5318 -0.6430  0.0265
19501SOL    HW159944   7.137   2.048   0.551 -0.7636  1.5422  0.1975
19501SOL    HW259945   7.286   2.028   0.531 -1.2391 -2.4007 -0.1773
19502SOL     OW59946   7.010   0.137   1.872  0.6039 -0.3420  0.5215
19502SOL    HW159947   7.063   0.170   1.800  1.0060  0.5595  1.2040
19502SOL    HW259948   7.046   0.051   1.892  0.6936 -0.4577 -0.1428
19503SOL     OW59949   0.491   3.418   2.620  0.2618 -0.5524 -0.7915
19503SOL    HW159950   0.524   3.473   2.692 -0.4641 -1.3468  0.1878
19503SOL    HW259951   0.441   3.477   2.566 -0.4610 -0.2117  0.2179
19504SOL     OW59952   0.903   7.838   0.536 -0.3742 -0.5478 -0.2585
19504SOL    HW159953   0.847   7.915   0.526  0.8043  0.3288 -0.3524
19504SOL    HW259954   0.850   7.777   0.587 -0.7825  0.9491  1.2180
19505SOL     OW59955   6.743   1.876  11.643  0.0741  0.1785  0.1471
19505SOL    HW159956   6.689   1.930  11.586 -1.3328  0.8240  2.0176
19505SOL    HW259957   6.784   1.938  11.704 -1.0820 -0.7372  1.9391
19506SOL     OW59958   1.093   2.178   0.894  0.2881  0.3454 -0.9002
19506SOL    HW159959   1.030   2.237   0.934  0.4602 -0.7369  1.0957
19506SOL    HW259960   1.176   2.198   0.938  0.6768 -0.3060 -1.3222
19507SOL     OW59961   6.782   3.372   0.759 -0.2774  0.4106 -0.5167
19507SOL    HW159962   6.851   3.322   0.716 -1.4970 -1.7478 -0.0986
19507SOL    HW259963   6.786   3.346   0.851  0.5842  2.9775  0.2784
19508SOL     OW59964   6.615   1.624   0.260 -0.4812 -0.0272 -0.2740
19508SOL    HW159965   6.693   1.675   0.238 -2.3583  2.6182 -1.3995
19508SOL    HW259966   6.608   1.631   0.355  0.6948 -0.4285 -0.1419
19509SOL     OW59967   6.917   1.640   2.403 -0.0962 -0.2450 -0.4624
19509SOL    HW159968   6.838   1.643   2.457  0.0605 -2.7271  0.0132
19509SOL    HW259969   6.953   1.729   2.408 -0.3604 -0.2202  3.1042
19510SOL     OW59970   5.647   4.282   0.995 -0.4387 -0.2946 -0.1167
19510SOL    HW159971   5.739   4.267   1.014 -0.2589 -1.1827 -1.5179
19510SOL    HW259972   5.611   4.317   1.076  1.0747 -0.1448  0.5270
19511SOL     OW59973   7.334   3.493  11.896  0.2114 -0.1527  0.0002
19511SOL    HW159974   7.276   3.474  11.970  0.3377  1.3944  0.5423
19511SOL    HW259975   7.421   3.468  11.927  0.2378  0.3141  0.3138
19512SOL     OW59976   7.012   1.612   0.381 -0.0645 -0.5388  0.3846
19512SOL    HW159977   7.079   1.675   0.408 -0.5539  0.3055 -0.3060
19512SOL    HW259978   7.005   1.551   0.455  1.2266 -0.4561  0.5856
19513SOL     OW59979   6.019   0.889   0.169  0.2932  0.0188  0.4803
19513SOL    HW159980   6.012   0.824   0.239 -0.0384  0.6078  1.0145
19513SOL    HW259981   5.941   0.874   0.115  1.7745 -2.0521 -1.2328
19514SOL     OW59982   0.513   2.908   0.968 -0.1252 -0.6109  0.1080
19514SOL    HW159983   0.548   2.966   1.036  0.1933  0.1275 -0.6747
19514SOL    HW259984   0.590   2.882   0.917 -0.5582  0.2350 -1.0232
19515SOL     OW59985   6.809   1.086   0.562  0.1309  0.1272 -0.1253
19515SOL    HW159986   6.802   1.095   0.467  1.2861 -2.2596 -0.4993
19515SOL    HW259987   6.903   1.076   0.578  0.0304  1.2033  1.3830
19516SOL     OW59988   5.052   2.819   0.417  0.0683 -0.6373  0.3498
19516SOL    HW159989   4.958   2.839   0.409 -0.0284 -0.6348  1.3404
19516SOL    HW259990   5.057   2.724   0.409 -0.1456 -0.7363  1.2771
19517SOL     OW59991   6.007   3.276  11.994  0.4611  0.6612 -0.2871
19517SOL    HW159992   6.098   3.246  11.995  0.6184  1.1445  0.1941
19517SOL    HW259993   5.980   3.275  12.085 -0.4286 -0.6640 -0.5320
19518SOL     OW59994   6.530   3.474   0.793 -0.3781 -0.3906  0.5853
19518SOL    HW159995   6.613   3.447   0.753  0.5340  2.2089  0.5359
19518SOL    HW259996   6.463   3.438   0.736  0.8512  1.1343 -1.9987
19519SOL     OW59997   6.843   2.428   1.683  0.5141 -0.6052  0.0630
19519SOL    HW159998   6.814   2.404   1.771 -1.4940 -0.6877 -0.5705
19519SOL    HW259999   6.874   2.518   1.693 -0.0460 -0.4771  0.8105
19520SOL     OW60000   7.086   6.254  12.102  0.3467  0.2505  0.1357
19520SOL    HW160001   7.162   6.277  12.048 -0.7028  1.8447 -0.7238
19520SOL    HW260002   7.091   6.158  12.109  3.3071  0.3817  1.4795
19521SOL     OW60003   5.515   1.165  12.310 -0.0278  1.0703 -0.3668
19521SOL    HW160004   5.530   1.248  12.355  0.4300  1.5150 -1.3105
19521SOL    HW260005   5.566   1.172  12.230 -1.6785  0.7493 -1.4893
19522SOL     OW60006   5.611   3.288   0.330  0.2401 -0.4144 -0.3647
19522SOL    HW160007   5.561   3.368   0.310  0.9453  0.2541  0.5091
19522SOL    HW260008   5.700   3.319   0.345  0.7572 -1.5104 -1.1092
19523SOL     OW60009   6.424   1.762   2.503  0.0781  0.3229 -0.1246
19523SOL    HW160010   6.371   1.735   2.578 -0.1835  0.9226 -0.0908
19523SOL    HW260011   6.440   1.681   2.455 -0.4623  0.0612  0.1257
19524SOL     OW60012   5.758   3.176   0.697 -0.0324 -0.0855 -0.5521
19524SOL    HW160013   5.675   3.222   0.686 -1.8076 -3.0134 -0.2905
19524SOL    HW260014   5.783   3.151   0.608  0.7049  0.8774 -0.6424
19525SOL     OW60015   0.493   2.887   1.875 -0.2742 -0.7906 -0.0254
19525SOL    HW160016   0.458   2.974   1.857 -1.2255 -1.3243 -0.8803
19525SOL    HW260017   0.586   2.893   1.853 -0.6980 -0.4583 -1.8953
19526SOL     OW60018   6.476   1.877   3.756  0.2613 -0.3352  0.7578
19526SOL    HW160019   6.472   1.781   3.751 -2.0136 -0.2344 -0.6339
19526SOL    HW260020   6.501   1.904   3.668 -0.0166  0.3853  0.8941
19527SOL     OW60021   4.067   2.650   0.485 -0.6470 -0.0179  0.2231
19527SOL    HW160022   4.161   2.660   0.469 -0.6865 -0.1781 -0.1222
19527SOL    HW260023   4.049   2.558   0.463 -1.2116  0.4460 -1.3846
19528SOL     OW60024   4.404   0.495  12.330  0.3884 -0.3220 -0.0496
19528SOL    HW160025   4.463   0.524  12.260  1.8460  0.1660  1.3302
19528SOL    HW260026   4.451   0.426  12.375  0.0574  0.2817  1.2741
19529SOL     OW60027   6.402   3.384  11.866  0.0112 -0.1464  0.5054
19529SOL    HW160028   6.368   3.344  11.786 -0.9955  0.6024  0.5532
19529SOL    HW260029   6.368   3.330  11.937  0.4231 -0.4621  0.4689
19530SOL     OW60030   6.571   1.638   0.582 -0.1944 -0.8643  0.2876
19530SOL    HW160031   6.557   1.724   0.619  2.3593 -0.2001 -0.0445
19530SOL    HW260032   6.500   1.584   0.616 -1.4195  1.1671  1.1056
19531SOL     OW60033   0.172   2.157   0.753  0.3488  0.2729  0.1761
19531SOL    HW160034   0.130   2.079   0.718 -0.0558  0.7825 -0.4950
19531SOL    HW260035   0.146   2.227   0.693 -0.2206  1.1316  1.3823
19532SOL     OW60036   6.864   3.829   1.451 -0.1837 -0.2153  0.5312
19532SOL    HW160037   6.864   3.736   1.431  0.2861  0.2469 -2.1092
19532SOL    HW260038   6.915   3.868   1.380 -0.2945  2.0463  1.6082
19533SOL     OW60039   6.055   2.216   2.254  0.4801 -0.3817 -0.0956
19533SOL    HW160040   6.098   2.185   2.333 -0.1521 -0.0732  0.3861
19533SOL    HW260041   5.988   2.150   2.236 -0.2906  0.2347  0.4341
19534SOL     OW60042   6.963   3.986   0.056 -0.0371 -0.0082  0.4271
19534SOL    HW160043   6.875   3.996   0.020  0.6667  0.7971 -1.1439
19534SOL    HW260044   6.990   3.898   0.028 -0.7502 -0.7476  1.9270
19535SOL     OW60045   6.050   0.776   1.943 -0.1474  0.6798 -0.3875
19535SOL    HW160046   6.097   0.793   1.861 -0.6090  0.7919 -0.6365
19535SOL    HW260047   5.964   0.744   1.915 -0.7073  1.7594  0.0214
19536SOL     OW60048   5.249   1.911   0.560 -0.1949 -0.4538 -0.0845
19536SOL    HW160049   5.343   1.919   0.544  0.0364 -0.9659  0.9385
19536SOL    HW260050   5.238   1.822   0.592 -0.8447 -0.0016  0.9936
19537SOL     OW60051   5.746   2.884  11.646  0.1652  0.0186 -0.3126
19537SOL    HW160052   5.721   2.820  11.580 -0.1473  0.8057 -0.9713
19537SOL    HW260053   5.664   2.925  11.672  0.4178  0.4920 -0.2596
19538SOL     OW60054   5.925   2.720   1.308 -0.2276 -0.0982  0.3859
19538SOL    HW160055   6.007   2.744   1.351  0.4311 -1.1425 -0.2472
19538SOL    HW260056   5.887   2.653   1.364 -1.4534  1.4517  1.4982
19539SOL     OW60057   5.974   2.769   0.936 -0.3814 -0.1453  0.6641
19539SOL    HW160058   6.020   2.837   0.887  1.4167 -1.8647 -0.1477
19539SOL    HW260059   5.884   2.800   0.941  0.0780  1.6119 -0.9098
19540SOL     OW60060   7.573   4.314  11.557 -0.1608  0.4095 -0.2463
19540SOL    HW160061   7.659   4.348  11.578  0.0822 -1.3335  1.8936
19540SOL    HW260062   7.588   4.250  11.487  0.2722  0.1933  0.0444
19541SOL     OW60063   6.093   3.019  12.289 -0.2649 -0.5376 -0.2658
19541SOL    HW160064   6.117   2.995  12.200 -0.5610 -1.3050 -0.1432
19541SOL    HW260065   6.096   2.937  12.338 -1.2516 -0.3358  0.1631
19542SOL     OW60066   6.494   1.893   0.625 -0.1092 -0.4092  0.0076
19542SOL    HW160067   6.470   1.982   0.651 -2.1967 -0.8917 -0.0966
19542SOL    HW260068   6.460   1.884   0.536 -1.9906 -2.0138  0.8142
19543SOL     OW60069   5.175   2.453  12.444  0.0658 -0.2748  0.2400
19543SOL    HW160070   5.082   2.459  12.469  0.2169 -1.5057  1.1821
19543SOL    HW260071   5.212   2.537  12.470 -1.1755  1.0922 -2.0460
19544SOL     OW60072   7.701   3.951   0.365  0.5635  0.0613  0.1241
19544SOL    HW160073   7.615   3.994   0.365  0.1866 -0.6751  0.0566
19544SOL    HW260074   7.761   4.017   0.399 -0.0541  0.5453  0.2891
19545SOL     OW60075   4.135   4.574   3.179 -0.2564 -0.3212  0.3217
19545SOL    HW160076   4.194   4.608   3.111  1.4722 -1.0100  1.4126
19545SOL    HW260077   4.185   4.580   3.260 -1.5729 -1.2866  1.2561
19546SOL     OW60078   3.818   2.240   1.392  0.0397 -0.1265 -0.1570
19546SOL    HW160079   3.800   2.333   1.403 -0.9184 -0.3381  0.2347
19546SOL    HW260080   3.865   2.234   1.309  0.9683  0.7999  0.2834
19547SOL     OW60081   6.069   1.628   1.155  0.5537  0.0917  0.1960
19547SOL    HW160082   6.065   1.694   1.086  1.1149  0.5110  0.5621
19547SOL    HW260083   6.068   1.544   1.108  0.8895  0.3727 -0.3162
19548SOL     OW60084   5.600   1.373  12.440  0.4969  0.5479  0.3710
19548SOL    HW160085   5.531   1.410  12.495  0.6807  1.9509 -0.3069
19548SOL    HW260086   5.661   1.445  12.426  2.0750 -0.6469  0.8777
19549SOL     OW60087   6.197   0.405   1.215  0.1494  0.0718  0.0220
19549SOL    HW160088   6.102   0.393   1.227  0.0214  1.1912  0.2562
19549SOL    HW260089   6.206   0.497   1.190  1.2780  0.3069  1.2114
19550SOL     OW60090   0.235   3.678   0.905  0.3736  0.1804 -0.1596
19550SOL    HW160091   0.315   3.713   0.944  0.7047 -1.3474  0.6160
19550SOL    HW260092   0.242   3.583   0.917 -0.6030 -0.1579 -1.8996
19551SOL     OW60093   0.151   1.546   0.857  0.2009 -0.8290  0.2890
19551SOL    HW160094   0.073   1.531   0.803  0.4735 -0.8399 -0.1060
19551SOL    HW260095   0.168   1.640   0.851  0.5877 -0.9217 -0.1448
19552SOL     OW60096   0.010   3.769   0.258 -0.4111 -0.3999 -0.1656
19552SOL    HW160097  -0.027   3.723   0.334 -1.1712 -1.3740 -1.0859
19552SOL    HW260098   0.102   3.743   0.257 -0.0821  0.6209  1.1228
19553SOL     OW60099   7.978   2.830   0.499  0.3610  0.2496  0.5350
19553SOL    HW160100   8.019   2.857   0.582  1.7517  1.4837 -0.4899
19553SOL    HW260101   7.976   2.910   0.446 -2.8002  0.0637  0.2235
19554SOL     OW60102   6.932   7.165   0.565 -0.4800  0.0046 -0.2065
19554SOL    HW160103   6.927   7.108   0.488 -1.3562  0.2799 -0.3687
19554SOL    HW260104   6.921   7.254   0.530  1.2366  0.3362  0.0031
19555SOL     OW60105   5.422   4.305   0.146  0.2132 -0.4788 -0.4665
19555SOL    HW160106   5.329   4.285   0.137 -0.2742  1.4817 -0.2986
19555SOL    HW260107   5.430   4.345   0.233  0.6341  1.9515 -1.5302
19556SOL     OW60108   6.441   2.931   1.588 -0.2973 -0.3878 -0.2362
19556SOL    HW160109   6.498   2.867   1.631  0.9698  0.9113  0.0963
19556SOL    HW260110   6.493   3.011   1.585 -2.1363  0.8858  0.1277
19557SOL     OW60111   7.310   1.338   2.492 -0.0542 -0.0099 -0.5391
19557SOL    HW160112   7.297   1.404   2.424 -0.4711  0.3157 -0.1508
19557SOL    HW260113   7.239   1.276   2.480 -0.2926  0.2011 -0.2259
19558SOL     OW60114   7.268   3.348   1.400  0.0673 -0.0432 -0.0338
19558SOL    HW160115   7.285   3.391   1.317  0.5019 -0.9560 -0.4261
19558SOL    HW260116   7.319   3.398   1.464 -1.3888  1.5504 -0.0460
19559SOL     OW60117   7.400   2.545   1.118 -0.2459  0.2793 -0.1258
19559SOL    HW160118   7.324   2.562   1.062 -1.4390  0.0876  1.3803
19559SOL    HW260119   7.385   2.599   1.195 -0.3210 -1.8652  1.4500
19560SOL     OW60120   4.775   2.559  12.040 -0.2802 -0.3228  0.6159
19560SOL    HW160121   4.721   2.482  12.061  1.6986 -2.2375 -0.8845
19560SOL    HW260122   4.808   2.541  11.953  0.2658  2.3027  0.2317
19561SOL     OW60123   6.064   3.971  11.793  0.1839  0.5937  0.2710
19561SOL    HW160124   6.075   3.960  11.699  3.1064 -0.6264  0.6308
19561SOL    HW260125   6.093   4.061  11.810 -1.2548  1.1452 -0.0464
19562SOL     OW60126   5.640   1.771   2.221  0.4989  0.2798 -0.0683
19562SOL    HW160127   5.600   1.757   2.136  0.9822 -0.5836 -0.1721
19562SOL    HW260128   5.734   1.755   2.207  0.9016  2.2254  0.1775
19563SOL     OW60129   5.785   2.597   2.835 -0.1202 -0.0308 -0.1784
19563SOL    HW160130   5.740   2.675   2.802 -0.7013 -0.9065 -1.5760
19563SOL    HW260131   5.801   2.544   2.757  3.2696  0.1381  0.2724
19564SOL     OW60132   5.011   2.426   3.323 -0.0682  0.0721  0.6265
19564SOL    HW160133   4.966   2.505   3.295  1.0678 -0.0463 -1.7830
19564SOL    HW260134   4.947   2.356   3.310  0.0601  0.1777 -0.6875
19565SOL     OW60135   6.962   5.021   2.194  0.7568 -0.4425 -0.1157
19565SOL    HW160136   6.929   5.033   2.105 -1.6574  2.1311  0.9672
19565SOL    HW260137   6.917   4.943   2.226  0.5061 -0.5355 -0.6826
19566SOL     OW60138   0.625   3.148   1.995  0.2427 -0.3799  0.3397
19566SOL    HW160139   0.571   3.182   1.923  1.5166 -0.8703 -0.8809
19566SOL    HW260140   0.708   3.194   1.987  1.0100 -1.7008  0.3991
19567SOL     OW60141   6.904   2.148   3.087  0.3449  0.3566 -0.5737
19567SOL    HW160142   6.903   2.208   3.161 -1.4535  0.9062 -0.9961
19567SOL    HW260143   6.977   2.089   3.105  0.0974  0.6134  1.5131
19568SOL     OW60144   6.599   4.546   0.847 -0.5388 -0.2890 -0.6596
19568SOL    HW160145   6.598   4.584   0.935 -1.1877  2.2024 -1.6647
19568SOL    HW260146   6.689   4.514   0.836 -0.6356 -1.3034  1.1295
19569SOL     OW60147   6.043   3.846   3.674  0.2497  0.2262 -0.3231
19569SOL    HW160148   6.057   3.752   3.688  0.2950  0.3230  0.2831
19569SOL    HW260149   5.970   3.850   3.612 -0.7536 -0.1945  0.8119
19570SOL     OW60150   7.075   1.736   3.098 -0.9871  0.2744  0.1671
19570SOL    HW160151   6.985   1.710   3.076 -0.7086 -0.2734 -0.3426
19570SOL    HW260152   7.072   1.832   3.102 -1.4320  0.3026 -0.5808
19571SOL     OW60153   6.665   2.538   4.584  0.2728 -0.9438  0.9581
19571SOL    HW160154   6.571   2.545   4.573  0.2890 -0.3208  1.1714
19571SOL    HW260155   6.694   2.627   4.605  1.4545 -0.0425 -3.3334
19572SOL     OW60156   6.072   2.812   4.008 -0.0972  0.3156  0.1396
19572SOL    HW160157   6.074   2.846   3.918 -0.3188 -0.6941 -0.2627
19572SOL    HW260158   6.102   2.885   4.062  0.2670  0.8646 -0.7798
19573SOL     OW60159   5.398   4.081   4.224  0.0214 -0.0028 -0.0590
19573SOL    HW160160   5.399   4.148   4.292 -2.0389 -0.5298  0.5512
19573SOL    HW260161   5.420   4.129   4.143  0.3978  1.0246  0.6309
19574SOL     OW60162   7.905   2.916   3.384  0.0376 -0.2410  0.1037
19574SOL    HW160163   7.956   2.898   3.306  0.3219  0.6579  0.0777
19574SOL    HW260164   7.970   2.933   3.452 -0.0091 -4.3935  1.5063
19575SOL     OW60165   6.107   1.858   3.173 -1.3019  0.7997  0.1715
19575SOL    HW160166   6.035   1.821   3.223 -1.2342  1.6827  0.9604
19575SOL    HW260167   6.073   1.942   3.141 -1.7192 -0.1953 -2.2184
19576SOL     OW60168   7.367   2.965   1.597  0.4611  0.3795 -0.1950
19576SOL    HW160169   7.368   3.036   1.661  0.7336  0.6142 -0.4552
19576SOL    HW260170   7.356   3.008   1.513 -1.8845 -0.0490 -0.1779
19577SOL     OW60171   5.844   3.507   2.885  0.2359 -0.0802 -0.4736
19577SOL    HW160172   5.924   3.501   2.833  0.1510  0.5043 -0.6770
19577SOL    HW260173   5.784   3.558   2.831  0.4598  1.3216  0.5669
19578SOL     OW60174   7.030   1.340   6.558 -0.1428  0.2119  0.2302
19578SOL    HW160175   7.055   1.319   6.469  0.9165 -1.4716  0.8763
19578SOL    HW260176   6.949   1.291   6.573  0.2488 -0.3571  0.5158
19579SOL     OW60177   6.257   4.545   3.091  0.0777  0.5109 -0.6569
19579SOL    HW160178   6.277   4.621   3.147 -0.4179 -0.3804  0.7928
19579SOL    HW260179   6.343   4.518   3.058  0.4031  0.9803 -0.2286
19580SOL     OW60180   6.744   4.339   1.787  0.2844  0.1725 -0.4403
19580SOL    HW160181   6.666   4.387   1.814  0.2235  1.7511 -3.0616
19580SOL    HW260182   6.816   4.380   1.835 -0.0205  1.5718 -1.1444
19581SOL     OW60183   6.584   2.805   2.972 -0.0886  0.2457  0.0907
19581SOL    HW160184   6.522   2.734   2.990 -2.0248  1.0577 -2.7298
19581SOL    HW260185   6.571   2.868   3.043 -1.8604 -0.0485  0.0528
19582SOL     OW60186   6.783   3.261   1.784 -0.2033 -0.1915  0.0180
19582SOL    HW160187   6.774   3.356   1.783  1.4339 -0.0168 -0.1048
19582SOL    HW260188   6.822   3.241   1.869  0.1525 -0.6814 -0.2571
19583SOL     OW60189   7.126   2.567   2.143  0.4984 -0.1357  0.0057
19583SOL    HW160190   7.141   2.619   2.223 -1.1669  0.7468 -0.2052
19583SOL    HW260191   7.085   2.487   2.174  1.5847 -0.6483  0.1792
19584SOL     OW60192   6.028   2.616   3.201 -0.5405  0.0272  0.4762
19584SOL    HW160193   5.948   2.624   3.253 -1.7737  2.9821 -1.5971
19584SOL    HW260194   6.092   2.578   3.261 -2.8613 -0.3306  2.9179
19585SOL     OW60195   7.169   4.046   0.231  0.5539  0.0591 -0.5804
19585SOL    HW160196   7.210   4.117   0.182 -0.1306 -0.1041 -1.4044
19585SOL    HW260197   7.080   4.041   0.196  0.4103 -0.8123 -0.1052
19586SOL     OW60198   6.520   0.778   1.531  0.4168 -0.0885  0.0635
19586SOL    HW160199   6.607   0.797   1.565  0.9469  0.0255 -1.2848
19586SOL    HW260200   6.505   0.845   1.464 -0.6452 -0.1973  0.1761
19587SOL     OW60201   6.110   5.463   3.220 -0.0310  0.2336 -0.2707
19587SOL    HW160202   6.074   5.375   3.225 -2.0059  0.8397 -2.2608
19587SOL    HW260203   6.110   5.495   3.311  0.3239 -1.6223  0.4138
19588SOL     OW60204   5.806   2.488   2.571  0.6515  0.2661 -0.2653
19588SOL    HW160205   5.734   2.532   2.526  0.2680 -0.4511 -0.3697
19588SOL    HW260206   5.833   2.419   2.511  0.2418 -0.6023  0.5085
19589SOL     OW60207   5.016   2.114   3.630 -0.5965  0.2433  0.3135
19589SOL    HW160208   5.079   2.186   3.634 -1.7295  1.2230  1.8581
19589SOL    HW260209   5.049   2.050   3.693  0.1340 -0.3637 -0.6760
19590SOL     OW60210   7.325   3.086   1.364  0.1933  0.1918 -0.1719
19590SOL    HW160211   7.295   3.177   1.366  0.5684  0.3161 -0.0987
19590SOL    HW260212   7.372   3.078   1.282 -0.0556 -0.0094 -0.2967
19591SOL     OW60213   6.626   2.742   1.645 -0.0895  0.0731 -0.5658
19591SOL    HW160214   6.687   2.746   1.571 -0.8810  1.1569 -1.1910
19591SOL    HW260215   6.614   2.649   1.662 -0.7277 -0.2507 -2.5376
19592SOL     OW60216   6.576   7.994   2.370  0.0620 -0.6522  0.0266
19592SOL    HW160217   6.652   7.967   2.319  0.5901  1.1533 -0.2035
19592SOL    HW260218   6.527   8.052   2.312 -0.5280 -0.3562  0.8026
19593SOL     OW60219   5.223   2.206   2.192 -0.1500  0.9845  0.2756
19593SOL    HW160220   5.181   2.266   2.253  0.9474  1.5029  0.5469
19593SOL    HW260221   5.183   2.226   2.107  0.3780  2.2887  0.3152
19594SOL     OW60222   6.148   2.598   1.432  0.1886  0.1655  0.4923
19594SOL    HW160223   6.192   2.630   1.511 -0.1931 -0.1675  0.8433
19594SOL    HW260224   6.084   2.535   1.464 -0.2770  0.3551 -0.0498
19595SOL     OW60225   5.372   3.446   2.828  0.0209  0.3941 -0.4821
19595SOL    HW160226   5.358   3.352   2.823  1.3056  0.1919 -0.7845
19595SOL    HW260227   5.306   3.484   2.770  0.1640 -0.4072 -1.1932
19596SOL     OW60228   4.380   1.450   4.414 -0.4559 -0.3603 -0.2003
19596SOL    HW160229   4.422   1.406   4.488 -1.5321 -1.5088 -0.2358
19596SOL    HW260230   4.433   1.426   4.338  0.0328 -0.0627  0.0441
19597SOL     OW60231   7.866   3.545   1.964 -0.2319 -0.2866 -0.6444
19597SOL    HW160232   7.800   3.545   1.895 -0.2340 -1.9177 -0.6878
19597SOL    HW260233   7.822   3.506   2.040 -0.5353  2.3520  0.6422
19598SOL     OW60234   0.389   2.675   0.896 -0.3048  0.0075  0.2133
19598SOL    HW160235   0.405   2.769   0.897 -1.8083  0.3593 -2.1671
19598SOL    HW260236   0.330   2.659   0.970  0.9230  0.6669  1.3881
19599SOL     OW60237   0.150   0.967   4.452 -0.2128 -0.1808  0.1980
19599SOL    HW160238   0.082   0.995   4.513 -0.7564  0.3401 -0.6370
19599SOL    HW260239   0.226   0.949   4.507 -0.6015  0.5850  0.9912
19600SOL     OW60240   6.280   0.402   5.256  0.2829  0.1410 -0.1688
19600SOL    HW160241   6.312   0.314   5.272  1.1329  0.3016 -0.8940
19600SOL    HW260242   6.226   0.423   5.332 -0.6960 -1.3425 -0.4213
19601SOL     OW60243   7.083   2.691   3.621 -0.2403 -0.1848 -0.1126
19601SOL    HW160244   7.051   2.770   3.577  2.8692  1.3932  0.0929
19601SOL    HW260245   7.152   2.658   3.563  1.3862 -0.2301  1.7430
19602SOL     OW60246   6.749   0.336   2.614 -0.1085  0.1396  0.4359
19602SOL    HW160247   6.751   0.418   2.565 -1.3590 -0.3325 -0.4462
19602SOL    HW260248   6.671   0.344   2.670 -0.0691 -0.3170  0.5572
19603SOL     OW60249   6.076   3.193   3.828 -0.1931  0.0846 -0.0183
19603SOL    HW160250   6.014   3.123   3.809 -0.3468  0.6396 -1.7533
19603SOL    HW260251   6.020   3.269   3.846 -0.0311  0.3735 -0.7122
19604SOL     OW60252   5.652   1.565   3.549  0.5035 -0.1258 -0.0743
19604SOL    HW160253   5.620   1.655   3.556  3.2624  1.0383 -1.0442
19604SOL    HW260254   5.574   1.514   3.526 -1.1936  1.9391  0.7577
19605SOL     OW60255   6.455   1.863   1.356  0.4233  0.1394 -0.7932
19605SOL    HW160256   6.364   1.878   1.330 -0.2234 -2.0359 -0.0133
19605SOL    HW260257   6.450   1.842   1.449  1.4886 -1.8372 -1.1384
19606SOL     OW60258   6.983   2.670   1.715  0.5247 -0.0348  0.3101
19606SOL    HW160259   6.951   2.737   1.655 -1.4340 -0.8471  0.3646
19606SOL    HW260260   7.007   2.718   1.794  0.6730  0.7601 -0.2078
19607SOL     OW60261   3.366   3.268   2.557  0.3068 -0.0689  0.0940
19607SOL    HW160262   3.334   3.339   2.612  1.2670 -0.9147  1.8138
19607SOL    HW260263   3.390   3.199   2.618  1.5799 -0.9941 -1.3832
19608SOL     OW60264   5.251   4.151   2.847 -0.2119 -0.0560 -0.0245
19608SOL    HW160265   5.182   4.131   2.784 -1.9694  1.7401  1.2125
19608SOL    HW260266   5.305   4.217   2.803  0.3407 -0.9634 -0.7343
19609SOL     OW60267   7.319   0.641   3.599  0.3872  1.0494 -0.4272
19609SOL    HW160268   7.286   0.726   3.628 -0.3853  0.9400 -0.9305
19609SOL    HW260269   7.338   0.654   3.506 -0.5502  0.4512 -0.7171
19610SOL     OW60270   6.319   5.231   3.421 -0.1352 -0.2914  0.4898
19610SOL    HW160271   6.362   5.303   3.374 -1.7313  0.6051  0.3559
19610SOL    HW260272   6.391   5.187   3.467  1.0557  0.5704 -0.4732
19611SOL     OW60273   6.556   1.756   1.132 -0.0593 -0.2562  0.8105
19611SOL    HW160274   6.588   1.835   1.087  1.2701 -1.2570 -0.0981
19611SOL    HW260275   6.534   1.787   1.220 -0.1252  1.2400  0.3083
19612SOL     OW60276   5.858   0.016   1.465  0.1333  0.0179 -0.1387
19612SOL    HW160277   5.829  -0.025   1.384  1.4872  0.8132 -1.0706
19612SOL    HW260278   5.953   0.004   1.465  0.1733  0.1507  1.2702
19613SOL     OW60279   7.315   3.011   3.068  0.2974 -0.1396 -0.3160
19613SOL    HW160280   7.235   2.981   3.111  0.2120 -0.7345 -0.8827
19613SOL    HW260281   7.328   2.950   2.995  1.5282 -0.3426  0.0526
19614SOL     OW60282   5.864   4.492   3.044 -0.0600  0.2134  0.0822
19614SOL    HW160283   5.811   4.432   2.991 -0.1918 -1.6971  2.2264
19614SOL    HW260284   5.823   4.577   3.030 -0.0436 -0.1446 -2.8599
19615SOL     OW60285   7.262   3.594   2.470 -0.0301  0.2405  1.1122
19615SOL    HW160286   7.265   3.512   2.518 -0.3132  0.6634  1.8696
19615SOL    HW260287   7.193   3.645   2.512  0.8269  1.2724  1.3313
19616SOL     OW60288   6.782   4.929   3.500  0.0841  0.6445 -0.0188
19616SOL    HW160289   6.851   4.879   3.456 -0.0940  0.5934 -0.2446
19616SOL    HW260290   6.825   4.971   3.574 -0.2389 -1.8932  1.7552
19617SOL     OW60291   0.659   3.308   3.264 -0.1291  0.2758  0.3526
19617SOL    HW160292   0.751   3.290   3.281  0.2210  2.1444  0.6338
19617SOL    HW260293   0.642   3.392   3.307 -2.1389 -0.3352  0.8599
19618SOL     OW60294   7.320   2.581   2.846  0.1128  0.4092 -0.3877
19618SOL    HW160295   7.239   2.563   2.799 -1.3803 -2.4011  2.8581
19618SOL    HW260296   7.385   2.526   2.803 -1.2044 -2.0737  0.5965
19619SOL     OW60297   7.313   2.877   2.134 -0.2424  0.2739  0.2080
19619SOL    HW160298   7.251   2.874   2.207 -1.8961  2.5004 -0.9597
19619SOL    HW260299   7.393   2.838   2.168 -1.7709 -1.2307  2.3247
19620SOL     OW60300   0.078   3.285   2.599 -0.1312  0.0725  0.0032
19620SOL    HW160301   0.136   3.353   2.634 -0.8198  1.6381 -1.7015
19620SOL    HW260302  -0.009   3.309   2.632 -0.5031  0.5315 -1.2559
19621SOL     OW60303   5.352   2.557   4.537 -0.4010 -0.0517  0.3447
19621SOL    HW160304   5.429   2.605   4.507 -0.9593  0.8877  0.3835
19621SOL    HW260305   5.316   2.518   4.458  0.5951 -1.2279  0.4500
19622SOL     OW60306   7.839   3.874   0.783 -1.1038  0.0671  0.4371
19622SOL    HW160307   7.926   3.897   0.749 -1.2822  0.4118  0.2057
19622SOL    HW260308   7.823   3.939   0.852 -1.8988  1.0737 -0.6772
19623SOL     OW60309   6.330   1.665   2.973 -0.0013 -0.5095  0.0067
19623SOL    HW160310   6.323   1.637   3.065 -1.5909 -1.1511 -0.2721
19623SOL    HW260311   6.244   1.702   2.953  0.8916  1.2956 -0.7349
19624SOL     OW60312   7.584   0.889   2.909  0.1210 -0.1172 -0.2356
19624SOL    HW160313   7.656   0.898   2.846 -0.7127  1.4330 -1.0382
19624SOL    HW260314   7.583   0.972   2.956 -0.1713 -0.7242  0.8624
19625SOL     OW60315   6.354   4.800   2.837 -0.5318  0.1111  0.1297
19625SOL    HW160316   6.314   4.840   2.914 -0.6378 -0.2370  0.2591
19625SOL    HW260317   6.423   4.861   2.811 -0.0944 -0.0656  0.8652
19626SOL     OW60318   6.187   2.836   2.330  0.4114 -0.4059  0.1589
19626SOL    HW160319   6.199   2.831   2.235  1.0995 -0.0731  0.2241
19626SOL    HW260320   6.187   2.744   2.358  1.4520 -0.4733 -0.0211
19627SOL     OW60321   6.001   2.693   2.616  0.2928 -0.3575 -0.7402
19627SOL    HW160322   6.070   2.683   2.682 -0.8521 -1.7906  0.2926
19627SOL    HW260323   5.971   2.604   2.598 -1.5833  0.2364 -0.8116
19628SOL     OW60324   6.541   1.493   2.798  0.1660 -0.6099 -0.6406
19628SOL    HW160325   6.633   1.515   2.809  0.2860 -1.3915  0.0121
19628SOL    HW260326   6.494   1.573   2.819  0.7070 -0.1125 -1.2970
19629SOL     OW60327   7.251   2.245   2.851  0.6124 -0.4196 -0.0538
19629SOL    HW160328   7.302   2.199   2.918 -0.0195  0.4508  1.0604
19629SOL    HW260329   7.305   2.321   2.827  0.0079  0.3503  0.9265
19630SOL     OW60330   5.886   1.296   4.372  0.8957  0.2477  0.2685
19630SOL    HW160331   5.828   1.334   4.438  1.2344  1.6346 -0.2020
19630SOL    HW260332   5.947   1.366   4.350  0.2993  0.1347 -2.0858
19631SOL     OW60333   7.524   4.483   3.103 -0.4826  0.5326 -0.0560
19631SOL    HW160334   7.584   4.419   3.065 -2.0868 -0.9262 -0.2538
19631SOL    HW260335   7.451   4.487   3.042 -2.0372 -0.1099  1.6780
19632SOL     OW60336   6.269   2.840   3.611 -0.2626 -0.3826  0.8173
19632SOL    HW160337   6.314   2.790   3.680 -0.5167  1.0587  2.0913
19632SOL    HW260338   6.256   2.926   3.650 -1.8036  0.0141 -0.5086
19633SOL     OW60339   6.649   3.522   2.417  0.3499 -0.6339 -0.1348
19633SOL    HW160340   6.659   3.604   2.465  0.0490 -0.7922  0.2035
19633SOL    HW260341   6.730   3.513   2.367 -0.1290  0.4927 -1.1484
19634SOL     OW60342   6.669   1.890   3.180 -0.2724 -0.5969  0.2595
19634SOL    HW160343   6.592   1.839   3.203  0.0515 -0.7759  0.9798
19634SOL    HW260344   6.636   1.958   3.121 -1.5391  1.1249  2.7722
19635SOL     OW60345   5.542   1.565   3.265 -0.1259  0.0577  0.2828
19635SOL    HW160346   5.494   1.630   3.316  0.3467  0.9054 -0.3301
19635SOL    HW260347   5.480   1.493   3.253 -0.5008  0.1833  1.3713
19636SOL     OW60348   0.460   2.684   2.412  0.2121 -0.1791 -0.1736
19636SOL    HW160349   0.427   2.771   2.392  0.0741 -0.3665 -0.7729
19636SOL    HW260350   0.389   2.642   2.461 -0.0214 -0.2140 -0.5385
19637SOL     OW60351   6.492   1.516   1.294 -0.1561  0.6603  0.5809
19637SOL    HW160352   6.508   1.590   1.236 -0.0617  0.0585 -0.1690
19637SOL    HW260353   6.553   1.530   1.367  1.1686  0.3878 -0.4230
19638SOL     OW60354   6.286   1.104   3.729 -0.4861  0.2051  0.5359
19638SOL    HW160355   6.278   1.087   3.822 -0.7078 -0.6885  0.3683
19638SOL    HW260356   6.254   1.194   3.717  1.1222  0.9385  1.5308
19639SOL     OW60357   5.839   1.769   3.308 -0.4101 -0.4030 -0.2379
19639SOL    HW160358   5.792   1.746   3.227 -1.8222  1.8247 -0.1387
19639SOL    HW260359   5.775   1.819   3.359  0.6680 -1.2054  2.0158
19640SOL     OW60360   7.784   3.758   1.676 -0.3279  0.0203 -0.2950
19640SOL    HW160361   7.878   3.743   1.691 -0.3217  0.8260  0.5632
19640SOL    HW260362   7.757   3.813   1.749 -1.0817  1.3001 -1.4962
19641SOL     OW60363   7.226   1.688   2.857  0.6638 -0.3721  0.2879
19641SOL    HW160364   7.176   1.704   2.936  0.7996  1.0190  0.1225
19641SOL    HW260365   7.288   1.761   2.853 -0.2471  0.3615 -1.7983
19642SOL     OW60366   6.062   2.282   1.754  0.3992 -0.5708 -0.4691
19642SOL    HW160367   6.003   2.210   1.733  0.9766 -0.9085 -0.9339
19642SOL    HW260368   6.149   2.251   1.730  1.3167 -1.3896  3.2791
19643SOL     OW60369   7.194   1.161   1.669 -0.5372  0.1940  0.5119
19643SOL    HW160370   7.228   1.133   1.584  0.2364  0.2100  0.8180
19643SOL    HW260371   7.265   1.211   1.709 -0.6818 -0.3063  1.4211
19644SOL     OW60372   6.940   2.966   3.916 -0.1402 -0.1727 -0.0008
19644SOL    HW160373   6.906   2.982   4.004  1.7848 -0.4542  0.8490
19644SOL    HW260374   6.943   2.871   3.908 -1.0872 -0.1556 -0.7176
19645SOL     OW60375   4.762   3.068   3.204 -0.5946  0.4135 -0.4377
19645SOL    HW160376   4.767   3.105   3.293  0.8760 -1.0463  0.1442
19645SOL    HW260377   4.813   3.128   3.150  1.2224 -0.3271  0.3706
19646SOL     OW60378   5.234   2.074   1.811 -0.4552  0.6874  1.1552
19646SOL    HW160379   5.280   2.157   1.821  0.0135  0.6131 -0.1816
19646SOL    HW260380   5.184   2.084   1.731  0.1867 -0.5656  0.5664
19647SOL     OW60381   6.619   1.649   3.542 -0.3604 -0.0835 -0.6360
19647SOL    HW160382   6.531   1.617   3.563 -0.1636 -2.0599 -2.4829
19647SOL    HW260383   6.605   1.738   3.509 -1.3963  0.3861  0.9226
19648SOL     OW60384   7.134   3.841   2.611 -0.1851  0.0485  0.2841
19648SOL    HW160385   7.229   3.828   2.618 -0.4443 -1.2802  2.0884
19648SOL    HW260386   7.124   3.920   2.557  1.9019 -0.3503 -0.7894
19649SOL     OW60387   6.641   2.812   3.331 -0.0503 -0.0167 -0.1352
19649SOL    HW160388   6.577   2.867   3.285 -0.1769  0.1428  0.2279
19649SOL    HW260389   6.623   2.828   3.424 -0.5802 -1.2414 -0.0156
19650SOL     OW60390   7.868   3.351   2.890  0.1594  0.0135  0.6451
19650SOL    HW160391   7.780   3.388   2.880 -0.4106 -1.3541  0.2864
19650SOL    HW260392   7.867   3.272   2.835  1.0409 -0.9771  2.0005
19651SOL     OW60393   5.530   4.034   3.199 -0.2901  0.6632 -0.2303
19651SOL    HW160394   5.494   4.120   3.177 -0.6994  0.3026 -1.0208
19651SOL    HW260395   5.454   3.984   3.229 -0.3605  0.0804 -1.3376
19652SOL     OW60396   6.739   2.109   0.633 -0.6893 -0.3570 -0.4282
19652SOL    HW160397   6.717   2.087   0.543 -0.9297  1.7026 -0.9105
19652SOL    HW260398   6.655   2.131   0.674 -0.2117  3.0231 -0.9946
19653SOL     OW60399   7.841   2.385   1.184  0.2462  0.1118  0.5295
19653SOL    HW160400   7.755   2.347   1.202  0.6632 -0.9595  0.3699
19653SOL    HW260401   7.828   2.437   1.105 -0.1496 -0.4488  0.2157
19654SOL     OW60402   7.017   1.504   3.509 -0.2125 -0.0338 -0.3752
19654SOL    HW160403   7.038   1.578   3.452  0.5876  0.1511  0.1335
19654SOL    HW260404   6.977   1.544   3.586  0.7121 -0.0537  0.1391
19655SOL     OW60405   6.679   4.398   4.953 -0.1470 -0.2677 -0.1929
19655SOL    HW160406   6.661   4.491   4.948  0.4130 -0.1637 -0.3827
19655SOL    HW260407   6.749   4.383   4.889  0.4817 -0.6255  0.5547
19656SOL     OW60408   5.813   1.134  12.436  0.4175 -0.1214 -0.3836
19656SOL    HW160409   5.809   1.224  12.470  2.6062  0.7602 -2.1852
19656SOL    HW260410   5.798   1.143  12.342 -1.1483 -1.9296 -0.3659
19657SOL     OW60411   5.877   2.063   4.836 -0.1046 -0.4145  0.1828
19657SOL    HW160412   5.865   2.054   4.930 -0.5325 -0.3077  0.1392
19657SOL    HW260413   5.791   2.044   4.799 -0.6399  2.1017 -0.0242
19658SOL     OW60414   6.424   3.426   3.153 -0.0248 -0.5401 -0.4524
19658SOL    HW160415   6.333   3.434   3.182  0.1700  1.0783 -0.1673
19658SOL    HW260416   6.418   3.414   3.059 -0.5365 -0.2187 -0.4683
19659SOL     OW60417   6.502   2.155   3.353  0.5135  0.1646 -0.4141
19659SOL    HW160418   6.481   2.125   3.265 -1.1794 -0.7626  0.2697
19659SOL    HW260419   6.417   2.168   3.395  1.2869  0.4367  1.1380
19660SOL     OW60420   7.531   2.963   4.517 -0.0383 -0.0756 -0.2571
19660SOL    HW160421   7.509   3.041   4.466 -0.5930  0.5763  0.9358
19660SOL    HW260422   7.446   2.929   4.545  0.2854 -0.0145  0.8132
19661SOL     OW60423   5.001   2.078   2.492 -0.2556  0.1877  0.2042
19661SOL    HW160424   4.921   2.056   2.444  0.8870 -0.9418 -1.2514
19661SOL    HW260425   4.973   2.148   2.553 -2.0807  0.6272 -1.0392
19662SOL     OW60426   6.813   3.616   0.639  0.2128 -0.5692 -0.3233
19662SOL    HW160427   6.837   3.606   0.547  0.5375 -0.4914 -0.2470
19662SOL    HW260428   6.810   3.527   0.673  2.4639 -0.4906  0.1941
19663SOL     OW60429   5.932   2.846   4.350 -0.0389 -0.4439  0.0747
19663SOL    HW160430   5.935   2.754   4.326 -0.6530 -0.3551 -0.3574
19663SOL    HW260431   5.961   2.892   4.271 -1.8248 -0.1586 -0.4426
19664SOL     OW60432   7.375   7.791   4.053  1.0867 -0.1928  0.0486
19664SOL    HW160433   7.460   7.763   4.019  0.3104 -1.3879 -0.9959
19664SOL    HW260434   7.339   7.846   3.983  0.3293 -1.0175 -0.2217
19665SOL     OW60435   6.282   2.463   3.274  0.6636  0.0512  0.4153
19665SOL    HW160436   6.339   2.472   3.351  0.3775 -1.6482  0.8671
19665SOL    HW260437   6.339   2.481   3.199  1.0488  1.3064  0.9739
19666SOL     OW60438   7.009   2.529   0.045 -0.2747  0.2681 -0.3667
19666SOL    HW160439   7.010   2.433   0.044  0.3927  0.2381  0.8610
19666SOL    HW260440   7.067   2.553   0.118 -0.9668  1.5942 -0.2174
19667SOL     OW60441   6.908   1.088   4.035 -0.1731 -0.3543  0.4530
19667SOL    HW160442   6.851   1.019   4.001 -0.9383 -1.4287  3.5720
19667SOL    HW260443   6.858   1.169   4.023 -0.1560 -0.5669 -1.3256
19668SOL     OW60444   7.131   3.598   1.655 -0.0542 -0.4222 -0.2732
19668SOL    HW160445   7.116   3.690   1.678 -1.4937 -0.6003 -0.4377
19668SOL    HW260446   7.224   3.594   1.631 -0.3247  1.3487 -1.8788
19669SOL     OW60447   7.819   3.955   3.536 -0.0759  0.2229  0.2418
19669SOL    HW160448   7.743   3.984   3.586  0.1368  0.7296  0.2745
19669SOL    HW260449   7.851   3.878   3.583 -0.2125  0.3658  0.5705
19670SOL     OW60450   7.543   2.079   1.529 -0.0617  0.6170 -0.4165
19670SOL    HW160451   7.524   1.985   1.540 -0.2196  0.6648 -0.2753
19670SOL    HW260452   7.523   2.096   1.437  1.1111  0.2505 -0.7566
19671SOL     OW60453   7.009   4.879   3.179  0.1581 -0.5184 -0.0117
19671SOL    HW160454   7.037   4.947   3.240  0.1047 -0.8142  0.3469
19671SOL    HW260455   6.921   4.906   3.151 -0.3654 -1.0555  1.0613
19672SOL     OW60456   5.904   0.867   4.158 -0.2730  0.1069  0.0915
19672SOL    HW160457   5.993   0.902   4.161  0.0778 -0.7315 -0.1466
19672SOL    HW260458   5.868   0.898   4.076 -0.3092  0.6966  0.3277
19673SOL     OW60459   7.451   2.878   3.327  0.1519  0.6427  0.2554
19673SOL    HW160460   7.405   2.942   3.382 -0.6884  0.0551  0.2448
19673SOL    HW260461   7.502   2.932   3.266  0.0168  1.2998  0.7136
19674SOL     OW60462   7.472   3.199   2.873  0.4322  0.3743 -0.4649
19674SOL    HW160463   7.388   3.170   2.838  0.2056 -1.5168  1.3766
19674SOL    HW260464   7.508   3.121   2.916  2.5924  1.4325 -0.1873
19675SOL     OW60465   6.291   3.170   4.335  0.7105 -0.4071 -0.4317
19675SOL    HW160466   6.329   3.084   4.321  0.8565 -0.2180 -1.2260
19675SOL    HW260467   6.354   3.231   4.296  0.3306  0.0150 -0.3935
19676SOL     OW60468   6.893   3.152   3.270 -0.0773  0.2436  0.1784
19676SOL    HW160469   6.937   3.229   3.234  0.4270 -0.4725 -0.7972
19676SOL    HW260470   6.800   3.171   3.262  0.0469  0.7863  0.0222
19677SOL     OW60471   6.352   2.136   1.000 -0.1054 -0.0798  0.5758
19677SOL    HW160472   6.391   2.221   0.979  1.9386 -1.5422 -2.3354
19677SOL    HW260473   6.299   2.114   0.923 -1.0535 -1.2125  1.5109
19678SOL     OW60474   6.136   3.969   3.295  0.3302  0.1678 -0.0794
19678SOL    HW160475   6.154   3.902   3.229  1.2659 -0.4723  0.8048
19678SOL    HW260476   6.053   4.008   3.267 -0.2205 -1.3282 -0.6507
19679SOL     OW60477   4.993   1.423   4.626  0.0864  0.2758 -0.3304
19679SOL    HW160478   4.968   1.513   4.609 -1.2652 -0.0659 -0.2451
19679SOL    HW260479   4.914   1.382   4.660  0.2352 -1.3338 -1.8114
19680SOL     OW60480   6.404   3.969   3.111 -0.2669  0.0602 -0.0098
19680SOL    HW160481   6.309   3.960   3.101 -0.1147 -2.9662  0.3321
19680SOL    HW260482   6.431   4.024   3.037 -2.3396  2.0128  0.5563
19681SOL     OW60483   7.709   3.889   2.958 -0.5278 -0.0626  0.5153
19681SOL    HW160484   7.759   3.874   3.038 -2.3266  1.2181  1.9575
19681SOL    HW260485   7.722   3.809   2.907  2.1893 -0.1657  1.1732
19682SOL     OW60486   5.781   4.914   3.725 -0.3626 -0.2706 -0.0917
19682SOL    HW160487   5.718   4.859   3.771  1.4037 -1.0742  1.5111
19682SOL    HW260488   5.860   4.860   3.719  0.6361  1.1890 -0.7209
19683SOL     OW60489   3.870   2.409   1.890 -0.4788 -0.1020  0.7961
19683SOL    HW160490   3.956   2.441   1.920  0.0515 -0.8768  0.1465
19683SOL    HW260491   3.807   2.456   1.945  0.1776  2.9937 -0.8652
19684SOL     OW60492   6.889   1.143  12.357  0.3156  0.1407  0.4579
19684SOL    HW160493   6.950   1.086  12.311 -1.9584 -1.4322 -0.8157
19684SOL    HW260494   6.869   1.212  12.293  1.3503  1.1785  1.1951
19685SOL     OW60495   7.284   2.277   3.895 -0.0298 -0.0560  0.0366
19685SOL    HW160496   7.369   2.255   3.934 -0.4270 -0.6075  0.6013
19685SOL    HW260497   7.259   2.199   3.847 -0.8550 -0.3996  1.0057
19686SOL     OW60498   5.513   2.889   4.265 -0.1803  0.3201 -0.0181
19686SOL    HW160499   5.561   2.840   4.332  2.3662  1.8863 -0.5590
19686SOL    HW260500   5.422   2.861   4.276  0.7655 -2.7407  1.1667
19687SOL     OW60501   7.204   3.442   1.953 -0.0980 -0.1944 -0.1887
19687SOL    HW160502   7.251   3.368   1.991 -0.7467 -0.7044 -0.3625
19687SOL    HW260503   7.198   3.422   1.860  1.1906  0.8964 -0.5369
19688SOL     OW60504   6.218   2.177   2.828  0.1081  1.1508 -0.7364
19688SOL    HW160505   6.194   2.102   2.774  0.6804  0.7541 -0.4551
19688SOL    HW260506   6.245   2.139   2.911  3.6889  1.3001 -1.6470
19689SOL     OW60507   6.218   1.140   4.013  0.2717  0.7882  0.6561
19689SOL    HW160508   6.142   1.187   4.046 -1.9371 -0.7272 -1.8961
19689SOL    HW260509   6.218   1.057   4.061 -0.7076  0.1327 -0.4254
19690SOL     OW60510   7.779   1.553   0.339  0.6519 -0.1394  0.1369
19690SOL    HW160511   7.785   1.460   0.318 -0.0644 -0.0592 -0.4786
19690SOL    HW260512   7.771   1.557   0.434  1.4777 -0.6551  0.2390
19691SOL     OW60513   6.029   2.473   2.327 -0.2424 -1.0461 -0.1052
19691SOL    HW160514   6.014   2.383   2.300  0.5282 -1.5302  1.0331
19691SOL    HW260515   6.118   2.474   2.361 -0.6341 -0.1218  0.9557
19692SOL     OW60516   6.139   2.318   2.003  0.0312 -0.2874 -0.5248
19692SOL    HW160517   6.099   2.261   2.070  0.5771  1.7218  1.6568
19692SOL    HW260518   6.126   2.271   1.921 -3.6523 -1.4174  0.4936
19693SOL     OW60519   7.329   2.683   1.869 -0.3905  0.1259  0.2352
19693SOL    HW160520   7.236   2.695   1.888 -0.4794  2.0247 -1.0493
19693SOL    HW260521   7.374   2.743   1.928 -0.1668  0.8015 -0.5983
19694SOL     OW60522   7.205   1.294   3.500 -0.4742  0.0403 -0.0138
19694SOL    HW160523   7.135   1.357   3.512 -0.4390  0.1269 -0.2622
19694SOL    HW260524   7.163   1.218   3.461 -0.2515  0.4847 -1.1572
19695SOL     OW60525   5.626   1.684   4.022  0.6293  0.0185  0.2966
19695SOL    HW160526   5.612   1.593   4.050 -0.6339  0.4238  1.0646
19695SOL    HW260527   5.707   1.681   3.971  0.7237 -1.5006  0.4843
19696SOL     OW60528   7.025   2.519   2.982  0.1338  0.0142  0.3107
19696SOL    HW160529   7.049   2.485   2.896 -0.0792  2.2847 -0.7443
19696SOL    HW260530   6.932   2.499   2.991  0.3557 -1.0012  0.4269
19697SOL     OW60531   5.559   4.374   3.704 -0.0651  0.0924 -0.3537
19697SOL    HW160532   5.529   4.445   3.760  0.8877  0.1236  0.1445
19697SOL    HW260533   5.651   4.362   3.729  0.9042  1.2099 -3.0405
19698SOL     OW60534   5.984   4.106   4.318  0.2100 -0.3389  0.2461
19698SOL    HW160535   5.891   4.113   4.295  0.1762 -0.4103  0.3604
19698SOL    HW260536   5.984   4.071   4.407  0.3421 -0.1448  0.3228
19699SOL     OW60537   7.016   2.991   1.443  0.1281 -0.0518 -0.0364
19699SOL    HW160538   6.986   3.013   1.531  1.4128 -0.0927  0.4449
19699SOL    HW260539   7.112   2.984   1.452  0.1929 -0.9767 -1.2321
19700SOL     OW60540   5.326   2.909   1.667 -0.1546  0.1827  0.1386
19700SOL    HW160541   5.359   2.959   1.742  1.9416 -0.2954 -0.3888
19700SOL    HW260542   5.277   2.837   1.706  0.8094  0.0081  1.0815
19701SOL     OW60543   6.693   2.630   3.957 -0.2633 -0.1140 -0.0153
19701SOL    HW160544   6.717   2.541   3.983 -2.9932 -1.7836 -2.5561
19701SOL    HW260545   6.741   2.644   3.875 -1.5392 -0.1809 -0.7912
19702SOL     OW60546   7.562   2.216   3.868  0.2342 -0.0612 -0.5346
19702SOL    HW160547   7.554   2.137   3.815  1.3274  0.2968 -1.2729
19702SOL    HW260548   7.594   2.283   3.806  2.4993  0.1257  0.7383
19703SOL     OW60549   5.750   1.739   4.725  0.5059  0.5478 -0.0099
19703SOL    HW160550   5.719   1.789   4.650  1.8895  1.4129 -0.0433
19703SOL    HW260551   5.675   1.686   4.751  0.4169 -1.0505 -3.0184
19704SOL     OW60552   5.671   2.579   4.735 -0.1891  0.2264 -0.0340
19704SOL    HW160553   5.735   2.621   4.792  0.8187  1.3117 -1.8624
19704SOL    HW260554   5.602   2.644   4.724 -0.6430 -0.1840  0.3525
19705SOL     OW60555   5.669   3.203   3.428 -0.1587 -0.0945  0.5033
19705SOL    HW160556   5.643   3.276   3.373  1.2741  0.1699  0.1471
19705SOL    HW260557   5.712   3.141   3.369  2.7032  0.8292  1.4315
19706SOL     OW60558   5.167   2.641   2.299  0.2615  0.3516  0.3978
19706SOL    HW160559   5.164   2.546   2.313 -0.8443  0.3566  0.2996
19706SOL    HW260560   5.192   2.651   2.207  2.2648  0.2120  0.8878
19707SOL     OW60561   6.313   3.978   3.517 -0.2322  0.2990 -0.0835
19707SOL    HW160562   6.256   3.962   3.591  0.8075  0.4194  0.7656
19707SOL    HW260563   6.254   3.990   3.443 -1.3024  0.7608  0.8308
19708SOL     OW60564   6.015   1.370   4.085 -0.9027 -1.0357 -0.1867
19708SOL    HW160565   5.920   1.368   4.097 -0.9933 -0.2919 -0.7325
19708SOL    HW260566   6.049   1.403   4.169 -1.0373 -2.3137  0.3899
19709SOL     OW60567   6.742   3.935   3.695  0.2375 -0.1029 -0.6527
19709SOL    HW160568   6.681   3.915   3.765  1.0277  0.2234  0.1432
19709SOL    HW260569   6.811   3.987   3.736  0.1745  1.0297 -1.8847
19710SOL     OW60570   0.174   3.657   2.963 -0.2625  0.1062 -0.5601
19710SOL    HW160571   0.263   3.636   2.991 -0.5457  0.1278  0.4007
19710SOL    HW260572   0.121   3.584   2.996 -0.5187 -0.2030 -1.6364
19711SOL     OW60573   6.967   2.667   2.415 -0.4011 -0.1122  0.4826
19711SOL    HW160574   6.885   2.637   2.453 -0.6243  0.1110  0.1773
19711SOL    HW260575   6.941   2.726   2.345 -0.0079 -1.2331 -0.6382
19712SOL     OW60576   7.103   2.346   2.357 -0.3950 -0.3424  0.2334
19712SOL    HW160577   7.029   2.328   2.415 -1.1017  0.2416 -0.4679
19712SOL    HW260578   7.110   2.267   2.303 -0.6613 -0.3110  0.1489
19713SOL     OW60579   6.953   4.120   3.724 -0.2173 -0.0905  0.2680
19713SOL    HW160580   6.891   4.191   3.708  0.5366  0.5291 -0.0079
19713SOL    HW260581   7.031   4.145   3.674  0.6836 -0.2512  1.5419
19714SOL     OW60582   7.122   1.998   3.138 -0.0460  0.5626  0.3430
19714SOL    HW160583   7.149   2.014   3.229  1.0409 -0.0434  0.1459
19714SOL    HW260584   7.193   2.033   3.085  0.8793 -1.8944 -0.1729
19715SOL     OW60585   7.391   5.637   3.217 -0.1290  0.0843  0.6139
19715SOL    HW160586   7.369   5.546   3.200  0.4364 -0.0155  0.4099
19715SOL    HW260587   7.485   5.643   3.199 -0.2965  0.8604 -0.0559
19716SOL     OW60588   7.009   3.134   2.148 -0.1559  0.3462  0.5866
19716SOL    HW160589   6.915   3.119   2.154  0.1296 -2.0564 -0.0365
19716SOL    HW260590   7.019   3.205   2.085 -1.5671  1.6975  1.7972
19717SOL     OW60591   0.308   4.820   0.954 -0.0323 -0.0066  0.2160
19717SOL    HW160592   0.247   4.888   0.982 -1.8148 -0.1237 -2.9294
19717SOL    HW260593   0.318   4.764   1.031 -0.5834  2.3010  2.0793
19718SOL     OW60594   4.828   4.359   4.001 -0.9796 -0.5364 -0.5187
19718SOL    HW160595   4.880   4.281   4.024 -1.2457 -0.6925 -0.4466
19718SOL    HW260596   4.739   4.327   3.993 -1.0746 -0.2553 -0.5940
19719SOL     OW60597   5.695   3.651   2.387  0.0320 -0.6459  0.4649
19719SOL    HW160598   5.638   3.668   2.313  0.1001  1.3643  0.8098
19719SOL    HW260599   5.648   3.586   2.439 -2.1959  1.1617  0.9086
19720SOL     OW60600   7.354   1.416   3.264  0.6324 -0.0476  0.1297
19720SOL    HW160601   7.325   1.507   3.266  0.3365 -0.0794 -1.2108
19720SOL    HW260602   7.331   1.380   3.349 -2.3525  0.2282 -0.4498
19721SOL     OW60603   6.177   3.476   2.914 -0.4135 -0.4052 -0.3636
19721SOL    HW160604   6.129   3.480   2.831 -1.3670 -3.4207 -0.0669
19721SOL    HW260605   6.269   3.470   2.889 -0.2331  2.8565 -0.9942
19722SOL     OW60606   0.507   1.990   3.606 -0.2042 -0.0333 -0.1988
19722SOL    HW160607   0.466   1.949   3.530  0.1385  1.2414 -1.1009
19722SOL    HW260608   0.515   2.082   3.582  1.4605  0.0918  0.7067
19723SOL     OW60609   5.873   0.993   4.788 -0.3324  0.4905 -1.4139
19723SOL    HW160610   5.788   0.998   4.744 -0.1601 -0.0719 -1.8267
19723SOL    HW260611   5.851   0.977   4.880 -0.6920 -2.7937 -1.9470
19724SOL     OW60612   6.769   0.729   3.258  0.3490 -0.3216  0.0413
19724SOL    HW160613   6.774   0.684   3.173 -1.4922  0.7356 -0.6879
19724SOL    HW260614   6.817   0.672   3.318  1.5892 -1.1675 -1.6674
19725SOL     OW60615   7.466   1.438   0.247 -0.2366 -0.5650  0.1110
19725SOL    HW160616   7.373   1.414   0.241 -0.5705  0.6236  0.1936
19725SOL    HW260617   7.466   1.533   0.240  1.1095 -0.6358 -1.3752
19726SOL     OW60618   6.226   2.170   3.376 -0.4865  0.4281  0.3349
19726SOL    HW160619   6.143   2.135   3.407 -0.1180 -0.4848  0.3439
19726SOL    HW260620   6.207   2.260   3.351 -1.2159  0.5823  1.3932
19727SOL     OW60621   7.791   2.100   3.540 -0.2514  0.0032  0.4904
19727SOL    HW160622   7.755   2.017   3.572 -0.4231  0.1060  0.5677
19727SOL    HW260623   7.790   2.091   3.445  1.3451 -0.7545  0.5250
19728SOL     OW60624   7.288   4.182   2.782 -0.2783  0.0126  0.1133
19728SOL    HW160625   7.368   4.130   2.773 -0.5315 -0.5601  1.0662
19728SOL    HW260626   7.255   4.190   2.692  1.3837  1.1603 -0.4523
19729SOL     OW60627   7.792   3.234   4.386  0.6656  0.0494  0.3875
19729SOL    HW160628   7.784   3.155   4.334  1.4047 -0.5548  1.1614
19729SOL    HW260629   7.714   3.285   4.365  0.9035 -0.2033 -1.2327
19730SOL     OW60630   7.156   3.696   2.077  0.1147 -0.3030  1.1161
19730SOL    HW160631   7.061   3.693   2.087  0.1755 -0.3767  1.7258
19730SOL    HW260632   7.179   3.611   2.038 -0.1241 -0.0445  0.3835
19731SOL     OW60633   7.359   2.842   2.823  0.2800 -0.4455  0.6114
19731SOL    HW160634   7.280   2.870   2.776 -0.3082  0.2311  1.9463
19731SOL    HW260635   7.355   2.747   2.823 -0.0773 -0.4369 -0.0839
19732SOL     OW60636   6.026   1.200   1.216  0.3541 -0.5718 -0.4156
19732SOL    HW160637   5.937   1.216   1.245 -0.0036 -2.1241 -0.5451
19732SOL    HW260638   6.072   1.282   1.232 -1.2388  0.4731 -0.9521
19733SOL     OW60639   6.871   1.550   1.327  0.5109  0.2565 -0.5384
19733SOL    HW160640   6.967   1.547   1.327  0.5364  0.3983  0.9087
19733SOL    HW260641   6.845   1.506   1.246  1.8309  1.8664 -1.9161
19734SOL     OW60642   7.155   2.695   4.076  0.0750  0.2238 -0.2165
19734SOL    HW160643   7.202   2.615   4.049  1.6303  0.9302  0.2596
19734SOL    HW260644   7.092   2.664   4.141  1.6206 -0.4973  1.0326
19735SOL     OW60645   6.452   3.106   3.969 -0.7695 -0.0161  0.2223
19735SOL    HW160646   6.541   3.100   4.003 -0.3961 -0.6165 -0.8116
19735SOL    HW260647   6.399   3.051   4.028 -0.6264  0.9774  1.3133
19736SOL     OW60648   5.046   3.309   4.559 -0.0004 -0.1932  0.3489
19736SOL    HW160649   4.974   3.324   4.620 -1.6915 -2.3872 -0.9623
19736SOL    HW260650   5.061   3.214   4.563 -0.2482 -0.4377 -2.6392
19737SOL     OW60651   6.328   3.345   3.946 -0.1535 -0.0719 -0.6852
19737SOL    HW160652   6.360   3.255   3.954  1.0477  0.4133  0.3830
19737SOL    HW260653   6.238   3.336   3.916 -0.2954 -1.6710  0.0967
19738SOL     OW60654   2.535   3.214   1.635 -0.0317 -0.3077  0.7702
19738SOL    HW160655   2.514   3.291   1.582 -0.4471 -1.7402 -1.2687
19738SOL    HW260656   2.457   3.159   1.629  1.7453 -2.8374 -1.5721
19739SOL     OW60657   7.131   3.518   2.834  0.6864  0.1419  0.8873
19739SOL    HW160658   7.058   3.474   2.876 -0.3798  0.3413 -0.6696
19739SOL    HW260659   7.182   3.448   2.794 -1.0010  0.1746 -1.5785
19740SOL     OW60660   6.470   1.177   2.021  0.6842 -1.0544  0.0109
19740SOL    HW160661   6.383   1.138   2.027  0.3310 -0.1593  1.0908
19740SOL    HW260662   6.456   1.258   1.972  1.0723 -1.3148 -0.5444
19741SOL     OW60663   6.816   4.354   0.475  0.2300  0.5309 -0.1171
19741SOL    HW160664   6.741   4.388   0.426  1.1822  1.5783 -0.8979
19741SOL    HW260665   6.875   4.320   0.408 -0.6076 -2.6696  0.6141
19742SOL     OW60666   0.262   2.071   3.665 -0.0358 -0.0674  0.3977
19742SOL    HW160667   0.348   2.039   3.690  0.7345 -1.4067 -3.3189
19742SOL    HW260668   0.215   1.994   3.634 -1.6008  1.0470 -0.1436
19743SOL     OW60669   6.347   5.031   1.776 -0.0086  0.7977 -0.5442
19743SOL    HW160670   6.327   5.032   1.682  0.3517 -1.6130 -0.7199
19743SOL    HW260671   6.273   4.985   1.815 -0.0400  1.5814  0.3512
19744SOL     OW60672   7.241   1.412   3.783  0.0855 -0.5163 -0.2656
19744SOL    HW160673   7.187   1.367   3.848 -1.9543 -1.5724 -2.5511
19744SOL    HW260674   7.231   1.361   3.703  3.3145  0.1452 -1.2321
19745SOL     OW60675   6.694   5.220   4.001 -0.4178 -0.3981 -0.1380
19745SOL    HW160676   6.684   5.261   4.087 -0.5604 -0.1165 -0.2870
19745SOL    HW260677   6.785   5.239   3.977  0.2656 -2.2013  0.8257
19746SOL     OW60678   4.744   5.642   3.846  0.3744 -0.3582 -0.1400
19746SOL    HW160679   4.658   5.610   3.820  1.0104 -0.6475 -2.0143
19746SOL    HW260680   4.786   5.666   3.764  2.4186 -1.0486  0.6511
19747SOL     OW60681   5.532   2.190   2.722  0.0434  0.6188 -0.1505
19747SOL    HW160682   5.615   2.220   2.761 -0.0395  1.3103 -0.4868
19747SOL    HW260683   5.465   2.243   2.765 -0.1310  0.7468 -0.5697
19748SOL     OW60684   5.343   2.189   4.248  0.1076 -0.0431 -0.5475
19748SOL    HW160685   5.408   2.137   4.295 -1.3605 -1.9854 -0.5678
19748SOL    HW260686   5.259   2.158   4.281 -0.8664  1.2034 -1.7638
19749SOL     OW60687   7.754   0.635   3.012  0.5649 -0.5156  0.0220
19749SOL    HW160688   7.846   0.657   3.028  0.0845  1.0680  0.8028
19749SOL    HW260689   7.748   0.623   2.917  1.2641  1.0476 -0.2531
19750SOL     OW60690   6.758   2.532   3.051 -0.1656 -0.5778  0.2834
19750SOL    HW160691   6.772   2.626   3.064 -1.8515 -0.0329 -1.3593
19750SOL    HW260692   6.706   2.505   3.126 -1.4162  0.2969 -0.2250
19751SOL     OW60693   0.096   2.033   4.492 -0.5948  0.6555  0.0203
19751SOL    HW160694   0.186   2.065   4.485 -0.2096 -0.5257 -0.5693
19751SOL    HW260695   0.080   2.030   4.587  0.2099  0.2705  0.1576
19752SOL     OW60696   6.419   4.342   1.305  0.0458 -0.2656 -0.2490
19752SOL    HW160697   6.391   4.322   1.216  2.3123  2.8097 -1.8323
19752SOL    HW260698   6.509   4.311   1.310  0.4334  0.9149  0.4370
19753SOL     OW60699   6.285   5.804   3.156 -0.0923 -0.1141  0.4644
19753SOL    HW160700   6.380   5.809   3.159 -0.0157 -1.1829  0.0820
19753SOL    HW260701   6.256   5.832   3.243  0.6187 -0.7432  0.9117
19754SOL     OW60702   5.029   4.635   2.327  0.0668  1.0774 -0.5051
19754SOL    HW160703   5.007   4.559   2.273  0.2344  0.2388  0.5581
19754SOL    HW260704   4.949   4.654   2.376  0.3819  0.8012  0.1293
19755SOL     OW60705   0.465   3.798   0.980 -0.3554 -0.1185 -0.0210
19755SOL    HW160706   0.431   3.885   0.963  0.6502  0.3322  0.2218
19755SOL    HW260707   0.556   3.812   1.009 -0.0712 -1.2566 -0.3039
19756SOL     OW60708   0.127   3.258   2.063  0.2896  0.3491 -0.5213
19756SOL    HW160709   0.114   3.306   1.980 -1.7603 -1.0047 -1.0386
19756SOL    HW260710   0.052   3.282   2.117  0.0406 -1.0479 -0.2042
19757SOL     OW60711   5.157   1.849   5.035  0.7889  0.4763 -0.3029
19757SOL    HW160712   5.235   1.884   4.992 -0.2651  2.2230 -0.9060
19757SOL    HW260713   5.155   1.757   5.009  2.8475  0.2675  0.0762
19758SOL     OW60714   6.924   2.306   2.551 -0.0545  0.1791 -0.3049
19758SOL    HW160715   6.952   2.270   2.635  0.5665 -0.8120 -0.9070
19758SOL    HW260716   6.858   2.372   2.573  0.8182  0.6586  1.0124
19759SOL     OW60717   5.652   2.851   5.046 -0.6148 -0.7225  0.6365
19759SOL    HW160718   5.682   2.796   5.119 -1.1354 -1.5052  0.2828
19759SOL    HW260719   5.559   2.865   5.064 -0.4915  0.0193  0.7019
19760SOL     OW60720   1.016   0.688   1.574 -0.7348 -0.6343  0.2244
19760SOL    HW160721   0.958   0.705   1.649 -1.2352 -0.6457 -0.1533
19760SOL    HW260722   1.012   0.769   1.522  0.2997 -0.2911  0.6477
19761SOL     OW60723   5.609   1.328   4.027  0.2499 -0.2767  0.4284
19761SOL    HW160724   5.676   1.263   4.050  0.6931 -0.2901 -0.8135
19761SOL    HW260725   5.637   1.362   3.943  0.0507  1.5925  1.0782
19762SOL     OW60726   7.038   3.328   1.570  0.7820  0.1074  0.3671
19762SOL    HW160727   7.069   3.418   1.575  0.1669  0.3241  0.4368
19762SOL    HW260728   7.064   3.298   1.483 -0.9750  1.1110 -0.5562
19763SOL     OW60729   7.599   1.698   4.441  0.3140 -0.1503 -0.0889
19763SOL    HW160730   7.592   1.785   4.402 -1.1334 -0.9986 -1.8849
19763SOL    HW260731   7.693   1.686   4.457  0.8659  0.7410 -2.3066
19764SOL     OW60732   6.293   2.896   2.788  0.0216 -0.1336  0.2123
19764SOL    HW160733   6.370   2.945   2.818 -0.6459  0.3894  1.1269
19764SOL    HW260734   6.248   2.955   2.728  0.4811 -0.5604 -0.5754
19765SOL     OW60735   0.637   0.533   3.430 -0.4568 -0.2649 -0.7648
19765SOL    HW160736   0.643   0.495   3.342  3.0126 -0.2413 -0.6492
19765SOL    HW260737   0.615   0.459   3.486 -1.0461 -0.5981 -1.4109
19766SOL     OW60738   7.351   1.310   5.499  0.9950 -0.0801  0.3075
19766SOL    HW160739   7.378   1.225   5.534  0.1072 -1.2063 -1.5358
19766SOL    HW260740   7.258   1.315   5.520  1.0840  0.5421  0.5662
19767SOL     OW60741   6.673   2.048   2.939 -0.4633 -0.0313 -0.1742
19767SOL    HW160742   6.705   2.027   2.851 -0.5887  2.1114 -0.7929
19767SOL    HW260743   6.750   2.081   2.985 -0.6413 -0.0736  0.1558
19768SOL     OW60744   0.499   2.749   4.256 -0.3025  0.2113  0.7826
19768SOL    HW160745   0.439   2.756   4.182 -0.0561 -0.4600  0.5105
19768SOL    HW260746   0.457   2.687   4.315  0.8391 -1.5518 -0.1586
19769SOL     OW60747   5.507   0.480   2.225  0.5506 -0.1944 -0.7024
19769SOL    HW160748   5.540   0.408   2.280 -0.0479  0.5067  0.6072
19769SOL    HW260749   5.587   0.520   2.188  0.8669 -1.8931 -1.9802
19770SOL     OW60750   6.715   3.493   3.574 -0.5177 -0.0821 -0.6489
19770SOL    HW160751   6.808   3.517   3.574 -0.6268  0.3660  0.1977
19770SOL    HW260752   6.672   3.567   3.530 -0.6179  0.3436  0.1453
19771SOL     OW60753   4.357   2.438   3.516  0.3577 -0.4772 -0.0864
19771SOL    HW160754   4.446   2.470   3.503  0.0922 -0.2605 -1.5240
19771SOL    HW260755   4.319   2.437   3.428 -2.4289  3.3701  0.8133
19772SOL     OW60756   6.534   3.935   3.350 -0.0295 -0.2516 -0.0210
19772SOL    HW160757   6.470   3.961   3.416  0.1125  1.1717 -0.4139
19772SOL    HW260758   6.499   3.968   3.268 -0.0378 -1.7161 -0.6238
19773SOL     OW60759   6.712   1.768   2.536 -0.5337 -0.0534 -0.5952
19773SOL    HW160760   6.623   1.801   2.549 -0.4932 -0.4430  0.8749
19773SOL    HW260761   6.766   1.847   2.529 -0.8584  0.1882 -0.3829
19774SOL     OW60762   6.486   1.884   3.464  0.3904 -0.3065  0.5252
19774SOL    HW160763   6.489   1.956   3.401  0.1430 -1.2980 -0.6491
19774SOL    HW260764   6.397   1.849   3.457  1.5620 -3.1814 -1.8231
19775SOL     OW60765   5.881   1.190   3.530 -0.1380 -0.0124  0.5736
19775SOL    HW160766   5.879   1.282   3.505 -0.0657 -0.1801 -0.0668
19775SOL    HW260767   5.958   1.155   3.485  0.4351 -0.1684  1.6182
19776SOL     OW60768   5.615   0.252   5.868 -0.1016 -0.8675 -0.8566
19776SOL    HW160769   5.639   0.342   5.844 -1.5623 -0.4208 -0.7430
19776SOL    HW260770   5.690   0.220   5.918 -0.2844  0.9601  0.7220
19777SOL     OW60771   6.978   1.912   4.066 -0.4486 -0.2151  0.0420
19777SOL    HW160772   7.043   1.966   4.110 -0.9610  0.2063  0.3015
19777SOL    HW260773   6.899   1.967   4.063 -1.8626 -1.8396  2.7988
19778SOL     OW60774   0.784   3.372   3.700 -0.3107  0.2226  0.6389
19778SOL    HW160775   0.744   3.457   3.683 -0.8693 -0.1764 -0.1256
19778SOL    HW260776   0.806   3.339   3.613  0.6327 -0.0735  0.9793
19779SOL     OW60777   6.451   1.440   4.170 -0.6784 -0.7377 -0.0205
19779SOL    HW160778   6.432   1.502   4.240 -1.2715  0.3834 -1.1296
19779SOL    HW260779   6.546   1.447   4.156 -0.2529 -2.1958  1.7356
19780SOL     OW60780   6.174   3.572   3.703 -0.4286 -0.5605  0.7715
19780SOL    HW160781   6.266   3.553   3.686 -0.5751 -1.4976  0.9497
19780SOL    HW260782   6.167   3.569   3.799 -0.7414 -0.9856  0.7357
19781SOL     OW60783   0.423   1.770   5.539 -0.2703  0.5321  0.7995
19781SOL    HW160784   0.398   1.764   5.632 -2.2208 -1.5200  0.2304
19781SOL    HW260785   0.468   1.688   5.521  2.0330  1.8117  0.3649
19782SOL     OW60786   6.635   3.119   4.730 -0.1467 -0.1709 -0.2650
19782SOL    HW160787   6.591   3.068   4.798 -1.4230  0.6517 -0.4515
19782SOL    HW260788   6.725   3.087   4.732 -0.6317 -1.6247  0.3992
19783SOL     OW60789   7.196   2.769   4.686 -0.2652 -0.0178  0.6587
19783SOL    HW160790   7.109   2.738   4.710  0.2581 -3.1667 -0.8763
19783SOL    HW260791   7.212   2.730   4.599  1.8129  2.3224 -0.1265
19784SOL     OW60792   6.323   2.245   6.975  0.1124  0.2960  0.0215
19784SOL    HW160793   6.329   2.334   6.940 -1.5612  0.4453  0.0605
19784SOL    HW260794   6.366   2.251   7.061  0.9882  0.7829 -0.4331
19785SOL     OW60795   5.283   3.434   5.254 -0.1828 -0.2502 -0.1430
19785SOL    HW160796   5.255   3.377   5.326  0.3070  1.3991  1.4499
19785SOL    HW260797   5.205   3.483   5.231 -0.7326 -1.8407 -1.8595
19786SOL     OW60798   6.875   2.795   4.702 -0.5697  0.0366 -0.6325
19786SOL    HW160799   6.830   2.815   4.620  1.7336  1.8529 -1.5846
19786SOL    HW260800   6.897   2.881   4.738 -1.1017 -0.7339  1.6922
19787SOL     OW60801   5.421   4.827   4.701 -0.3287  0.2188  0.6158
19787SOL    HW160802   5.401   4.791   4.787 -0.4714  2.1931  1.4636
19787SOL    HW260803   5.336   4.847   4.663 -0.2199  1.5587  1.0383
19788SOL     OW60804   7.301   2.756   4.404 -0.2016 -0.1248 -0.2068
19788SOL    HW160805   7.318   2.662   4.400  2.2021  0.2054  0.4023
19788SOL    HW260806   7.299   2.784   4.313 -0.3884 -0.6925 -0.3770
19789SOL     OW60807   5.219   3.516   4.419  0.6599 -0.0414 -0.3441
19789SOL    HW160808   5.312   3.502   4.431  0.6992  0.5882  0.1518
19789SOL    HW260809   5.177   3.443   4.464  0.9195 -0.8549 -1.3885
19790SOL     OW60810   5.596   4.957   5.497 -0.0604  0.0457 -1.1348
19790SOL    HW160811   5.648   5.023   5.542 -1.7974  0.4165  0.4721
19790SOL    HW260812   5.537   5.007   5.441 -0.5961 -0.1889 -0.7928
19791SOL     OW60813   6.397   2.717   3.857  0.1040  0.1837  0.3769
19791SOL    HW160814   6.481   2.743   3.894  1.9185 -1.9883 -1.8888
19791SOL    HW260815   6.391   2.623   3.873 -1.2088  0.0464 -0.7050
19792SOL     OW60816   5.230   4.050   5.379 -0.2561  0.5194 -0.0585
19792SOL    HW160817   5.248   4.143   5.387 -1.1308  0.7736 -0.8746
19792SOL    HW260818   5.177   4.029   5.455 -0.9786  0.9384 -0.4388
19793SOL     OW60819   5.084   4.596   5.884  0.0591  0.1010 -0.5225
19793SOL    HW160820   5.047   4.554   5.807  0.0313  2.4808 -1.9097
19793SOL    HW260821   5.039   4.556   5.958 -1.8234 -0.4135 -1.8891
19794SOL     OW60822   6.026   2.831   3.744  0.2025 -0.5208 -0.1449
19794SOL    HW160823   6.094   2.806   3.683  0.6576 -0.4683  0.3322
19794SOL    HW260824   5.948   2.843   3.690  0.0986 -2.3848 -0.4615
19795SOL     OW60825   6.062   2.384   4.429  0.2413  0.8220 -0.4533
19795SOL    HW160826   6.122   2.458   4.435  0.3802  0.6626  0.2564
19795SOL    HW260827   6.030   2.372   4.519  0.7683 -0.4226 -0.4030
19796SOL     OW60828   6.343   2.178   4.792 -0.4687  0.7768  0.2090
19796SOL    HW160829   6.337   2.142   4.880  1.5167 -0.2664 -0.0211
19796SOL    HW260830   6.266   2.143   4.747 -0.1077 -0.9139  0.8107
19797SOL     OW60831   7.168   3.348   3.801  0.5509  0.1336  0.5611
19797SOL    HW160832   7.217   3.273   3.835 -0.2028  0.5790  2.8392
19797SOL    HW260833   7.079   3.315   3.790  1.0441 -0.4302 -2.7017
19798SOL     OW60834   6.480   4.475   3.577  0.4248 -0.3553 -0.2289
19798SOL    HW160835   6.552   4.472   3.640 -0.5702 -0.5695  0.9435
19798SOL    HW260836   6.427   4.398   3.599 -0.4964  0.1526 -0.6357
19799SOL     OW60837   7.975   3.510   3.091  0.4446  0.7400 -0.0504
19799SOL    HW160838   7.935   3.451   3.027 -0.3911 -1.3636  2.2539
19799SOL    HW260839   7.900   3.551   3.135  0.9831  1.4585  0.2102
19800SOL     OW60840   5.475   3.195   4.132  0.4743 -0.2642 -0.6120
19800SOL    HW160841   5.492   3.284   4.101 -1.1964 -0.0890 -1.1327
19800SOL    HW260842   5.537   3.140   4.084 -0.5500  0.2759 -2.6837
19801SOL     OW60843   7.255   1.582   4.394  0.4072  0.0431 -0.2938
19801SOL    HW160844   7.226   1.655   4.449  0.0944 -0.5824  0.3990
19801SOL    HW260845   7.239   1.611   4.305  0.6341  0.9683 -0.0421
19802SOL     OW60846   6.753   3.931   3.182 -0.4122 -0.0828 -0.1199
19802SOL    HW160847   6.690   3.927   3.255 -0.4004 -1.1514 -0.1409
19802SOL    HW260848   6.736   4.014   3.140 -2.0165 -0.4594 -0.2840
19803SOL     OW60849   6.369   3.856   6.780  0.2056  0.2289 -0.2235
19803SOL    HW160850   6.418   3.820   6.854  0.7641 -0.4574 -0.9164
19803SOL    HW260851   6.280   3.821   6.790 -0.7547  2.8726  2.0488
19804SOL     OW60852   6.732   4.064   4.759  0.4841 -0.4194 -0.1209
19804SOL    HW160853   6.733   4.158   4.740 -1.8950 -0.4851 -0.9967
19804SOL    HW260854   6.737   4.022   4.673  1.1887 -1.0970  0.2397
19805SOL     OW60855   5.365   3.022   5.257  0.2724 -0.0742  0.2202
19805SOL    HW160856   5.289   3.012   5.314  0.0429 -0.1440 -0.0940
19805SOL    HW260857   5.406   3.104   5.286  0.3520 -0.2845  0.7038
19806SOL     OW60858   6.691   2.745   4.937 -0.2770  0.0953 -0.1529
19806SOL    HW160859   6.736   2.768   4.856 -0.8606  0.4795 -0.3713
19806SOL    HW260860   6.631   2.818   4.952  0.7055  0.6615  1.2898
19807SOL     OW60861   5.778   4.558   5.358 -0.2546  0.6224 -0.1369
19807SOL    HW160862   5.728   4.540   5.437 -0.9469  1.2764 -0.4124
19807SOL    HW260863   5.778   4.475   5.310 -0.9197  0.5706 -0.0493
19808SOL     OW60864   6.380   2.177   5.656 -0.3240 -0.2459 -0.2174
19808SOL    HW160865   6.446   2.110   5.639 -0.8637 -1.1614  1.1179
19808SOL    HW260866   6.428   2.248   5.699  0.0417 -0.2672 -0.5828
19809SOL     OW60867   0.606   1.073   3.404 -0.2580 -0.0824  0.0451
19809SOL    HW160868   0.569   0.991   3.372 -0.0842  0.8047 -2.6697
19809SOL    HW260869   0.579   1.138   3.340  0.9154  1.7063  1.2810
19810SOL     OW60870   5.841   2.715   4.889  0.5155  0.5027  0.0570
19810SOL    HW160871   5.829   2.794   4.836 -0.1822  0.3303 -0.0538
19810SOL    HW260872   5.795   2.734   4.971 -1.1434 -0.3952 -0.6032
19811SOL     OW60873   5.897   2.873   3.506 -0.2041  0.2116  0.3237
19811SOL    HW160874   5.848   2.805   3.460  0.3030  0.9232 -1.3406
19811SOL    HW260875   5.950   2.915   3.439  1.3235  0.6787  1.7417
19812SOL     OW60876   6.544   4.971   6.341  0.0084 -0.4730  0.4990
19812SOL    HW160877   6.510   4.921   6.415  1.4263 -0.0976  1.4592
19812SOL    HW260878   6.639   4.955   6.344  0.2032  0.3727 -0.6239
19813SOL     OW60879   6.025   2.331   6.486 -0.2350  0.0488 -0.4432
19813SOL    HW160880   6.058   2.309   6.399  0.5290  0.2611 -0.2173
19813SOL    HW260881   6.104   2.350   6.537 -0.7019  0.3451  0.1797
19814SOL     OW60882   6.152   3.723   6.830  0.3504  0.4883  0.1570
19814SOL    HW160883   6.186   3.636   6.851 -0.6850  0.1370  0.4790
19814SOL    HW260884   6.069   3.706   6.784  0.2532  1.3002  0.0160
19815SOL     OW60885   6.365   2.839   5.255 -0.6491  0.1525  0.1560
19815SOL    HW160886   6.417   2.760   5.271 -0.2423  0.2113 -0.7771
19815SOL    HW260887   6.423   2.895   5.203 -1.4955  0.4062 -0.5397
19816SOL     OW60888   6.304   3.980   5.196  0.6515 -0.1145  0.0134
19816SOL    HW160889   6.218   3.953   5.228 -0.1190  3.0051  0.9662
19816SOL    HW260890   6.286   4.050   5.134  2.4792 -0.3178 -0.8171
19817SOL     OW60891   6.145   1.939   3.744  0.0476  0.1156 -0.1043
19817SOL    HW160892   6.072   1.882   3.720  0.3196 -0.2867  0.0163
19817SOL    HW260893   6.219   1.880   3.756 -0.0755  0.2802  1.7509
19818SOL     OW60894   6.417   2.511   3.486  0.8158  0.2209  0.2381
19818SOL    HW160895   6.486   2.500   3.551  0.6214  0.7798  0.5491
19818SOL    HW260896   6.336   2.489   3.534  0.5798  1.4911  0.4480
19819SOL     OW60897   5.429   3.531   3.606 -0.7808  0.1585 -0.3184
19819SOL    HW160898   5.333   3.535   3.607 -0.7499  1.7717  1.0923
19819SOL    HW260899   5.456   3.608   3.555 -0.2252 -0.3162 -0.7578
19820SOL     OW60900   7.062   0.928   0.585  0.2678 -0.2456 -0.2841
19820SOL    HW160901   7.126   0.857   0.590  2.1290  1.3178 -0.6275
19820SOL    HW260902   7.053   0.945   0.491 -0.6881 -0.4247 -0.2408
19821SOL     OW60903   6.095   4.463   4.865  0.0215 -0.1247 -0.2569
19821SOL    HW160904   6.186   4.490   4.876 -0.1068  0.2826 -0.1803
19821SOL    HW260905   6.073   4.487   4.774  0.4399 -1.5818 -0.7791
19822SOL     OW60906   6.873   3.235   5.827  0.3842  0.1849  0.6275
19822SOL    HW160907   6.923   3.312   5.801  1.4669 -1.4533 -2.6926
19822SOL    HW260908   6.794   3.270   5.868  1.4207  2.9757  0.4268
19823SOL     OW60909   7.112   2.085   4.244 -0.1273 -0.0075 -0.0737
19823SOL    HW160910   7.200   2.048   4.246 -0.0977  0.0424  2.2850
19823SOL    HW260911   7.093   2.107   4.335 -2.2716  0.7525 -0.6417
19824SOL     OW60912   6.705   3.754   2.555  0.7871  0.4171  0.0891
19824SOL    HW160913   6.780   3.783   2.608  1.0348  1.3276 -0.7129
19824SOL    HW260914   6.687   3.829   2.499  1.1172 -0.8235 -1.7561
19825SOL     OW60915   5.114   3.852   3.787  0.3203  0.1398  0.2915
19825SOL    HW160916   5.019   3.859   3.780  0.2465 -0.1603  0.9472
19825SOL    HW260917   5.146   3.941   3.773 -0.0418  0.2128 -0.0916
19826SOL     OW60918   7.144   4.094   3.190  0.2547  0.8016  0.5791
19826SOL    HW160919   7.113   4.048   3.112  0.6622  2.3901 -0.5565
19826SOL    HW260920   7.065   4.129   3.231  0.2013  1.8394 -0.3633
19827SOL     OW60921   6.675   3.738   6.321 -0.3855  0.0985  0.6175
19827SOL    HW160922   6.598   3.721   6.266 -0.4126  0.4883  0.5366
19827SOL    HW260923   6.739   3.672   6.292 -1.3216 -1.5161  1.9935
19828SOL     OW60924   6.242   3.830   4.470  0.0667  0.1595  0.2188
19828SOL    HW160925   6.159   3.813   4.515 -0.0963 -1.5809 -0.6616
19828SOL    HW260926   6.307   3.783   4.522  0.2326  0.0522 -0.0855
19829SOL     OW60927   3.876   2.054   3.754  0.0533  0.2169 -0.5507
19829SOL    HW160928   3.969   2.037   3.738 -0.0095 -0.3910 -0.3105
19829SOL    HW260929   3.842   1.971   3.789 -0.2573  0.8683  0.7623
19830SOL     OW60930   6.302   2.472   6.537 -0.3213  0.0973 -0.4159
19830SOL    HW160931   6.314   2.419   6.616  0.5628  2.7151  1.3450
19830SOL    HW260932   6.326   2.414   6.465  0.1340 -2.0032  1.3267
19831SOL     OW60933   7.846   4.118   2.495 -0.7333  0.4933 -0.0553
19831SOL    HW160934   7.847   4.037   2.546 -0.6585  1.5226  1.6987
19831SOL    HW260935   7.753   4.138   2.484 -0.7835 -0.4529 -1.6195
19832SOL     OW60936   6.800   2.238   4.865  0.9342 -0.1428 -0.0491
19832SOL    HW160937   6.732   2.304   4.854  1.8957  0.8199 -0.3820
19832SOL    HW260938   6.782   2.199   4.951 -0.8091 -0.8621 -0.6756
19833SOL     OW60939   0.033   3.172   3.736  0.0325  0.1271  0.4210
19833SOL    HW160940   0.115   3.199   3.696  0.8070 -0.3683  1.6107
19833SOL    HW260941   0.010   3.244   3.795 -1.0568  0.8195 -0.8198
19834SOL     OW60942   4.735   1.841   4.212  0.4095  0.5212 -0.1804
19834SOL    HW160943   4.730   1.770   4.275 -0.9654  0.7830  0.0289
19834SOL    HW260944   4.660   1.897   4.232 -0.8016 -0.0215 -2.7848
19835SOL     OW60945   7.511   1.172   2.581 -0.4365 -0.4715 -0.4622
19835SOL    HW160946   7.456   1.141   2.653 -1.5962 -1.0420 -1.5417
19835SOL    HW260947   7.459   1.239   2.538  0.7411  0.7167 -0.0821
19836SOL     OW60948   4.493   4.516   5.945 -0.4271 -0.2115 -0.8167
19836SOL    HW160949   4.421   4.492   5.886 -1.2302 -1.5027  0.6057
19836SOL    HW260950   4.542   4.435   5.956  1.1720  0.6062 -1.5955
19837SOL     OW60951   5.350   3.266   5.044  0.5416  0.4424  0.3154
19837SOL    HW160952   5.406   3.196   5.077 -1.4248 -1.3047  0.1378
19837SOL    HW260953   5.305   3.300   5.122  1.4676  1.5581  0.3991
19838SOL     OW60954   6.933   3.198   3.807  0.0723  0.1971 -0.0374
19838SOL    HW160955   6.931   3.115   3.855  3.5490  1.2502  2.2769
19838SOL    HW260956   6.955   3.174   3.717 -0.0432 -1.4285  0.3440
19839SOL     OW60957   7.069   2.104   5.758  0.1010 -0.6060  0.6317
19839SOL    HW160958   7.071   2.009   5.746  1.8203 -0.4724 -0.4261
19839SOL    HW260959   7.160   2.130   5.767 -0.3896  0.8478  2.0255
19840SOL     OW60960   4.753   1.731   3.948  0.5716 -0.1051  0.0800
19840SOL    HW160961   4.730   1.818   3.916 -0.9276 -0.8387 -0.9823
19840SOL    HW260962   4.761   1.742   4.043 -1.1905  0.8978  0.1628
19841SOL     OW60963   5.797   2.722   5.259  0.1853  0.1748  0.0559
19841SOL    HW160964   5.769   2.632   5.276  0.3113  0.0628 -0.3128
19841SOL    HW260965   5.892   2.716   5.251  0.1867  0.3263 -0.0537
19842SOL     OW60966   5.945   3.658   6.358 -0.6801  0.0949  0.2692
19842SOL    HW160967   6.020   3.682   6.413  1.1485  1.7855 -2.6844
19842SOL    HW260968   5.894   3.739   6.351  0.5893  0.7989 -2.4626
19843SOL     OW60969   7.107   2.843   7.080  0.4165  0.0363 -0.2554
19843SOL    HW160970   7.028   2.859   7.027  0.5327 -0.8866 -0.7360
19843SOL    HW260971   7.141   2.760   7.047  1.7041  0.5206 -0.1720
19844SOL     OW60972   5.496   5.542   5.775  0.8736 -0.5052 -0.3896
19844SOL    HW160973   5.584   5.534   5.811  0.4308  1.1881  1.2031
19844SOL    HW260974   5.493   5.629   5.737 -0.1699 -0.4385 -0.1903
19845SOL     OW60975   7.319   2.102   4.459  0.5762  0.0954  0.5093
19845SOL    HW160976   7.386   2.163   4.428  0.5068  0.7736  1.6587
19845SOL    HW260977   7.292   2.136   4.544  0.9327 -1.8212  1.4566
19846SOL     OW60978   5.739   2.323   5.026  0.3830 -0.1540  0.0652
19846SOL    HW160979   5.746   2.238   5.070 -0.5718 -0.2876 -0.0046
19846SOL    HW260980   5.645   2.335   5.013  0.3806  1.5174  1.2447
19847SOL     OW60981   7.718   3.378   5.980 -0.2857 -0.0001  0.0674
19847SOL    HW160982   7.632   3.419   5.989 -0.2553  0.6057 -2.0169
19847SOL    HW260983   7.761   3.393   6.065 -1.3854  1.6832  0.3681
19848SOL     OW60984   6.011   1.479   4.615 -0.1516  0.3220  0.0881
19848SOL    HW160985   6.068   1.548   4.649  2.0578 -0.2769 -2.1272
19848SOL    HW260986   5.943   1.526   4.566  0.2040  0.9653  0.1989
19849SOL     OW60987   5.591   1.324   5.020 -0.3108 -0.8574  0.0952
19849SOL    HW160988   5.649   1.303   4.947  0.5644 -0.6700  0.7275
19849SOL    HW260989   5.624   1.406   5.056 -1.0929 -0.6324  0.3421
19850SOL     OW60990   7.942   2.315   4.780  0.9096  0.3940 -0.4902
19850SOL    HW160991   8.035   2.324   4.804  1.2463 -2.5291 -0.3215
19850SOL    HW260992   7.897   2.374   4.840  2.5918  0.9963  0.2559
19851SOL     OW60993   6.016   2.341   6.956 -0.3277  0.3201 -0.3718
19851SOL    HW160994   5.998   2.337   7.050 -0.9109 -2.1357 -0.5361
19851SOL    HW260995   6.109   2.366   6.951  0.0889 -0.8527  0.8961
19852SOL     OW60996   5.641   5.176   3.281  0.0897  0.0050 -0.1915
19852SOL    HW160997   5.645   5.101   3.341  0.5012  0.0231 -0.1955
19852SOL    HW260998   5.566   5.157   3.225 -2.2846  1.4423  2.2553
19853SOL     OW60999   6.301   2.685   4.303 -0.2524 -0.5157 -0.3848
19853SOL    HW161000   6.218   2.676   4.257  0.1712 -0.3604 -1.2078
19853SOL    HW261001   6.357   2.616   4.265  0.8636  1.1108 -1.8447
19854SOL     OW61002   6.120   3.551   3.966  0.2765 -0.5607  0.0144
19854SOL    HW161003   6.031   3.585   3.958  0.7579  0.2926 -3.1636
19854SOL    HW261004   6.136   3.547   4.060 -2.7885  0.0783  0.6576
19855SOL     OW61005   4.999   4.479   5.626 -0.2875 -0.0597 -0.2971
19855SOL    HW161006   4.915   4.494   5.583  0.6506 -0.1333 -2.2579
19855SOL    HW261007   5.002   4.385   5.641 -0.4021 -0.1034 -0.5521
19856SOL     OW61008   5.395   3.307   6.246 -0.0871 -0.3534 -0.6686
19856SOL    HW161009   5.304   3.310   6.276 -0.1505  1.6552 -0.9285
19856SOL    HW261010   5.423   3.398   6.245  1.6528 -0.8520 -1.4857
19857SOL     OW61011   6.387   2.144   3.845 -0.1754  0.4843 -0.0320
19857SOL    HW161012   6.451   2.073   3.840 -0.7046 -0.1430  1.5400
19857SOL    HW261013   6.302   2.101   3.839 -0.4827  1.1785 -0.8350
19858SOL     OW61014   5.134   1.834   4.622  0.4622 -0.2306  0.0420
19858SOL    HW161015   5.146   1.929   4.618 -0.8273 -0.0783 -2.9386
19858SOL    HW261016   5.220   1.800   4.644  1.3570  1.5624 -0.4821
19859SOL     OW61017   6.911   4.776   4.035 -0.4759 -0.0437 -0.2856
19859SOL    HW161018   6.879   4.689   4.060 -1.8650 -0.0743 -1.9140
19859SOL    HW261019   6.932   4.819   4.117 -0.0532 -1.8018  0.5764
19860SOL     OW61020   6.174   2.563   5.144  0.0683  0.0004  0.1770
19860SOL    HW161021   6.139   2.598   5.062 -0.4262 -0.3990  0.2133
19860SOL    HW261022   6.261   2.531   5.121 -0.3452 -0.7713 -0.3642
19861SOL     OW61023   7.620   2.305   3.603 -0.1256  0.2027 -0.1776
19861SOL    HW161024   7.685   2.235   3.597 -2.3001 -2.0155  0.4218
19861SOL    HW261025   7.644   2.366   3.533  2.0779 -0.9219 -0.4966
19862SOL     OW61026   6.326   3.116   3.720  0.3192 -0.3702  0.2519
19862SOL    HW161027   6.385   3.109   3.795 -0.0985 -0.9071  0.5336
19862SOL    HW261028   6.245   3.152   3.756 -0.2501 -1.6255  0.2693
19863SOL     OW61029   7.137   1.401   5.260 -0.2111  0.0145  0.6200
19863SOL    HW161030   7.113   1.354   5.340 -0.2580 -3.2121 -1.1252
19863SOL    HW261031   7.233   1.401   5.260 -0.1816 -1.4146 -0.0021
19864SOL     OW61032   7.978   2.472   4.184 -0.0298 -0.0870 -0.0105
19864SOL    HW161033   7.907   2.452   4.245  0.5683 -0.6259  0.5295
19864SOL    HW261034   7.992   2.391   4.136  0.4664 -0.1067  0.1572
19865SOL     OW61035   7.200   1.637   4.134  0.0971  0.3633  0.2034
19865SOL    HW161036   7.256   1.596   4.069  0.5871 -0.5426  1.1736
19865SOL    HW261037   7.112   1.602   4.115  0.5213 -1.2854  1.0879
19866SOL     OW61038   5.349   3.332   5.692 -0.0530  0.1199 -0.0210
19866SOL    HW161039   5.312   3.420   5.689 -1.3924 -0.3924  0.5793
19866SOL    HW261040   5.287   3.278   5.644  0.8502 -0.4784 -0.5464
19867SOL     OW61041   6.939   1.822   5.839  0.1352 -0.5106  0.5018
19867SOL    HW161042   6.903   1.901   5.879  0.2034 -0.5934  0.7238
19867SOL    HW261043   6.862   1.774   5.808  0.1165 -0.1413 -0.0366
19868SOL     OW61044   6.262   2.985   5.831 -0.0033 -0.3774  0.2606
19868SOL    HW161045   6.317   3.044   5.780 -1.4378  0.3667 -0.5005
19868SOL    HW261046   6.290   2.897   5.804  1.2418 -0.0418  0.4027
19869SOL     OW61047   0.066   3.578   4.357 -0.2302 -0.7551 -0.0492
19869SOL    HW161048  -0.021   3.592   4.318  0.5634  3.1941 -0.8388
19869SOL    HW261049   0.048   3.539   4.443 -2.6179 -1.8149 -0.9546
19870SOL     OW61050   7.317   3.255   3.193 -0.1624  0.1830 -0.2208
19870SOL    HW161051   7.394   3.300   3.159  0.2613 -0.0214  0.4489
19870SOL    HW261052   7.314   3.172   3.145 -0.6621  0.6939 -1.1005
19871SOL     OW61053   5.399   2.740   5.599  0.3291  0.2519  0.1951
19871SOL    HW161054   5.317   2.690   5.601 -0.2688  1.1687 -0.3166
19871SOL    HW261055   5.381   2.816   5.655 -0.0906  1.7602 -1.8541
19872SOL     OW61056   6.393   3.523   6.474 -0.3939 -0.6122  0.4260
19872SOL    HW161057   6.441   3.543   6.394  0.7037 -0.8813  0.9982
19872SOL    HW261058   6.323   3.463   6.446  0.1688 -0.9554 -0.2831
19873SOL     OW61059   5.066   2.716   3.492  0.3381 -0.0653 -0.1087
19873SOL    HW161060   5.111   2.658   3.554 -3.2405 -2.1665  0.8530
19873SOL    HW261061   5.020   2.656   3.433  0.9515  1.9188 -2.7441
19874SOL     OW61062   4.171   0.681   6.805 -0.5567 -0.0197  0.6226
19874SOL    HW161063   4.231   0.724   6.865  0.9314  0.1251 -0.9039
19874SOL    HW261064   4.222   0.609   6.767 -1.9296 -1.0418  0.6104
19875SOL     OW61065   1.830   3.482   4.365  0.2247 -0.5279 -0.1168
19875SOL    HW161066   1.751   3.448   4.322 -0.6102  0.9711  0.1525
19875SOL    HW261067   1.890   3.503   4.293 -0.0081 -0.7789 -0.3830
19876SOL     OW61068   5.211   4.854   4.519  0.3324  0.0617  0.0391
19876SOL    HW161069   5.188   4.809   4.437  1.3701 -2.5436  1.0763
19876SOL    HW261070   5.128   4.859   4.566  0.3028 -1.7501  0.2829
19877SOL     OW61071   5.519   3.614   4.650 -0.0237 -0.0297  0.4375
19877SOL    HW161072   5.448   3.550   4.641 -0.8182  1.0838 -2.0829
19877SOL    HW261073   5.484   3.679   4.710 -0.8430  0.0666 -0.1187
19878SOL     OW61074   6.131   2.195   5.575  0.1280  0.2986 -0.0538
19878SOL    HW161075   6.221   2.196   5.608 -0.1106  1.5782  0.6693
19878SOL    HW261076   6.129   2.126   5.510  1.2818 -0.6713  0.8958
19879SOL     OW61077   1.145   3.335   4.661 -0.2601  0.7206 -0.0680
19879SOL    HW161078   1.121   3.423   4.633 -0.5566  0.3766 -0.9248
19879SOL    HW261079   1.209   3.305   4.596 -1.1508 -0.1809 -0.5648
19880SOL     OW61080   7.619   3.720   4.449  0.0343 -0.2472  0.3162
19880SOL    HW161081   7.531   3.683   4.450 -0.3065  0.4917  2.5338
19880SOL    HW261082   7.607   3.811   4.421  0.2513 -0.4319 -0.4060
19881SOL     OW61083   0.620   2.233   4.919 -0.2929  0.6426  0.0967
19881SOL    HW161084   0.661   2.318   4.906 -0.3711  0.8220  0.9507
19881SOL    HW261085   0.692   2.175   4.943 -0.4152  0.7691  0.7865
19882SOL     OW61086   5.325   4.575   5.506 -0.5199 -0.2198 -0.2811
19882SOL    HW161087   5.366   4.619   5.431 -0.5706 -0.1349 -0.2587
19882SOL    HW261088   5.255   4.635   5.534 -0.5037 -0.2528 -0.1686
19883SOL     OW61089   6.273   4.203   5.029 -0.1811  0.2654  0.0294
19883SOL    HW161090   6.328   4.281   5.039 -1.2256  1.4173 -2.3584
19883SOL    HW261091   6.275   4.184   4.935 -1.9450 -1.0885  0.2176
19884SOL     OW61092   7.878   2.956   5.580 -0.1184 -0.3275  0.2427
19884SOL    HW161093   7.933   2.878   5.577  0.0455 -0.1964 -0.1406
19884SOL    HW261094   7.837   2.961   5.494  1.9123  1.4702 -0.7337
19885SOL     OW61095   7.114   2.122   5.258  0.0990  0.0881  0.2352
19885SOL    HW161096   7.112   2.029   5.280 -2.5099  0.1660  0.6819
19885SOL    HW261097   7.207   2.145   5.258  0.9246 -2.7736 -1.1525
19886SOL     OW61098   6.147   0.918   5.550 -0.1548 -0.2076  0.0711
19886SOL    HW161099   6.161   0.954   5.637 -0.0812 -0.9805  0.3845
19886SOL    HW261100   6.078   0.853   5.561  0.5293 -1.0119 -0.2554
19887SOL     OW61101   5.710   5.425   3.398  0.2352  0.4860  0.1970
19887SOL    HW161102   5.715   5.349   3.340 -1.5715  0.7780 -0.3798
19887SOL    HW261103   5.741   5.498   3.345 -1.1757  0.7081 -0.3614
19888SOL     OW61104   5.739   4.065   3.933  0.2480  0.2389 -0.0696
19888SOL    HW161105   5.660   4.011   3.934 -0.2211  0.8661 -1.3187
19888SOL    HW261106   5.809   4.005   3.958 -0.1741 -1.1387 -1.9003
19889SOL     OW61107   4.985   2.561   4.139  0.3150  0.6847 -0.6124
19889SOL    HW161108   4.945   2.633   4.090  0.9325  0.7535 -1.0324
19889SOL    HW261109   4.970   2.583   4.231 -1.0212  0.4636 -0.7537
19890SOL     OW61110   4.696   7.243   5.704 -0.0346 -0.3437 -0.0370
19890SOL    HW161111   4.661   7.328   5.733 -0.6644 -0.7489  0.4262
19890SOL    HW261112   4.736   7.206   5.783 -0.9492 -1.0574  0.1117
19891SOL     OW61113   5.097   3.254   5.914  0.3253 -0.0666 -0.3885
19891SOL    HW161114   5.033   3.320   5.887  0.0105  0.1464  0.8081
19891SOL    HW261115   5.149   3.298   5.982  3.1228  0.4952 -2.6964
19892SOL     OW61116   0.296   2.743   4.063  0.3167 -0.3464  0.1015
19892SOL    HW161117   0.311   2.674   3.999 -0.1606  0.7834 -1.2840
19892SOL    HW261118   0.212   2.721   4.104  0.2462 -0.6693 -0.2175
19893SOL     OW61119   6.188   3.164   4.599 -0.1945  0.0683 -0.2863
19893SOL    HW161120   6.221   3.216   4.526 -0.5971  0.0346 -0.4928
19893SOL    HW261121   6.220   3.075   4.581  0.6607  0.2714  0.1703
19894SOL     OW61122   6.406   2.941   4.199  0.0530 -0.1510  0.0315
19894SOL    HW161123   6.463   2.944   4.275 -0.0869 -0.6072  0.1540
19894SOL    HW261124   6.365   2.855   4.202 -2.5703  1.0170  1.3561
19895SOL     OW61125   6.445   3.114   2.626  0.2582 -0.0665 -1.0369
19895SOL    HW161126   6.448   3.038   2.568  5.2975 -1.6074  0.6987
19895SOL    HW261127   6.504   3.178   2.586 -1.2527  1.5822 -0.7491
19896SOL     OW61128   5.849   4.027   5.258 -0.4736  0.5088 -0.0448
19896SOL    HW161129   5.763   4.069   5.265  0.4070  2.7345 -1.3787
19896SOL    HW261130   5.882   4.054   5.173  1.0390 -1.3702 -0.1211
19897SOL     OW61131   6.522   4.102   7.095 -0.2308 -0.0446 -0.2586
19897SOL    HW161132   6.476   4.083   7.013 -0.3561 -1.4896  0.1317
19897SOL    HW261133   6.613   4.118   7.068 -0.6952  1.7875 -0.9114
19898SOL     OW61134   7.260   2.183   3.324 -0.4316  0.5343 -0.3940
19898SOL    HW161135   7.326   2.118   3.301 -1.7966 -0.9839 -0.2231
19898SOL    HW261136   7.310   2.261   3.348  1.3286 -0.8037  0.5211
19899SOL     OW61137   4.172   3.020   6.310 -0.1499  0.6229 -0.0584
19899SOL    HW161138   4.257   3.060   6.325  0.9759 -0.6578 -2.3721
19899SOL    HW261139   4.109   3.091   6.324  1.3256  1.7884  1.0112
19900SOL     OW61140   6.811   1.858   3.599 -0.4499  0.2788 -0.2636
19900SOL    HW161141   6.798   1.765   3.581 -0.1763  0.0564  0.6905
19900SOL    HW261142   6.845   1.894   3.516 -2.5728 -0.0268 -1.3505
19901SOL     OW61143   6.773   2.558   2.581  0.7717  0.4782 -0.1985
19901SOL    HW161144   6.740   2.617   2.648 -0.4645  0.8000 -1.0416
19901SOL    HW261145   6.695   2.511   2.550  1.6219 -1.1452  0.0010
19902SOL     OW61146   0.506   3.318   4.271  0.1132 -0.4724  0.0049
19902SOL    HW161147   0.460   3.235   4.264 -0.8733  0.0167  0.4319
19902SOL    HW261148   0.472   3.357   4.352  1.8481 -0.4247  0.7486
19903SOL     OW61149   5.663   3.206   4.850  0.2062  0.0004  0.1517
19903SOL    HW161150   5.588   3.228   4.795  0.0949 -0.2047  0.2228
19903SOL    HW261151   5.708   3.290   4.863 -1.5113  0.6768  2.3795
19904SOL     OW61152   0.196   2.427   3.784  0.1841 -0.2825 -0.2488
19904SOL    HW161153   0.126   2.366   3.759 -1.6515  1.6291 -0.0436
19904SOL    HW261154   0.223   2.468   3.702 -0.2816  0.3285 -0.1024
19905SOL     OW61155   7.556   3.223   7.404 -0.4820  0.2621  0.1400
19905SOL    HW161156   7.636   3.214   7.352 -1.4229  0.1587 -1.3544
19905SOL    HW261157   7.539   3.317   7.407 -0.5029  0.2589  0.1262
19906SOL     OW61158   0.340   2.580   4.417  0.5406  0.2197  0.0739
19906SOL    HW161159   0.250   2.606   4.396 -0.1198 -1.2864  0.9098
19906SOL    HW261160   0.332   2.520   4.490  2.2438  0.0004  0.1357
19907SOL     OW61161   5.060   4.664   3.451 -0.7624 -0.1440 -0.0222
19907SOL    HW161162   4.981   4.619   3.422 -1.0788 -0.1769  0.8720
19907SOL    HW261163   5.113   4.596   3.492  0.1139 -0.2930 -1.3309
19908SOL     OW61164   5.580   2.108   4.469 -0.0341  0.8097  0.6973
19908SOL    HW161165   5.658   2.120   4.414 -1.3895  2.2570 -1.0219
19908SOL    HW261166   5.568   2.192   4.513 -0.1264  0.2907  1.7054
19909SOL     OW61167   6.771   3.599   4.241  0.2659  0.0616  0.1736
19909SOL    HW161168   6.696   3.657   4.256  0.2461  0.2591 -0.6020
19909SOL    HW261169   6.765   3.577   4.148  0.1066 -1.4295  0.5132
19910SOL     OW61170   5.476   3.073   6.110  0.0269  0.3301  0.2534
19910SOL    HW161171   5.478   2.996   6.167  1.8607  1.2880  1.6233
19910SOL    HW261172   5.437   3.141   6.165 -0.5998  0.6451 -0.5717
19911SOL     OW61173   5.549   0.751   4.434  0.2054 -0.5296  0.8997
19911SOL    HW161174   5.484   0.815   4.461  1.8780  1.0944  1.2870
19911SOL    HW261175   5.590   0.721   4.515  2.3816  1.2299  0.5491
19912SOL     OW61176   3.462   2.078   5.318 -0.2883  0.1072 -0.5113
19912SOL    HW161177   3.452   1.983   5.320 -1.2699  0.2041 -0.1197
19912SOL    HW261178   3.379   2.110   5.283 -0.3522  0.8642  0.2958
19913SOL     OW61179   5.462   2.304   5.738  0.0182  0.1940 -0.2467
19913SOL    HW161180   5.378   2.297   5.783  0.8788 -2.0659  1.1873
19913SOL    HW261181   5.466   2.226   5.682  1.1296  0.3198 -0.3571
19914SOL     OW61182   5.212   3.153   4.333  0.1691  0.5188  0.3082
19914SOL    HW161183   5.187   3.229   4.280  0.1337  0.5370  0.3502
19914SOL    HW261184   5.133   3.099   4.336 -0.2728  1.1921  1.5041
19915SOL     OW61185   6.952   2.768   6.061  0.1352 -0.1562 -0.2286
19915SOL    HW161186   6.936   2.849   6.012  0.4443 -0.2092 -0.4215
19915SOL    HW261187   6.913   2.699   6.007  2.5352 -0.5232 -1.6309
19916SOL     OW61188   4.563   2.860   6.232 -0.2312 -0.5614  0.4424
19916SOL    HW161189   4.555   2.777   6.280 -0.9296 -0.4125  0.5918
19916SOL    HW261190   4.575   2.926   6.300 -0.2178 -0.4735  0.3536
19917SOL     OW61191   7.063   2.407   6.372 -0.1412  0.1950  0.3801
19917SOL    HW161192   7.158   2.400   6.357 -0.3094  0.2778 -0.8450
19917SOL    HW261193   7.032   2.317   6.371 -0.1268  0.1901  0.3409
19918SOL     OW61194   0.022   2.022   4.976 -0.1844  0.4482  0.0914
19918SOL    HW161195  -0.014   1.984   5.057 -1.4057  0.1875 -0.5402
19918SOL    HW261196   0.117   2.021   4.989 -0.2594 -1.2326  0.8195
19919SOL     OW61197   5.165   3.978   4.164  0.3604  0.0348  0.1696
19919SOL    HW161198   5.184   3.884   4.171  1.1314  0.1394 -0.3980
19919SOL    HW261199   5.250   4.020   4.173  0.1591  0.6272 -0.6144
19920SOL     OW61200   5.612   3.578   5.559  0.0901 -0.2129  0.3192
19920SOL    HW161201   5.521   3.609   5.563  0.3729  0.5021  1.8200
19920SOL    HW261202   5.605   3.486   5.536 -1.0870 -0.4115  1.3461
19921SOL     OW61203   0.110   2.699   4.333 -0.2335 -0.5557 -0.1740
19921SOL    HW161204   0.079   2.628   4.275 -2.2320  0.3174 -0.2820
19921SOL    HW261205   0.029   2.743   4.360  0.9522  1.7709 -0.2267
19922SOL     OW61206   6.966   3.594   3.499  0.2330 -0.2768  0.3167
19922SOL    HW161207   6.994   3.640   3.420 -0.9462 -0.9686 -0.5438
19922SOL    HW261208   7.039   3.535   3.519  0.1624 -0.7951 -0.8430
19923SOL     OW61209   7.702   1.688   4.714  0.0884 -0.3895  0.2250
19923SOL    HW161210   7.657   1.757   4.665 -0.5970 -0.1803  1.1238
19923SOL    HW261211   7.705   1.721   4.804 -1.9652 -2.3106  1.0916
19924SOL     OW61212   6.459   4.853   5.691  0.0621  0.1968 -0.1721
19924SOL    HW161213   6.517   4.800   5.636  0.2859 -0.8521  1.0222
19924SOL    HW261214   6.433   4.926   5.635  0.3515 -0.7762 -1.6243
19925SOL     OW61215   6.187   2.128   5.032 -0.1582 -1.1260  0.4552
19925SOL    HW161216   6.176   2.197   5.098 -1.6665 -0.3316 -0.5634
19925SOL    HW261217   6.114   2.141   4.971 -0.1044 -3.2177 -0.1496
19926SOL     OW61218   7.642   5.497   5.384  0.0790 -0.1177  0.1266
19926SOL    HW161219   7.563   5.513   5.332  0.6690 -0.4159 -0.8820
19926SOL    HW261220   7.712   5.486   5.319  0.8748 -0.2821  0.9920
19927SOL     OW61221   7.513   0.415   3.051 -0.5311 -0.2329 -0.2958
19927SOL    HW161222   7.598   0.396   3.012 -0.6396 -0.5622 -0.3751
19927SOL    HW261223   7.465   0.463   2.984  0.2663  1.6547  0.4218
19928SOL     OW61224   6.465   3.367   4.183 -0.5379  0.3593  0.0668
19928SOL    HW161225   6.464   3.455   4.146  2.5378  0.6527  0.4124
19928SOL    HW261226   6.417   3.314   4.119 -0.6803  1.9172 -1.1838
19929SOL     OW61227   5.120   4.732   5.559  0.0882  0.5335 -0.2312
19929SOL    HW161228   5.083   4.662   5.613  0.5567 -0.6059 -1.3441
19929SOL    HW261229   5.051   4.753   5.496  0.5987 -0.2680 -1.0928
19930SOL     OW61230   6.201   3.472   4.522 -0.2009  0.2524  0.1446
19930SOL    HW161231   6.262   3.424   4.577 -1.5165 -0.0588  1.4051
19930SOL    HW261232   6.121   3.479   4.576 -1.2706  0.6195 -1.4233
19931SOL     OW61233   0.248   2.870   3.833 -0.1219 -0.1285  0.3484
19931SOL    HW161234   0.256   2.831   3.920 -0.1647  1.5160  1.1226
19931SOL    HW261235   0.158   2.903   3.829  0.7290  2.5403  0.9413
19932SOL     OW61236   6.601   3.223   3.214 -0.2769  0.1543  0.4279
19932SOL    HW161237   6.622   3.240   3.306  0.0783  4.0743 -0.1962
19932SOL    HW261238   6.536   3.290   3.192 -1.3051 -1.4887 -1.8909
19933SOL     OW61239   7.719   5.275   5.032  0.0996 -0.4070 -0.2572
19933SOL    HW161240   7.625   5.288   5.049 -0.2210 -0.3237 -1.8878
19933SOL    HW261241   7.763   5.339   5.087 -0.6137 -2.0968  2.4486
19934SOL     OW61242   7.420   2.638   3.473 -0.2026 -0.4310  0.4261
19934SOL    HW161243   7.490   2.700   3.454  0.7087 -2.0891 -2.3615
19934SOL    HW261244   7.342   2.679   3.436  0.7375 -1.5569 -3.3122
19935SOL     OW61245   5.132   1.698   3.174 -0.1460  0.9400 -0.1329
19935SOL    HW161246   5.201   1.635   3.157 -1.2620 -0.6508  0.8750
19935SOL    HW261247   5.128   1.753   3.095  1.0254 -0.1033 -0.9422
19936SOL     OW61248   0.631   3.576   3.362  0.2329 -0.0198 -0.0721
19936SOL    HW161249   0.725   3.578   3.345  0.1319  0.0180 -0.6504
19936SOL    HW261250   0.610   3.664   3.394  0.3975 -0.0299  0.0580
19937SOL     OW61251   6.549   3.386   5.568  0.0790  0.1935 -0.1743
19937SOL    HW161252   6.623   3.335   5.534  0.9335  0.5817  1.0234
19937SOL    HW261253   6.495   3.403   5.491  1.2282 -0.1097 -1.0901
19938SOL     OW61254   6.798   4.108   4.005  0.2441  0.5382  0.1111
19938SOL    HW161255   6.822   4.058   3.928 -0.2262  0.6984 -0.1386
19938SOL    HW261256   6.721   4.158   3.980  1.4023  2.3712 -0.0616
19939SOL     OW61257   0.530   1.975   3.287  0.1370  0.2913 -0.0025
19939SOL    HW161258   0.520   1.882   3.310  0.0029  0.9524  2.9649
19939SOL    HW261259   0.454   1.994   3.231  1.5534 -1.9175 -2.9739
19940SOL     OW61260   7.325   2.538   7.524  0.0020 -0.1188 -0.4858
19940SOL    HW161261   7.236   2.554   7.555 -0.3014 -0.0301 -1.3699
19940SOL    HW261262   7.373   2.512   7.602 -1.0533 -1.2251 -0.1642
19941SOL     OW61263   6.930   3.112   3.535 -0.1219  0.3703 -0.5182
19941SOL    HW161264   7.003   3.051   3.538  1.0540  1.7635  1.9700
19941SOL    HW261265   6.914   3.125   3.441  1.5833 -1.3705 -1.1124
19942SOL     OW61266   7.187   3.636   3.778  0.1817 -0.0151  0.1941
19942SOL    HW161267   7.222   3.548   3.766  0.1741 -0.4685  2.7647
19942SOL    HW261268   7.189   3.676   3.691  1.1513 -2.1859 -0.8448
19943SOL     OW61269   5.067   3.134   3.768  0.1029 -0.0654 -0.2874
19943SOL    HW161270   4.981   3.176   3.778  1.1330  1.9867  0.5892
19943SOL    HW261271   5.047   3.048   3.731 -2.2851  0.5271 -0.5810
19944SOL     OW61272   6.082   3.012   4.195  0.0357 -0.6599 -0.0278
19944SOL    HW161273   6.156   3.062   4.228  1.2597 -3.0959  1.1650
19944SOL    HW261274   6.017   3.078   4.171  2.5295  1.5619 -1.0966
19945SOL     OW61275   1.592   1.707   4.800  0.0681  0.4171  0.3413
19945SOL    HW161276   1.676   1.678   4.765 -0.0465 -0.2930  0.6419
19945SOL    HW261277   1.530   1.687   4.730  0.2372  1.5641 -0.1537
19946SOL     OW61278   6.259   4.117   4.341  0.5800  0.1069 -0.1942
19946SOL    HW161279   6.169   4.114   4.307  0.2987  1.2352  0.4282
19946SOL    HW261280   6.255   4.068   4.423  1.0081 -1.6131 -1.1450
19947SOL     OW61281   6.108   4.875   6.983 -0.0687 -0.1975 -0.4503
19947SOL    HW161282   6.015   4.890   6.971  0.1207 -0.4460 -2.5925
19947SOL    HW261283   6.140   4.955   7.024 -1.0022  0.4038 -0.8714
19948SOL     OW61284   6.585   2.788   3.588 -0.3125 -0.0086  0.6206
19948SOL    HW161285   6.492   2.767   3.593 -0.7084  0.5117 -2.6579
19948SOL    HW261286   6.599   2.850   3.660 -1.9360 -1.7738  2.5671
19949SOL     OW61287   7.883   1.759   4.476  0.2584  0.2979  0.4347
19949SOL    HW161288   7.894   1.787   4.567  2.1575 -0.0512  0.3650
19949SOL    HW261289   7.926   1.828   4.425  1.8153 -0.9173  0.0302
19950SOL     OW61290   6.876   2.223   5.590  1.0407  0.4847  0.5448
19950SOL    HW161291   6.917   2.214   5.504  2.4435  0.9852  1.1446
19950SOL    HW261292   6.948   2.216   5.652 -0.1548 -1.5948  1.7980
19951SOL     OW61293   5.498   4.987   5.029 -0.2383 -0.6231 -0.2262
19951SOL    HW161294   5.429   5.042   5.066  0.1730 -1.8741  2.7549
19951SOL    HW261295   5.456   4.902   5.013  0.3504 -1.1132  0.7232
19952SOL     OW61296   6.108   2.267   5.248 -0.1107  0.2607 -0.2692
19952SOL    HW161297   6.085   2.357   5.272  0.5820  0.4877 -0.4413
19952SOL    HW261298   6.043   2.213   5.293  1.3638  0.6375  2.5402
19953SOL     OW61299   0.349   5.102   3.654  0.2822  0.2714  0.3208
19953SOL    HW161300   0.437   5.089   3.619  1.1348  1.0032  2.0645
19953SOL    HW261301   0.340   5.197   3.661 -1.2512  0.2819 -1.2011
19954SOL     OW61302   5.988   2.824   5.706  0.8373 -0.5767  0.0274
19954SOL    HW161303   5.954   2.743   5.669  0.9033 -1.4916  1.8540
19954SOL    HW261304   6.081   2.806   5.721  0.3473 -1.2599  2.9739
19955SOL     OW61305   5.692   1.573   5.123  0.0780 -0.5358 -0.1263
19955SOL    HW161306   5.638   1.577   5.202 -0.2698 -2.6089 -0.1843
19955SOL    HW261307   5.671   1.652   5.074 -1.2356 -0.2183  0.9059
19956SOL     OW61308   5.337   3.675   6.376 -0.0276  0.0006 -0.0375
19956SOL    HW161309   5.307   3.685   6.466 -1.5609 -1.2582 -0.3678
19956SOL    HW261310   5.330   3.763   6.338  0.1859  0.4423  0.9268
19957SOL     OW61311   7.322   2.838   3.803 -0.3184 -0.5836 -0.0682
19957SOL    HW161312   7.393   2.833   3.868  1.3531 -1.1394 -1.8294
19957SOL    HW261313   7.310   2.748   3.775 -0.0014 -0.1918 -1.5261
19958SOL     OW61314   5.431   2.640   3.781  0.0548  0.2311 -0.3983
19958SOL    HW161315   5.515   2.596   3.768 -0.0633 -0.0317 -0.2791
19958SOL    HW261316   5.419   2.640   3.876 -0.9885 -1.4648 -0.4994
19959SOL     OW61317   4.376   1.266   5.269 -0.5568  0.6968  0.3533
19959SOL    HW161318   4.466   1.234   5.258 -0.8900 -0.5564  1.1402
19959SOL    HW261319   4.372   1.296   5.360 -1.2674 -0.3793  0.6868
19960SOL     OW61320   0.394   2.032   4.322  0.3441  0.1935 -0.1072
19960SOL    HW161321   0.488   2.043   4.335  0.2578  1.3398 -0.3447
19960SOL    HW261322   0.370   2.100   4.258 -0.9255  1.0696  1.2191
19961SOL     OW61323   1.043   2.358   4.561  0.9441 -0.0083 -0.0149
19961SOL    HW161324   1.012   2.370   4.651  1.1882  0.5277  0.0032
19961SOL    HW261325   1.117   2.299   4.568  2.4210  1.8132  0.4308
19962SOL     OW61326   5.487   3.570   6.194  0.1726  0.3421  0.3946
19962SOL    HW161327   5.574   3.582   6.231  0.3591  1.6226 -0.3821
19962SOL    HW261328   5.429   3.621   6.250  0.4208  2.0876 -0.8510
19963SOL     OW61329   5.644   2.620   5.584  0.1873 -0.5920  0.0897
19963SOL    HW161330   5.612   2.534   5.554  1.0780 -0.8822 -0.0460
19963SOL    HW261331   5.568   2.660   5.626 -0.9021 -0.5265 -1.8029
19964SOL     OW61332   5.679   3.334   6.103  0.1005 -0.3650  0.2570
19964SOL    HW161333   5.622   3.283   6.045 -1.9073  1.8214  0.1489
19964SOL    HW261334   5.710   3.270   6.168 -0.8931 -2.0488 -0.8465
19965SOL     OW61335   7.923   2.185   4.050  0.2102 -0.1374 -0.2949
19965SOL    HW161336   7.933   2.128   4.126  1.6280  0.8705  0.3354
19965SOL    HW261337   7.998   2.165   3.994  0.8786  1.2287  0.0544
19966SOL     OW61338   5.508   5.348   5.172  0.6233 -0.8083 -0.0525
19966SOL    HW161339   5.439   5.405   5.137  0.4755  0.1786  1.7260
19966SOL    HW261340   5.465   5.297   5.241  1.6801  0.0319  1.2915
19967SOL     OW61341   5.093   4.633   3.934 -0.0000  0.2271  0.1414
19967SOL    HW161342   5.127   4.719   3.959 -0.3513  0.2732  0.4866
19967SOL    HW261343   5.021   4.618   3.996 -0.9686  0.3847 -0.8956
19968SOL     OW61344   5.579   3.114   5.081 -0.0941  0.2454  0.1054
19968SOL    HW161345   5.636   3.038   5.071 -0.3723 -0.1175  1.0977
19968SOL    HW261346   5.587   3.161   4.999 -0.4592 -1.2243 -0.8071
19969SOL     OW61347   6.839   2.947   7.019 -0.0619  0.3169  0.0345
19969SOL    HW161348   6.762   2.980   7.066 -0.7314  1.7035 -1.8863
19969SOL    HW261349   6.803   2.887   6.954  0.6332 -0.0733  0.0021
19970SOL     OW61350   7.566   2.005   6.359  0.0124  0.0144  0.5254
19970SOL    HW161351   7.634   2.073   6.358 -1.1296  1.1942  0.6350
19970SOL    HW261352   7.562   1.973   6.269 -0.4700  1.1582  0.1336
19971SOL     OW61353   5.684   1.289   5.576  0.3324  0.4940 -0.5116
19971SOL    HW161354   5.692   1.244   5.492  1.5014  0.1684 -0.2348
19971SOL    HW261355   5.658   1.221   5.637  1.6726  0.2741 -0.1777
19972SOL     OW61356   7.280   1.872   4.904 -0.6296 -0.0321  0.4064
19972SOL    HW161357   7.189   1.874   4.873 -0.3704  0.2518 -0.3547
19972SOL    HW261358   7.311   1.961   4.891  0.2101 -0.4713 -0.7215
19973SOL     OW61359   6.352   2.481   5.859  0.5317 -0.1802 -0.9625
19973SOL    HW161360   6.430   2.517   5.817 -0.3612 -0.5085 -3.0268
19973SOL    HW261361   6.281   2.499   5.797 -1.0333 -0.0221  0.7752
19974SOL     OW61362   5.786   3.061   3.233  0.1036 -0.0399 -0.7364
19974SOL    HW161363   5.874   3.024   3.241  0.1606  0.4854  1.6481
19974SOL    HW261364   5.785   3.099   3.145  2.0707 -0.5161 -1.0202
19975SOL     OW61365   5.989   3.494   4.693  0.4892  0.0249  0.0498
19975SOL    HW161366   5.913   3.553   4.692  1.0736  0.7829  0.0994
19975SOL    HW261367   5.994   3.462   4.783 -0.5673 -1.0988 -0.2475
19976SOL     OW61368   6.666   0.315   6.315  0.1796  0.2748  0.1730
19976SOL    HW161369   6.646   0.340   6.225 -1.5910  0.3460  0.5389
19976SOL    HW261370   6.735   0.249   6.307 -0.1529  0.0681 -1.2574
19977SOL     OW61371   5.581   1.800   3.113  0.1316 -0.1820  0.6356
19977SOL    HW161372   5.490   1.804   3.084  0.0010 -1.3572  0.8485
19977SOL    HW261373   5.593   1.710   3.144  1.6143 -0.3218 -0.2458
19978SOL     OW61374   6.694   3.262   4.265  0.2378 -0.2862  0.3667
19978SOL    HW161375   6.743   3.339   4.294 -0.2219  0.6658 -1.2973
19978SOL    HW261376   6.609   3.296   4.239  0.4125 -1.1786 -1.5029
19979SOL     OW61377   0.271   2.563   2.117 -0.6704 -0.4919 -0.3140
19979SOL    HW161378   0.330   2.488   2.123 -0.9244 -0.7413 -0.9868
19979SOL    HW261379   0.325   2.633   2.078 -0.5368 -0.4224 -0.0102
19980SOL     OW61380   7.589   1.366   2.914  0.0395  0.0136 -0.0344
19980SOL    HW161381   7.527   1.372   2.841 -2.2856 -0.5854  1.7944
19980SOL    HW261382   7.651   1.297   2.887 -0.8931 -0.3661 -1.3230
19981SOL     OW61383   5.984   1.483   5.964  0.0722 -0.7000 -0.2537
19981SOL    HW161384   5.924   1.458   5.894  0.8833  1.5513 -1.9080
19981SOL    HW261385   5.963   1.575   5.981  2.5615 -0.0256 -0.4587
19982SOL     OW61386   5.750   3.110   5.521  0.3374 -0.1061 -0.4561
19982SOL    HW161387   5.696   3.041   5.484 -0.9145  0.6620 -0.1064
19982SOL    HW261388   5.693   3.187   5.524  2.0167  1.2953 -1.9434
19983SOL     OW61389   7.890   2.837   5.116 -0.1652  0.2775 -0.0555
19983SOL    HW161390   7.954   2.769   5.138 -1.7936 -0.9570  1.0959
19983SOL    HW261391   7.934   2.891   5.051  1.1235 -2.0317 -1.2236
19984SOL     OW61392   4.909   2.050   6.274 -0.3596 -0.2046  0.5940
19984SOL    HW161393   4.880   2.001   6.197  0.1871  1.8549 -1.0157
19984SOL    HW261394   4.994   2.086   6.249  0.4759 -0.5639  2.7005
19985SOL     OW61395   6.611   3.015   7.153 -0.3031 -0.6651 -0.2217
19985SOL    HW161396   6.540   2.957   7.179  1.1156 -2.1175  0.6112
19985SOL    HW261397   6.656   3.036   7.234  0.3781 -0.0039 -0.7600
19986SOL     OW61398   7.481   2.047   5.476 -0.6518 -0.7771  0.4425
19986SOL    HW161399   7.426   2.009   5.407 -2.2129  0.4403  0.9615
19986SOL    HW261400   7.569   2.013   5.458 -1.1135 -0.9237 -1.8350
19987SOL     OW61401   5.376   4.362   8.774  0.2059 -0.1629  0.0736
19987SOL    HW161402   5.462   4.385   8.738  1.6091 -2.3772  1.7724
19987SOL    HW261403   5.320   4.350   8.697  2.2749 -1.7113 -1.2764
19988SOL     OW61404   4.742   2.756   7.205 -0.2416 -0.1102 -0.1260
19988SOL    HW161405   4.766   2.763   7.298  0.0441  1.2369 -0.2789
19988SOL    HW261406   4.647   2.770   7.204 -0.1106  0.8753 -0.1100
19989SOL     OW61407   6.472   3.570   7.272 -0.4252 -0.1229 -0.3788
19989SOL    HW161408   6.552   3.619   7.286 -0.9571  1.1170 -1.4802
19989SOL    HW261409   6.418   3.588   7.348  0.0683 -0.4186  0.0435
19990SOL     OW61410   7.177   2.426   5.426 -0.0933  1.4470 -0.3811
19990SOL    HW161411   7.253   2.390   5.473 -0.0920  2.2268  0.2547
19990SOL    HW261412   7.136   2.484   5.490  0.7321  3.7003 -1.7724
19991SOL     OW61413   5.143   2.170   6.185 -0.5003  0.4617 -0.9935
19991SOL    HW161414   5.096   2.216   6.115  0.7732  1.4635 -1.2417
19991SOL    HW261415   5.194   2.238   6.228  0.0291 -0.4305 -0.1739
19992SOL     OW61416   5.189   2.930   7.177 -0.3491 -0.5874  0.2265
19992SOL    HW161417   5.198   2.838   7.149  1.6323 -0.1951 -0.5512
19992SOL    HW261418   5.277   2.956   7.203 -1.1064  0.7819  1.5706
19993SOL     OW61419   6.286   3.393   6.063  0.2762  0.0660  0.2884
19993SOL    HW161420   6.254   3.303   6.052  0.9215  0.1001 -2.4837
19993SOL    HW261421   6.296   3.427   5.974 -0.9549  3.2955  1.2458
19994SOL     OW61422   6.121   3.585   8.142  0.7870 -0.1234  0.0767
19994SOL    HW161423   6.127   3.538   8.059 -0.3044 -2.6541  1.3070
19994SOL    HW261424   6.027   3.593   8.158  0.9570 -1.0367  1.7334
19995SOL     OW61425   5.305   2.466   6.177 -0.3820  0.0582 -0.3210
19995SOL    HW161426   5.322   2.466   6.083  0.5413 -0.8781 -0.1765
19995SOL    HW261427   5.383   2.506   6.216  0.7301 -2.4693  0.2310
19996SOL     OW61428   7.173   4.682   6.735  0.4195 -0.3464  0.3226
19996SOL    HW161429   7.264   4.667   6.762  0.2855 -2.2493 -0.1557
19996SOL    HW261430   7.168   4.648   6.646 -0.7262 -0.1311  0.2856
19997SOL     OW61431   6.116   3.247   7.813  0.1197  0.0220 -0.2762
19997SOL    HW161432   6.026   3.259   7.840 -1.0283 -2.3260 -2.6191
19997SOL    HW261433   6.142   3.162   7.849  1.3152  0.5224  0.1096
19998SOL     OW61434   6.399   3.991   6.164  0.1403  0.2031  0.3940
19998SOL    HW161435   6.325   3.943   6.201 -0.3871  0.2594 -0.5306
19998SOL    HW261436   6.409   4.068   6.221  1.0079 -0.9763  1.8891
19999SOL     OW61437   6.215   4.578   7.572 -0.0172 -0.6997 -0.3844
19999SOL    HW161438   6.166   4.590   7.653 -0.8757  0.1619 -1.0289
19999SOL    HW261439   6.231   4.483   7.569  0.6868 -0.6731  1.1539
20000SOL     OW61440   7.393   3.746   7.257 -0.3479  0.4414 -0.2047
20000SOL    HW161441   7.303   3.717   7.272 -0.5460  0.7207 -0.8257
20000SOL    HW261442   7.428   3.760   7.345 -0.2285 -1.6908  0.1584
20001SOL     OW61443   6.211   2.839   7.453 -0.1245  0.3327 -0.0508
20001SOL    HW161444   6.142   2.903   7.473 -0.9296 -0.2002 -1.0423
20001SOL    HW261445   6.210   2.778   7.526 -0.7059  0.3329 -0.0582
20002SOL     OW61446   5.011   2.814   5.187  0.0656 -0.1800 -0.2911
20002SOL    HW161447   4.933   2.869   5.183 -0.7827 -1.3473 -0.4489
20002SOL    HW261448   5.072   2.863   5.242 -0.5505  1.0189 -0.6414
20003SOL     OW61449   5.129   5.619   7.551 -0.0705  0.6838 -0.0663
20003SOL    HW161450   5.216   5.615   7.511 -0.4332  0.0596 -0.8232
20003SOL    HW261451   5.124   5.540   7.605 -0.3931  0.3707 -0.5368
20004SOL     OW61452   4.462   2.874   6.944  0.3384 -0.2553 -0.0018
20004SOL    HW161453   4.509   2.949   6.908 -1.5250  0.1887 -1.7131
20004SOL    HW261454   4.527   2.805   6.950  1.5155  0.7321 -0.8995
20005SOL     OW61455   0.202   3.649   7.647  0.2167  0.2404 -0.0127
20005SOL    HW161456   0.177   3.724   7.701  1.3977 -0.2209  1.2505
20005SOL    HW261457   0.123   3.595   7.644 -0.0842  0.6244  0.6837
20006SOL     OW61458   5.291   2.553   4.969  0.0524  0.0281 -0.2065
20006SOL    HW161459   5.326   2.642   4.968 -0.7294  0.4266  2.4777
20006SOL    HW261460   5.198   2.564   4.985  0.0229 -1.2792  0.6475
20007SOL     OW61461   7.115   3.858   6.522  0.2350 -0.7116  0.0453
20007SOL    HW161462   7.021   3.841   6.522  0.2897 -1.1042  1.4868
20007SOL    HW261463   7.141   3.855   6.614  1.7366 -1.0428 -0.3490
20008SOL     OW61464   4.691   3.004   5.473  0.0291  0.0631 -0.1843
20008SOL    HW161465   4.616   3.037   5.521  0.1283  0.8460 -0.5553
20008SOL    HW261466   4.758   2.991   5.540 -0.8110 -1.8731  0.3484
20009SOL     OW61467   6.109   1.769   6.962 -0.6288  0.2578 -0.0042
20009SOL    HW161468   6.102   1.778   6.867  1.0024  2.2126 -0.0102
20009SOL    HW261469   6.109   1.859   6.994  0.9317 -0.2741  1.6438
20010SOL     OW61470   0.722   2.254   6.116  0.0220 -0.0359 -0.0179
20010SOL    HW161471   0.678   2.194   6.175  2.2943 -0.8377  0.9640
20010SOL    HW261472   0.672   2.336   6.122 -0.6055 -0.5387  1.9435
20011SOL     OW61473   5.031   2.543   7.460 -0.8618 -0.2880  0.2122
20011SOL    HW161474   4.992   2.473   7.511 -0.2019 -0.4750  0.4706
20011SOL    HW261475   4.972   2.618   7.473 -0.0099  0.0804  2.3975
20012SOL     OW61476   5.128   2.247   7.139 -0.1990 -0.0575  0.2047
20012SOL    HW161477   5.104   2.339   7.129  2.6750  0.7923  0.0357
20012SOL    HW261478   5.153   2.219   7.051 -1.3023 -1.1046  0.2113
20013SOL     OW61479   7.915   2.607   7.059  0.6031  0.3791  0.2734
20013SOL    HW161480   7.941   2.673   7.123 -1.0954  0.3218  1.0772
20013SOL    HW261481   7.876   2.656   6.987  2.4122  0.4346 -0.7446
20014SOL     OW61482   5.704   5.023   6.596 -0.6676  0.3781  0.0496
20014SOL    HW161483   5.799   5.033   6.590 -0.5319 -0.8517 -0.1840
20014SOL    HW261484   5.688   4.933   6.567 -1.5784 -0.6004  3.2311
20015SOL     OW61485   6.859   4.164   7.203  0.0693 -0.1837  0.1857
20015SOL    HW161486   6.785   4.157   7.264 -1.0965  0.6636 -1.0899
20015SOL    HW261487   6.877   4.073   7.177  0.5780 -0.5693  1.7134
20016SOL     OW61488   6.799   3.089   6.272 -0.0590 -0.0700 -0.1018
20016SOL    HW161489   6.748   3.138   6.208  0.3139 -0.6208 -0.8457
20016SOL    HW261490   6.735   3.037   6.320 -0.1658 -1.2715 -1.4840
20017SOL     OW61491   0.152   4.585   6.556 -0.1749  0.1106  0.6744
20017SOL    HW161492   0.093   4.510   6.549  2.8870 -2.5156  0.5478
20017SOL    HW261493   0.235   4.548   6.587  1.7150  3.3703  0.0533
20018SOL     OW61494   0.686   3.007   5.844  0.2978  0.2913  0.5257
20018SOL    HW161495   0.732   3.091   5.847 -0.9135  0.9408  1.9462
20018SOL    HW261496   0.637   3.004   5.926 -1.7376 -0.6358 -0.6667
20019SOL     OW61497   7.241   2.991   7.269 -0.4507  0.0609  0.1437
20019SOL    HW161498   7.261   3.074   7.226 -3.0425  1.4575  1.3660
20019SOL    HW261499   7.197   2.939   7.202 -2.0693  1.1663  0.2990
20020SOL     OW61500   0.960   2.437   5.277  0.0728 -0.0706 -0.6274
20020SOL    HW161501   0.867   2.424   5.257 -0.4815  0.1175  1.5569
20020SOL    HW261502   1.002   2.357   5.248 -1.1673 -1.1546  0.4370
20021SOL     OW61503   5.141   2.362   5.588  0.5561 -0.9480  0.0065
20021SOL    HW161504   5.118   2.449   5.557 -4.6116 -1.0316  2.4674
20021SOL    HW261505   5.177   2.317   5.512 -2.1053  1.6301 -3.0214
20022SOL     OW61506   5.622   4.709   6.191 -0.3906  0.2390 -0.7281
20022SOL    HW161507   5.536   4.701   6.152 -0.6936 -1.6613  0.2347
20022SOL    HW261508   5.632   4.803   6.208 -1.9161  0.5776 -1.5822
20023SOL     OW61509   6.518   3.768   6.063  0.2319  0.0078 -0.2762
20023SOL    HW161510   6.561   3.777   5.978  0.3349 -0.2786 -0.2551
20023SOL    HW261511   6.487   3.856   6.083  0.1971  0.0756 -0.6163
20024SOL     OW61512   6.289   0.892   6.133 -0.3080  0.1499 -0.8170
20024SOL    HW161513   6.208   0.921   6.175  0.9838 -0.4945  2.3974
20024SOL    HW261514   6.323   0.971   6.091 -1.7484  0.8318 -0.7760
20025SOL     OW61515   7.869   1.768   7.507  0.2036 -0.6771  0.2598
20025SOL    HW161516   7.798   1.717   7.467  0.0290 -0.2576  0.0370
20025SOL    HW261517   7.886   1.722   7.589  0.1479 -1.1856 -0.0066
20026SOL     OW61518   6.095   4.127   6.160  0.6604  0.1517  0.4706
20026SOL    HW161519   6.099   4.034   6.181 -1.0565  0.2612  1.5273
20026SOL    HW261520   6.166   4.166   6.209  0.0365 -0.3414  1.8194
20027SOL     OW61521   5.903   2.618   5.575 -0.2206 -0.0329 -0.1341
20027SOL    HW161522   5.939   2.598   5.489  1.3386  2.5709 -0.1987
20027SOL    HW261523   5.809   2.624   5.561  0.0203  0.4802 -1.6959
20028SOL     OW61524   5.583   1.239   8.433 -0.7539  0.4546  0.2532
20028SOL    HW161525   5.672   1.275   8.439  0.4073 -2.2953  0.8026
20028SOL    HW261526   5.567   1.200   8.518 -1.8344 -0.4826 -0.3545
20029SOL     OW61527   4.717   2.628   5.435 -0.2375  0.5279  0.2460
20029SOL    HW161528   4.640   2.686   5.432  0.1062  0.9551 -1.5809
20029SOL    HW261529   4.769   2.660   5.508 -1.4776  0.6364  1.1128
20030SOL     OW61530   5.127   3.968   5.866  0.7154 -0.1350  0.0029
20030SOL    HW161531   5.037   3.944   5.843  0.9697 -1.1399  0.0339
20030SOL    HW261532   5.117   4.029   5.939  0.0719 -0.6460  0.3559
20031SOL     OW61533   5.905   1.695   4.254 -0.2453 -0.6336 -0.1369
20031SOL    HW161534   5.905   1.783   4.292  3.4096 -0.9654  1.0826
20031SOL    HW261535   5.896   1.709   4.160  0.0847  1.0344  0.0487
20032SOL     OW61536   0.385   3.209   6.723 -0.2589  0.6635 -0.1486
20032SOL    HW161537   0.443   3.251   6.659  0.6320  1.2994  1.0324
20032SOL    HW261538   0.332   3.281   6.757 -0.6814  0.3433 -0.1258
20033SOL     OW61539   0.059   2.536   7.710  0.3913  0.4598 -0.3027
20033SOL    HW161540  -0.005   2.575   7.768  0.6575  0.7655 -0.2106
20033SOL    HW261541   0.059   2.443   7.733  0.7847  0.6410  0.4681
20034SOL     OW61542   6.191   1.702   6.168  0.5996  0.0100  0.0059
20034SOL    HW161543   6.192   1.788   6.209  0.9700  0.2639 -0.5294
20034SOL    HW261544   6.115   1.703   6.110  0.7096  0.0445 -0.1387
20035SOL     OW61545   4.713   2.125   7.059 -0.2334  0.1497 -0.5288
20035SOL    HW161546   4.623   2.093   7.051 -0.8725  1.7170  0.0341
20035SOL    HW261547   4.717   2.201   7.001  0.3614  0.8121  0.3516
20036SOL     OW61548   5.211   5.237   5.616 -0.0013  0.5239  0.4402
20036SOL    HW161549   5.177   5.149   5.636 -2.1961  1.2693  0.2410
20036SOL    HW261550   5.267   5.258   5.691  1.1405 -1.2775  0.1724
20037SOL     OW61551   1.816   2.200   5.636 -0.2630 -0.4727 -0.1414
20037SOL    HW161552   1.823   2.109   5.664  0.2300 -0.4712 -0.2516
20037SOL    HW261553   1.728   2.227   5.663 -0.3801 -0.9551 -0.0362
20038SOL     OW61554   7.120   3.279   5.195 -0.4166 -0.4372  0.0153
20038SOL    HW161555   7.170   3.212   5.242  0.5011 -0.2609 -0.6785
20038SOL    HW261556   7.092   3.340   5.263 -0.1529 -0.8357  0.4900
20039SOL     OW61557   5.288   1.732   5.581 -0.3717 -0.2415  0.3947
20039SOL    HW161558   5.355   1.670   5.552  0.9945  1.7939 -1.0492
20039SOL    HW261559   5.229   1.740   5.506 -0.7186 -0.0131  0.6898
20040SOL     OW61560   6.514   3.273   5.020 -0.3447  0.2141 -0.1312
20040SOL    HW161561   6.567   3.343   5.056 -0.7668 -0.0286  0.9959
20040SOL    HW261562   6.561   3.193   5.042  0.5376  0.1346 -2.0817
20041SOL     OW61563   5.443   2.825   6.241  0.5691  0.0142 -1.0335
20041SOL    HW161564   5.413   2.848   6.329 -1.2039  2.0843 -2.0984
20041SOL    HW261565   5.415   2.734   6.230 -0.0693  0.0401  0.1717
20042SOL     OW61566   5.922   4.180   4.777 -0.6910 -0.1031  0.9615
20042SOL    HW161567   5.828   4.172   4.760 -0.6041 -0.2845  0.5411
20042SOL    HW261568   5.929   4.188   4.872 -1.0932 -0.7347  1.0530
20043SOL     OW61569   6.576   3.104   6.901 -0.0336 -0.2975  0.3182
20043SOL    HW161570   6.595   3.011   6.915 -3.0072 -1.1197 -0.2898
20043SOL    HW261571   6.558   3.138   6.988  0.8210 -0.3338  0.5164
20044SOL     OW61572   6.543   1.785   4.023  0.8714  0.6591 -0.0281
20044SOL    HW161573   6.510   1.788   3.933  0.2664  0.2345  0.1781
20044SOL    HW261574   6.594   1.866   4.033 -0.3241  1.4519 -0.2593
20045SOL     OW61575   5.168   3.524   6.027  0.2377  0.2115  0.4766
20045SOL    HW161576   5.252   3.543   5.985 -0.2831 -0.6668 -1.0363
20045SOL    HW261577   5.102   3.552   5.964 -0.5581 -2.3935  0.0076
20046SOL     OW61578   0.173   3.966   5.154 -0.3139 -0.3258  0.1861
20046SOL    HW161579   0.122   3.894   5.192  1.4956 -1.5495  0.3960
20046SOL    HW261580   0.178   3.947   5.061 -0.1938 -0.2414  0.1741
20047SOL     OW61581   4.692   3.109   6.320 -0.4975 -0.2688  0.1697
20047SOL    HW161582   4.682   3.196   6.357  0.7507 -0.4210  0.9536
20047SOL    HW261583   4.785   3.104   6.296 -0.8077 -0.9713 -0.9301
20048SOL     OW61584   6.676   4.154   5.931 -0.0327  0.0627  0.3218
20048SOL    HW161585   6.582   4.155   5.916  0.0218 -1.2890 -0.2791
20048SOL    HW261586   6.714   4.148   5.843  0.4995 -1.8707  0.6327
20049SOL     OW61587   6.172   3.248   5.527 -0.2657  0.1911  0.2244
20049SOL    HW161588   6.120   3.324   5.549  0.0419  0.0947  1.3991
20049SOL    HW261589   6.111   3.175   5.529 -0.3175  0.2391  0.3950
20050SOL     OW61590   7.808   1.183   7.497  0.0923 -0.2743  0.9402
20050SOL    HW161591   7.760   1.253   7.541  0.1858 -0.3542  1.1693
20050SOL    HW261592   7.800   1.107   7.555 -0.6953 -0.6905  0.3097
20051SOL     OW61593   7.048   2.662   5.313  0.0667  0.1176  0.2472
20051SOL    HW161594   7.104   2.665   5.235  1.4034  0.3757  1.1863
20051SOL    HW261595   6.959   2.652   5.278  0.4149  2.0860 -1.3860
20052SOL     OW61596   7.356   3.033   7.535 -0.1188 -0.0564  0.3748
20052SOL    HW161597   7.426   3.096   7.517 -1.9630  2.2568  0.6695
20052SOL    HW261598   7.325   3.007   7.449  0.3289 -0.1544  0.2414
20053SOL     OW61599   5.551   3.176   6.528 -0.2345  0.2882  0.5943
20053SOL    HW161600   5.528   3.170   6.620 -1.3860  1.7903  0.4519
20053SOL    HW261601   5.466   3.179   6.482  0.2884 -1.8498 -0.6651
20054SOL     OW61602   7.716   1.925   9.237 -0.2914 -0.0876 -0.1996
20054SOL    HW161603   7.630   1.924   9.196 -0.3642 -0.2245 -0.0407
20054SOL    HW261604   7.770   1.870   9.180 -0.5845 -0.9233  0.3107
20055SOL     OW61605   5.369   2.835   5.072 -0.0697 -0.4837 -0.4576
20055SOL    HW161606   5.314   2.866   5.000  1.5038 -0.2878 -1.6258
20055SOL    HW261607   5.370   2.908   5.134 -1.8740 -0.8557  0.0931
20056SOL     OW61608   5.981   3.655   7.644  0.7111  0.6435 -0.3727
20056SOL    HW161609   5.983   3.679   7.551  0.8725  2.8773  0.1506
20056SOL    HW261610   5.889   3.663   7.669  0.8155  1.0016 -0.1062
20057SOL     OW61611   6.871   2.473   6.973 -0.2592 -0.3014  0.2262
20057SOL    HW161612   6.832   2.543   7.024 -0.2453 -0.9628  1.1782
20057SOL    HW261613   6.859   2.499   6.882  0.0461  1.0874  0.5612
20058SOL     OW61614   7.286   3.852   3.559  0.2448 -0.5402 -0.4912
20058SOL    HW161615   7.263   3.907   3.484  1.6366  0.4940 -0.1919
20058SOL    HW261616   7.287   3.911   3.634 -0.5597 -1.4550  0.2877
20059SOL     OW61617   7.101   1.841   5.312  0.2054  0.1159 -0.4377
20059SOL    HW161618   7.101   1.777   5.241 -0.0821  0.5141 -0.8017
20059SOL    HW261619   7.050   1.800   5.382  1.6251 -0.8466  0.0769
20060SOL     OW61620   4.248   2.203   5.625  0.4190  0.1765  0.1139
20060SOL    HW161621   4.274   2.284   5.581  0.7608 -0.2762 -0.5408
20060SOL    HW261622   4.330   2.155   5.638  0.2041 -0.1296  0.3576
20061SOL     OW61623   0.295   3.846   8.448 -0.1683  0.3600  0.6247
20061SOL    HW161624   0.303   3.774   8.385  0.6987  0.7024  0.3268
20061SOL    HW261625   0.215   3.827   8.496  0.4544 -1.2527  1.0949
20062SOL     OW61626   6.405   4.121   6.873 -0.0110  0.2353  0.0636
20062SOL    HW161627   6.382   4.041   6.825  0.9608  1.1971 -2.1660
20062SOL    HW261628   6.328   4.177   6.865  0.6465  0.9587 -1.7665
20063SOL     OW61629   6.988   3.564   6.881 -0.0850  0.2002  0.1497
20063SOL    HW161630   6.951   3.534   6.798 -0.2602 -0.5531  0.5013
20063SOL    HW261631   6.923   3.626   6.915 -0.0554  0.4426 -0.2274
20064SOL     OW61632   6.427   4.874   6.099 -0.4920 -0.1649  0.0835
20064SOL    HW161633   6.476   4.910   6.173  1.5360 -0.2153 -1.1510
20064SOL    HW261634   6.390   4.950   6.055  0.7406  0.1627 -0.4492
20065SOL     OW61635   4.405   2.440   5.518  0.1442  0.5520 -0.3722
20065SOL    HW161636   4.385   2.528   5.549 -0.0317  0.9806 -1.6278
20065SOL    HW261637   4.427   2.452   5.425 -3.7680 -1.1289 -1.7700
20066SOL     OW61638   5.795   3.286   7.432 -0.0695  0.5935  0.3644
20066SOL    HW161639   5.828   3.346   7.365 -0.1405 -0.9734 -1.1479
20066SOL    HW261640   5.848   3.306   7.510 -1.2364  3.7642  0.5277
20067SOL     OW61641   0.495   0.151   5.517  0.4153  0.0578  0.2249
20067SOL    HW161642   0.581   0.147   5.476 -0.2428 -1.9852 -1.1434
20067SOL    HW261643   0.509   0.120   5.606  1.1448  0.0055  0.0950
20068SOL     OW61644   6.223   1.961   6.254 -0.4802  0.4932  0.4201
20068SOL    HW161645   6.172   2.034   6.220 -0.1850  0.7364  0.5047
20068SOL    HW261646   6.252   1.989   6.341  0.5617  0.7141  0.0115
20069SOL     OW61647   6.601   2.596   5.809 -0.4048 -0.0601  0.5339
20069SOL    HW161648   6.565   2.663   5.866  1.5726  1.4407  0.1540
20069SOL    HW261649   6.693   2.591   5.834 -0.1637 -1.4997 -0.5338
20070SOL     OW61650   5.119   2.955   5.393  0.6949  0.1714  0.0215
20070SOL    HW161651   5.147   2.944   5.484 -0.0665  1.0541  0.3806
20070SOL    HW261652   5.049   3.021   5.397 -1.3217 -1.7708 -0.8378
20071SOL     OW61653   7.271   4.227   6.045  0.0387 -0.0126  0.3522
20071SOL    HW161654   7.261   4.133   6.063 -0.9790  0.0876  0.3211
20071SOL    HW261655   7.269   4.267   6.132  0.0012  0.0321  0.3301
20072SOL     OW61656   6.443   3.634   6.980 -0.2834  0.3709 -0.5215
20072SOL    HW161657   6.411   3.598   7.063 -0.2163  1.1576 -0.1464
20072SOL    HW261658   6.393   3.587   6.913  0.8034 -1.4487 -0.1274
20073SOL     OW61659   4.506   2.250   4.833  0.3609  0.2292 -0.0357
20073SOL    HW161660   4.551   2.295   4.905  0.0723  0.7230 -0.1538
20073SOL    HW261661   4.492   2.319   4.768 -1.4952  0.3581  0.4371
20074SOL     OW61662   5.845   3.802   5.559 -0.1898  0.0977 -0.3633
20074SOL    HW161663   5.824   3.712   5.585 -0.6918 -0.2111 -1.7542
20074SOL    HW261664   5.767   3.833   5.513 -1.3929  2.4774  2.8849
20075SOL     OW61665   5.938   3.285   5.729  0.3074  0.4507  0.5131
20075SOL    HW161666   5.959   3.200   5.693 -0.9332  0.0396  0.7030
20075SOL    HW261667   5.988   3.290   5.811  1.1815  0.3453 -0.0120
20076SOL     OW61668   3.757   2.521   5.791  0.0707 -0.1473 -0.1361
20076SOL    HW161669   3.815   2.592   5.819  0.7049 -1.4625  2.1701
20076SOL    HW261670   3.817   2.450   5.766 -0.5491 -0.7585  0.0906
20077SOL     OW61671   6.725   2.554   7.514  0.0116 -0.3056  0.8529
20077SOL    HW161672   6.803   2.551   7.457 -0.9314 -0.3080 -0.4932
20077SOL    HW261673   6.750   2.612   7.585  0.1233  2.6055 -1.3764
20078SOL     OW61674   0.811   3.598   7.142  0.1289 -0.1155  0.4154
20078SOL    HW161675   0.822   3.505   7.159  1.8048 -0.4193 -1.9054
20078SOL    HW261676   0.881   3.640   7.191 -0.9472  0.0277  1.8899
20079SOL     OW61677   6.939   2.064   8.882  0.4040 -0.1461  0.3399
20079SOL    HW161678   6.875   1.998   8.856 -1.6800  1.6174  0.6416
20079SOL    HW261679   6.934   2.066   8.978 -0.8209  1.5405  0.2798
20080SOL     OW61680   7.359   3.207   7.131  0.5611  0.3074  0.2115
20080SOL    HW161681   7.370   3.230   7.223  1.1541  0.3314  0.1422
20080SOL    HW261682   7.311   3.280   7.093 -1.4545 -0.5782  0.8946
20081SOL     OW61683   7.812   2.517   5.776  0.1622  0.6716 -0.5290
20081SOL    HW161684   7.892   2.498   5.726  0.9069  0.1989  0.7697
20081SOL    HW261685   7.809   2.612   5.781  0.3736  0.7073 -1.0159
20082SOL     OW61686   0.298   2.992   6.488  0.3423  0.0092  0.1918
20082SOL    HW161687   0.223   2.942   6.521  0.7735 -0.4378  0.5003
20082SOL    HW261688   0.323   3.049   6.561 -1.3614  2.1379 -0.7747
20083SOL     OW61689   6.036   5.708   7.308 -0.4379  0.4713  0.4227
20083SOL    HW161690   5.963   5.762   7.276 -0.4629  0.7138  0.8900
20083SOL    HW261691   5.997   5.651   7.374 -0.4816 -0.3640 -0.3078
20084SOL     OW61692   5.603   4.079   5.431 -0.3456 -0.1629  0.2770
20084SOL    HW161693   5.514   4.067   5.463 -0.8538  1.2939 -0.4772
20084SOL    HW261694   5.642   4.142   5.492 -0.5070  0.7118 -0.4924
20085SOL     OW61695   6.264   3.886   8.858 -0.1231  0.8730 -0.2146
20085SOL    HW161696   6.334   3.892   8.924 -0.5863 -1.4913  0.6040
20085SOL    HW261697   6.248   3.792   8.849 -1.9610  1.2707 -1.7251
20086SOL     OW61698   7.647   3.055   7.586 -0.0794  0.4293  0.4085
20086SOL    HW161699   7.669   3.131   7.640 -1.6662  0.9453  0.3619
20086SOL    HW261700   7.604   3.091   7.509 -1.4362 -0.5381  0.6791
20087SOL     OW61701   0.823   3.973   7.361  0.3733  0.0313 -0.6555
20087SOL    HW161702   0.729   3.959   7.365  0.1652  1.4736  0.4743
20087SOL    HW261703   0.847   3.953   7.271 -1.3120  1.2505 -1.4354
20088SOL     OW61704   4.698   2.350   3.979  0.0020  0.0485  0.3353
20088SOL    HW161705   4.628   2.307   3.930  0.3058 -0.0238 -0.0382
20088SOL    HW261706   4.727   2.421   3.921 -0.0016  0.2952  0.6369
20089SOL     OW61707   4.641   2.227   6.099 -0.4247 -0.1198  0.1529
20089SOL    HW161708   4.579   2.220   6.027 -1.1276 -3.1845  0.9406
20089SOL    HW261709   4.727   2.223   6.057 -0.7860  0.0808 -0.6315
20090SOL     OW61710   5.007   1.080   6.666 -0.3393  0.5429 -0.5842
20090SOL    HW161711   5.042   1.094   6.578  2.5126  1.0025  0.5141
20090SOL    HW261712   4.979   1.166   6.695 -1.5646  0.3413 -1.0996
20091SOL     OW61713   0.579   3.979   4.504  0.1972  0.4525  0.1459
20091SOL    HW161714   0.625   3.923   4.566 -2.3441 -1.8696  0.1253
20091SOL    HW261715   0.486   3.967   4.524 -0.6146  1.7449 -2.3381
20092SOL     OW61716   4.814   2.353   5.471  0.0466  0.3500 -0.0420
20092SOL    HW161717   4.836   2.390   5.556 -0.4684 -1.5869  0.9796
20092SOL    HW261718   4.749   2.413   5.435 -0.5815  0.5841  1.4360
20093SOL     OW61719   5.122   2.905   5.657 -1.1671 -1.3917 -0.2026
20093SOL    HW161720   5.068   2.971   5.701  0.8924  0.7358 -0.6578
20093SOL    HW261721   5.184   2.877   5.724  0.4971  0.1576 -1.0006
20094SOL     OW61722   7.713   2.477   8.449  0.0972  0.0322 -0.3423
20094SOL    HW161723   7.792   2.471   8.395 -0.0738 -1.2347 -0.4822
20094SOL    HW261724   7.704   2.571   8.467  0.3758  0.4672 -2.1938
20095SOL     OW61725   5.869   2.109   7.414  0.4177 -1.1113 -0.3217
20095SOL    HW161726   5.777   2.131   7.401  0.6065 -0.1139 -0.0339
20095SOL    HW261727   5.868   2.042   7.482  0.0120  0.4445  1.2667
20096SOL     OW61728   7.417   3.320   6.567  0.6332 -0.1843  0.0935
20096SOL    HW161729   7.443   3.396   6.619  1.1723  0.6906 -1.3946
20096SOL    HW261730   7.357   3.271   6.624 -1.4787  2.4808  0.3180
20097SOL     OW61731   6.386   2.129   7.526  0.4596 -0.3377 -0.1453
20097SOL    HW161732   6.388   2.190   7.600 -0.8761 -1.6252  1.0038
20097SOL    HW261733   6.454   2.065   7.546  0.1714 -0.6235 -0.0705
20098SOL     OW61734   5.188   2.942   6.235  0.4388 -0.2688 -0.3238
20098SOL    HW161735   5.278   2.913   6.221  0.6897  0.3324 -0.0067
20098SOL    HW261736   5.145   2.929   6.151  0.0981 -2.9820  0.1615
20099SOL     OW61737   6.189   4.052   5.769  0.0698 -0.0606 -0.0696
20099SOL    HW161738   6.126   4.114   5.806  1.6175  2.0013 -0.6844
20099SOL    HW261739   6.144   4.015   5.693 -0.6635  0.8556 -0.1020
20100SOL     OW61740   6.967   4.818   6.399  0.2725 -0.2795 -0.6993
20100SOL    HW161741   6.935   4.795   6.311  4.3054 -1.7275 -2.0014
20100SOL    HW261742   6.987   4.911   6.393 -1.7792  0.2339 -0.4025
20101SOL     OW61743   5.760   3.712   6.054  0.1656  0.3928 -0.4693
20101SOL    HW161744   5.847   3.709   6.094  0.2134  0.8406 -0.5316
20101SOL    HW261745   5.770   3.774   5.981 -0.2152  0.4694 -0.4575
20102SOL     OW61746   5.453   3.372   5.952  0.0582 -0.4639  0.0881
20102SOL    HW161747   5.414   3.313   6.017 -0.2930 -0.1285  0.1867
20102SOL    HW261748   5.438   3.328   5.868 -3.1164  0.8901 -0.2387
20103SOL     OW61749   6.187   3.575   7.123  0.0637  0.4508 -0.5174
20103SOL    HW161750   6.274   3.581   7.163 -0.5108 -0.7999  1.0196
20103SOL    HW261751   6.164   3.666   7.102  0.0673  1.3631  2.8371
20104SOL     OW61752   6.777   2.490   8.327 -0.0005  0.0936 -0.2493
20104SOL    HW161753   6.823   2.553   8.271  2.1509 -0.4841  0.7530
20104SOL    HW261754   6.806   2.405   8.294 -1.2894 -0.3476 -0.2926
20105SOL     OW61755   4.880   3.579   4.943  0.3621 -0.7333 -0.3041
20105SOL    HW161756   4.887   3.667   4.908 -0.4548 -0.8534 -0.7794
20105SOL    HW261757   4.804   3.582   5.001 -0.4093 -1.4199 -1.2494
20106SOL     OW61758   6.421   2.819   6.278 -0.0503 -0.0721  0.2074
20106SOL    HW161759   6.376   2.788   6.357 -1.4585  1.2672 -0.0266
20106SOL    HW261760   6.457   2.904   6.303  1.5144 -0.6633  0.0722
20107SOL     OW61761   7.304   2.050   6.645 -0.0591 -0.3453 -0.3997
20107SOL    HW161762   7.308   1.964   6.604 -0.6280 -1.1679  1.2081
20107SOL    HW261763   7.393   2.084   6.639  0.8896 -2.2911  1.4772
20108SOL     OW61764   6.384   4.879   6.941  0.7608 -0.3398 -0.1981
20108SOL    HW161765   6.452   4.930   6.897 -0.4885 -0.0394 -1.8660
20108SOL    HW261766   6.335   4.944   6.992  3.1796 -0.8851  3.1984
20109SOL     OW61767   6.670   3.401   6.901 -0.2530  0.2157  0.2145
20109SOL    HW161768   6.630   3.348   6.970 -0.2664 -0.0244  0.0234
20109SOL    HW261769   6.705   3.477   6.947  0.9136 -0.5777  0.6907
20110SOL     OW61770   7.302   4.079   8.811  0.1650  0.7435  0.3598
20110SOL    HW161771   7.390   4.054   8.783 -0.7321 -2.0514 -0.2983
20110SOL    HW261772   7.252   4.085   8.730 -0.7749 -0.1024  0.8612
20111SOL     OW61773   0.869   1.035   7.299 -0.0590 -0.2128  0.2348
20111SOL    HW161774   0.885   1.008   7.390 -0.1120  0.5319  0.4751
20111SOL    HW261775   0.832   0.958   7.257  1.6179 -1.1547  0.3667
20112SOL     OW61776   7.648   2.057   6.821  0.7067  0.6488 -0.5849
20112SOL    HW161777   7.598   1.985   6.859  0.5225  0.2369 -1.5540
20112SOL    HW261778   7.714   2.013   6.767  1.0131  1.2041 -0.6630
20113SOL     OW61779   6.411   3.902   6.498  0.0409  0.3092 -0.4246
20113SOL    HW161780   6.507   3.900   6.501  0.0738  1.7961  1.2261
20113SOL    HW261781   6.385   3.889   6.589 -1.3498 -0.2895 -0.8866
20114SOL     OW61782   6.655   3.998   7.786  0.2277 -0.1625  0.7101
20114SOL    HW161783   6.562   4.004   7.805  0.2574  1.6075  0.4498
20114SOL    HW261784   6.695   4.070   7.835  0.8269  2.0011 -2.6259
20115SOL     OW61785   7.573   2.179   8.000 -0.9208 -0.2007 -0.4689
20115SOL    HW161786   7.662   2.211   8.013 -0.7330 -1.2282  1.0099
20115SOL    HW261787   7.518   2.240   8.049 -0.9338 -0.1279 -0.5738
20116SOL     OW61788   0.018   2.974   7.870 -0.2224  0.4387 -0.6418
20116SOL    HW161789  -0.052   2.962   7.935 -1.5751  1.2389 -1.8654
20116SOL    HW261790   0.094   2.929   7.907 -1.7022 -1.5111  0.2078
20117SOL     OW61791   7.991   2.965   5.962 -0.3283 -0.1817 -0.0240
20117SOL    HW161792   7.952   3.047   5.929  1.4231  1.2248  1.2354
20117SOL    HW261793   8.068   2.952   5.908 -0.8647 -1.3171 -0.5422
20118SOL     OW61794   4.927   3.333   4.321  0.1968  0.2030  0.1634
20118SOL    HW161795   4.968   3.352   4.405  0.8389  0.2938 -0.1626
20118SOL    HW261796   4.833   3.344   4.337  0.3142  0.2668  0.8509
20119SOL     OW61797   4.977   3.106   6.800  0.5126  0.7741  0.0459
20119SOL    HW161798   4.942   3.053   6.872  0.4065 -0.1177 -0.6424
20119SOL    HW261799   4.955   3.196   6.824 -0.5161  0.3998  0.5888
20120SOL     OW61800   5.567   3.957   6.589 -0.2585 -0.6410 -0.7608
20120SOL    HW161801   5.476   3.986   6.584 -0.6237 -1.6443 -0.0371
20120SOL    HW261802   5.578   3.924   6.678  1.0448  0.1963 -0.5825
20121SOL     OW61803   5.684   2.508   6.324 -0.8355 -0.3056 -0.0539
20121SOL    HW161804   5.730   2.554   6.255 -2.2796  0.3320 -0.6453
20121SOL    HW261805   5.750   2.491   6.391  0.3302  0.1122 -1.0750
20122SOL     OW61806   5.951   2.455   4.908  0.2236  0.4814  0.2711
20122SOL    HW161807   5.898   2.528   4.878 -0.1172 -0.6557 -2.1302
20122SOL    HW261808   5.891   2.399   4.957  0.4710  1.7183  2.0497
20123SOL     OW61809   5.518   5.428   7.578  0.0582 -0.0496  1.0628
20123SOL    HW161810   5.476   5.370   7.514  1.0250 -0.0514  0.4080
20123SOL    HW261811   5.478   5.513   7.561  0.2178 -0.0744  0.5325
20124SOL     OW61812   0.444   1.471   6.348 -0.0659  0.3523  0.0126
20124SOL    HW161813   0.421   1.526   6.423  0.3799  2.0521 -1.0311
20124SOL    HW261814   0.477   1.533   6.283 -0.0051 -1.1268 -1.4194
20125SOL     OW61815   5.368   1.929   6.616  0.3632  0.5721 -0.4335
20125SOL    HW161816   5.371   2.023   6.598 -1.6929  1.3619  2.5122
20125SOL    HW261817   5.425   1.917   6.692 -0.2798 -0.3158 -0.0697
20126SOL     OW61818   6.313   2.509   6.842  0.2128  0.3616  0.5945
20126SOL    HW161819   6.241   2.527   6.903  0.0400 -0.9264  0.7893
20126SOL    HW261820   6.337   2.595   6.808 -0.6869  0.9349  1.3547
20127SOL     OW61821   5.973   3.000   7.513  0.2370  0.0734 -0.0632
20127SOL    HW161822   5.896   2.977   7.463  0.1926 -0.2646  0.1588
20127SOL    HW261823   5.939   3.045   7.591  0.2374 -0.4313  0.2330
20128SOL     OW61824   5.985   3.881   8.008  0.4158  0.1581 -0.3531
20128SOL    HW161825   5.941   3.811   8.056  1.7129  0.7076  1.7855
20128SOL    HW261826   5.916   3.942   7.983 -0.4893 -0.9534 -0.6225
20129SOL     OW61827   7.436   2.875   8.268  0.1584 -0.2137 -0.1523
20129SOL    HW161828   7.462   2.810   8.333 -1.9356 -0.9169  0.0843
20129SOL    HW261829   7.342   2.886   8.282 -0.1337  0.4873 -2.2837
20130SOL     OW61830   6.973   7.928   6.395  0.2307 -0.3753  0.6266
20130SOL    HW161831   6.927   7.846   6.379 -3.9057  2.0367 -1.6060
20130SOL    HW261832   6.926   7.968   6.468  1.7518  0.3679  1.2417
20131SOL     OW61833   7.045   3.416   8.770 -0.0135  0.5979 -0.0643
20131SOL    HW161834   7.103   3.340   8.777 -0.4520  0.1001 -1.4902
20131SOL    HW261835   6.961   3.385   8.805 -0.4418  0.1195 -1.4689
20132SOL     OW61836   6.288   2.258   6.701 -0.5173 -1.1753  0.0030
20132SOL    HW161837   6.308   2.248   6.794 -0.7842 -0.4522  0.1444
20132SOL    HW261838   6.205   2.213   6.689 -0.5229 -1.1987  0.1337
20133SOL     OW61839   0.269   1.217   4.542 -0.6035 -0.2426  0.3893
20133SOL    HW161840   0.242   1.171   4.462 -0.6670 -1.3804  1.0337
20133SOL    HW261841   0.284   1.147   4.606  0.4360  0.5773  1.0871
20134SOL     OW61842   7.023   4.082   5.683 -1.0962  0.0904 -0.5414
20134SOL    HW161843   7.015   4.116   5.594 -0.0728  1.3095 -0.1890
20134SOL    HW261844   7.109   4.040   5.685 -0.0314  2.2021  0.5254
20135SOL     OW61845   6.456   4.030   7.511 -0.4577  0.2321  0.1362
20135SOL    HW161846   6.483   3.941   7.531  0.1846  0.3306 -0.2387
20135SOL    HW261847   6.367   4.022   7.478  0.1491 -0.4825 -1.4633
20136SOL     OW61848   6.670   2.092   5.446  0.1438 -0.1334 -0.1902
20136SOL    HW161849   6.657   2.030   5.518  2.3741 -0.6893 -0.1841
20136SOL    HW261850   6.725   2.161   5.483 -0.5728  0.7815 -0.7790
20137SOL     OW61851   6.091   5.338   7.744 -0.1221 -0.2802 -0.4853
20137SOL    HW161852   6.156   5.363   7.809 -0.5669 -0.5195  0.0579
20137SOL    HW261853   6.128   5.367   7.661  0.7108 -0.4759 -0.1900
20138SOL     OW61854   7.996   3.043   7.624 -0.7440 -0.0320 -0.5359
20138SOL    HW161855   7.904   3.068   7.635 -0.0097  1.9316  1.8299
20138SOL    HW261856   8.022   3.008   7.709  0.7353 -0.4440 -1.1338
20139SOL     OW61857   5.061   2.485   6.985  0.1045 -0.5480 -0.0836
20139SOL    HW161858   5.016   2.537   6.918 -1.8046  0.3851  1.7792
20139SOL    HW261859   5.003   2.490   7.062  1.5512 -2.6164  1.2559
20140SOL     OW61860   5.949   4.345   6.919  0.1312 -0.0801 -0.3402
20140SOL    HW161861   5.863   4.302   6.918  0.2185 -0.2923  0.7287
20140SOL    HW261862   5.934   4.429   6.962  0.5537 -0.3385  0.3264
20141SOL     OW61863   0.197   3.060   4.862 -0.4804  0.7455  0.4632
20141SOL    HW161864   0.228   3.058   4.772 -0.4093 -0.7902  0.4865
20141SOL    HW261865   0.273   3.032   4.914 -0.5368  1.5662  0.9938
20142SOL     OW61866   6.563   4.452   6.977 -0.3521  0.3332 -0.2874
20142SOL    HW161867   6.505   4.451   6.900 -0.5350  0.7108 -0.1578
20142SOL    HW261868   6.547   4.537   7.018  0.1430  0.3537 -0.1306
20143SOL     OW61869   4.079   2.529   6.104 -0.3164 -0.2000  0.1898
20143SOL    HW161870   4.092   2.473   6.181  1.1565  0.1462  0.2186
20143SOL    HW261871   4.069   2.617   6.140  0.8101  0.0241 -0.0298
20144SOL     OW61872   0.581   6.782   8.274 -0.3624  0.2734 -0.3608
20144SOL    HW161873   0.524   6.717   8.315  1.2213 -0.5753  0.5896
20144SOL    HW261874   0.638   6.731   8.216  1.7548  0.5496  1.3473
20145SOL     OW61875   0.510   2.221   7.606  0.9204  0.0419 -0.0231
20145SOL    HW161876   0.533   2.142   7.655 -0.7986 -0.4955 -0.0272
20145SOL    HW261877   0.591   2.272   7.605  2.2507 -1.9613 -0.5477
20146SOL     OW61878   3.841   2.083   7.048  0.5004 -0.3197 -0.9827
20146SOL    HW161879   3.838   2.077   7.144  1.2249  1.1584 -0.8310
20146SOL    HW261880   3.770   2.027   7.018 -0.4361  0.0334  0.4687
20147SOL     OW61881   5.297   5.348   5.844  0.0843 -0.1882  0.0912
20147SOL    HW161882   5.208   5.381   5.856 -0.2531 -1.2119  0.4432
20147SOL    HW261883   5.347   5.425   5.816 -0.6371  0.6794  1.1242
20148SOL     OW61884   6.573   3.783   7.536  0.3340  0.4317 -0.1300
20148SOL    HW161885   6.651   3.804   7.484  0.1419 -1.4684 -1.2538
20148SOL    HW261886   6.606   3.730   7.608  0.6043  3.0771  1.8732
20149SOL     OW61887   7.250   3.066   5.837  0.4368  0.5325 -0.5624
20149SOL    HW161888   7.188   3.117   5.889  0.3352  1.1530 -1.2837
20149SOL    HW261889   7.306   3.024   5.902 -1.4646 -1.0265  0.1645
20150SOL     OW61890   7.595   3.752   5.087 -0.2588  0.2766  0.1880
20150SOL    HW161891   7.568   3.702   5.164 -0.0149 -1.1610 -0.6216
20150SOL    HW261892   7.681   3.786   5.110  0.7194 -1.8202 -0.1319
20151SOL     OW61893   7.456   3.581   6.665 -0.2212  0.1797 -0.2391
20151SOL    HW161894   7.541   3.583   6.709  0.0797 -1.0771 -0.7138
20151SOL    HW261895   7.415   3.664   6.688  0.9330  0.5950  0.3996
20152SOL     OW61896   0.376   1.335   7.313 -0.1189  0.3212  0.1999
20152SOL    HW161897   0.403   1.288   7.235  1.4997 -0.1743  1.0109
20152SOL    HW261898   0.369   1.427   7.286 -2.6507 -0.2130 -1.2322
20153SOL     OW61899   4.783   2.328   6.470  0.0753  0.0111  0.2256
20153SOL    HW161900   4.784   2.384   6.392  1.4158 -0.0694  0.1593
20153SOL    HW261901   4.735   2.379   6.535  0.3888  0.8118 -0.1492
20154SOL     OW61902   7.072   2.649   5.009  0.6072  0.1032 -0.1747
20154SOL    HW161903   7.096   2.742   5.017 -0.0206  0.2450  0.1708
20154SOL    HW261904   6.978   2.648   5.026  0.5071 -0.5304 -0.7524
20155SOL     OW61905   6.028   4.232   5.902 -0.2394  0.1599  0.0441
20155SOL    HW161906   5.936   4.222   5.926 -0.4332 -0.3118 -0.8499
20155SOL    HW261907   6.076   4.192   5.975 -0.7151  0.9140  0.7796
20156SOL     OW61908   6.481   2.815   6.713 -0.3672 -0.1509 -0.4661
20156SOL    HW161909   6.402   2.829   6.765 -0.8683 -1.7354 -0.7243
20156SOL    HW261910   6.451   2.817   6.622 -0.2570 -1.3838 -0.5495
20157SOL     OW61911   5.594   5.502   4.619  0.1530  0.1192  0.0085
20157SOL    HW161912   5.502   5.482   4.606 -0.0347  0.3945  0.8594
20157SOL    HW261913   5.621   5.548   4.539 -0.9491  1.7551  0.5241
20158SOL     OW61914   5.972   3.578   8.940  0.1403 -0.4489 -0.1399
20158SOL    HW161915   5.922   3.501   8.968 -0.7724  0.2174  0.1208
20158SOL    HW261916   5.905   3.642   8.915  0.8501  0.6358  0.6461
20159SOL     OW61917   6.710   2.195   6.973  0.5965  0.2744  0.0434
20159SOL    HW161918   6.745   2.150   6.896  0.4255  0.2902 -0.0440
20159SOL    HW261919   6.662   2.270   6.937 -0.8258 -0.5908  0.0640
20160SOL     OW61920   4.460   2.744   5.270  0.8277 -0.6827  0.2418
20160SOL    HW161921   4.523   2.813   5.251  1.3405 -0.5545  2.1791
20160SOL    HW261922   4.395   2.787   5.325  0.6785 -1.5341  0.7350
20161SOL     OW61923   7.166   2.426   6.030  0.1787 -0.1381  0.8080
20161SOL    HW161924   7.076   2.406   6.004 -0.1178  0.7363  1.1406
20161SOL    HW261925   7.201   2.343   6.063  0.1137 -0.9441 -1.0531
20162SOL     OW61926   5.049   1.852   6.613 -0.4331  0.0305  0.1783
20162SOL    HW161927   5.083   1.916   6.550  0.4295 -0.1872  0.4093
20162SOL    HW261928   4.956   1.846   6.593 -0.4578  1.0896 -0.0792
20163SOL     OW61929   6.109   3.671   5.519 -0.0026 -0.4094 -0.0827
20163SOL    HW161930   6.074   3.582   5.506  0.3616 -0.9330  2.2060
20163SOL    HW261931   6.031   3.727   5.519 -0.2142 -0.6296 -1.8496
20164SOL     OW61932   5.739   1.429   6.471 -0.7070 -0.5592  0.0698
20164SOL    HW161933   5.712   1.337   6.461  0.5386 -0.6706 -3.7431
20164SOL    HW261934   5.679   1.478   6.415 -1.1175  1.0133  1.7787
20165SOL     OW61935   5.617   4.638   6.937 -0.1716  0.4955  0.1745
20165SOL    HW161936   5.550   4.703   6.915  0.2188  0.9648  0.3670
20165SOL    HW261937   5.634   4.594   6.854  1.3375  2.3050 -0.5475
20166SOL     OW61938   5.962   2.562   8.230  0.3559 -0.0316 -0.3558
20166SOL    HW161939   5.898   2.533   8.296  1.2811 -0.2664  0.4620
20166SOL    HW261940   5.990   2.648   8.260  1.0558 -0.2974 -0.2236
20167SOL     OW61941   6.229   1.644   7.184  0.0935 -0.3092  0.2141
20167SOL    HW161942   6.155   1.696   7.216 -0.6789 -0.0756 -1.8331
20167SOL    HW261943   6.241   1.672   7.093  0.5756 -2.7044 -0.5266
20168SOL     OW61944   6.285   4.331   7.182 -0.0030 -0.2174  0.0305
20168SOL    HW161945   6.314   4.259   7.127  0.1848  0.9847 -1.5078
20168SOL    HW261946   6.193   4.342   7.162 -0.8037 -1.8120  2.3874
20169SOL     OW61947   0.228   1.825   5.335  0.2960 -0.3678  0.1173
20169SOL    HW161948   0.146   1.848   5.379  1.2830  0.1607  1.7776
20169SOL    HW261949   0.294   1.829   5.404  1.7832 -0.4468 -1.2443
20170SOL     OW61950   5.589   2.471   5.916  0.0338  0.0200  0.8837
20170SOL    HW161951   5.548   2.557   5.922 -1.4048 -0.6467  1.1432
20170SOL    HW261952   5.551   2.432   5.836 -0.2318 -0.7969  1.3904
20171SOL     OW61953   5.058   2.981   5.994  0.2067  0.2727  0.2176
20171SOL    HW161954   4.967   2.954   6.009  0.3526 -0.0175  0.6023
20171SOL    HW261955   5.054   3.076   5.985 -0.4236  0.0895 -1.9080
20172SOL     OW61956   5.959   2.326   7.221 -0.3272 -0.1208 -0.2510
20172SOL    HW161957   5.894   2.395   7.206  2.1444  2.4135 -0.1131
20172SOL    HW261958   5.960   2.315   7.317  0.8072  1.3850 -0.0422
20173SOL     OW61959   6.777   2.536   5.563 -0.0634  0.1240 -0.1501
20173SOL    HW161960   6.866   2.566   5.547 -0.0259 -0.2046 -0.6065
20173SOL    HW261961   6.783   2.440   5.558 -0.4534  0.1038 -0.2731
20174SOL     OW61962   7.049   2.597   5.591 -0.4550 -0.0410  0.1783
20174SOL    HW161963   7.058   2.655   5.667 -0.7058  1.2617 -0.7416
20174SOL    HW261964   7.045   2.657   5.516 -0.1404 -1.2887 -0.8759
20175SOL     OW61965   6.854   3.786   5.459 -0.0784  0.0313  0.3081
20175SOL    HW161966   6.802   3.816   5.385 -0.8138  0.3347  0.9309
20175SOL    HW261967   6.942   3.820   5.442 -0.0759 -0.4617 -0.7462
20176SOL     OW61968   6.622   3.525   6.637 -0.1580 -0.1349  0.2851
20176SOL    HW161969   6.613   3.516   6.732 -1.3018  0.1075  0.2169
20176SOL    HW261970   6.539   3.563   6.608 -0.6391 -1.9821 -1.0350
20177SOL     OW61971   6.277   3.131   6.461 -0.1171  0.0016  0.2175
20177SOL    HW161972   6.320   3.203   6.508 -0.1519 -1.4415  2.6566
20177SOL    HW261973   6.203   3.172   6.416  0.4665  1.6428  0.7055
20178SOL     OW61974   5.959   3.284   6.276  0.5437  0.1636 -0.1061
20178SOL    HW161975   5.876   3.258   6.316  0.7760  2.2552  1.9339
20178SOL    HW261976   5.970   3.223   6.203 -1.4967 -1.8144  1.0977
20179SOL     OW61977   6.419   4.463   6.742 -0.7410 -0.2043  0.4516
20179SOL    HW161978   6.388   4.394   6.684 -1.6150  0.3402  0.2538
20179SOL    HW261979   6.359   4.536   6.727  0.6741  0.9193  0.0228
20180SOL     OW61980   5.553   1.238   7.469  0.3157 -0.3244  0.2462
20180SOL    HW161981   5.574   1.160   7.519  0.2404  0.1195  0.9887
20180SOL    HW261982   5.487   1.283   7.521  0.9695  0.6536  0.2616
20181SOL     OW61983   7.149   3.482   6.135  0.1564 -0.0047  0.2869
20181SOL    HW161984   7.151   3.527   6.219 -0.4275  0.5007  0.0404
20181SOL    HW261985   7.166   3.390   6.156  2.0972  0.4143  0.7254
20182SOL     OW61986   0.392   1.341   7.597  0.2630 -0.0059  0.3597
20182SOL    HW161987   0.386   1.337   7.501  0.4128 -0.3945  0.3673
20182SOL    HW261988   0.301   1.349   7.626  0.2027 -0.1015  0.1962
20183SOL     OW61989   6.683   1.508   8.016 -0.3183  0.2643 -0.6967
20183SOL    HW161990   6.596   1.520   8.054 -0.2624  1.6181 -0.9428
20183SOL    HW261991   6.682   1.560   7.935  0.5890 -0.0307 -0.9160
20184SOL     OW61992   1.596   3.057   4.912 -0.0489  0.4172  0.9131
20184SOL    HW161993   1.541   3.135   4.927 -4.0056 -1.7789 -0.6702
20184SOL    HW261994   1.607   3.053   4.818  2.0159  0.1597  1.1301
20185SOL     OW61995   5.157   2.139   8.110  0.1216 -0.3670 -0.8606
20185SOL    HW161996   5.094   2.094   8.054  0.6282  0.3219 -2.0161
20185SOL    HW261997   5.214   2.186   8.050  0.3565  0.8396  0.2498
20186SOL     OW61998   6.125   3.201   5.927  0.2685  0.3055 -0.6965
20186SOL    HW161999   6.077   3.152   5.993  1.3772 -1.7696 -1.3326
20186SOL    HW262000   6.177   3.135   5.881  2.6939  2.2254 -0.9175
20187SOL     OW62001   6.458   3.072   7.600  0.2257 -0.1801  0.5232
20187SOL    HW162002   6.398   3.039   7.533  0.5700  0.0710  0.0804
20187SOL    HW262003   6.408   3.141   7.644  0.2104  0.0922  0.0953
20188SOL     OW62004   5.831   2.504   6.564 -0.5105 -1.1037  0.1037
20188SOL    HW162005   5.889   2.434   6.533 -1.9504 -2.3676  0.1204
20188SOL    HW262006   5.876   2.540   6.641  1.4713 -0.2249 -1.3913
20189SOL     OW62007   7.526   3.008   5.190  0.0895 -0.1900 -0.0958
20189SOL    HW162008   7.489   3.046   5.110  0.1101  3.7164  1.5226
20189SOL    HW262009   7.455   2.955   5.226 -1.0218  0.5254 -1.1443
20190SOL     OW62010   5.553   3.421   6.805 -0.2523 -0.3636  0.1553
20190SOL    HW162011   5.557   3.478   6.728  1.5103 -0.0317  0.4495
20190SOL    HW262012   5.502   3.345   6.775  0.1765 -0.1292 -1.2826
20191SOL     OW62013   0.774   0.295   6.730 -0.0137  0.5774  0.1611
20191SOL    HW162014   0.855   0.341   6.754  0.4055 -0.3709  0.6250
20191SOL    HW262015   0.755   0.325   6.641  1.7062 -0.3086 -0.5543
20192SOL     OW62016   6.148   3.208   7.393  0.5123  0.5837  0.0859
20192SOL    HW162017   6.081   3.145   7.421  0.7981  0.8397  1.3827
20192SOL    HW262018   6.133   3.285   7.447  0.3476  1.5567 -1.2958
20193SOL     OW62019   7.927   1.823   8.210  0.7996 -0.0795 -0.2772
20193SOL    HW162020   7.863   1.829   8.139  1.2725 -1.0091 -0.7906
20193SOL    HW262021   7.961   1.734   8.205  0.6200 -0.2635  1.3104
20194SOL     OW62022   6.180   2.720   5.455 -0.2996 -0.5584 -0.3825
20194SOL    HW162023   6.153   2.672   5.377  0.2318  0.4011 -1.1950
20194SOL    HW262024   6.237   2.790   5.421  1.5979 -1.3181  1.0431
20195SOL     OW62025   6.669   2.945   5.160  0.3018  0.2679 -0.6310
20195SOL    HW162026   6.715   2.904   5.232 -0.9643  3.1102  2.0089
20195SOL    HW262027   6.729   3.012   5.127 -0.1062  0.7285 -0.4464
20196SOL     OW62028   4.811   2.772   8.705  0.1005 -0.1094  0.1520
20196SOL    HW162029   4.825   2.818   8.787 -0.3232  0.3328 -0.0196
20196SOL    HW262030   4.844   2.684   8.721  0.3320  0.0696  0.6855
20197SOL     OW62031   5.046   2.656   8.183  0.0752 -0.4391 -0.1148
20197SOL    HW162032   5.101   2.733   8.170  0.5165 -0.4950  1.2399
20197SOL    HW262033   4.994   2.676   8.261 -0.6377 -1.0543 -0.4221
20198SOL     OW62034   5.207   2.586   9.377 -0.1536  0.4861 -1.2099
20198SOL    HW162035   5.175   2.666   9.420  1.6155  1.4772 -1.6367
20198SOL    HW262036   5.267   2.547   9.440 -3.0279 -2.1494  0.1877
20199SOL     OW62037   6.491   4.008   9.138 -0.0626  0.5365  0.7886
20199SOL    HW162038   6.496   4.040   9.048  1.8299 -0.2374  0.5677
20199SOL    HW262039   6.445   3.924   9.130  0.1672  0.4325  0.5331
20200SOL     OW62040   5.708   4.494   7.339  0.0370  0.0145 -0.1689
20200SOL    HW162041   5.653   4.466   7.412 -1.0688 -0.8402 -1.2870
20200SOL    HW262042   5.770   4.422   7.327  2.4219  1.5381  1.9546
20201SOL     OW62043   5.553   1.844   7.716 -0.3543  0.0620 -0.1592
20201SOL    HW162044   5.515   1.922   7.757 -0.4654  1.3874 -2.5808
20201SOL    HW262045   5.643   1.869   7.695 -0.3185 -0.5434 -0.7473
20202SOL     OW62046   7.683   2.398   7.414  0.1663  0.4384 -0.3021
20202SOL    HW162047   7.590   2.403   7.393  0.0948  0.6099  0.0449
20202SOL    HW262048   7.685   2.362   7.503  0.4588 -0.2252 -0.5727
20203SOL     OW62049   6.947   2.987   8.806  0.1278  0.3315  0.2359
20203SOL    HW162050   7.028   3.021   8.768  0.8605 -0.2436  1.2281
20203SOL    HW262051   6.879   3.010   8.743  1.2061 -0.0875 -1.1153
20204SOL     OW62052   0.869   3.409  10.010  0.2655  0.0242 -0.0231
20204SOL    HW162053   0.851   3.438   9.920  2.0032  1.5261  0.0425
20204SOL    HW262054   0.788   3.367  10.039 -0.8800  0.9307 -1.7420
20205SOL     OW62055   6.506   3.734  10.897  0.0729 -0.5474  0.2417
20205SOL    HW162056   6.561   3.775  10.964 -0.0825  0.8906 -0.4700
20205SOL    HW262057   6.522   3.640  10.907  1.2807 -0.2648  1.2179
20206SOL     OW62058   6.302   3.375   9.240  0.4102 -0.7687  0.6199
20206SOL    HW162059   6.381   3.325   9.219 -0.1952 -0.7415 -1.9665
20206SOL    HW262060   6.231   3.312   9.234 -0.1257 -0.0793 -0.5284
20207SOL     OW62061   6.514   2.369   7.598  0.3372 -0.6989 -0.1097
20207SOL    HW162062   6.493   2.455   7.635 -0.8909 -1.7496  1.8031
20207SOL    HW262063   6.598   2.382   7.553  0.3573  1.3970  0.4473
20208SOL     OW62064   6.544   4.370   9.527  0.4515 -0.3446 -0.3388
20208SOL    HW162065   6.524   4.314   9.602 -1.4170  0.3099 -0.2836
20208SOL    HW262066   6.538   4.312   9.451 -1.6039 -0.2496 -0.2962
20209SOL     OW62067   5.387   0.965   9.714 -0.1908  0.5172  0.5370
20209SOL    HW162068   5.339   0.928   9.639 -1.3679  1.3881  0.8200
20209SOL    HW262069   5.386   1.060   9.698  0.0390  0.6633  1.3688
20210SOL     OW62070   5.160   3.169   9.076  0.6062  0.2780  0.4380
20210SOL    HW162071   5.216   3.242   9.105  0.3286  1.0007 -0.7778
20210SOL    HW262072   5.174   3.165   8.982  1.7684 -2.2592  0.6542
20211SOL     OW62073   5.245   4.637   7.074 -0.4642  0.2283  0.7190
20211SOL    HW162074   5.234   4.716   7.126 -0.8152  0.1562  0.7599
20211SOL    HW262075   5.334   4.608   7.091 -0.0325  1.1167  0.0025
20212SOL     OW62076   6.554   3.155  10.758 -0.0837  0.6664 -0.3675
20212SOL    HW162077   6.637   3.109  10.761 -0.3303  0.0788 -1.9119
20212SOL    HW262078   6.561   3.215  10.684 -1.0508  0.5622 -0.5638
20213SOL     OW62079   5.252   4.911   7.844 -0.1399 -0.2718  0.2447
20213SOL    HW162080   5.218   4.832   7.887  0.2268 -0.3108  0.4721
20213SOL    HW262081   5.178   4.972   7.843  0.1456  0.1567  1.9797
20214SOL     OW62082   5.800   1.431   9.066  0.4234  0.2029 -0.1810
20214SOL    HW162083   5.857   1.356   9.085 -0.5397 -0.1019  1.7565
20214SOL    HW262084   5.712   1.399   9.084 -0.2655  1.0774 -1.8061
20215SOL     OW62085   6.678   4.063   8.172  0.2023 -0.0250 -0.0595
20215SOL    HW162086   6.678   3.970   8.195 -2.1175 -0.0468  0.1407
20215SOL    HW262087   6.588   4.080   8.143  1.0828  1.7253 -2.0004
20216SOL     OW62088   6.750   3.102   7.362  0.1251 -0.3156 -0.5036
20216SOL    HW162089   6.742   3.128   7.454 -1.1105 -1.1657 -0.3395
20216SOL    HW262090   6.784   3.180   7.318  1.9092 -0.2621  0.8467
20217SOL     OW62091   6.705   2.271   8.815  0.0004  0.3136  0.7894
20217SOL    HW162092   6.794   2.238   8.805 -0.8438 -1.9826  0.2969
20217SOL    HW262093   6.692   2.328   8.739  1.1165  0.9401  1.0376
20218SOL     OW62094   6.362   4.834   7.758 -0.0230  0.1481  0.3146
20218SOL    HW162095   6.273   4.825   7.724  0.7374 -1.3368 -1.4557
20218SOL    HW262096   6.401   4.904   7.705  0.3941 -0.4432 -0.1749
20219SOL     OW62097   0.605   3.150   9.841 -0.1931  0.1835 -0.3013
20219SOL    HW162098   0.570   3.234   9.871 -0.1873  0.0834 -0.0050
20219SOL    HW262099   0.650   3.170   9.759 -1.0894  0.2773 -0.7772
20220SOL     OW62100   5.016   4.133   8.680 -0.0737  0.3409  0.5347
20220SOL    HW162101   4.951   4.122   8.611  1.7257 -0.9485 -1.0555
20220SOL    HW262102   5.044   4.043   8.701  0.3281  0.7869  2.0646
20221SOL     OW62103   7.313   5.331   7.663 -0.0372 -0.1128  0.1922
20221SOL    HW162104   7.344   5.245   7.688  1.9574  0.2057 -0.9323
20221SOL    HW262105   7.263   5.362   7.738 -0.9901 -2.3052  0.5271
20222SOL     OW62106   7.848   2.183   8.097 -0.1768  0.0681  0.3079
20222SOL    HW162107   7.884   2.235   8.168 -1.5323  1.1617  0.2291
20222SOL    HW262108   7.925   2.150   8.050  0.7193  0.2738  1.5844
20223SOL     OW62109   5.255   1.926   8.878  0.1960  0.2502  0.4158
20223SOL    HW162110   5.196   1.905   8.951 -0.6552  0.6240 -0.1375
20223SOL    HW262111   5.336   1.881   8.898 -0.2331 -0.1530  1.2912
20224SOL     OW62112   6.333   2.594   8.037  0.1845  0.7275 -0.0364
20224SOL    HW162113   6.355   2.505   8.067 -1.6585  0.4631  0.6547
20224SOL    HW262114   6.239   2.590   8.020 -0.2142  2.9128  1.3364
20225SOL     OW62115   4.785   3.420   8.398  0.0060 -0.3053  0.1305
20225SOL    HW162116   4.741   3.499   8.367  0.0566  0.7792  2.5744
20225SOL    HW262117   4.721   3.377   8.454 -0.0315 -2.0551 -1.2130
20226SOL     OW62118   0.292   2.379   7.853  0.2411 -0.6586 -0.1558
20226SOL    HW162119   0.384   2.394   7.871  0.5488 -0.3855 -1.8039
20226SOL    HW262120   0.284   2.390   7.758 -1.4400 -0.9048 -0.0708
20227SOL     OW62121   5.245   2.846   7.824  0.5933  0.0396 -0.4489
20227SOL    HW162122   5.164   2.796   7.838  0.2900  1.0141  1.5831
20227SOL    HW262123   5.214   2.933   7.798  0.9315  0.7098  1.3185
20228SOL     OW62124   0.607   2.876   8.438  0.6732 -0.0583  0.2216
20228SOL    HW162125   0.565   2.799   8.478  0.0450  0.4887  0.6514
20228SOL    HW262126   0.651   2.842   8.360  1.3826 -1.0539  1.0187
20229SOL     OW62127   6.161   1.943   8.636 -0.3181 -0.5070  0.1309
20229SOL    HW162128   6.182   2.036   8.638 -1.2195 -0.3014  0.7040
20229SOL    HW262129   6.180   1.916   8.546 -1.2495  0.5365 -0.4052
20230SOL     OW62130   5.095   4.622   9.483 -0.4792 -0.1243  0.5459
20230SOL    HW162131   5.120   4.689   9.420 -1.0609  1.3144  1.7772
20230SOL    HW262132   5.026   4.573   9.440  0.2063 -0.2011 -0.5182
20231SOL     OW62133   5.468   4.706   9.556  0.0828  0.2826 -0.0728
20231SOL    HW162134   5.539   4.642   9.553 -0.1808  0.0012 -0.3364
20231SOL    HW262135   5.497   4.777   9.498  0.6515  0.6970  0.6937
20232SOL     OW62136   0.723   3.259   9.199 -0.0557 -0.0377  0.9656
20232SOL    HW162137   0.718   3.203   9.276 -0.4241 -0.1950  0.8321
20232SOL    HW262138   0.632   3.285   9.183 -0.1166 -0.7480  0.0509
20233SOL     OW62139   7.090   2.481   7.694  0.9301  0.2505 -0.5243
20233SOL    HW162140   7.078   2.401   7.643 -1.6033  0.5234 -0.4834
20233SOL    HW262141   7.018   2.479   7.758  2.2444  1.4036  1.0526
20234SOL     OW62142   7.448   1.406   8.402  0.0671 -0.1276 -0.0833
20234SOL    HW162143   7.357   1.401   8.373 -0.7043 -0.8116  2.2152
20234SOL    HW262144   7.487   1.323   8.375  0.4328  0.6776 -2.2022
20235SOL     OW62145   6.186   3.867   7.161  0.1272 -0.2160  0.0133
20235SOL    HW162146   6.204   3.955   7.130  0.5921 -0.2353  0.2150
20235SOL    HW262147   6.093   3.867   7.181  0.1652  0.2886  0.2061
20236SOL     OW62148   6.763   1.834   8.759 -0.0726 -0.2011  0.3034
20236SOL    HW162149   6.683   1.810   8.712  0.6178 -1.9795 -0.0499
20236SOL    HW262150   6.788   1.754   8.806  2.0060  0.0079 -0.3496
20237SOL     OW62151   6.551   2.067  10.056 -0.4931  0.1614  0.1214
20237SOL    HW162152   6.582   2.087   9.967 -1.7408 -2.6876 -1.0798
20237SOL    HW262153   6.618   2.010  10.093 -1.7795 -1.8841 -0.5650
20238SOL     OW62154   6.483   1.759   6.317 -0.4147 -0.4679 -0.1090
20238SOL    HW162155   6.396   1.795   6.301 -0.6275 -1.1809 -0.6209
20238SOL    HW262156   6.468   1.667   6.338  0.2052 -0.5788 -0.1211
20239SOL     OW62157   5.508   0.245   9.970 -0.3911 -0.6740  0.4267
20239SOL    HW162158   5.554   0.163   9.953  0.9496  0.5222 -2.2777
20239SOL    HW262159   5.420   0.231   9.933  0.5583 -0.2181 -2.2165
20240SOL     OW62160   6.324   3.930   8.565  0.1179 -0.2929  0.1038
20240SOL    HW162161   6.237   3.927   8.525 -0.0160 -1.2717  0.4303
20240SOL    HW262162   6.308   3.958   8.655  0.4433  2.1424 -0.5380
20241SOL     OW62163   7.138   2.355  10.251  0.0571 -1.1847 -0.0143
20241SOL    HW162164   7.127   2.413  10.327 -0.9941 -1.4196  0.0269
20241SOL    HW262165   7.080   2.281  10.269  1.7598 -2.5228  0.1717
20242SOL     OW62166   5.634   2.244   7.370  0.2877  0.2072 -0.0626
20242SOL    HW162167   5.569   2.268   7.303  0.8850 -0.0789 -0.7645
20242SOL    HW262168   5.596   2.273   7.452 -1.6999 -1.7799 -0.1801
20243SOL     OW62169   7.835   2.837   7.417 -0.3223  0.7140  0.4193
20243SOL    HW162170   7.826   2.911   7.476 -0.0865  1.5596 -0.5615
20243SOL    HW262171   7.746   2.819   7.387 -0.2524  1.4346 -0.2847
20244SOL     OW62172   7.164   2.966   8.224 -0.1263  0.3794 -0.0668
20244SOL    HW162173   7.146   2.874   8.244  1.4592 -0.0064 -0.2886
20244SOL    HW262174   7.109   2.986   8.148 -0.6803 -0.2883  0.1512
20245SOL     OW62175   5.882   3.148   7.177  0.0721 -0.5883  0.1299
20245SOL    HW162176   5.840   3.119   7.258  0.7396 -0.0859  0.6752
20245SOL    HW262177   5.810   3.182   7.123 -0.2833 -0.1229  0.8758
20246SOL     OW62178   6.366   1.470   7.632  0.2315 -0.3780 -0.2188
20246SOL    HW162179   6.321   1.402   7.582 -1.1270 -0.0721  0.5603
20246SOL    HW262180   6.439   1.496   7.575 -1.5642  0.3632 -2.3434
20247SOL     OW62181   0.787   1.416   8.947  0.6575  0.1826  0.3639
20247SOL    HW162182   0.791   1.384   9.037 -2.4019  1.7917  1.2147
20247SOL    HW262183   0.791   1.512   8.955  1.0216  0.3559 -1.3110
20248SOL     OW62184   6.653   3.492   8.002  0.3793  0.2335  0.4055
20248SOL    HW162185   6.722   3.549   8.036  1.1270 -0.0213 -0.6222
20248SOL    HW262186   6.610   3.545   7.935  2.0974 -0.8529 -1.6948
20249SOL     OW62187   0.872   3.410   7.674 -0.0901  0.3700 -0.1775
20249SOL    HW162188   0.899   3.327   7.715 -1.1503 -0.3099 -0.8114
20249SOL    HW262189   0.924   3.477   7.719 -0.5288 -0.4475  1.6274
20250SOL     OW62190   7.505   4.671   9.287 -0.3976 -0.3118  0.1537
20250SOL    HW162191   7.529   4.761   9.265  1.0684 -1.0303 -1.4002
20250SOL    HW262192   7.409   4.670   9.282 -0.3518  0.7784 -1.4873
20251SOL     OW62193   6.395   4.357   7.782 -0.1934  0.0801  0.2608
20251SOL    HW162194   6.392   4.348   7.686  1.8534  1.9352 -0.0476
20251SOL    HW262195   6.423   4.447   7.797 -1.5061  0.1676  2.6712
20252SOL     OW62196   7.739   0.856   9.446 -0.2233 -0.1971  0.1168
20252SOL    HW162197   7.763   0.830   9.358  0.7030  2.2002 -0.4272
20252SOL    HW262198   7.678   0.929   9.434 -0.8355 -0.4488  1.4716
20253SOL     OW62199   5.177   3.090   7.603  0.0556  0.2476  0.1795
20253SOL    HW162200   5.097   3.077   7.551 -0.1404  1.2795  0.1983
20253SOL    HW262201   5.145   3.118   7.688  0.4303  2.8964 -0.4563
20254SOL     OW62202   6.080   3.496   6.580 -0.3499 -0.2657  0.0988
20254SOL    HW162203   6.089   3.474   6.487 -0.8149 -0.2145  0.0402
20254SOL    HW262204   5.989   3.520   6.590 -0.4312 -0.7794  0.6762
20255SOL     OW62205   5.042   2.286   8.805  0.6245 -0.0250 -0.1178
20255SOL    HW162206   4.983   2.351   8.768  0.3884 -0.5856 -0.7449
20255SOL    HW262207   5.129   2.317   8.783  0.5114  0.0761 -0.4198
20256SOL     OW62208   6.992   2.908   9.494 -0.1292  0.0156  0.6117
20256SOL    HW162209   6.933   2.891   9.420  1.8876  0.3564 -1.1859
20256SOL    HW262210   6.982   3.002   9.510  1.2536  0.5044 -1.0201
20257SOL     OW62211   5.040   3.987   7.049 -0.1916  0.1390  0.0429
20257SOL    HW162212   5.105   4.042   7.006 -0.3677  0.3161  0.0025
20257SOL    HW262213   5.088   3.944   7.120 -0.0436  0.3179  0.0517
20258SOL     OW62214   0.297   2.593   6.878 -0.9081 -0.0200 -0.3319
20258SOL    HW162215   0.211   2.566   6.847 -1.1705  1.8221 -1.3889
20258SOL    HW262216   0.355   2.578   6.803 -0.2930 -1.1881  0.3509
20259SOL     OW62217   4.986   3.139   6.309 -0.5098 -0.1094  0.6919
20259SOL    HW162218   5.028   3.225   6.307 -1.1772  0.2195  0.6861
20259SOL    HW262219   5.055   3.078   6.283  0.0473  0.3903  0.9789
20260SOL     OW62220   6.842   2.896   8.190  0.0809 -0.0907  0.4208
20260SOL    HW162221   6.829   2.988   8.166 -2.0402 -0.5256 -0.2605
20260SOL    HW262222   6.755   2.858   8.187  0.9437 -2.1832  0.5378
20261SOL     OW62223   7.567   1.983   7.812  0.3461 -0.0297  0.1738
20261SOL    HW162224   7.561   2.050   7.880 -0.7107 -0.1690  0.2464
20261SOL    HW262225   7.616   1.911   7.853  0.6638  0.3212  0.4117
20262SOL     OW62226   0.867   2.324   9.331 -0.4762  0.2265 -0.0123
20262SOL    HW162227   0.933   2.365   9.387 -0.2353 -0.8432  0.5257
20262SOL    HW262228   0.787   2.325   9.384 -0.1046 -1.3340  0.6470
20263SOL     OW62229   5.959   7.678   5.674 -0.9317 -0.7310  0.0082
20263SOL    HW162230   5.871   7.647   5.650  0.2577 -2.3950 -2.5449
20263SOL    HW262231   6.013   7.600   5.673  0.7705  0.3778  0.8610
20264SOL     OW62232   5.857   3.172   9.534  0.5730  0.0771  0.0837
20264SOL    HW162233   5.797   3.173   9.608  0.5151 -0.2227  0.0427
20264SOL    HW262234   5.815   3.227   9.468  1.2611  1.4688  0.7607
20265SOL     OW62235   6.313   5.400   8.182  0.0171  0.1724 -0.1566
20265SOL    HW162236   6.218   5.392   8.194 -0.1532 -1.8144 -2.1340
20265SOL    HW262237   6.322   5.432   8.092  1.1735 -1.7655 -0.7899
20266SOL     OW62238   7.320   2.801   8.808 -0.4727  0.1479 -0.2724
20266SOL    HW162239   7.266   2.736   8.852 -2.2974  0.9208 -1.2518
20266SOL    HW262240   7.311   2.880   8.860  1.0223 -0.0981  0.4180
20267SOL     OW62241   4.781   2.951   8.893 -0.3921 -0.0017  0.0208
20267SOL    HW162242   4.709   2.939   8.955 -0.4191  1.9144  0.4027
20267SOL    HW262243   4.753   3.021   8.835  0.8989  0.3293 -0.2449
20268SOL     OW62244   7.988   3.276   7.463 -0.0500  0.4105  0.1501
20268SOL    HW162245   8.008   3.197   7.514 -0.0678  0.7066  0.6159
20268SOL    HW262246   7.930   3.245   7.393  0.4685 -0.1093 -0.0608
20269SOL     OW62247   6.126   2.845   5.146  0.3112 -0.3401  0.2384
20269SOL    HW162248   6.203   2.795   5.172 -0.6302 -3.6076 -2.3431
20269SOL    HW262249   6.145   2.873   5.056 -0.2543  1.7285  0.7282
20270SOL     OW62250   7.654   1.639   7.341  0.3205 -0.0056 -0.0746
20270SOL    HW162251   7.599   1.581   7.288  1.2979  0.2670 -1.4441
20270SOL    HW262252   7.611   1.724   7.336 -0.2994 -0.2581  0.6935
20271SOL     OW62253   5.315   2.206   6.558 -0.2472  0.3464  0.2696
20271SOL    HW162254   5.277   2.247   6.635 -0.2728  0.2368  0.3146
20271SOL    HW262255   5.383   2.268   6.529  0.6626 -0.2059  1.1450
20272SOL     OW62256   5.265   2.693   7.022  0.2926 -0.3420  0.2703
20272SOL    HW162257   5.195   2.644   6.979  0.4464  0.0526 -0.4380
20272SOL    HW262258   5.303   2.747   6.953  0.6022  0.2370  0.8846
20273SOL     OW62259   7.447   2.317   8.221 -0.2257  0.0784 -0.0202
20273SOL    HW162260   7.442   2.411   8.203  0.1801 -0.2758 -2.2397
20273SOL    HW262261   7.490   2.311   8.306  0.2867  1.8808 -0.1171
20274SOL     OW62262   7.277   4.141   8.381  0.0284 -0.4705 -0.5603
20274SOL    HW162263   7.239   4.178   8.302 -2.2151 -1.4771 -0.0117
20274SOL    HW262264   7.324   4.063   8.351  2.9830  1.4322 -1.4114
20275SOL     OW62265   6.144   1.538   8.061 -0.7124  0.4441 -0.8541
20275SOL    HW162266   6.109   1.627   8.056  1.2787  1.2508 -1.0915
20275SOL    HW262267   6.100   1.499   8.137 -1.9862  1.4283 -1.0483
20276SOL     OW62268   5.959   5.629   6.883 -0.2833 -0.0441  0.4009
20276SOL    HW162269   5.951   5.623   6.787 -0.9621  2.0188  0.2867
20276SOL    HW262270   5.969   5.538   6.911 -1.6680 -0.8621 -1.4912
20277SOL     OW62271   4.506   1.336   8.398  0.0768 -0.2447  0.0836
20277SOL    HW162272   4.592   1.295   8.384 -0.3575 -1.2866  0.3185
20277SOL    HW262273   4.445   1.276   8.355 -0.8135 -1.0678  2.3775
20278SOL     OW62274   6.478   2.652   7.069  0.7397  0.1738 -0.2114
20278SOL    HW162275   6.536   2.581   7.043  0.6098  0.2955 -0.8507
20278SOL    HW262276   6.473   2.645   7.164  1.9036  0.2325 -0.1275
20279SOL     OW62277   6.218   2.429   9.535 -0.5494 -0.1967  0.3723
20279SOL    HW162278   6.307   2.461   9.520 -0.7646  0.5706  0.6626
20279SOL    HW262279   6.209   2.353   9.478 -0.2041  0.5980 -0.7766
20280SOL     OW62280   5.367   3.636   7.801  0.3108  0.0486  0.1683
20280SOL    HW162281   5.314   3.703   7.845 -0.3360  0.1250 -0.7079
20280SOL    HW262282   5.330   3.553   7.831 -0.0118  0.0995 -0.0797
20281SOL     OW62283   7.890   2.844   8.139 -0.2770 -0.3521 -0.2201
20281SOL    HW162284   7.941   2.770   8.106  2.2289  1.5839 -1.0511
20281SOL    HW262285   7.913   2.850   8.231 -1.2638 -1.1766  0.0888
20282SOL     OW62286   0.557   3.656   7.223  0.2650 -0.8547 -0.4646
20282SOL    HW162287   0.635   3.677   7.172 -0.1351  1.2381 -0.2737
20282SOL    HW262288   0.587   3.657   7.314  0.0833 -0.3430 -0.4091
20283SOL     OW62289   7.946   3.677  10.499  0.3546  0.2957  0.1411
20283SOL    HW162290   7.949   3.645  10.589  1.7754 -0.3638 -0.1041
20283SOL    HW262291   7.859   3.653  10.468  1.0269 -2.6594  0.2591
20284SOL     OW62292   7.707   4.415   7.578 -0.5568 -0.1570 -0.0804
20284SOL    HW162293   7.633   4.362   7.549 -1.2688  0.1183  1.1622
20284SOL    HW262294   7.779   4.352   7.587 -1.6873 -1.2271  2.5186
20285SOL     OW62295   1.316   4.537   7.229 -0.6737  0.0676  0.4285
20285SOL    HW162296   1.376   4.588   7.283 -0.9916 -0.2575  1.1049
20285SOL    HW262297   1.372   4.471   7.187 -0.3287  0.7086 -0.1336
20286SOL     OW62298   6.276   2.060   7.944 -0.3034  0.3203 -0.2572
20286SOL    HW162299   6.200   2.086   7.892 -1.1878 -1.4272  0.0892
20286SOL    HW262300   6.350   2.099   7.899 -1.3193  1.4347 -1.0426
20287SOL     OW62301   7.434   2.656   7.169  1.1849  0.0258  0.1333
20287SOL    HW162302   7.371   2.647   7.097  0.9292 -0.2344  0.3876
20287SOL    HW262303   7.511   2.608   7.139  1.2617  0.3301 -0.1720
20288SOL     OW62304   7.215   3.380   8.079 -0.6248  0.1654  0.6609
20288SOL    HW162305   7.217   3.294   8.038  1.1316  0.9379 -1.0731
20288SOL    HW262306   7.260   3.368   8.162 -0.1848 -0.5499  0.3292
20289SOL     OW62307   0.913   2.915   9.752 -0.5506 -0.3870  0.0398
20289SOL    HW162308   0.974   2.966   9.699 -0.3240 -1.3103 -0.6286
20289SOL    HW262309   0.928   2.944   9.841  0.3506 -0.0734 -0.2049
20290SOL     OW62310   6.798   2.103   7.632  0.6375  0.5744  0.3155
20290SOL    HW162311   6.754   2.091   7.717 -0.1450  1.5573  0.0561
20290SOL    HW262312   6.823   2.014   7.606  0.0993  0.1625  1.1570
20291SOL     OW62313   0.307   2.339  10.022 -0.2382 -0.0438 -0.4450
20291SOL    HW162314   0.387   2.360   9.974  0.5151 -2.1095 -0.1939
20291SOL    HW262315   0.240   2.395   9.982  1.0199  0.6742 -1.6513
20292SOL     OW62316   6.225   5.296   7.185 -0.3581  0.5291 -0.1703
20292SOL    HW162317   6.210   5.386   7.155 -1.1030  0.3905 -0.2281
20292SOL    HW262318   6.173   5.288   7.264  0.7200  0.5373  0.5591
20293SOL     OW62319   5.031   3.453   6.538 -0.5998 -0.0299 -0.0534
20293SOL    HW162320   5.045   3.528   6.596 -0.7211 -0.6720  0.8232
20293SOL    HW262321   4.969   3.397   6.585  0.1694 -1.1170 -0.2843
20294SOL     OW62322   5.511   2.101   9.101 -0.5739  0.4537  0.1283
20294SOL    HW162323   5.482   2.010   9.089 -0.6082  0.6533 -1.4200
20294SOL    HW262324   5.604   2.099   9.083 -0.6989  0.8466 -0.5631
20295SOL     OW62325   0.303   2.545   9.270  0.0144 -0.2881  0.3166
20295SOL    HW162326   0.300   2.528   9.364 -1.9602  2.1075  0.8102
20295SOL    HW262327   0.214   2.529   9.240  0.3168  0.1920 -0.8833
20296SOL     OW62328   6.181   3.022   7.952  0.0306  0.1083  0.5425
20296SOL    HW162329   6.252   2.991   8.008  0.3602  0.9216  0.5865
20296SOL    HW262330   6.129   2.944   7.934  0.9729 -0.5129  0.4480
20297SOL     OW62331   5.652   3.692   8.693 -0.0304  0.0042 -0.2254
20297SOL    HW162332   5.580   3.704   8.754 -1.2154 -2.6974 -0.9461
20297SOL    HW262333   5.623   3.734   8.612 -0.7143 -0.8127 -0.4195
20298SOL     OW62334   7.670   1.331   6.231  0.5402 -0.6235  0.0949
20298SOL    HW162335   7.759   1.359   6.248  0.2863 -0.3833  1.1020
20298SOL    HW262336   7.674   1.235   6.233  1.1228 -0.6760 -1.8472
20299SOL     OW62337   4.629   3.219   7.841  0.1234 -0.0409 -1.1889
20299SOL    HW162338   4.654   3.291   7.784 -0.1389  0.9190 -0.1201
20299SOL    HW262339   4.534   3.214   7.832  0.0838  0.0971 -0.8691
20300SOL     OW62340   6.499   3.265   7.989  0.6371 -0.6873  0.2513
20300SOL    HW162341   6.548   3.347   7.993 -1.9039  0.9552 -0.5257
20300SOL    HW262342   6.441   3.274   7.914 -1.7982 -1.9596  1.8476
20301SOL     OW62343   5.680   1.801   9.385 -0.6821  0.0343 -0.0506
20301SOL    HW162344   5.775   1.798   9.383 -0.6458  1.1074 -0.5296
20301SOL    HW262345   5.654   1.793   9.293 -1.0396 -0.0565  0.0568
20302SOL     OW62346   6.747   3.130   7.634  0.5736  0.4510 -0.0114
20302SOL    HW162347   6.773   3.192   7.702  0.6905 -0.8511  1.1779
20302SOL    HW262348   6.655   3.112   7.653  0.1647  1.2324 -1.1551
20303SOL     OW62349   5.631   4.459   8.685 -0.3950 -0.0428 -0.3502
20303SOL    HW162350   5.624   4.540   8.634  0.7773  1.0975  1.2036
20303SOL    HW262351   5.699   4.408   8.641 -2.0023 -0.8226 -2.0752
20304SOL     OW62352   7.623   3.603   6.358 -0.3100 -0.2821  0.1477
20304SOL    HW162353   7.602   3.530   6.300  0.4931  1.5475 -2.6322
20304SOL    HW262354   7.539   3.633   6.392 -0.9238 -0.7822 -0.8926
20305SOL     OW62355   5.087   3.935   9.865 -0.8208 -0.2228  0.0181
20305SOL    HW162356   5.066   4.027   9.875 -2.8709 -0.7091  0.5571
20305SOL    HW262357   5.003   3.890   9.871  0.1743 -2.1679  0.1715
20306SOL     OW62358   5.268   3.943  10.437  0.5385 -0.5237  0.2788
20306SOL    HW162359   5.190   3.961  10.385  1.8003 -0.4824 -1.7159
20306SOL    HW262360   5.307   3.865  10.396  2.6927  0.7358 -0.2138
20307SOL     OW62361   7.255   3.179  11.933  0.8033 -0.3860 -0.4807
20307SOL    HW162362   7.215   3.133  11.859 -0.6708  0.2505 -0.1251
20307SOL    HW262363   7.310   3.114  11.976 -0.5816 -1.5964 -0.4696
20308SOL     OW62364   6.995   4.706   8.513 -0.0762  0.2414 -0.0653
20308SOL    HW162365   7.019   4.751   8.594  0.9420  1.4120 -0.9711
20308SOL    HW262366   7.076   4.706   8.461 -1.1074  1.0512 -1.7517
20309SOL     OW62367   5.711   1.368   8.786  0.1725  0.0592 -0.2898
20309SOL    HW162368   5.773   1.320   8.731 -0.2078  2.0805 -2.6757
20309SOL    HW262369   5.767   1.425   8.840  0.5045  0.7210 -1.2890
20310SOL     OW62370   7.333   3.015  10.226 -0.4324  0.1957 -0.2357
20310SOL    HW162371   7.335   2.969  10.310  1.0506  2.6629  1.2147
20310SOL    HW262372   7.241   3.035  10.211 -0.6336  0.7773  1.5091
20311SOL     OW62373   0.350   2.248   9.461  0.3873  0.5287 -0.0748
20311SOL    HW162374   0.293   2.239   9.385  0.5794 -1.0409 -0.0680
20311SOL    HW262375   0.313   2.321   9.511 -0.8767  0.3253 -0.6937
20312SOL     OW62376   7.742   1.779   7.967  0.2333  0.1279  0.0918
20312SOL    HW162377   7.668   1.738   8.012  0.9373 -0.0518  1.1368
20312SOL    HW262378   7.777   1.710   7.910  0.8272 -0.4516  1.1291
20313SOL     OW62379   7.830   3.399   9.781  0.2690  0.0273  0.3193
20313SOL    HW162380   7.908   3.373   9.831  2.1707  0.2001 -2.3048
20313SOL    HW262381   7.806   3.320   9.732  0.0137  0.5180 -0.3515
20314SOL     OW62382   6.167   3.004   8.418 -0.4348  0.0929 -0.1602
20314SOL    HW162383   6.206   2.949   8.350 -0.3754  1.1420 -1.0023
20314SOL    HW262384   6.172   3.092   8.382 -0.0368  0.7190  1.3987
20315SOL     OW62385   5.213   2.753   7.539 -0.8450 -0.2884  0.1565
20315SOL    HW162386   5.164   2.683   7.496 -1.2195  1.1433 -1.9058
20315SOL    HW262387   5.146   2.806   7.581 -0.6940 -0.4388  0.5861
20316SOL     OW62388   0.245   2.920   9.938 -0.1049 -0.0357  0.1745
20316SOL    HW162389   0.176   2.862   9.906 -0.1995  0.4599 -0.5361
20316SOL    HW262390   0.317   2.907   9.876 -0.4747  1.3238 -0.5668
20317SOL     OW62391   5.300   1.312   8.368 -0.1362 -0.3669  0.4047
20317SOL    HW162392   5.264   1.224   8.379 -0.0945 -0.2535  1.4969
20317SOL    HW262393   5.369   1.318   8.434 -1.5514  1.2473  1.8082
20318SOL     OW62394   7.543   0.833   7.203 -0.0289 -0.6848 -0.4575
20318SOL    HW162395   7.545   0.880   7.120  0.0737  0.9658  0.4301
20318SOL    HW262396   7.615   0.771   7.198 -0.9695 -1.6955 -2.1828
20319SOL     OW62397   0.055   3.745   8.460 -0.7281 -0.3444 -0.9246
20319SOL    HW162398  -0.019   3.761   8.518 -0.4787  0.3108 -0.7775
20319SOL    HW262399   0.034   3.663   8.417 -1.8827  0.2022 -1.4414
20320SOL     OW62400   5.762   2.603  10.158 -0.0916  0.5118  0.0672
20320SOL    HW162401   5.857   2.604  10.157 -0.0823  1.5854 -2.1049
20320SOL    HW262402   5.737   2.686  10.197 -0.1055  1.0700 -1.0970
20321SOL     OW62403   7.036   3.279  10.314  0.3652  1.2874 -0.3527
20321SOL    HW162404   7.126   3.285  10.346 -0.0267 -0.2324  1.1844
20321SOL    HW262405   7.038   3.211  10.247  0.3062  1.0720 -0.1339
20322SOL     OW62406   6.920   2.475   9.619 -0.1249 -0.0891 -0.2788
20322SOL    HW162407   6.989   2.536   9.591 -0.4597  1.0899  1.3046
20322SOL    HW262408   6.884   2.441   9.538  0.4981  1.3677 -1.2057
20323SOL     OW62409   7.679   1.572   7.619 -0.5636 -0.0913  0.4561
20323SOL    HW162410   7.632   1.569   7.535 -1.7851  0.6786  1.0829
20323SOL    HW262411   7.657   1.489   7.662  0.2474 -0.5885 -0.0553
20324SOL     OW62412   6.312   2.569   6.112 -0.3276 -0.2325  0.4617
20324SOL    HW162413   6.311   2.539   6.021 -0.0901 -0.6960  0.6107
20324SOL    HW262414   6.377   2.639   6.113  0.0574 -0.5863  0.3871
20325SOL     OW62415   4.969   3.103   9.264  0.1280 -0.8021  0.1529
20325SOL    HW162416   5.013   3.080   9.345 -0.9597  1.3786  1.4372
20325SOL    HW262417   5.034   3.152   9.214 -0.2002  0.8211  1.2494
20326SOL     OW62418   6.624   2.940   8.765 -0.6140 -0.2940 -0.1334
20326SOL    HW162419   6.541   2.892   8.769 -1.2486  0.8891  2.1164
20326SOL    HW262420   6.648   2.955   8.856 -0.3759  3.4807 -0.6706
20327SOL     OW62421   4.636   1.452   9.389 -0.7149  0.1551 -0.2917
20327SOL    HW162422   4.686   1.526   9.355 -0.1059  0.3749  1.0225
20327SOL    HW262423   4.546   1.485   9.396 -1.0257 -0.1172 -2.2715
20328SOL     OW62424   7.133   2.509  10.460  0.1089 -0.0987  0.0690
20328SOL    HW162425   7.109   2.590  10.415  1.4704  0.0616 -0.4091
20328SOL    HW262426   7.160   2.536  10.547  1.2749  0.0782 -0.3272
20329SOL     OW62427   5.899   3.861   9.451 -0.2041 -0.0236 -0.2195
20329SOL    HW162428   5.822   3.826   9.495  0.6738 -0.2388  1.2050
20329SOL    HW262429   5.879   3.855   9.357 -1.8411 -0.2006  0.1243
20330SOL     OW62430   5.345   0.049   4.535 -0.0619 -0.1001  0.0619
20330SOL    HW162431   5.349   0.142   4.513 -1.1000 -0.1430 -0.3787
20330SOL    HW262432   5.254   0.024   4.516  0.5239 -1.5027 -1.0690
20331SOL     OW62433   7.113   3.378   7.034 -0.2383 -0.3103  0.1735
20331SOL    HW162434   7.071   3.445   6.980  0.3542  0.8136  1.0472
20331SOL    HW262435   7.062   3.298   7.018  0.0908 -0.1266 -2.2579
20332SOL     OW62436   0.254   1.978   8.236  0.3767 -0.1312 -0.5381
20332SOL    HW162437   0.205   2.060   8.247  1.3528  0.7608 -2.4234
20332SOL    HW262438   0.196   1.922   8.184 -1.6624 -2.0108  3.3378
20333SOL     OW62439   6.429   3.483   8.242  0.0526  0.1245  0.8303
20333SOL    HW162440   6.351   3.538   8.236 -1.6447 -2.2360 -0.6977
20333SOL    HW262441   6.482   3.508   8.167 -1.4317 -1.2353 -0.7461
20334SOL     OW62442   6.032   3.216   8.178 -0.0084 -0.0507 -0.1408
20334SOL    HW162443   6.054   3.152   8.111  0.4452 -0.4443  0.3751
20334SOL    HW262444   6.117   3.251   8.207 -0.2806  1.3818 -0.9833
20335SOL     OW62445   5.212   2.988   8.826  0.0321 -0.4806  0.3379
20335SOL    HW162446   5.184   2.897   8.817  0.9602 -0.7136 -0.3563
20335SOL    HW262447   5.166   3.034   8.756  0.4827 -0.6453 -0.0703
20336SOL     OW62448   7.859   3.264   8.254 -0.2577 -0.0086 -0.2300
20336SOL    HW162449   7.910   3.312   8.188  2.1037 -1.2268  0.6014
20336SOL    HW262450   7.831   3.184   8.209  0.3369 -0.2836 -0.1230
20337SOL     OW62451   5.634   3.380   8.179 -0.3088  0.4600 -0.0515
20337SOL    HW162452   5.565   3.392   8.245 -0.8249 -0.5636 -0.3932
20337SOL    HW262453   5.587   3.358   8.099  0.4196 -0.2362 -0.2937
20338SOL     OW62454   1.366   2.709   8.059 -0.2116 -0.2028 -0.2713
20338SOL    HW162455   1.324   2.685   8.142  0.5767 -0.6403  0.0166
20338SOL    HW262456   1.357   2.804   8.054 -0.6497 -0.2186  0.0979
20339SOL     OW62457   5.484   4.161   8.535  0.1095 -0.4630  0.1284
20339SOL    HW162458   5.509   4.196   8.449 -1.2649 -1.0918 -0.5703
20339SOL    HW262459   5.394   4.190   8.547  0.7242  0.8080  2.0487
20340SOL     OW62460   5.071   1.690   8.296  0.5671 -0.2024  0.1726
20340SOL    HW162461   5.075   1.595   8.288 -2.0780 -0.4888  1.1156
20340SOL    HW262462   5.149   1.722   8.252  1.3363 -2.7915 -0.4749
20341SOL     OW62463   6.685   4.330   8.840 -0.0104  0.0434  0.2865
20341SOL    HW162464   6.760   4.309   8.894  0.3848  2.2008  0.6537
20341SOL    HW262465   6.636   4.395   8.890 -0.3633  1.0943 -1.3444
20342SOL     OW62466   7.799   3.972   7.842  0.7412 -0.2423  0.2238
20342SOL    HW162467   7.724   3.923   7.875  1.3462 -1.4881 -0.1987
20342SOL    HW262468   7.857   3.906   7.805  1.8047  0.7503  0.0500
20343SOL     OW62469   6.738   1.438   9.090  1.0696 -0.1437  0.0682
20343SOL    HW162470   6.690   1.373   9.141 -1.5595  0.8723 -0.9332
20343SOL    HW262471   6.749   1.398   9.004  1.2165 -0.0311  0.0342
20344SOL     OW62472   5.273   1.948   9.194 -0.2011  0.2866 -0.0773
20344SOL    HW162473   5.315   1.935   9.280 -1.0819 -0.9520  0.1878
20344SOL    HW262474   5.263   2.043   9.187 -1.7698  0.3490  2.0322
20345SOL     OW62475   7.740   3.061   8.095  0.1380  0.0310 -0.4554
20345SOL    HW162476   7.664   3.036   8.043  0.2778 -0.3341 -0.4882
20345SOL    HW262477   7.781   2.978   8.119  0.4491  0.2200 -0.3249
20346SOL     OW62478   6.036   5.212   7.344  0.6433  0.4495 -0.1875
20346SOL    HW162479   5.959   5.242   7.392  0.9216  0.5356  0.2109
20346SOL    HW262480   6.072   5.141   7.398  0.0814 -0.5143 -1.0381
20347SOL     OW62481   6.925   3.463   7.696  0.1498 -0.2894 -0.4084
20347SOL    HW162482   6.919   3.422   7.609  0.0951  0.0920 -0.5863
20347SOL    HW262483   7.019   3.475   7.710  0.3566 -2.5055  0.6112
20348SOL     OW62484   5.264   3.555   8.077 -0.2254 -0.1439  0.5368
20348SOL    HW162485   5.198   3.567   8.145  0.2909  1.1477  0.8400
20348SOL    HW262486   5.304   3.641   8.067 -1.2552  0.1227 -2.4220
20349SOL     OW62487   5.079   3.878   8.697 -0.5775  0.1597 -0.0686
20349SOL    HW162488   5.012   3.829   8.746  0.3020 -1.8152 -0.7192
20349SOL    HW262489   5.097   3.823   8.620  0.6156  1.4508 -0.7579
20350SOL     OW62490   5.952   2.932   6.988 -0.5430 -0.0665  0.1051
20350SOL    HW162491   5.955   2.986   7.067 -0.3459  0.9317 -0.5633
20350SOL    HW262492   6.042   2.931   6.956 -0.7566  0.1886 -0.5213
20351SOL     OW62493   5.217   5.044   6.277  0.0106 -0.4506  0.5583
20351SOL    HW162494   5.177   4.965   6.240  0.7036 -0.9116  0.7801
20351SOL    HW262495   5.191   5.114   6.218  2.1952 -1.3429 -1.6213
20352SOL     OW62496   5.437   4.030   9.548  0.0594 -0.0778  0.0306
20352SOL    HW162497   5.389   3.956   9.511 -2.4836  1.8102 -0.6872
20352SOL    HW262498   5.468   4.079   9.472 -0.5452  0.9758  0.4501
20353SOL     OW62499   5.232   2.699   8.798 -0.0598 -0.2809 -0.1299
20353SOL    HW162500   5.307   2.649   8.764 -0.2113 -0.4292 -0.2475
20353SOL    HW262501   5.160   2.675   8.740 -0.6858 -1.6846  1.1747
20354SOL     OW62502   7.941   3.904  10.796 -0.2270 -0.2373 -0.0815
20354SOL    HW162503   7.856   3.893  10.753 -0.8520  0.1896  0.9869
20354SOL    HW262504   7.973   3.815  10.807 -1.0091 -0.4770  0.3860
20355SOL     OW62505   7.456   2.776   8.548  0.6471  0.1719  0.0712
20355SOL    HW162506   7.438   2.683   8.535  0.6663  0.2495 -0.5429
20355SOL    HW262507   7.401   2.801   8.622 -0.4275 -0.0079 -0.6421
20356SOL     OW62508   6.841   3.812   7.900  0.3614 -0.3556  0.4975
20356SOL    HW162509   6.783   3.779   7.969 -0.3216 -0.4245 -0.1111
20356SOL    HW262510   6.787   3.871   7.848  0.3060 -1.7521 -1.1281
20357SOL     OW62511   7.609   1.929   8.526  0.3579  0.6997  0.2475
20357SOL    HW162512   7.660   1.850   8.544  1.8060  1.5081 -0.0609
20357SOL    HW262513   7.632   1.951   8.436 -0.1064  1.4175  0.2997
20358SOL     OW62514   6.638   2.729   8.270 -0.4705 -0.1326  0.2187
20358SOL    HW162515   6.664   2.648   8.313 -0.2381  0.4269  1.1490
20358SOL    HW262516   6.579   2.772   8.332 -1.7352 -0.2416 -0.8491
20359SOL     OW62517   6.464   5.077   7.686 -0.0488 -0.1159  0.1375
20359SOL    HW162518   6.438   5.168   7.676  1.1127  0.5178  2.3795
20359SOL    HW262519   6.555   5.075   7.659  0.9794  0.1800  3.2777
20360SOL     OW62520   7.112   2.748   7.670  0.3452  0.2857 -0.3419
20360SOL    HW162521   7.098   2.655   7.653 -1.8730  0.7799 -1.5999
20360SOL    HW262522   7.029   2.778   7.706  0.7839  1.9223 -0.6361
20361SOL     OW62523   6.728   1.313   7.526  0.0267  0.5102 -0.1026
20361SOL    HW162524   6.639   1.302   7.494  0.3324 -1.0986 -0.4909
20361SOL    HW262525   6.774   1.234   7.498  1.3340  0.8701  0.9031
20362SOL     OW62526   5.493   2.716   5.893  0.1265  0.2255  0.3872
20362SOL    HW162527   5.512   2.796   5.843  0.8407  0.6855  1.3770
20362SOL    HW262528   5.399   2.721   5.911  0.0809  0.6154  0.0574
20363SOL     OW62529   7.281   2.490   7.891  0.2720 -0.0197  0.0989
20363SOL    HW162530   7.232   2.484   7.809  1.0158 -0.7369 -0.3102
20363SOL    HW262531   7.371   2.471   7.866  0.9427  2.1895  0.6857
20364SOL     OW62532   6.984   2.216  10.430 -0.3135  0.0070 -0.2403
20364SOL    HW162533   7.013   2.249  10.515 -0.5694  1.0483 -0.5461
20364SOL    HW262534   6.894   2.248  10.421 -0.3465 -0.2369 -0.8340
20365SOL     OW62535   7.243   3.635   8.393 -0.1106  0.1303 -0.1747
20365SOL    HW162536   7.158   3.659   8.356  0.2031  0.3531 -0.7716
20365SOL    HW262537   7.228   3.628   8.487 -0.8450 -0.0784 -0.3076
20366SOL     OW62538   5.638   0.470   9.227 -0.1602  0.0433  0.2308
20366SOL    HW162539   5.663   0.396   9.282 -2.8390 -0.3608  1.0450
20366SOL    HW262540   5.560   0.506   9.269 -0.6376  1.5116 -1.7697
20367SOL     OW62541   4.072   1.569   7.822 -0.0242  0.0118  0.1103
20367SOL    HW162542   4.163   1.589   7.798 -0.1706 -0.0917 -0.5640
20367SOL    HW262543   4.035   1.653   7.848  0.1249  0.1467 -0.1034
20368SOL     OW62544   0.001   2.019   9.623 -0.2107 -0.3368  0.3216
20368SOL    HW162545   0.053   2.057   9.552 -0.4555  1.2127  0.9472
20368SOL    HW262546  -0.090   2.039   9.598 -0.4497 -1.7391 -0.0235
20369SOL     OW62547   7.224   4.522   8.976  0.2205  0.2703 -0.2227
20369SOL    HW162548   7.191   4.607   9.003 -0.3798 -0.1170  0.2951
20369SOL    HW262549   7.273   4.490   9.051 -0.8736 -0.5113  0.1900
20370SOL     OW62550   5.619   3.573   9.249 -0.1432  0.2925 -0.5340
20370SOL    HW162551   5.644   3.642   9.187 -0.0465 -0.1092 -0.9435
20370SOL    HW262552   5.572   3.509   9.195 -1.0171  0.4661  0.0024
20371SOL     OW62553   6.865   1.836   7.573  0.2625  0.0549 -0.8323
20371SOL    HW162554   6.864   1.750   7.530 -0.1704  0.0603 -0.8394
20371SOL    HW262555   6.957   1.862   7.573  0.4981 -0.7397 -0.1718
20372SOL     OW62556   1.781   3.292   6.411 -0.3009 -0.3818  0.9256
20372SOL    HW162557   1.857   3.338   6.375 -1.7058  1.1574 -0.2293
20372SOL    HW262558   1.752   3.348   6.484  0.5520 -1.7783  2.4083
20373SOL     OW62559   7.090   4.217   7.081 -0.0413  0.1787 -0.3176
20373SOL    HW162560   6.999   4.220   7.110 -1.0818 -1.0224 -3.0934
20373SOL    HW262561   7.097   4.288   7.017  1.3519  1.0193  0.7099
20374SOL     OW62562   6.557   2.328   6.265  0.0905 -0.3356  0.2711
20374SOL    HW162563   6.545   2.365   6.178 -0.1564  0.6807  0.7184
20374SOL    HW262564   6.470   2.296   6.290  0.0448 -0.1474  0.3543
20375SOL     OW62565   7.586   3.596   8.516  0.4393 -0.0559 -0.2931
20375SOL    HW162566   7.609   3.652   8.591  0.2138 -1.0103  0.5108
20375SOL    HW262567   7.577   3.657   8.443 -0.4406  1.0573  0.6977
20376SOL     OW62568   7.497   5.391   9.260  0.2825  0.4896 -0.2069
20376SOL    HW162569   7.408   5.394   9.226 -0.4108  0.1014  1.4951
20376SOL    HW262570   7.520   5.482   9.277 -0.9557  0.4239  2.1572
20377SOL     OW62571   6.865   3.362   6.291  0.2173 -0.3587  0.6523
20377SOL    HW162572   6.793   3.331   6.236  1.1359  0.4683 -1.0923
20377SOL    HW262573   6.915   3.283   6.311 -1.2599 -0.9853  2.1021
20378SOL     OW62574   6.641   2.437   8.605  0.3947 -0.3377 -0.3201
20378SOL    HW162575   6.548   2.426   8.590  0.5796 -1.4253 -0.7455
20378SOL    HW262576   6.675   2.473   8.523  0.4791 -0.7094 -0.4467
20379SOL     OW62577   6.476   2.509   9.510 -0.0338 -0.0097  0.3208
20379SOL    HW162578   6.526   2.549   9.582  0.3943 -0.0790  0.0649
20379SOL    HW262579   6.525   2.533   9.431 -0.3912 -0.1035  0.0704
20380SOL     OW62580   6.684   2.672  10.519  0.1321 -0.1090 -0.1706
20380SOL    HW162581   6.662   2.595  10.571 -1.0642  1.0385  1.1193
20380SOL    HW262582   6.662   2.648  10.429 -1.7728 -0.7557  0.4246
20381SOL     OW62583   7.963   1.227  10.310 -0.8627 -0.3376  0.0835
20381SOL    HW162584   7.922   1.155  10.263 -1.3345  0.7359 -1.1972
20381SOL    HW262585   7.906   1.243  10.385 -1.0365 -0.9428  0.0816
20382SOL     OW62586   7.514   1.176   9.769  0.1406 -0.3287 -0.2254
20382SOL    HW162587   7.466   1.166   9.851 -1.3881  0.9078 -0.9302
20382SOL    HW262588   7.543   1.087   9.747  0.1735 -0.7504  1.3815
20383SOL     OW62589   5.732   2.466   7.120 -0.1349 -0.2244 -0.3444
20383SOL    HW162590   5.726   2.514   7.037  3.8856  1.5561  0.1994
20383SOL    HW262591   5.646   2.477   7.160 -1.1620  1.6504 -2.7997
20384SOL     OW62592   7.882   2.659   7.873  0.4068  0.1981 -0.2077
20384SOL    HW162593   7.806   2.706   7.841 -0.0281  0.1364  0.6829
20384SOL    HW262594   7.847   2.599   7.939  1.2994  0.6868  0.7515
20385SOL     OW62595   7.287   3.363  10.409  0.2398  0.4254  0.4413
20385SOL    HW162596   7.329   3.363  10.323 -0.3405 -0.2414  0.1461
20385SOL    HW262597   7.292   3.454  10.438  0.5472  0.6357 -0.2444
20386SOL     OW62598   7.751   3.372   7.101  0.1623 -0.3738 -0.0186
20386SOL    HW162599   7.687   3.436   7.070  0.3182  0.2873  0.9811
20386SOL    HW262600   7.834   3.420   7.105  0.5322 -0.9629 -0.3817
20387SOL     OW62601   6.866   2.433   7.865 -0.2059  0.3323 -0.3429
20387SOL    HW162602   6.784   2.414   7.910 -0.6677 -0.2947 -1.4131
20387SOL    HW262603   6.930   2.374   7.906 -0.5450  0.0119 -0.2684
20388SOL     OW62604   0.372   3.620   6.677 -0.3987  0.5672 -0.0905
20388SOL    HW162605   0.351   3.535   6.716  3.1571 -1.8449 -2.8361
20388SOL    HW262606   0.454   3.646   6.719  0.8048  0.4201 -2.2356
20389SOL     OW62607   6.671   4.404   7.342  0.3133  0.0688  0.0666
20389SOL    HW162608   6.714   4.359   7.415 -1.0717 -1.1774  0.1646
20389SOL    HW262609   6.641   4.333   7.285  0.4234  0.9897 -1.1738
20390SOL     OW62610   6.911   2.961   8.464  0.9468  0.2864  0.4498
20390SOL    HW162611   6.913   2.916   8.379  1.4752 -1.2223  1.2193
20390SOL    HW262612   6.845   2.914   8.515  1.9658 -0.0887  1.4917
20391SOL     OW62613   5.002   1.865   8.471  0.3201 -0.0800 -0.2107
20391SOL    HW162614   5.009   1.795   8.407 -0.7508 -0.1399 -0.2803
20391SOL    HW262615   4.911   1.892   8.467  0.3513  0.2560  0.9259
20392SOL     OW62616   6.350   1.674   8.544 -0.0045 -0.2127  0.0575
20392SOL    HW162617   6.432   1.630   8.568  0.3798 -0.2727 -1.3188
20392SOL    HW262618   6.283   1.605   8.551  0.3788 -0.6759 -0.7356
20393SOL     OW62619   3.780   2.501   9.830 -0.0659 -0.0994 -0.3680
20393SOL    HW162620   3.779   2.444   9.753 -0.6748  0.2053 -0.5981
20393SOL    HW262621   3.840   2.572   9.806  0.7385 -0.6736 -0.0558
20394SOL     OW62622   7.860   2.132   6.612 -0.0507 -0.3590  0.1651
20394SOL    HW162623   7.885   2.215   6.654 -0.4591  0.3070 -0.8580
20394SOL    HW262624   7.824   2.158   6.527  0.8691 -1.6551 -0.6712
20395SOL     OW62625   5.611   2.879   6.605 -0.0371 -0.6076 -0.1285
20395SOL    HW162626   5.692   2.908   6.648  1.2794 -1.3066 -1.9798
20395SOL    HW262627   5.614   2.783   6.610  0.6782 -0.7648 -2.5469
20396SOL     OW62628   6.367   3.320   7.746 -0.0590  0.2374 -0.4974
20396SOL    HW162629   6.276   3.296   7.763 -0.4109  0.4987 -1.8798
20396SOL    HW262630   6.362   3.401   7.695  1.0141  1.3792  1.1190
20397SOL     OW62631   6.864   3.397  10.105 -0.3198 -0.0094 -0.2823
20397SOL    HW162632   6.790   3.341  10.128 -1.6401  2.2212  1.2855
20397SOL    HW262633   6.914   3.406  10.187 -0.6695  1.7638 -0.2143
20398SOL     OW62634   5.439   3.177   6.791 -0.1300  0.6266  0.6127
20398SOL    HW162635   5.469   3.100   6.839  1.5669  0.7869 -0.1187
20398SOL    HW262636   5.357   3.201   6.834  1.0035  0.4406  3.0661
20399SOL     OW62637   7.404   0.657  10.443 -0.3448 -0.0138 -0.4669
20399SOL    HW162638   7.332   0.687  10.498  0.2719  0.1912  0.2373
20399SOL    HW262639   7.468   0.728  10.447  0.5466 -0.8304  0.1264
20400SOL     OW62640   7.669   3.136   8.606 -0.1800  0.2293 -0.2050
20400SOL    HW162641   7.674   3.067   8.540  1.2550  1.7968 -1.8597
20400SOL    HW262642   7.577   3.160   8.609 -0.7366 -1.7707  0.5028
20401SOL     OW62643   6.480   3.546   8.968  0.2723  0.3929  0.0002
20401SOL    HW162644   6.464   3.475   9.030  2.2048 -1.5166 -1.5316
20401SOL    HW262645   6.402   3.549   8.914 -0.7344  0.9650  1.4230
20402SOL     OW62646   0.475   3.628   7.650  0.3445  0.2312  0.4056
20402SOL    HW162647   0.381   3.634   7.631  0.8477  2.1572 -2.0930
20402SOL    HW262648   0.486   3.676   7.732 -0.9886 -1.5177  1.7068
20403SOL     OW62649   0.574   3.040   9.546  0.0300 -0.1250  0.8172
20403SOL    HW162650   0.624   3.121   9.535 -1.7699  0.8675 -0.6993
20403SOL    HW262651   0.578   2.997   9.461  1.0048 -1.7124  1.6237
20404SOL     OW62652   7.637   1.197   7.963 -0.5599 -0.3931 -1.1110
20404SOL    HW162653   7.670   1.211   8.052 -0.1590 -0.1795 -1.2912
20404SOL    HW262654   7.644   1.103   7.949  0.2758 -0.3171 -1.2604
20405SOL     OW62655   7.658   2.520   7.119 -0.9447 -0.0600  0.6176
20405SOL    HW162656   7.657   2.424   7.120 -1.3466 -0.0469  1.5891
20405SOL    HW262657   7.750   2.543   7.127 -0.4167 -0.3614 -2.8684
20406SOL     OW62658   6.708   3.685   6.996  0.0733  0.3563  0.0201
20406SOL    HW162659   6.723   3.750   6.928  1.5096 -0.8597 -0.8937
20406SOL    HW262660   6.614   3.668   6.993  0.0724  0.5170 -1.5102
20407SOL     OW62661   7.215   4.845   7.996 -0.2486 -0.0920 -0.0769
20407SOL    HW162662   7.175   4.883   8.075 -1.7183  1.3949 -1.4435
20407SOL    HW262663   7.307   4.835   8.019 -0.5599  0.6133  1.7163
20408SOL     OW62664   5.819   2.960   6.749  0.4278 -0.1995 -0.3785
20408SOL    HW162665   5.835   2.946   6.843  1.7942 -0.0465 -0.5690
20408SOL    HW262666   5.844   3.051   6.734  1.1355 -0.4890 -1.0534
20409SOL     OW62667   2.775   1.105  10.832  0.5236  0.3345  0.1421
20409SOL    HW162668   2.870   1.096  10.824  0.6544  0.5329  1.2137
20409SOL    HW262669   2.759   1.100  10.927 -0.4819  0.7730  0.0077
20410SOL     OW62670   5.571   1.984  10.930 -0.3105  0.8813  0.5124
20410SOL    HW162671   5.546   2.067  10.888  0.3773  0.5565 -0.5941
20410SOL    HW262672   5.491   1.932  10.929 -0.4163  1.0437 -0.0072
20411SOL     OW62673   5.917   1.557  10.489 -0.2128 -0.0496 -0.1679
20411SOL    HW162674   5.912   1.529  10.397  2.2522  1.8379 -0.9905
20411SOL    HW262675   5.850   1.625  10.497  0.1883  0.4378 -0.8544
20412SOL     OW62676   7.814   3.502   8.362 -0.6369 -0.4860 -0.1469
20412SOL    HW162677   7.756   3.521   8.436  0.2727  0.1997  0.4114
20412SOL    HW262678   7.816   3.406   8.358 -0.2395 -0.5526  1.1124
20413SOL     OW62679   5.337   3.515  10.054  0.6125  0.3047  0.3697
20413SOL    HW162680   5.374   3.539   9.969  0.4727 -0.4155  0.1044
20413SOL    HW262681   5.262   3.460  10.034 -0.5145  1.5810  0.9079
20414SOL     OW62682   4.655   2.186   7.346 -0.7416 -0.2193 -0.1395
20414SOL    HW162683   4.658   2.281   7.349 -1.7173 -0.1980  1.2663
20414SOL    HW262684   4.645   2.165   7.253  3.4079  0.8224 -1.0150
20415SOL     OW62685   5.912   2.202   9.723  0.1260 -0.0694  0.4825
20415SOL    HW162686   5.894   2.115   9.761  0.8440 -0.4765 -0.0815
20415SOL    HW262687   5.957   2.250   9.793  0.2889 -0.3697  0.5858
20416SOL     OW62688   4.584   1.924  11.534  0.1147  0.3424 -0.1939
20416SOL    HW162689   4.497   1.964  11.535  0.8518  2.0429  0.2014
20416SOL    HW262690   4.641   1.991  11.571  1.4462 -1.1310  0.5403
20417SOL     OW62691   5.605   3.518  10.431 -0.0865  0.4467  0.0879
20417SOL    HW162692   5.688   3.564  10.423 -0.0629  0.4599  0.4035
20417SOL    HW262693   5.587   3.486  10.343  1.2089 -1.2278  0.3817
20418SOL     OW62694   4.205   3.608  11.844 -0.5250 -0.8611  0.3990
20418SOL    HW162695   4.134   3.637  11.902 -0.7954  0.5595 -0.5939
20418SOL    HW262696   4.270   3.570  11.903 -1.3067 -0.5023  1.5220
20419SOL     OW62697   5.657   2.893   9.689 -0.0233 -0.5280 -0.2060
20419SOL    HW162698   5.697   2.815   9.650 -0.8131 -0.4613 -1.1794
20419SOL    HW262699   5.572   2.900   9.646  0.0317  0.8707 -0.1135
20420SOL     OW62700   7.732   4.453  10.267  0.3159 -0.6316  0.1051
20420SOL    HW162701   7.716   4.361  10.248  1.0668 -0.9674  0.9849
20420SOL    HW262702   7.713   4.462  10.361  0.8301 -0.0382  0.1663
20421SOL     OW62703   7.422   3.039  11.098  0.1999 -0.0175 -0.3198
20421SOL    HW162704   7.445   3.132  11.099 -2.4296  0.7256  0.1764
20421SOL    HW262705   7.368   3.029  11.020 -0.9836 -0.6730  0.5462
20422SOL     OW62706   0.648   2.964  10.210  0.3052  0.4340  0.3308
20422SOL    HW162707   0.703   3.025  10.259 -0.7649  0.5394  1.4477
20422SOL    HW262708   0.593   2.923  10.277 -0.6760  0.0290 -0.7018
20423SOL     OW62709   6.354   3.728   9.581 -0.4260  0.0871 -0.0852
20423SOL    HW162710   6.445   3.741   9.552 -0.1304  1.5952  1.3967
20423SOL    HW262711   6.302   3.776   9.516  0.0682  1.5456  0.5510
20424SOL     OW62712   6.426   3.036  12.086 -0.1198  0.3264 -0.4432
20424SOL    HW162713   6.506   3.048  12.034  2.1700 -1.1134  2.4381
20424SOL    HW262714   6.370   2.980  12.032  1.2576  0.5146 -2.1398
20425SOL     OW62715   6.154   5.291   9.267  0.3341 -0.0704  0.1412
20425SOL    HW162716   6.202   5.371   9.287 -0.5837  1.0378 -1.8464
20425SOL    HW262717   6.176   5.271   9.176 -1.2648 -0.7345 -0.1333
20426SOL     OW62718   6.094   3.465   9.828  0.0775 -0.3491  0.6225
20426SOL    HW162719   6.009   3.464   9.783  0.5396  0.7841 -0.3088
20426SOL    HW262720   6.121   3.557   9.826  1.6017 -0.7879  0.3858
20427SOL     OW62721   4.997   2.637  10.356  0.0131  0.6073  0.6155
20427SOL    HW162722   5.051   2.642  10.435  0.3672 -0.2771  0.4489
20427SOL    HW262723   5.034   2.563  10.307 -0.6889  0.6581 -0.0079
20428SOL     OW62724   5.512   2.886   9.970  0.4859 -0.5397  0.7195
20428SOL    HW162725   5.561   2.894   9.888  0.4355  1.0541  0.8200
20428SOL    HW262726   5.578   2.868  10.037  0.9215  1.1492  0.7847
20429SOL     OW62727   0.396   2.380  12.146  0.1390  0.6230 -0.1978
20429SOL    HW162728   0.415   2.426  12.065  0.9545  2.2260  0.8461
20429SOL    HW262729   0.319   2.326  12.126  0.1003  1.2564 -1.9101
20430SOL     OW62730   6.237   1.138   9.998  0.0827 -0.0996 -0.2362
20430SOL    HW162731   6.264   1.219   9.955  0.2902  0.1771  0.4001
20430SOL    HW262732   6.145   1.127   9.973  0.2822 -0.1115 -0.9905
20431SOL     OW62733   0.151   3.700   8.164 -0.1807  0.1936 -0.7486
20431SOL    HW162734   0.069   3.653   8.152  0.1792 -0.9543  0.9381
20431SOL    HW262735   0.126   3.782   8.207 -0.4686 -0.0479 -0.4513
20432SOL     OW62736   6.062   4.161   8.199  0.0425  0.2790 -0.1529
20432SOL    HW162737   5.976   4.167   8.157 -0.5820  0.2783  1.0668
20432SOL    HW262738   6.071   4.244   8.245 -0.0743 -0.3891  1.1160
20433SOL     OW62739   6.855   2.792   9.731  0.9313 -0.0033  0.8336
20433SOL    HW162740   6.837   2.882   9.705 -0.0997  0.0723  1.7424
20433SOL    HW262741   6.946   2.777   9.704  0.8020  0.9601 -0.2413
20434SOL     OW62742   7.253   5.857  10.684  0.3459 -0.2503  0.3396
20434SOL    HW162743   7.237   5.932  10.742 -1.2503 -0.9210  0.8135
20434SOL    HW262744   7.199   5.875  10.607 -0.1616 -0.9754  0.5216
20435SOL     OW62745   5.352   2.257   9.919 -0.3139 -0.6759  0.0940
20435SOL    HW162746   5.355   2.324   9.988 -2.8437  0.5657 -0.8794
20435SOL    HW262747   5.417   2.287   9.855 -1.6268  1.1331 -0.4844
20436SOL     OW62748   5.282   4.753  10.101  0.1366 -0.3321 -0.0617
20436SOL    HW162749   5.246   4.665  10.090 -0.1566 -0.1761 -0.3835
20436SOL    HW262750   5.308   4.757  10.193 -1.6765 -0.0902  0.4754
20437SOL     OW62751   7.121   4.733   9.115  0.3163  0.4054 -0.2856
20437SOL    HW162752   7.062   4.659   9.127  0.9850 -0.0737  0.1145
20437SOL    HW262753   7.162   4.746   9.200  1.5185  0.0826 -0.7878
20438SOL     OW62754   6.946   0.347   9.522  0.2866 -0.0188 -0.3665
20438SOL    HW162755   6.932   0.370   9.614  1.3494  1.8055 -0.6092
20438SOL    HW262756   6.863   0.312   9.493  0.1247 -1.2964  1.4646
20439SOL     OW62757   6.523   1.445   9.577  0.0678  0.9566 -0.0528
20439SOL    HW162758   6.534   1.468   9.485 -0.4730  1.2364 -0.0549
20439SOL    HW262759   6.608   1.463   9.617  0.7485 -0.5000 -0.7538
20440SOL     OW62760   6.323   4.349   9.167 -0.8256  0.3697 -0.6088
20440SOL    HW162761   6.264   4.307   9.105 -2.3361  1.7489 -0.1920
20440SOL    HW262762   6.273   4.424   9.201 -0.5890 -0.9668  3.1886
20441SOL     OW62763   7.255   5.763  11.223  0.0252  0.0139 -0.3389
20441SOL    HW162764   7.246   5.668  11.211 -1.2721  0.0434  0.2007
20441SOL    HW262765   7.204   5.801  11.152  2.0425  0.3877 -1.6878
20442SOL     OW62766   5.712   3.855  11.145  0.0181  0.3551  0.0160
20442SOL    HW162767   5.790   3.910  11.133 -0.3772  0.3557 -3.8137
20442SOL    HW262768   5.648   3.912  11.187  0.8466  1.6512 -0.4348
20443SOL     OW62769   7.141   3.636   8.635  0.3797 -0.0670 -0.1773
20443SOL    HW162770   7.097   3.721   8.644  0.9193  0.2333 -0.3937
20443SOL    HW262771   7.099   3.581   8.702  1.2293  0.8690  1.1544
20444SOL     OW62772   7.412   4.745   9.757 -0.0239  0.4231  0.0275
20444SOL    HW162773   7.437   4.673   9.698 -0.0518  0.9141 -0.5949
20444SOL    HW262774   7.329   4.717   9.795  0.5707 -0.4342  0.7604
20445SOL     OW62775   5.469   2.548   8.677  0.5086  0.0690 -0.1451
20445SOL    HW162776   5.504   2.483   8.738 -0.1155 -0.2957 -0.1587
20445SOL    HW262777   5.502   2.521   8.592  2.0372  1.0359  0.1020
20446SOL     OW62778   5.139   3.546  11.586  0.4238  0.3242  0.5566
20446SOL    HW162779   5.207   3.614  11.580  1.5394 -0.7727  0.1724
20446SOL    HW262780   5.146   3.514  11.676  1.1395 -0.4847  0.2248
20447SOL     OW62781   0.030   3.017   9.705  0.5260  0.1344 -0.6620
20447SOL    HW162782   0.004   2.926   9.691 -1.0013  0.5762 -0.9802
20447SOL    HW262783   0.120   3.022   9.673  1.5270 -1.7883  1.5456
20448SOL     OW62784   3.740   1.808  10.739 -0.2593 -0.1939 -1.0191
20448SOL    HW162785   3.818   1.859  10.715 -0.3174  0.4213  0.0280
20448SOL    HW262786   3.751   1.789  10.832 -2.1474  1.4001 -0.3931
20449SOL     OW62787   6.263   3.296  11.636 -0.0399 -0.1221  0.0803
20449SOL    HW162788   6.240   3.203  11.644  0.2013 -0.1514  0.4479
20449SOL    HW262789   6.180   3.342  11.650 -0.0909 -0.2688  0.2658
20450SOL     OW62790   6.416   2.777  10.630  0.1279 -0.2204 -0.6860
20450SOL    HW162791   6.352   2.719  10.589 -0.3224  0.3993 -0.8793
20450SOL    HW262792   6.483   2.790  10.563 -0.4761  0.5847 -1.1496
20451SOL     OW62793   7.270   2.908  10.873 -0.5910 -0.3894  0.4222
20451SOL    HW162794   7.227   2.987  10.842 -1.4579 -1.1281 -0.3408
20451SOL    HW262795   7.327   2.882  10.800  1.9010  1.0284  1.7131
20452SOL     OW62796   6.137   2.769   8.897  0.2935  0.3543 -0.4949
20452SOL    HW162797   6.063   2.794   8.841 -0.1316  0.9050  0.2918
20452SOL    HW262798   6.098   2.758   8.983  0.9832 -0.2667 -0.2604
20453SOL     OW62799   5.923   1.686   9.034  0.5036  0.5016 -0.4444
20453SOL    HW162800   5.919   1.591   9.025  0.9196  0.3010  1.2922
20453SOL    HW262801   5.900   1.719   8.946 -2.8167 -1.1024 -0.3391
20454SOL     OW62802   5.910   3.940  10.529  0.2672  0.7833 -0.2046
20454SOL    HW162803   5.898   3.981  10.444 -0.5760 -1.1830 -1.0932
20454SOL    HW262804   5.983   3.880  10.517  0.7911  1.2049  0.7586
20455SOL     OW62805   5.415   1.028   9.288 -0.0360 -0.4410  0.0309
20455SOL    HW162806   5.508   1.035   9.265 -0.3455  0.3687 -1.0641
20455SOL    HW262807   5.386   1.119   9.299 -0.9620 -0.6081 -0.8279
20456SOL     OW62808   5.538   4.026  11.271  0.2005 -0.1996  0.1053
20456SOL    HW162809   5.485   3.950  11.293 -0.8107  0.9604  2.0131
20456SOL    HW262810   5.607   4.027  11.337  1.3774 -0.5267 -1.0939
20457SOL     OW62811   4.740   3.365   8.102 -0.9956  0.5214 -0.7923
20457SOL    HW162812   4.680   3.311   8.152 -0.6304  1.2871  0.5081
20457SOL    HW262813   4.684   3.413   8.041 -1.5840  0.4861 -0.2811
20458SOL     OW62814   5.813   1.146  10.167 -0.0035  0.1428  0.7668
20458SOL    HW162815   5.729   1.128  10.209 -0.5206  1.5462  0.4083
20458SOL    HW262816   5.861   1.064  10.172 -2.1141 -1.2915 -0.6858
20459SOL     OW62817   6.715   2.083  10.592 -0.1768  0.3679  0.0663
20459SOL    HW162818   6.662   2.008  10.568 -0.1194  0.5876 -0.7953
20459SOL    HW262819   6.754   2.060  10.677 -1.5405  0.1656  0.6612
20460SOL     OW62820   5.353   4.898   9.879 -0.0727  0.9119 -0.3830
20460SOL    HW162821   5.317   4.853   9.956 -0.9364  0.0834 -1.2457
20460SOL    HW262822   5.306   4.860   9.805 -2.3481  4.6077 -1.0550
20461SOL     OW62823   7.534   4.001  10.833 -0.5024  0.0111 -0.2476
20461SOL    HW162824   7.532   3.981  10.739 -2.0907 -0.3781 -0.1493
20461SOL    HW262825   7.590   3.933  10.870 -1.0984 -0.7652 -0.7227
20462SOL     OW62826   7.041   3.266  11.337 -0.9422  0.8794  0.0583
20462SOL    HW162827   7.132   3.264  11.307 -1.1439 -0.0100 -0.5271
20462SOL    HW262828   7.036   3.344  11.392  0.1317  1.0308 -0.0348
20463SOL     OW62829   5.368   2.853   6.497  0.5218 -0.1305 -0.0791
20463SOL    HW162830   5.440   2.874   6.556 -0.0511 -1.2134  1.0607
20463SOL    HW262831   5.297   2.911   6.525  1.0450  1.2318 -1.4739
20464SOL     OW62832   7.695   3.533   8.910  0.3284 -0.0445  0.0379
20464SOL    HW162833   7.625   3.589   8.876  1.1068  0.4350 -0.8244
20464SOL    HW262834   7.717   3.475   8.837 -1.3858 -2.4750  1.3116
20465SOL     OW62835   6.815   2.998  10.803  0.6416  0.2973  0.5628
20465SOL    HW162836   6.862   3.032  10.726  0.6837  3.5887  1.9003
20465SOL    HW262837   6.815   2.903  10.790  1.9080  0.6007 -2.7542
20466SOL     OW62838   7.772   3.353   8.729 -0.7639 -0.5673  0.0372
20466SOL    HW162839   7.867   3.343   8.720 -0.8315  0.5113 -3.1331
20466SOL    HW262840   7.735   3.286   8.672 -1.9009 -0.3433  0.4879
20467SOL     OW62841   5.799   2.248   0.248 -0.3107  0.2780  0.1879
20467SOL    HW162842   5.773   2.157   0.256 -0.2931  0.3210  0.7641
20467SOL    HW262843   5.894   2.245   0.234  0.2511  0.2893  3.3227
20468SOL     OW62844   0.810   2.760   8.776  0.4597 -0.7949  0.5729
20468SOL    HW162845   0.752   2.715   8.715 -1.1846  0.4228  1.1369
20468SOL    HW262846   0.771   2.744   8.862  1.9271 -1.3119  1.1567
20469SOL     OW62847   4.697   4.167   9.871 -0.6161  0.4851 -0.0161
20469SOL    HW162848   4.686   4.135   9.782  1.4693  1.1905 -0.5931
20469SOL    HW262849   4.770   4.116   9.907 -1.2489  0.3930  1.2031
20470SOL     OW62850   6.830   2.350   9.392  0.0082  0.2268  0.1593
20470SOL    HW162851   6.760   2.284   9.394  0.7877 -0.6389 -0.1302
20470SOL    HW262852   6.855   2.355   9.299 -1.1603  2.1740 -0.1000
20471SOL     OW62853   6.741   3.920   9.234 -0.1793  0.1755 -0.5452
20471SOL    HW162854   6.748   3.844   9.177 -0.5552 -0.5123  0.2998
20471SOL    HW262855   6.648   3.943   9.233 -0.6638 -1.3497  1.6364
20472SOL     OW62856   5.777   2.523  11.637  0.0623  0.1904  0.5188
20472SOL    HW162857   5.796   2.443  11.589 -0.4772  0.7670 -0.6833
20472SOL    HW262858   5.753   2.587  11.570  1.8126  1.7702  1.2869
20473SOL     OW62859   5.978   2.560   9.468 -0.4925  0.2872  0.5863
20473SOL    HW162860   6.012   2.613   9.396 -1.0581  3.3792  2.3867
20473SOL    HW262861   6.055   2.514   9.502  0.0119 -0.2050 -1.1416
20474SOL     OW62862   6.856   2.796  11.587 -0.0626 -0.1117  0.2226
20474SOL    HW162863   6.807   2.877  11.572  1.5103  0.5070 -2.0695
20474SOL    HW262864   6.896   2.776  11.502  1.1744 -2.2366  1.2322
20475SOL     OW62865   4.937   1.901  10.963  0.3069  0.3525 -0.0484
20475SOL    HW162866   4.895   1.987  10.960  0.0957  0.2595  0.2711
20475SOL    HW262867   4.928   1.873  11.053  0.1395 -0.1290 -0.2139
20476SOL     OW62868   6.631   2.600  11.577 -0.0937  0.0975 -0.2070
20476SOL    HW162869   6.581   2.644  11.645  1.1989 -0.0882  0.9035
20476SOL    HW262870   6.716   2.644  11.577  0.2836 -0.5820 -0.9957
20477SOL     OW62871   6.727   2.018   9.834 -0.4042 -0.5747  0.0418
20477SOL    HW162872   6.672   1.956   9.786  0.7723 -1.9453  0.3943
20477SOL    HW262873   6.783   2.057   9.767  0.8519 -2.0723  0.1798
20478SOL     OW62874   6.609   3.158  11.768 -0.0831 -0.2789 -0.0412
20478SOL    HW162875   6.639   3.132  11.855 -0.2709 -1.7070 -0.3859
20478SOL    HW262876   6.625   3.253  11.765  2.7323 -0.6552  0.4442
20479SOL     OW62877   6.381   4.296  10.769  0.5263  0.1732  0.4705
20479SOL    HW162878   6.376   4.375  10.823  0.0343 -0.0740  0.8041
20479SOL    HW262879   6.401   4.327  10.681 -0.6897  0.7706  0.3832
20480SOL     OW62880   6.209   2.992  11.150 -0.0747  0.2452  0.5674
20480SOL    HW162881   6.218   3.079  11.110 -3.3787  0.8977  0.8860
20480SOL    HW262882   6.244   3.003  11.238  3.4284 -0.0461 -0.6484
20481SOL     OW62883   5.035   0.394  10.743 -0.6229  0.3302 -0.3294
20481SOL    HW162884   5.090   0.316  10.749 -0.8513  0.2138  0.2995
20481SOL    HW262885   5.085   0.455  10.688 -0.0207  0.1002 -0.0397
20482SOL     OW62886   7.218   2.283   9.789  0.1575 -0.3940 -0.0149
20482SOL    HW162887   7.249   2.226   9.858  0.7805  1.2778  1.1601
20482SOL    HW262888   7.265   2.255   9.711 -0.5098 -2.2710  0.2180
20483SOL     OW62889   5.331   4.111   9.168 -0.1765  0.2307  0.8470
20483SOL    HW162890   5.389   4.036   9.180  0.3702  0.7487  1.5750
20483SOL    HW262891   5.275   4.087   9.095  0.2063 -0.7495  0.8616
20484SOL     OW62892   6.840   1.642  10.036  0.2362 -0.3634 -0.1930
20484SOL    HW162893   6.876   1.588  10.106  1.1822  1.5884  0.9221
20484SOL    HW262894   6.909   1.646   9.970  0.5387  0.1824  0.1449
20485SOL     OW62895   7.730   3.022  11.380  0.1498  0.2547  0.0932
20485SOL    HW162896   7.772   3.058  11.302 -0.6577 -0.5164 -0.7092
20485SOL    HW262897   7.644   2.994  11.351  0.4152 -1.5153  0.8848
20486SOL     OW62898   6.536   4.454   9.817  0.1073  0.4721 -0.1777
20486SOL    HW162899   6.591   4.482   9.890 -1.2550 -0.0253  1.0924
20486SOL    HW262900   6.530   4.359   9.828  0.3130  0.3260 -1.2637
20487SOL     OW62901   5.032   2.133  10.124  0.1721 -0.0861  0.3307
20487SOL    HW162902   5.074   2.211  10.087  1.3419 -1.2321 -0.8361
20487SOL    HW262903   5.010   2.158  10.214 -0.4290  1.9141 -0.3234
20488SOL     OW62904   6.894   3.778  11.354 -0.1939  0.0432  0.0804
20488SOL    HW162905   6.987   3.779  11.377  0.2014 -1.1528 -1.2995
20488SOL    HW262906   6.878   3.864  11.314  0.2253  0.3894  0.6418
20489SOL     OW62907   7.195   0.073  10.202  0.3555  0.8152 -0.3426
20489SOL    HW162908   7.174   0.160  10.236  0.0977  1.2019 -1.4449
20489SOL    HW262909   7.126   0.054  10.139  0.8081  0.1303 -0.6459
20490SOL     OW62910   6.004   3.048  10.559  0.1880  0.1191 -0.0926
20490SOL    HW162911   6.033   3.099  10.635  1.2038 -0.6699  0.0704
20490SOL    HW262912   6.083   3.036  10.507 -0.6685  1.4781 -1.8116
20491SOL     OW62913   5.223   2.745  10.207 -0.6111 -0.7091 -0.3189
20491SOL    HW162914   5.147   2.720  10.260  0.3200 -1.4775  0.6896
20491SOL    HW262915   5.284   2.785  10.268 -0.2008 -0.0692 -1.1242
20492SOL     OW62916   0.456   3.599   8.639  0.6513  0.3839 -0.4308
20492SOL    HW162917   0.395   3.572   8.571  1.0604 -0.9922 -0.2802
20492SOL    HW262918   0.442   3.536   8.710 -1.0067  2.7910  1.5192
20493SOL     OW62919   5.874   2.360  10.366 -0.1896  0.2415  0.3851
20493SOL    HW162920   5.780   2.350  10.384  0.0824 -1.1773  1.2412
20493SOL    HW262921   5.894   2.285  10.309  0.3362  0.8017 -0.1677
20494SOL     OW62922   6.540   3.673   8.555  0.0764 -0.0656  0.4699
20494SOL    HW162923   6.449   3.642   8.555  0.0875 -0.2223 -1.5122
20494SOL    HW262924   6.592   3.593   8.548  0.2587  0.1272 -0.5566
20495SOL     OW62925   6.149   3.707  10.876  0.4967 -0.4027  0.5242
20495SOL    HW162926   6.089   3.656  10.930  0.0211 -0.4672 -0.0619
20495SOL    HW262927   6.099   3.785  10.851  0.8829 -0.1293  0.5896
20496SOL     OW62928   6.480   3.797  10.587  0.0679  0.3015  0.3682
20496SOL    HW162929   6.518   3.784  10.674  2.4507  1.0759 -0.4555
20496SOL    HW262930   6.450   3.887  10.587 -0.8621  0.0036  0.6796
20497SOL     OW62931   7.112   3.932   9.739  0.2479 -0.6206  0.1215
20497SOL    HW162932   7.046   3.869   9.769  0.0936 -1.0242 -1.0205
20497SOL    HW262933   7.189   3.912   9.792  0.4081 -2.2304 -0.6416
20498SOL     OW62934   5.508   3.563   9.500 -0.2357 -0.4304 -0.1507
20498SOL    HW162935   5.571   3.552   9.429 -1.2769 -1.5414 -0.9452
20498SOL    HW262936   5.425   3.532   9.463 -0.8405 -0.8746  1.5039
20499SOL     OW62937   7.920   3.198  10.182 -0.0912  0.1453  0.4227
20499SOL    HW162938   8.013   3.185  10.163  0.1567 -0.5514  1.9841
20499SOL    HW262939   7.886   3.109  10.195 -1.3400  0.2634 -1.5867
20500SOL     OW62940   7.453   2.698  10.743  0.1237 -0.8117  0.0455
20500SOL    HW162941   7.502   2.732  10.669  0.2041 -1.3893 -0.1757
20500SOL    HW262942   7.514   2.699  10.816 -0.2681  0.7724  0.3878
20501SOL     OW62943   5.365   3.568   0.516 -0.8566 -0.1281 -0.1127
20501SOL    HW162944   5.445   3.551   0.466 -1.8412 -1.4486 -1.3211
20501SOL    HW262945   5.303   3.601   0.451 -1.1393  1.5484  0.9376
20502SOL     OW62946   5.702   3.828  10.217 -0.3022 -0.4191 -0.0800
20502SOL    HW162947   5.698   3.923  10.207  0.7544 -0.5647 -2.6986
20502SOL    HW262948   5.620   3.797  10.179 -1.3102 -0.5485  2.0780
20503SOL     OW62949   7.931   3.326  10.553 -0.3735  0.2626 -0.0509
20503SOL    HW162950   7.841   3.309  10.525 -0.4597  0.3239  0.1853
20503SOL    HW262951   7.927   3.326  10.649  0.0014 -0.3878 -0.0320
20504SOL     OW62952   5.774   3.392  11.920 -0.0353 -0.6278  0.0672
20504SOL    HW162953   5.828   3.316  11.939  1.6288  0.5194  0.0855
20504SOL    HW262954   5.810   3.428  11.839 -1.0840 -0.0978 -0.1911
20505SOL     OW62955   6.322   4.477  11.393  0.0328 -0.0154  0.1227
20505SOL    HW162956   6.359   4.513  11.474  0.3826  0.1968 -0.1264
20505SOL    HW262957   6.237   4.442  11.419 -0.0187  0.3847  0.5084
20506SOL     OW62958   6.199   4.100  10.344  0.1762  0.3007 -0.4545
20506SOL    HW162959   6.109   4.074  10.360 -0.1787  0.8399 -1.4723
20506SOL    HW262960   6.241   4.097  10.430 -0.1255 -2.4549 -0.3061
20507SOL     OW62961   5.311   3.751  10.740  0.0785  0.0882  0.3063
20507SOL    HW162962   5.220   3.773  10.721  0.3610  1.4452  0.3875
20507SOL    HW262963   5.361   3.818  10.693  1.0233 -0.5667  0.3707
20508SOL     OW62964   4.428   3.348  10.295 -0.2544  0.3196 -0.0273
20508SOL    HW162965   4.443   3.259  10.263  0.1634  0.6196 -0.7003
20508SOL    HW262966   4.462   3.405  10.225 -1.5779  1.0194 -0.1474
20509SOL     OW62967   6.175   2.387  11.691 -0.8969 -0.0178  0.1208
20509SOL    HW162968   6.135   2.305  11.659 -0.5744  0.2731 -1.1071
20509SOL    HW262969   6.186   2.440  11.611 -1.3861  1.3562  0.9302
20510SOL     OW62970   7.020   0.728  11.169 -0.1654 -0.3039 -0.1892
20510SOL    HW162971   7.037   0.648  11.120 -2.4079 -1.1218  0.2449
20510SOL    HW262972   6.987   0.698  11.254 -0.7558  1.0608  0.1020
20511SOL     OW62973   5.109   2.624  10.614 -0.5927  0.0539 -0.3600
20511SOL    HW162974   5.042   2.685  10.645 -1.5459 -0.5608 -1.1517
20511SOL    HW262975   5.192   2.670  10.629 -1.2234  1.0995  0.0373
20512SOL     OW62976   5.447   1.589   9.515  0.2043 -0.5215 -0.2708
20512SOL    HW162977   5.366   1.573   9.465 -0.0152 -0.5338  0.0844
20512SOL    HW262978   5.425   1.662   9.573 -0.2553 -1.9386  1.4016
20513SOL     OW62979   5.955   1.866  11.405  0.3859 -0.5542 -0.0082
20513SOL    HW162980   6.016   1.853  11.333 -0.2159 -1.5712 -0.3573
20513SOL    HW262981   5.937   1.960  11.405 -0.4462 -0.6704 -1.8868
20514SOL     OW62982   7.222   3.611  11.009 -0.1419 -0.3450 -0.4715
20514SOL    HW162983   7.221   3.681  10.944  1.5445  2.3341  2.1310
20514SOL    HW262984   7.131   3.601  11.036 -0.4418  0.6753 -1.0907
20515SOL     OW62985   7.467   3.560  10.884 -0.0719 -0.0576  0.3906
20515SOL    HW162986   7.479   3.479  10.834  0.1484  0.5896 -0.6498
20515SOL    HW262987   7.409   3.535  10.956  0.6748 -1.3232  0.5839
20516SOL     OW62988   5.509   3.479   9.780  0.0350 -0.6077 -0.1398
20516SOL    HW162989   5.508   3.387   9.752 -2.7723 -0.1303 -1.9629
20516SOL    HW262990   5.491   3.529   9.701  0.8863  1.5321  0.9324
20517SOL     OW62991   5.744   4.508   9.953 -0.1009 -0.3964  0.2467
20517SOL    HW162992   5.771   4.439   9.893 -0.6973 -0.6363  0.2457
20517SOL    HW262993   5.661   4.539   9.918  0.4892  0.7978 -0.1327
20518SOL     OW62994   6.418   2.352  11.039  0.4985  0.1686  0.5615
20518SOL    HW162995   6.368   2.297  10.979  2.1841  1.1839 -1.9613
20518SOL    HW262996   6.372   2.436  11.038  0.7366  0.2965  0.3997
20519SOL     OW62997   1.499   3.517  10.340  0.6325 -0.1222 -0.5946
20519SOL    HW162998   1.589   3.489  10.322  0.4123 -0.9946 -0.3589
20519SOL    HW262999   1.445   3.464  10.282  0.2775  0.6305 -0.9732
20520SOL     OW63000   6.283   1.569   9.661  0.1660 -0.0276  0.5676
20520SOL    HW163001   6.314   1.648   9.706 -1.2691 -0.5526  2.6572
20520SOL    HW263002   6.363   1.523   9.635  1.0269  1.6814  0.0845
20521SOL     OW63003   6.346   3.254  10.173  0.0956  0.1769  0.6173
20521SOL    HW163004   6.433   3.226  10.199  0.5405  1.2921  0.3850
20521SOL    HW263005   6.319   3.316  10.241 -1.1560 -1.2478  1.5005
20522SOL     OW63006   7.180   2.986  12.219 -0.2511 -0.2548 -0.1395
20522SOL    HW163007   7.124   2.988  12.141  0.2934 -0.1709 -0.5420
20522SOL    HW263008   7.169   3.072  12.259  0.4725  0.1957 -0.8699
20523SOL     OW63009   7.562   1.775  10.093  0.5332 -0.0568  0.1125
20523SOL    HW163010   7.550   1.830  10.170  0.6238  1.4667 -0.9152
20523SOL    HW263011   7.568   1.837  10.020  2.6509 -1.3212 -0.8711
20524SOL     OW63012   6.518   3.124   9.916 -0.5216  0.3373  0.0905
20524SOL    HW163013   6.611   3.132   9.937 -0.2915  0.1708 -0.8222
20524SOL    HW263014   6.491   3.212   9.890 -0.0776 -0.0205 -1.7100
20525SOL     OW63015   4.658   2.133  11.198  0.1096  0.1116 -0.0425
20525SOL    HW163016   4.651   2.192  11.123  1.3902 -0.0311 -0.2921
20525SOL    HW263017   4.745   2.149  11.233  0.6027 -1.8232 -0.2931
20526SOL     OW63018   6.229   2.451  11.420  0.2773  0.2817 -0.5551
20526SOL    HW163019   6.306   2.447  11.363 -0.4760  0.3780 -1.6110
20526SOL    HW263020   6.174   2.519  11.380 -0.4469  0.0634  0.0622
20527SOL     OW63021   5.408   4.377  10.040 -0.7027  0.4810  0.2742
20527SOL    HW163022   5.440   4.359   9.951 -0.2248  1.4529  0.2316
20527SOL    HW263023   5.320   4.412  10.026 -0.2312  1.6304  0.0949
20528SOL     OW63024   6.093   3.986   9.749 -0.7504  0.3254  0.2040
20528SOL    HW163025   6.046   4.001   9.667 -1.6959  0.3523  0.7469
20528SOL    HW263026   6.178   4.030   9.736 -1.2207  1.0673 -0.4367
20529SOL     OW63027   6.166   3.213   9.623  0.1736 -0.0772  0.1002
20529SOL    HW163028   6.203   3.232   9.710 -0.4901  2.3010 -0.0937
20529SOL    HW263029   6.098   3.148   9.641 -0.6230  1.0863  1.5316
20530SOL     OW63030   7.710   2.201   9.227 -0.4831  0.0874  0.7467
20530SOL    HW163031   7.698   2.211   9.322 -2.1751 -1.4954  0.7637
20530SOL    HW263032   7.713   2.106   9.214 -1.3748  0.2536 -0.8899
20531SOL     OW63033   7.737   3.376  10.346  0.2433  0.1069 -0.3871
20531SOL    HW163034   7.737   3.471  10.329 -0.3262  0.0761 -0.5714
20531SOL    HW263035   7.806   3.342  10.288  0.4970  0.4149 -0.2727
20532SOL     OW63036   7.399   3.207   8.541  0.3754  0.1518 -0.0445
20532SOL    HW163037   7.325   3.161   8.501  0.6369 -0.1515 -0.1867
20532SOL    HW263038   7.413   3.283   8.484 -2.2304  2.3708  2.0424
20533SOL     OW63039   6.488   4.134  11.724  0.3326 -0.2424  0.0488
20533SOL    HW163040   6.429   4.208  11.735 -0.4633 -1.1359  2.3362
20533SOL    HW263041   6.572   4.173  11.700  0.0380  1.4648  1.6336
20534SOL     OW63042   6.660   2.083   0.102 -0.0601 -0.1725 -0.0807
20534SOL    HW163043   6.595   2.013   0.100  1.8732 -2.2312  2.5704
20534SOL    HW263044   6.716   2.066   0.026 -1.1514  0.2052 -1.0059
20535SOL     OW63045   7.631   3.128   8.903 -0.8065  0.5431  0.1202
20535SOL    HW163046   7.677   3.176   8.834  0.9874  0.0885  0.9207
20535SOL    HW263047   7.614   3.042   8.865 -1.9375  1.0332 -0.5229
20536SOL     OW63048   4.848   3.062  10.518 -0.6902 -0.0825  0.2400
20536SOL    HW163049   4.880   3.122  10.585  1.3426 -0.1186 -0.6256
20536SOL    HW263050   4.873   3.104  10.435  1.5425 -2.4219 -0.3879
20537SOL     OW63051   5.094   4.194   9.289  0.3462 -0.0558 -0.1592
20537SOL    HW163052   5.054   4.117   9.249 -1.5376  1.2770 -1.0112
20537SOL    HW263053   5.184   4.194   9.256 -0.6886  0.1636 -3.3916
20538SOL     OW63054   6.916   4.270  10.653 -0.2623 -0.2807 -0.2044
20538SOL    HW163055   6.834   4.311  10.681  0.0166  0.8104 -0.9442
20538SOL    HW263056   6.979   4.342  10.651  0.8024 -1.1521  0.6261
20539SOL     OW63057   6.557   1.942   9.367  1.1526  0.5284 -0.6177
20539SOL    HW163058   6.590   1.891   9.293  1.9384  1.2542 -0.7801
20539SOL    HW263059   6.474   1.979   9.337  0.7218 -0.4032 -0.5992
20540SOL     OW63060   5.581   3.502  11.532  0.4670 -0.5373 -0.5628
20540SOL    HW163061   5.563   3.520  11.439  0.4051 -0.0638 -0.4612
20540SOL    HW263062   5.552   3.411  11.544 -0.4038 -0.2974 -0.7843
20541SOL     OW63063   7.149   2.205  11.374 -0.2546 -0.2212 -0.0489
20541SOL    HW163064   7.071   2.244  11.336  0.7652  1.8547 -0.1685
20541SOL    HW263065   7.136   2.110  11.366 -2.8908  0.0486  0.2802
20542SOL     OW63066   3.919   2.553  10.234  0.1355 -0.0155 -0.7643
20542SOL    HW163067   3.864   2.499  10.177 -2.5549  0.3433  1.2708
20542SOL    HW263068   3.904   2.518  10.322  2.4937  0.7482  0.0228
20543SOL     OW63069   6.963   3.466   8.048  0.6832  0.5230  0.4245
20543SOL    HW163070   6.980   3.555   8.017  1.9689  0.3049  0.4820
20543SOL    HW263071   7.044   3.418   8.033  0.3306 -0.3960  1.2954
20544SOL     OW63072   4.712   3.455   9.724 -0.0272 -0.0592  0.0851
20544SOL    HW163073   4.667   3.534   9.694 -0.1853 -0.1335  0.1269
20544SOL    HW263074   4.727   3.469   9.817  3.0413  1.4493 -0.5113
20545SOL     OW63075   5.407   2.443  11.506 -0.1704 -0.0813 -0.2968
20545SOL    HW163076   5.324   2.399  11.522 -1.1158  1.3166 -1.1802
20545SOL    HW263077   5.418   2.500  11.581 -0.6147  0.6039 -0.7446
20546SOL     OW63078   4.906   1.159  10.358  0.0174 -0.0057 -0.0090
20546SOL    HW163079   4.908   1.215  10.281 -1.7644 -2.7338 -2.2150
20546SOL    HW263080   4.994   1.123  10.364  0.5722  1.3347  0.1605
20547SOL     OW63081   6.137   2.685  11.317  0.1187  0.1209 -0.0443
20547SOL    HW163082   6.189   2.751  11.362  1.5067 -1.4532  0.7713
20547SOL    HW263083   6.053   2.728  11.298  0.5213  1.6946  1.5509
20548SOL     OW63084   7.587   2.560   9.501 -0.1173  0.3897 -0.2074
20548SOL    HW163085   7.521   2.524   9.441 -0.2782 -0.0671  0.2410
20548SOL    HW263086   7.660   2.585   9.444 -1.0268  1.7669 -0.8288
20549SOL     OW63087   4.312   1.596  10.647 -0.9371  0.5454 -0.2937
20549SOL    HW163088   4.253   1.526  10.619 -0.3301  0.0308 -0.3016
20549SOL    HW263089   4.388   1.588  10.590 -0.4933  0.6648  0.2764
20550SOL     OW63090   1.395   3.494   9.686 -0.0349 -0.4029 -0.5899
20550SOL    HW163091   1.316   3.544   9.706 -0.0277 -0.0523 -1.4043
20550SOL    HW263092   1.451   3.506   9.763 -1.0770 -1.3109  0.3583
20551SOL     OW63093   5.061   3.911   0.052  0.0082 -0.7278  0.0981
20551SOL    HW163094   5.090   3.917   0.143  0.8976  1.5456 -0.2654
20551SOL    HW263095   5.120   3.847   0.012 -0.8114 -2.2407  1.2290
20552SOL     OW63096   6.544   3.022   9.310  0.1229 -0.5311 -0.1138
20552SOL    HW163097   6.607   3.076   9.357 -0.0119  0.3574 -0.9306
20552SOL    HW263098   6.459   3.048   9.344  0.1285 -1.1532  0.4038
20553SOL     OW63099   5.875   3.152   0.431 -0.4627  0.3554 -0.4700
20553SOL    HW163100   5.956   3.103   0.419 -0.8424 -1.2724  2.6742
20553SOL    HW263101   5.849   3.178   0.342  1.7487 -1.8976 -1.8964
20554SOL     OW63102   6.290   2.565   9.228  0.1812 -0.4321 -0.1119
20554SOL    HW163103   6.204   2.606   9.235  0.3185 -0.1624  0.0056
20554SOL    HW263104   6.352   2.634   9.254  0.3607 -0.9704  0.9313
20555SOL     OW63105   5.276   5.662  10.795 -0.1450 -0.3223  0.1264
20555SOL    HW163106   5.280   5.569  10.775  1.5374 -0.4418  0.9218
20555SOL    HW263107   5.366   5.692  10.789 -0.7117  1.3788 -0.5771
20556SOL     OW63108   6.576   4.215  10.283  0.2664 -0.8741 -0.3048
20556SOL    HW163109   6.669   4.217  10.259  0.6280  1.5735  0.9646
20556SOL    HW263110   6.532   4.265  10.214 -0.2919 -2.6875 -1.3282
20557SOL     OW63111   6.135   4.104   9.294  0.4331 -0.0985  0.3358
20557SOL    HW163112   6.141   4.011   9.315 -1.0388 -0.1179  0.7231
20557SOL    HW263113   6.140   4.107   9.198  1.3329 -0.4849  0.3551
20558SOL     OW63114   7.721   4.009   8.438  0.3555 -0.4072  0.3720
20558SOL    HW163115   7.724   4.104   8.425  0.0828 -0.5159 -0.6082
20558SOL    HW263116   7.673   3.976   8.362 -0.9865 -1.1983  1.5211
20559SOL     OW63117   7.964   3.585   9.641  0.1571  0.6071 -0.0791
20559SOL    HW163118   7.899   3.634   9.590  0.6165  1.3247  0.0188
20559SOL    HW263119   7.914   3.512   9.678 -0.6376  1.2291  0.1173
20560SOL     OW63120   6.077   2.444  10.561  0.0654 -0.2001  0.4315
20560SOL    HW163121   6.028   2.432  10.480 -0.0883 -0.8414  0.6148
20560SOL    HW263122   6.098   2.355  10.590  1.7429  0.0610  0.1183
20561SOL     OW63123   4.629   2.685  11.356  0.7058 -0.0727 -0.0114
20561SOL    HW163124   4.554   2.726  11.312  0.5884 -0.6610 -0.3806
20561SOL    HW263125   4.706   2.728  11.318  0.5678  0.2592  0.0814
20562SOL     OW63126   6.816   3.109  11.295  0.4167 -0.4234 -0.0702
20562SOL    HW163127   6.886   3.174  11.300 -2.0347  2.3952  0.5229
20562SOL    HW263128   6.820   3.063  11.379  0.1197  1.4278  1.0258
20563SOL     OW63129   7.616   5.052   8.350  0.2573  0.5298 -0.7481
20563SOL    HW163130   7.686   5.117   8.345  0.3247  0.9283  2.8630
20563SOL    HW263131   7.643   4.983   8.288  1.5791  2.5791 -2.6184
20564SOL     OW63132   5.467   3.769  10.010 -0.2113 -0.5051 -0.2966
20564SOL    HW163133   5.506   3.682  10.009  0.1756 -0.3310 -0.5135
20564SOL    HW263134   5.405   3.769   9.937 -0.4255 -0.6959 -0.1137
20565SOL     OW63135   6.800   4.284  11.403  0.3957 -0.6442  0.5597
20565SOL    HW163136   6.781   4.222  11.332  1.2869  0.2997 -0.5384
20565SOL    HW263137   6.880   4.329  11.374 -1.3834  2.5711  0.2652
20566SOL     OW63138   5.783   3.269  10.378 -0.0301  0.5502 -0.2300
20566SOL    HW163139   5.725   3.298  10.307 -1.1443  2.2229  1.2506
20566SOL    HW263140   5.871   3.272  10.341 -0.6520  0.6259 -1.7600
20567SOL     OW63141   7.784   2.466   9.182 -0.4306 -0.0261 -0.6770
20567SOL    HW163142   7.717   2.516   9.135  0.4966 -0.5864 -2.6856
20567SOL    HW263143   7.748   2.378   9.189 -0.0959 -0.2236 -1.3804
20568SOL     OW63144   6.722   3.188   8.701  1.0962 -0.0589 -0.0211
20568SOL    HW163145   6.732   3.232   8.786  1.0430 -0.1123  0.0128
20568SOL    HW263146   6.682   3.104   8.722  1.5432 -0.2791 -0.0477
20569SOL     OW63147   0.152   1.215  10.945 -0.3262 -0.0446  0.3802
20569SOL    HW163148   0.139   1.310  10.953 -1.4070 -0.0850 -0.5584
20569SOL    HW263149   0.163   1.201  10.851  0.4047 -0.7869  0.5755
20570SOL     OW63150   5.576   2.013   6.831  0.1429  0.1004  0.0633
20570SOL    HW163151   5.618   2.095   6.856  1.0461 -0.6395  1.0532
20570SOL    HW263152   5.638   1.972   6.771 -0.0408 -0.1290  0.0294
20571SOL     OW63153   7.390   2.615  10.297  0.4703  0.6611 -0.2472
20571SOL    HW163154   7.352   2.693  10.337 -0.0835 -0.2909  1.1766
20571SOL    HW263155   7.317   2.574  10.250  0.4227  0.3254  0.1110
20572SOL     OW63156   6.433   4.180  11.463 -0.2512 -0.5024  0.3168
20572SOL    HW163157   6.455   4.152  11.552  0.1732  0.5061  0.5408
20572SOL    HW263158   6.503   4.240  11.439 -1.5494  1.0216  0.1753
20573SOL     OW63159   5.446   4.548  10.274  0.1816  0.3219  0.9137
20573SOL    HW163160   5.452   4.497  10.194 -1.6815  1.8330 -0.2954
20573SOL    HW263161   5.385   4.498  10.329  0.5256 -0.1240  0.8948
20574SOL     OW63162   7.515   4.243   7.877 -0.3206  0.1021  0.1688
20574SOL    HW163163   7.521   4.339   7.870  0.6566  0.0309 -0.0684
20574SOL    HW263164   7.441   4.220   7.820 -0.7017  0.7310  0.3924
20575SOL     OW63165   6.450   3.410   9.791  0.1495 -0.1940 -1.0898
20575SOL    HW163166   6.430   3.469   9.864 -0.0282 -1.5536  0.0001
20575SOL    HW263167   6.365   3.375   9.765  0.3033 -0.2951 -1.4561
20576SOL     OW63168   7.508   4.559   9.543 -0.4196  0.2420 -0.4091
20576SOL    HW163169   7.440   4.497   9.517 -0.3827  0.4284 -0.9803
20576SOL    HW263170   7.525   4.610   9.463  0.0623  0.5017 -0.1455
20577SOL     OW63171   6.945   3.431   9.380  0.4232 -0.0423  0.2665
20577SOL    HW163172   7.016   3.414   9.442 -0.0694  0.4940  1.0017
20577SOL    HW263173   6.872   3.459   9.435  0.0987  0.8696 -0.6018
20578SOL     OW63174   5.075   4.140  10.640 -0.6671 -0.2977  0.1162
20578SOL    HW163175   5.123   4.058  10.647 -0.7740 -0.2796  1.2475
20578SOL    HW263176   4.984   4.114  10.630 -0.6187 -0.3170 -0.2920
20579SOL     OW63177   6.235   3.446  10.338  0.0508 -0.2206  0.0583
20579SOL    HW163178   6.264   3.537  10.343  0.9568 -0.4403 -1.0607
20579SOL    HW263179   6.159   3.443  10.397 -0.7037  1.5273 -0.7301
20580SOL     OW63180   7.123   2.847  11.105  0.6628 -0.3308  0.9488
20580SOL    HW163181   7.093   2.908  11.038  1.9225  0.9195  1.4509
20580SOL    HW263182   7.218   2.841  11.090  0.3956 -3.4788 -0.0983
20581SOL     OW63183   3.944   3.544  10.500  0.0834  0.0384 -0.3927
20581SOL    HW163184   4.020   3.490  10.479 -1.2662 -1.8741 -0.6787
20581SOL    HW263185   3.885   3.531  10.426 -2.6244 -2.6784  1.9657
20582SOL     OW63186   4.521   3.265   0.296  0.0872  0.4621 -0.0435
20582SOL    HW163187   4.434   3.253   0.333 -0.2687 -1.9396 -1.4645
20582SOL    HW263188   4.580   3.220   0.357 -0.0517 -0.3952 -0.5283
20583SOL     OW63189   6.601   0.727  10.694  0.2787 -0.4844 -0.1457
20583SOL    HW163190   6.520   0.756  10.734 -0.0868 -0.8373 -0.6193
20583SOL    HW263191   6.618   0.641  10.734  1.1188  0.1534  0.9198
20584SOL     OW63192   5.729   2.187   8.461 -0.2963  0.1917  0.1039
20584SOL    HW163193   5.733   2.158   8.370  1.1868  2.2027 -0.5518
20584SOL    HW263194   5.812   2.233   8.475  0.3185 -1.5347  3.0371
20585SOL     OW63195   7.592   4.253  10.965  0.0881  0.1137  0.2304
20585SOL    HW163196   7.564   4.182  10.907  0.6750  2.5632 -3.3695
20585SOL    HW263197   7.687   4.244  10.970 -0.1192 -1.4909  2.9999
20586SOL     OW63198   4.300   3.201  10.751  0.0831  0.0983 -0.0139
20586SOL    HW163199   4.272   3.286  10.784  1.6157  0.9148 -0.7350
20586SOL    HW263200   4.391   3.214  10.723  0.3796 -1.7882 -0.0855
20587SOL     OW63201   7.219   3.155   9.741  0.3318 -0.1722  0.0191
20587SOL    HW163202   7.232   3.073   9.694  2.4191 -0.6080  1.2458
20587SOL    HW263203   7.281   3.151   9.813 -1.3908  1.3179  1.6931
20588SOL     OW63204   4.790   3.224  10.172  0.1707 -0.1715 -0.1117
20588SOL    HW163205   4.754   3.138  10.193 -0.8818  0.5695  1.3714
20588SOL    HW263206   4.834   3.251  10.253 -0.3937  1.0845 -0.2031
20589SOL     OW63207   6.670   3.678   9.137 -0.1238  0.0959 -0.2682
20589SOL    HW163208   6.613   3.647   9.067 -0.2272  1.2566 -0.7254
20589SOL    HW263209   6.718   3.600   9.165 -1.9324 -0.9199  0.1519
20590SOL     OW63210   7.793   3.011   9.879 -0.1074  0.0160 -0.2659
20590SOL    HW163211   7.744   3.088   9.907  0.8977  1.3152 -1.8936
20590SOL    HW263212   7.877   3.046   9.848 -0.1775 -1.5436 -2.4362
20591SOL     OW63213   6.419   2.795  11.089  0.3273  0.3084  0.1986
20591SOL    HW163214   6.336   2.811  11.134 -0.6156  0.1298 -1.3920
20591SOL    HW263215   6.416   2.853  11.013  1.2545 -0.3534 -0.3637
20592SOL     OW63216   6.300   3.471  10.874  0.1971 -0.0169 -0.0359
20592SOL    HW163217   6.320   3.463  10.781 -0.4805  1.1418 -0.3033
20592SOL    HW263218   6.259   3.558  10.882 -1.2102 -0.7417  1.0820
20593SOL     OW63219   7.163   4.567  10.267 -0.0199 -0.0749  0.3907
20593SOL    HW163220   7.216   4.569  10.347  1.8288 -2.2766 -0.6496
20593SOL    HW263221   7.217   4.611  10.202 -1.3257  1.3201  0.2134
20594SOL     OW63222   6.095   2.743   9.282 -0.1978  0.4965 -0.5312
20594SOL    HW163223   6.051   2.817   9.325 -1.1206  1.5262 -3.0190
20594SOL    HW263224   6.056   2.741   9.194  1.7164 -1.3103 -1.4073
20595SOL     OW63225   7.242   4.186  10.027  0.3257  0.0606  0.4879
20595SOL    HW163226   7.255   4.267  10.075  0.3924 -1.5760  3.5038
20595SOL    HW263227   7.155   4.156  10.055  0.5421 -1.1742 -0.1027
20596SOL     OW63228   7.736   4.663  10.842 -0.1873 -0.1913 -0.2019
20596SOL    HW163229   7.786   4.709  10.909 -0.9340  0.4418 -0.0679
20596SOL    HW263230   7.654   4.638  10.886 -0.9924  0.8428 -1.0376
20597SOL     OW63231   7.391   3.613   9.216  0.5280  0.2866 -0.1461
20597SOL    HW163232   7.405   3.690   9.271  0.7272 -1.1477  1.9304
20597SOL    HW263233   7.295   3.605   9.210  0.4497 -0.7006  1.7987
20598SOL     OW63234   6.809   3.301   8.955  0.3716  0.0172  0.1291
20598SOL    HW163235   6.876   3.243   8.991  0.6356  0.8972  1.1105
20598SOL    HW263236   6.797   3.368   9.023 -1.8630 -0.3955  0.2027
20599SOL     OW63237   4.682   3.435  10.009 -0.2111 -0.2258  0.7854
20599SOL    HW163238   4.701   3.359  10.063 -0.1221  0.3124  1.5229
20599SOL    HW263239   4.587   3.446  10.013 -0.3039 -0.6960  0.1188
20600SOL     OW63240   5.811   4.321   9.784 -0.2205  0.1418 -0.2485
20600SOL    HW163241   5.743   4.254   9.784 -0.2817  0.1983  0.4137
20600SOL    HW263242   5.887   4.277   9.746 -0.5720  0.0298 -0.8313
20601SOL     OW63243   6.407   3.550   9.999 -0.0389 -0.5041 -0.4176
20601SOL    HW163244   6.426   3.643  10.002 -2.5991  0.0637  0.7457
20601SOL    HW263245   6.440   3.515  10.082 -1.2517 -0.1036  0.2609
20602SOL     OW63246   1.198   2.679   9.952  0.1917 -0.6344  0.1248
20602SOL    HW163247   1.185   2.670  10.047  0.4505 -0.0086  0.2248
20602SOL    HW263248   1.200   2.774   9.937 -0.8584 -0.7181 -0.6525
20603SOL     OW63249   5.447   1.433  11.789 -0.2768  0.3860  0.4783
20603SOL    HW163250   5.390   1.446  11.713 -2.1182 -0.0382  1.7013
20603SOL    HW263251   5.401   1.367  11.841  1.3006  0.1392  1.6179
20604SOL     OW63252   5.570   3.436  10.187  0.0198 -0.7455 -0.4844
20604SOL    HW163253   5.643   3.445  10.125  0.0488  0.1171 -0.3358
20604SOL    HW263254   5.492   3.449  10.134  0.0387 -0.1533 -0.3673
20605SOL     OW63255   5.905   2.778  10.685  0.1263 -0.1830 -0.0516
20605SOL    HW163256   5.885   2.731  10.604 -0.2468 -2.2308  1.1459
20605SOL    HW263257   5.999   2.766  10.697  0.2591  0.5060 -0.4131
20606SOL     OW63258   7.819   2.989  11.112  0.5795 -0.0018  0.0620
20606SOL    HW163259   7.906   2.969  11.078  0.4532  0.9284 -0.8437
20606SOL    HW263260   7.763   2.919  11.078  0.3667  1.1494 -2.0906
20607SOL     OW63261   7.191   1.661   7.702  0.3796  0.1123 -0.0527
20607SOL    HW163262   7.115   1.688   7.753  0.5964  1.7960 -0.5307
20607SOL    HW263263   7.259   1.724   7.727  1.3973 -0.9324 -0.1561
20608SOL     OW63264   6.888   5.262   9.640 -0.1339  0.1931 -0.0680
20608SOL    HW163265   6.905   5.295   9.552 -1.5278 -1.6136 -1.0728
20608SOL    HW263266   6.955   5.196   9.655  0.8746  1.3467  0.7932
20609SOL     OW63267   5.992   2.193  10.181  0.3947  0.1870  0.0824
20609SOL    HW163268   6.018   2.211  10.090  0.5759 -1.4196 -0.2159
20609SOL    HW263269   5.997   2.098  10.189 -1.4420  0.1401  1.2408
20610SOL     OW63270   6.693   4.056  10.519  0.5464  0.1613 -0.3326
20610SOL    HW163271   6.674   4.012  10.436 -0.5973  0.7974 -0.4212
20610SOL    HW263272   6.647   4.139  10.513 -0.6726 -0.3253  1.4695
20611SOL     OW63273   7.831   1.900  10.312 -0.2255 -0.0348 -0.4053
20611SOL    HW163274   7.863   1.932  10.227 -0.5407 -2.3765 -1.5014
20611SOL    HW263275   7.736   1.911  10.307 -0.3860 -1.4863 -0.9998
20612SOL     OW63276   6.709   3.044  10.444  0.0729  0.2188 -0.3395
20612SOL    HW163277   6.635   2.984  10.440  0.8743 -0.7418 -1.5425
20612SOL    HW263278   6.771   3.001  10.503  0.3092  0.2661 -0.5538
20613SOL     OW63279   7.496   4.517  10.932 -0.1087  0.2143 -0.0279
20613SOL    HW163280   7.434   4.518  10.859  0.4574  0.6276 -0.5226
20613SOL    HW263281   7.520   4.425  10.942 -1.7208 -0.1257  0.9949
20614SOL     OW63282   6.460   2.774   9.280  0.0064 -0.3664 -0.4602
20614SOL    HW163283   6.473   2.868   9.292  3.1163 -0.7552  0.1744
20614SOL    HW263284   6.475   2.759   9.187  0.1585 -0.2862 -0.4497
20615SOL     OW63285   1.000   0.917  10.144 -0.4960 -0.0262  0.1133
20615SOL    HW163286   1.032   0.934  10.056 -1.2382 -1.1193 -0.3774
20615SOL    HW263287   0.924   0.861  10.132 -0.5669 -0.2492  1.4545
20616SOL     OW63288   6.356   2.354  10.106  0.0996 -0.0254 -0.0158
20616SOL    HW163289   6.384   2.393  10.023 -0.4196  2.1518  0.7721
20616SOL    HW263290   6.280   2.406  10.132 -0.3361 -1.2885  1.3836
20617SOL     OW63291   5.750   3.867   9.854 -0.0069 -0.2657 -0.1999
20617SOL    HW163292   5.697   3.799   9.896 -1.5841  0.4284 -0.9551
20617SOL    HW263293   5.745   3.847   9.761 -0.3896  0.7943 -0.4231
20618SOL     OW63294   4.519   2.074  10.641  0.2038 -0.0034  0.0648
20618SOL    HW163295   4.466   2.151  10.619  0.5006  0.3192  0.4553
20618SOL    HW263296   4.483   2.044  10.724  1.3263  0.8938  0.9258
20619SOL     OW63297   7.373   3.090   9.004 -0.1990  0.0192 -0.6923
20619SOL    HW163298   7.330   3.165   9.045  0.8862  0.0933  0.3807
20619SOL    HW263299   7.464   3.117   8.992 -0.0043 -0.7941 -1.1548
20620SOL     OW63300   5.126   2.274   0.270  0.4921 -0.2266 -0.6116
20620SOL    HW163301   5.065   2.203   0.292 -0.9694  1.6330  1.8881
20620SOL    HW263302   5.168   2.245   0.189 -1.7319 -2.8503 -0.9784
20621SOL     OW63303   5.708   1.749  12.117 -0.2312 -0.1310 -0.0481
20621SOL    HW163304   5.800   1.758  12.143 -0.5865  1.4534  0.7853
20621SOL    HW263305   5.691   1.655  12.121  0.9034 -0.3107  1.4520
20622SOL     OW63306   5.214   2.224  12.126  0.4249 -0.0283 -0.2624
20622SOL    HW163307   5.170   2.156  12.177 -0.2412  1.0327  0.6425
20622SOL    HW263308   5.147   2.292  12.114  1.3882  0.9764 -0.1544
20623SOL     OW63309   5.294   4.112  12.237 -0.6263  0.1030  0.2647
20623SOL    HW163310   5.319   4.084  12.324 -3.5036  0.6418  1.4036
20623SOL    HW263311   5.278   4.206  12.246 -2.6832 -0.1296 -0.2840
20624SOL     OW63312   0.089   4.986  11.108 -0.2468  0.4080 -0.1712
20624SOL    HW163313   0.074   4.899  11.144 -0.9764  0.9837  0.9452
20624SOL    HW263314   0.178   4.981  11.071 -0.2677 -0.7873 -0.0980
20625SOL     OW63315   4.522   3.766  10.403 -0.2764 -0.0198 -0.3490
20625SOL    HW163316   4.432   3.734  10.393  0.1808 -1.5897  0.2979
20625SOL    HW263317   4.532   3.831  10.333 -1.9358  0.2769 -0.3603
20626SOL     OW63318   7.641   2.907   0.728  0.0749  0.0613  0.5021
20626SOL    HW163319   7.584   2.982   0.713 -1.1008 -0.6730  1.1119
20626SOL    HW263320   7.729   2.944   0.732 -0.2880  1.1708 -0.9473
20627SOL     OW63321   7.559   3.460   9.628  0.1361  0.2134  0.2371
20627SOL    HW163322   7.621   3.532   9.617  0.4555  0.3137  2.2039
20627SOL    HW263323   7.473   3.503   9.634  0.3128  0.4547  1.2895
20628SOL     OW63324   7.426   2.365  11.166  0.8417 -1.1390  0.0309
20628SOL    HW163325   7.521   2.372  11.164  0.8072 -0.7934 -0.9588
20628SOL    HW263326   7.395   2.453  11.188  0.7009 -0.5714 -2.2069
20629SOL     OW63327   5.870   3.600  11.329 -0.0027 -0.2541 -0.1610
20629SOL    HW163328   5.822   3.591  11.411  0.3188 -1.0383 -0.0515
20629SOL    HW263329   5.811   3.648  11.271 -1.0558 -1.4595 -0.1338
20630SOL     OW63330   5.936   4.150  11.366  0.3257 -0.7275  0.0334
20630SOL    HW163331   5.928   4.106  11.281  0.5589  1.3538 -1.1363
20630SOL    HW263332   5.875   4.103  11.423 -1.1006 -1.1541 -1.7326
20631SOL     OW63333   7.313   1.685  12.058  0.3262  0.0652 -0.4435
20631SOL    HW163334   7.324   1.639  12.141 -2.6463 -0.7755 -0.4269
20631SOL    HW263335   7.369   1.763  12.067  0.1997 -0.0625  2.2801
20632SOL     OW63336   5.972   3.870   0.321  0.1548 -0.2275  0.2115
20632SOL    HW163337   6.047   3.884   0.378 -0.5234 -0.6944  1.2631
20632SOL    HW263338   5.973   3.776   0.302 -1.6658 -0.8151  2.5201
20633SOL     OW63339   6.768   3.585  11.239 -0.5656  0.6101  0.9721
20633SOL    HW163340   6.682   3.625  11.251 -0.3049  1.5541 -0.0833
20633SOL    HW263341   6.829   3.642  11.287 -0.5233 -0.1217  1.8194
20634SOL     OW63342   6.158   4.847   9.425  0.5361  0.1152  0.3926
20634SOL    HW163343   6.204   4.782   9.478  2.2845  2.3330  1.7785
20634SOL    HW263344   6.225   4.910   9.401 -0.9294  1.0256 -1.6025
20635SOL     OW63345   6.612   1.094   0.116  0.1979 -0.1473  0.3349
20635SOL    HW163346   6.682   1.128   0.172  1.8499 -1.7740 -0.6620
20635SOL    HW263347   6.656   1.038   0.053 -1.8346  0.1092 -1.4204
20636SOL     OW63348   5.501   4.650   0.596  0.0375  0.0996  0.5282
20636SOL    HW163349   5.501   4.636   0.501  0.8456  0.9477  0.3911
20636SOL    HW263350   5.553   4.577   0.631 -0.5522 -0.4094  0.3618
20637SOL     OW63351   4.815   3.765  10.273 -0.2278  0.6662 -0.1334
20637SOL    HW163352   4.800   3.682  10.318  0.2602  0.5819 -0.1268
20637SOL    HW263353   4.792   3.748  10.182 -0.2819  0.5730 -0.1024
20638SOL     OW63354   5.707   3.424   0.895  0.0328 -0.0724 -0.0916
20638SOL    HW163355   5.759   3.351   0.862 -0.6405  0.2923 -2.1271
20638SOL    HW263356   5.651   3.385   0.963  2.3419 -0.6081  1.6419
20639SOL     OW63357   6.948   3.290  10.595 -0.6610  0.3305 -0.1900
20639SOL    HW163358   6.909   3.378  10.594  0.6505  0.9296 -0.7126
20639SOL    HW263359   6.967   3.271  10.503  1.1671  0.4987  0.1106
20640SOL     OW63360   4.997   3.255   0.980  0.1447  0.2792  0.0784
20640SOL    HW163361   5.020   3.299   0.898  1.9653 -0.0229  0.3711
20640SOL    HW263362   5.025   3.164   0.967  0.3607  0.2091  0.9882
20641SOL     OW63363   6.215   4.766  11.148  0.1873 -0.3478 -0.2905
20641SOL    HW163364   6.173   4.682  11.134 -0.0653 -0.2301 -0.2423
20641SOL    HW263365   6.146   4.822  11.185  0.5468 -0.3409  0.4001
20642SOL     OW63366   6.156   1.744  10.867 -0.2047 -0.4352 -0.4225
20642SOL    HW163367   6.070   1.707  10.889 -0.0942  0.6660  2.2582
20642SOL    HW263368   6.143   1.784  10.781 -1.7271 -2.1663 -1.0770
20643SOL     OW63369   7.128   2.691   0.428 -0.1209  0.6818  0.5690
20643SOL    HW163370   7.151   2.720   0.340  0.8843  0.2016  0.6601
20643SOL    HW263371   7.044   2.646   0.417 -0.3096  1.1727 -0.0316
20644SOL     OW63372   6.945   3.559  11.029  0.2532 -0.1275 -0.6129
20644SOL    HW163373   6.910   3.609  10.955  1.4610  0.3658 -0.8873
20644SOL    HW263374   6.880   3.570  11.098 -0.9936 -0.7509 -1.6432
20645SOL     OW63375   6.973   4.320  11.170 -0.5002  0.9428  0.0108
20645SOL    HW163376   6.896   4.371  11.146 -1.4393  0.1866  1.2713
20645SOL    HW263377   6.986   4.261  11.096 -1.3559  0.8416 -0.0741
20646SOL     OW63378   5.687   3.618   9.930  0.0455  0.8350  0.3993
20646SOL    HW163379   5.770   3.569   9.923  0.0081  0.8799 -0.3910
20646SOL    HW263380   5.624   3.566   9.880 -0.6749  0.2555  1.8428
20647SOL     OW63381   5.962   2.874  11.805 -0.4928 -0.0237 -0.1228
20647SOL    HW163382   5.997   2.789  11.778  0.1647  0.2082 -0.0094
20647SOL    HW263383   5.885   2.886  11.750  0.0088 -0.2132 -0.8907
20648SOL     OW63384   6.198   0.617  10.671  0.0189  0.3378 -0.6037
20648SOL    HW163385   6.239   0.669  10.740  2.1921 -0.5641 -1.1163
20648SOL    HW263386   6.233   0.528  10.684 -2.2484 -0.6492 -0.7830
20649SOL     OW63387   6.837   4.174   9.845  0.2403  0.0264 -0.6581
20649SOL    HW163388   6.842   4.079   9.847  2.2276  0.0537 -1.6927
20649SOL    HW263389   6.835   4.200   9.937  0.1287 -0.9912 -0.3616
20650SOL     OW63390   6.280   3.477  12.291  0.2238  0.1949 -0.2357
20650SOL    HW163391   6.273   3.454  12.384  0.2316  2.9450  0.5228
20650SOL    HW263392   6.193   3.509  12.268  0.5764  0.7826 -0.7803
20651SOL     OW63393   5.036   2.342   0.578  0.2083 -0.1828  0.0859
20651SOL    HW163394   4.943   2.362   0.565 -0.3258 -1.0853  2.1104
20651SOL    HW263395   5.071   2.418   0.624  0.6548  0.4364 -1.2402
20652SOL     OW63396   5.263   0.583  12.112 -0.4251  0.3538 -0.0550
20652SOL    HW163397   5.169   0.596  12.123 -0.4896  0.9821 -1.2379
20652SOL    HW263398   5.272   0.491  12.087 -0.5109 -0.3152  2.1747
20653SOL     OW63399   7.327   2.281  10.777 -0.3268 -0.1412  0.2328
20653SOL    HW163400   7.261   2.345  10.751 -0.4184  0.2394  1.3313
20653SOL    HW263401   7.301   2.255  10.865  1.3698  0.5614  0.9960
20654SOL     OW63402   7.154   2.574  11.127 -0.3658  0.3483 -1.0239
20654SOL    HW163403   7.116   2.662  11.126 -0.6605  0.2547  0.1873
20654SOL    HW263404   7.239   2.585  11.168 -0.6021  0.0085 -0.4215
20655SOL     OW63405   6.755   2.343  10.413 -0.2401  0.3218 -0.1929
20655SOL    HW163406   6.721   2.373  10.329 -0.9393 -1.1619 -0.4777
20655SOL    HW263407   6.701   2.267  10.434 -0.0854  0.6728  1.6146
20656SOL     OW63408   7.329   4.115  12.116 -0.1222  0.1590 -0.3014
20656SOL    HW163409   7.289   4.152  12.195 -2.5827 -1.8462 -0.4725
20656SOL    HW263410   7.308   4.177  12.047 -4.0556 -1.1781 -0.5595
20657SOL     OW63411   3.381   3.710  12.019 -0.1170  0.2541 -0.5288
20657SOL    HW163412   3.460   3.684  11.971 -0.0148  0.2672 -0.3668
20657SOL    HW263413   3.396   3.801  12.043  1.0161 -0.4677  1.8528
20658SOL     OW63414   6.062   3.017   1.146 -0.5612  0.0273 -0.4094
20658SOL    HW163415   6.047   2.936   1.098 -0.5353 -1.0388  1.2678
20658SOL    HW263416   6.144   3.051   1.112 -0.9907 -0.1856 -1.7267
20659SOL     OW63417   5.146   2.581   0.721  0.1038  0.1008  0.0365
20659SOL    HW163418   5.208   2.511   0.741 -1.2728 -0.8310  1.2762
20659SOL    HW263419   5.184   2.659   0.761  0.4154 -0.4849  0.9208
20660SOL     OW63420   5.811   4.188   0.467 -0.0946 -0.2274  0.1280
20660SOL    HW163421   5.820   4.283   0.466 -2.4571  0.0805 -1.9787
20660SOL    HW263422   5.721   4.172   0.495 -1.5581 -1.4314 -4.4043
20661SOL     OW63423   7.032   4.136  10.989 -0.1077 -0.1829  0.1906
20661SOL    HW163424   7.093   4.065  11.010 -0.6882 -1.2576 -1.5796
20661SOL    HW263425   7.070   4.178  10.912 -0.5206  0.5141  0.3558
20662SOL     OW63426   7.589   5.309  12.029  0.1328  0.3591  0.1278
20662SOL    HW163427   7.670   5.269  12.062  1.1641  3.2044  1.3709
20662SOL    HW263428   7.544   5.341  12.108 -1.5315  0.0902 -0.6654
20663SOL     OW63429   6.168   4.249  11.034 -0.3739 -0.7793 -0.8984
20663SOL    HW163430   6.242   4.264  11.093  0.4666  0.2030 -2.1674
20663SOL    HW263431   6.208   4.234  10.949 -1.6481 -0.1384 -1.6232
20664SOL     OW63432   5.306   3.770   9.484 -0.1859 -0.3099 -0.1188
20664SOL    HW163433   5.222   3.814   9.494  0.0437 -0.0579  0.9067
20664SOL    HW263434   5.285   3.677   9.480 -0.5973 -0.1840 -1.2010
20665SOL     OW63435   5.747   2.338  12.459 -0.1740 -0.2288 -0.0054
20665SOL    HW163436   5.798   2.275  12.410  1.7172  0.5624  0.8241
20665SOL    HW263437   5.755   2.310  12.551 -1.6688 -0.3450  0.1280
20666SOL     OW63438   5.976   3.934  10.842  0.0940 -0.2861 -0.4237
20666SOL    HW163439   6.007   3.979  10.763  0.4895 -0.3377 -0.3010
20666SOL    HW263440   5.886   3.964  10.853  0.2144  0.1455 -0.5858
20667SOL     OW63441   4.419   1.893  12.144 -0.3135 -0.1217  0.7273
20667SOL    HW163442   4.446   1.904  12.053  0.4808  3.5700  1.2522
20667SOL    HW263443   4.477   1.824  12.178  1.0281  0.1082 -0.9530
20668SOL     OW63444   6.949   0.906  11.812 -0.1957 -0.2304  0.4221
20668SOL    HW163445   6.956   0.972  11.742 -1.8264 -0.2930  0.1630
20668SOL    HW263446   6.935   0.958  11.892 -1.2627 -0.2311  0.2499
20669SOL     OW63447   6.528   2.240  11.422 -0.1719 -0.2016 -0.3564
20669SOL    HW163448   6.549   2.284  11.505  2.4202  2.0199 -2.0069
20669SOL    HW263449   6.501   2.311  11.363 -1.7553 -1.6887 -1.5228
20670SOL     OW63450   6.841   2.740  10.787 -0.2586 -0.1058  0.0029
20670SOL    HW163451   6.918   2.694  10.820  0.4050  0.7091 -0.3420
20670SOL    HW263452   6.781   2.671  10.759  1.2473 -0.7993 -1.7443
20671SOL     OW63453   5.220   2.178   0.033 -0.2743  0.2786  0.0697
20671SOL    HW163454   5.174   2.141  -0.043 -2.5131  2.3652  0.2876
20671SOL    HW263455   5.220   2.272   0.017  1.1580  0.6030  1.6893
20672SOL     OW63456   4.358   2.419  11.457  0.2640  0.1269 -0.7216
20672SOL    HW163457   4.343   2.485  11.524 -1.0688 -1.8989  1.1013
20672SOL    HW263458   4.282   2.426  11.399  0.6395  0.8251 -1.1508
20673SOL     OW63459   6.128   3.769  10.498  0.0036 -0.2182  0.5417
20673SOL    HW163460   6.201   3.771  10.436 -1.3552  0.6510 -1.1256
20673SOL    HW263461   6.164   3.727  10.576  1.9799 -0.7648 -0.5884
20674SOL     OW63462   6.524   2.643  10.849 -0.5053  0.4474  0.0710
20674SOL    HW163463   6.465   2.677  10.782 -0.9027  0.8116  0.5966
20674SOL    HW263464   6.519   2.707  10.920  0.1223  0.2123  0.3379
20675SOL     OW63465   7.348   4.943   0.037 -0.2612 -0.6485 -0.0899
20675SOL    HW163466   7.267   4.922   0.083  0.1511  1.5138  1.7608
20675SOL    HW263467   7.416   4.943   0.104  0.5705  1.5105 -0.8383
20676SOL     OW63468   5.768   2.608   1.104  0.2459  0.1960  0.2125
20676SOL    HW163469   5.690   2.659   1.124  0.3424  0.5292 -0.2413
20676SOL    HW263470   5.840   2.659   1.139  0.0749 -1.7672  3.8807
20677SOL     OW63471   6.732   4.258  11.656 -0.5299  0.6710 -0.7217
20677SOL    HW163472   6.755   4.244  11.564 -0.6084  0.6723 -0.7406
20677SOL    HW263473   6.797   4.321  11.687 -0.5211  0.6922 -0.7831
20678SOL     OW63474   6.809   4.514  11.784 -0.0315  0.1138 -0.1527
20678SOL    HW163475   6.861   4.587  11.817  0.9345 -0.1866 -0.9768
20678SOL    HW263476   6.726   4.520  11.832  1.4559 -0.6384  2.7290
20679SOL     OW63477   7.208   1.556   0.792 -0.4491 -0.1283  0.0454
20679SOL    HW163478   7.175   1.645   0.800 -1.0341 -0.3605  0.3613
20679SOL    HW263479   7.285   1.554   0.848 -1.0189 -0.0837  0.8581
20680SOL     OW63480   7.561   2.641  11.752  0.0733  0.2708  0.3962
20680SOL    HW163481   7.581   2.731  11.727 -0.2312  0.2889  0.2251
20680SOL    HW263482   7.473   2.625  11.720 -0.1764  0.1676  1.1077
20681SOL     OW63483   5.750   1.595  12.403 -0.6697  0.1153 -0.0522
20681SOL    HW163484   5.845   1.591  12.413 -0.9386 -1.3407  3.1310
20681SOL    HW263485   5.734   1.683  12.368  1.8265  0.3179 -0.9046
20682SOL     OW63486   6.191   4.397  12.479  0.0766 -0.0986 -0.5155
20682SOL    HW163487   6.121   4.461  12.464 -1.4260 -1.3764  0.6834
20682SOL    HW263488   6.212   4.407  12.572  0.2768 -0.8944 -0.4766
20683SOL     OW63489   0.165   3.149  10.845  0.7657  0.1110 -0.6812
20683SOL    HW163490   0.122   3.067  10.823 -0.8843  0.6865  0.1689
20683SOL    HW263491   0.102   3.217  10.820  1.2028  1.0088  0.5174
20684SOL     OW63492   0.041   2.629   0.304  0.4578 -0.2023 -0.0588
20684SOL    HW163493  -0.025   2.609   0.237 -2.4876 -1.0784  2.8789
20684SOL    HW263494  -0.001   2.691   0.362  2.8196  0.3317  1.2136
20685SOL     OW63495   6.348   2.723   0.032  0.1855 -0.2898  0.0225
20685SOL    HW163496   6.289   2.687   0.098 -1.7028  0.6385 -1.0831
20685SOL    HW263497   6.428   2.744   0.080 -0.3496 -1.5843  1.5713
20686SOL     OW63498   0.465   5.098  11.681 -0.1719  0.2277 -0.4990
20686SOL    HW163499   0.553   5.072  11.655 -0.2553 -0.5888  0.0209
20686SOL    HW263500   0.408   5.058  11.616 -0.2475 -0.2779 -0.1224
20687SOL     OW63501   7.666   2.443  10.320  0.3904  0.1251 -0.2820
20687SOL    HW163502   7.594   2.443  10.383 -0.5746  0.5578 -1.3559
20687SOL    HW263503   7.719   2.519  10.345  2.8322 -2.3451  3.0004
20688SOL     OW63504   5.644   3.220   9.710 -0.4000 -0.6539  0.0938
20688SOL    HW163505   5.607   3.191   9.794  0.3840  0.0188  0.6903
20688SOL    HW263506   5.587   3.181   9.644 -0.9334 -1.3394  0.9347
20689SOL     OW63507   6.312   4.048  10.662 -0.4064  0.0208  0.3596
20689SOL    HW163508   6.294   3.997  10.741 -0.9952  0.9146  0.8181
20689SOL    HW263509   6.334   4.135  10.693 -1.2679  0.5641 -0.4701
20690SOL     OW63510   5.317   3.159  12.193 -0.1933 -0.4028 -0.5557
20690SOL    HW163511   5.365   3.129  12.116  1.2981  1.2955 -0.3542
20690SOL    HW263512   5.286   3.079  12.235  0.9230 -1.4707 -1.6945
20691SOL     OW63513   7.697   3.651  10.391 -0.1413  0.5283  0.4504
20691SOL    HW163514   7.619   3.595  10.395  0.2652 -0.1361 -0.5941
20691SOL    HW263515   7.680   3.712  10.319 -0.0781  0.9812  0.8135
20692SOL     OW63516   4.596   1.926   0.517 -0.3679  0.0948 -0.3687
20692SOL    HW163517   4.653   1.863   0.561 -0.0705 -1.6942 -3.1061
20692SOL    HW263518   4.655   1.998   0.492  0.0428 -0.2614 -0.4336
20693SOL     OW63519   6.768   2.675   9.994 -0.1911 -0.2138 -0.0944
20693SOL    HW163520   6.789   2.582   9.988 -0.3775 -0.1967 -1.1125
20693SOL    HW263521   6.810   2.714   9.918 -2.1377  0.1596 -1.0266
20694SOL     OW63522   4.601   2.240  11.459  0.4521  0.4187  0.2926
20694SOL    HW163523   4.580   2.200  11.375  3.0639 -0.8122  0.1267
20694SOL    HW263524   4.534   2.307  11.471 -0.9872 -0.5002 -1.9367
20695SOL     OW63525   5.921   3.018  11.493  0.3206 -0.0826  0.5746
20695SOL    HW163526   5.843   2.999  11.544 -0.8331  1.9059 -0.3416
20695SOL    HW263527   5.904   2.981  11.407  0.5049  0.1047  0.4558
20696SOL     OW63528   7.600   4.618   8.863 -0.1652  0.4579 -0.4096
20696SOL    HW163529   7.577   4.615   8.956  0.3696 -2.2120 -0.3042
20696SOL    HW263530   7.549   4.548   8.823  2.6085 -1.1892 -1.3540
20697SOL     OW63531   6.762   1.891  10.180 -0.9031  0.1466  0.5030
20697SOL    HW163532   6.844   1.920  10.220 -0.5073 -1.7506  1.1846
20697SOL    HW263533   6.787   1.814  10.129 -1.9745  0.6066 -0.7609
20698SOL     OW63534   0.859   3.359  10.622 -0.4898 -0.2228  0.3850
20698SOL    HW163535   0.849   3.287  10.684  2.2253  0.3588  1.6819
20698SOL    HW263536   0.891   3.318  10.542  2.1092 -0.4735  1.4587
20699SOL     OW63537   7.662   1.793  12.284  0.1875  0.6040  0.2532
20699SOL    HW163538   7.657   1.704  12.317 -0.7299 -0.0384 -1.5042
20699SOL    HW263539   7.747   1.798  12.239 -0.3846  0.1188 -0.9209
20700SOL     OW63540   7.303   2.618  11.644 -0.4180 -0.7631 -0.1315
20700SOL    HW163541   7.270   2.706  11.659  0.7167 -0.1479 -1.0210
20700SOL    HW263542   7.237   2.576  11.589  0.2464  0.4783 -1.9912
20701SOL     OW63543   7.182   3.402  12.088 -0.3610 -0.2317 -0.2398
20701SOL    HW163544   7.185   3.310  12.060 -2.2455 -0.0706 -1.1101
20701SOL    HW263545   7.107   3.406  12.147  0.4568  0.5269  0.7822
20702SOL     OW63546   6.315   1.870   0.429 -0.1178 -0.4454 -0.3547
20702SOL    HW163547   6.298   1.780   0.402 -0.1328 -0.5254 -0.0868
20702SOL    HW263548   6.229   1.908   0.444 -0.0941 -1.3128  2.4919
20703SOL     OW63549   4.958   0.499   1.551 -0.7460 -0.1228  0.1040
20703SOL    HW163550   4.993   0.444   1.481  0.3777  1.6824 -0.8442
20703SOL    HW263551   4.914   0.438   1.610  0.0216 -1.9525 -1.1147
20704SOL     OW63552   4.642   3.137   0.912  0.4578 -0.6607  0.2191
20704SOL    HW163553   4.718   3.156   0.967  0.3880  0.7181 -0.1194
20704SOL    HW263554   4.567   3.156   0.967  0.3876  0.5369 -0.2596
20705SOL     OW63555   6.962   2.686  11.811  0.2847 -0.2894 -0.7832
20705SOL    HW163556   6.900   2.724  11.749 -0.3289  1.1667  0.6302
20705SOL    HW263557   7.046   2.724  11.789 -0.4633  2.8349  1.1645
20706SOL     OW63558   5.664   0.235  12.257  0.7018 -0.1578 -0.5261
20706SOL    HW163559   5.610   0.252  12.334  1.0481  0.3375 -0.3813
20706SOL    HW263560   5.666   0.319  12.211  2.1083  0.0994 -0.0339
20707SOL     OW63561   7.159   1.811  11.185 -0.2690 -0.0728  0.6148
20707SOL    HW163562   7.121   1.884  11.138 -0.3765 -0.5550 -0.0561
20707SOL    HW263563   7.105   1.736  11.161  1.1636 -0.7970 -0.4777
20708SOL     OW63564   5.152   3.263   0.118 -0.2620 -0.3221  0.0333
20708SOL    HW163565   5.102   3.302   0.047 -0.3278  1.0449  0.7796
20708SOL    HW263566   5.112   3.298   0.198  0.6320 -0.7545  0.6956
20709SOL     OW63567   7.015   2.006  10.268 -0.7249 -0.0422 -0.6649
20709SOL    HW163568   7.093   1.958  10.294 -1.5785 -1.6768 -0.9753
20709SOL    HW263569   7.006   2.075  10.333  0.4294 -0.4344 -0.0630
20710SOL     OW63570   6.728   4.571  11.235  0.0522  0.6100 -0.6420
20710SOL    HW163571   6.693   4.523  11.160 -1.8892 -0.3655  0.7969
20710SOL    HW263572   6.735   4.505  11.304  0.7029  1.7108  0.3847
20711SOL     OW63573   5.766   3.625  10.704  0.2500 -0.2797 -0.1383
20711SOL    HW163574   5.843   3.679  10.720  0.6922 -0.3252 -1.9390
20711SOL    HW263575   5.692   3.682  10.728  0.7941 -0.4920  2.3322
20712SOL     OW63576   5.375   3.625   1.139  0.0855  0.4570  0.2760
20712SOL    HW163577   5.470   3.629   1.148  0.1683 -0.7266  0.0319
20712SOL    HW263578   5.359   3.620   1.045 -0.1993  0.1796  0.3366
20713SOL     OW63579   6.118   1.981  12.295 -0.4036  0.2864 -0.2375
20713SOL    HW163580   6.188   1.995  12.358 -0.6653  0.5744 -0.0109
20713SOL    HW263581   6.164   1.963  12.212 -0.0573  1.5138 -0.3292
20714SOL     OW63582   5.938   3.266  11.370 -0.3954  0.3141  0.3428
20714SOL    HW163583   6.027   3.296  11.389 -0.6989  1.4380  0.1009
20714SOL    HW263584   5.921   3.199  11.436  1.4438 -1.6270 -1.0195
20715SOL     OW63585   6.475   3.718  12.201 -0.2025  0.7971 -0.0906
20715SOL    HW163586   6.534   3.793  12.192 -1.0282  1.3322 -1.3578
20715SOL    HW263587   6.503   3.674  12.281  1.7238  1.2007 -0.5062
20716SOL     OW63588   5.706   4.056  11.477  0.0969  0.3320 -0.0056
20716SOL    HW163589   5.724   3.977  11.528  0.4269 -0.8311 -1.8494
20716SOL    HW263590   5.646   4.106  11.531  2.4750  0.4916  2.7509
20717SOL     OW63591   5.526   2.786  12.078 -0.2547  0.4283  0.0421
20717SOL    HW163592   5.488   2.758  12.162  0.3359 -0.7014 -0.0439
20717SOL    HW263593   5.616   2.754  12.081  0.0841  1.2971 -0.5967
20718SOL     OW63594   5.762   2.591   0.104  0.1763  0.0973 -0.0455
20718SOL    HW163595   5.719   2.647   0.039 -0.9548 -0.2840  0.3349
20718SOL    HW263596   5.829   2.544   0.054  0.3790  0.9594 -0.5987
20719SOL     OW63597   5.234   2.072   0.792  0.2708 -0.4642 -0.0218
20719SOL    HW163598   5.286   2.039   0.866 -0.0037 -1.0237 -0.0757
20719SOL    HW263599   5.235   2.001   0.728 -0.6313 -0.5155  0.0099
20720SOL     OW63600   4.688   1.058   9.464 -0.0523 -0.3369 -0.3131
20720SOL    HW163601   4.610   1.040   9.517 -0.0512 -0.6822 -0.4279
20720SOL    HW263602   4.716   0.973   9.432  0.8236 -0.3237  0.3539
20721SOL     OW63603   7.778   4.709  11.306  0.1953  0.3231  0.0149
20721SOL    HW163604   7.821   4.644  11.361  1.5421  1.0960 -0.0735
20721SOL    HW263605   7.706   4.741  11.359 -0.9078 -1.6692 -0.1914
20722SOL     OW63606   7.792   1.297  11.587 -0.1829  0.2945  0.1162
20722SOL    HW163607   7.721   1.275  11.527 -0.5698  1.4057  0.1408
20722SOL    HW263608   7.871   1.288  11.535 -0.5185  1.3228 -0.6018
20723SOL     OW63609   5.426   3.816  11.401  0.1977 -0.2333 -0.0137
20723SOL    HW163610   5.436   3.769  11.484 -0.1217  0.1300  0.2343
20723SOL    HW263611   5.460   3.756  11.335  1.5876 -0.0547  0.5071
20724SOL     OW63612   6.226   2.239   0.078 -0.0382  0.3442  0.1641
20724SOL    HW163613   6.212   2.256   0.171  1.4974 -0.5695  0.5957
20724SOL    HW263614   6.212   2.145   0.069  3.5798 -0.3230  0.2911
20725SOL     OW63615   7.927   2.109   0.474  0.0040  0.2037  0.3276
20725SOL    HW163616   7.947   2.203   0.480 -0.5641  0.3346  0.1827
20725SOL    HW263617   8.005   2.071   0.433  0.8187  0.4019  1.6424
20726SOL     OW63618   7.232   4.284  11.937  0.5332 -0.2790  0.3713
20726SOL    HW163619   7.305   4.317  11.884  0.2728  1.0029  0.7854
20726SOL    HW263620   7.189   4.362  11.970 -2.2463 -0.9223 -1.4210
20727SOL     OW63621   6.477   4.840  11.070  0.4409  0.3545  0.3768
20727SOL    HW163622   6.510   4.751  11.053  0.3696  0.6863 -1.7768
20727SOL    HW263623   6.385   4.828  11.091  0.2242 -0.0643 -0.7200
20728SOL     OW63624   0.133   4.860  10.760  0.0658  0.0216 -0.2443
20728SOL    HW163625   0.159   4.769  10.768  0.1928  0.1498  1.1466
20728SOL    HW263626   0.190   4.906  10.822 -0.2708  0.9804 -0.6319
20729SOL     OW63627   5.685   4.261   0.187 -0.2531 -0.3797  0.0423
20729SOL    HW163628   5.721   4.337   0.142 -1.3938  0.3283  0.2994
20729SOL    HW263629   5.591   4.267   0.173 -0.3200 -2.0940 -0.4611
20730SOL     OW63630   7.519   2.622  12.032  0.1450  0.5552  0.0964
20730SOL    HW163631   7.554   2.617  11.943 -0.1285  0.2390  0.0054
20730SOL    HW263632   7.549   2.707  12.064  2.8050 -0.5229  0.7890
20731SOL     OW63633   7.292   3.310   0.881  0.0580  0.3562  0.2869
20731SOL    HW163634   7.339   3.389   0.854 -0.5939  0.1696 -1.5922
20731SOL    HW263635   7.360   3.242   0.886  0.8791  1.2517  3.3722
20732SOL     OW63636   5.175   3.521  11.860 -0.6064 -0.2505 -0.7840
20732SOL    HW163637   5.265   3.489  11.865 -1.0868 -1.6000 -0.1684
20732SOL    HW263638   5.180   3.613  11.886  0.5148 -0.4704 -0.1710
20733SOL     OW63639   6.037   3.269  12.392 -0.6774 -0.4066  0.3833
20733SOL    HW163640   5.956   3.308  12.359 -0.1303  0.5174  0.0857
20733SOL    HW263641   6.063   3.207  12.324  1.0640  2.3190 -1.6469
20734SOL     OW63642   7.106   3.418  10.764  0.4558 -0.0134  0.7161
20734SOL    HW163643   7.042   3.433  10.833  0.1597 -0.0302  0.4453
20734SOL    HW263644   7.071   3.345  10.713  0.4809  0.2475  0.3190
20735SOL     OW63645   5.994   1.770  12.124  0.1446  0.4408  0.9082
20735SOL    HW163646   6.059   1.705  12.150 -0.1706  0.1056  0.8592
20735SOL    HW263647   5.974   1.750  12.033 -1.4923 -0.7155  1.4826
20736SOL     OW63648   5.923   3.593  11.007  0.3230 -0.0760  0.3243
20736SOL    HW163649   5.831   3.574  11.030  0.1348 -0.6097 -0.8072
20736SOL    HW263650   5.956   3.510  10.973  0.6478  0.6049 -1.0837
20737SOL     OW63651   6.948   4.956   9.243 -0.0572  0.6828 -0.0149
20737SOL    HW163652   6.897   5.009   9.304  1.1662  2.7987 -0.7113
20737SOL    HW263653   6.882   4.916   9.186 -1.0552  3.8643 -1.3362
20738SOL     OW63654   5.090   2.079  12.328 -0.0698 -0.5104  0.2278
20738SOL    HW163655   5.016   2.126  12.366 -0.2109 -0.5663  0.0257
20738SOL    HW263656   5.074   1.988  12.349 -1.0486 -0.7526 -1.4218
20739SOL     OW63657   6.558   3.380  12.267 -0.1564 -0.6084  0.2268
20739SOL    HW163658   6.473   3.424  12.277 -0.6626 -1.9273  1.9852
20739SOL    HW263659   6.606   3.436  12.205 -2.0912  0.4489 -0.3978
20740SOL     OW63660   0.228   4.163   0.783  0.0113 -0.0759 -0.4555
20740SOL    HW163661   0.300   4.201   0.733 -0.3947  0.5975 -0.5392
20740SOL    HW263662   0.162   4.233   0.787 -0.7737 -0.7896 -0.6557
20741SOL     OW63663   5.866   3.179   0.153  0.3489  0.7408  0.9304
20741SOL    HW163664   5.947   3.166   0.104  1.2968  0.3367  2.5438
20741SOL    HW263665   5.821   3.251   0.107  0.4648 -0.5739 -1.3734
20742SOL     OW63666   6.975   4.071  12.084 -0.1074 -0.3316 -0.3548
20742SOL    HW163667   6.928   4.084  12.002 -0.7347 -0.2841  0.0086
20742SOL    HW263668   7.062   4.041  12.057  0.0025  0.5675 -1.0680
20743SOL     OW63669   5.823   3.597  10.276  0.0709  0.8565  0.3483
20743SOL    HW163670   5.869   3.566  10.198  1.8381  2.2394  0.7774
20743SOL    HW263671   5.784   3.680  10.249 -0.6054  0.5960  0.5196
20744SOL     OW63672   7.858   2.114   0.800  0.4495 -0.5359 -0.3400
20744SOL    HW163673   7.837   2.169   0.726 -0.9338 -1.4727 -0.6742
20744SOL    HW263674   7.939   2.069   0.774  1.5380  1.1900 -0.0971
20745SOL     OW63675   5.036   4.665  11.541  0.0024  0.0907  0.5000
20745SOL    HW163676   5.085   4.643  11.621 -0.2122 -1.1115  0.3288
20745SOL    HW263677   4.944   4.660  11.567 -0.0508  0.8451  0.4583
20746SOL     OW63678   5.026   2.932  10.079 -0.5070 -0.4885 -0.3277
20746SOL    HW163679   4.959   2.864  10.075  0.2235 -1.1926 -1.9042
20746SOL    HW263680   5.107   2.884  10.096 -0.0486  0.0144 -1.0077
20747SOL     OW63681   7.979   1.108   0.900  0.1244  0.0378 -0.0946
20747SOL    HW163682   7.906   1.166   0.923  2.0587  1.6146  2.6245
20747SOL    HW263683   8.013   1.144   0.818 -0.8916  0.5292 -0.3197
20748SOL     OW63684   7.657   2.273   8.962  0.1042  0.0074  0.1382
20748SOL    HW163685   7.575   2.323   8.967  0.2296  0.3110 -0.7386
20748SOL    HW263686   7.668   2.237   9.050  0.6052  2.4651  1.1710
20749SOL     OW63687   5.811   3.932  11.913  0.7587  1.0548 -0.0815
20749SOL    HW163688   5.886   3.943  11.856 -0.0596  3.1935 -0.8906
20749SOL    HW263689   5.765   4.016  11.907 -1.1235  0.1847  1.1822
20750SOL     OW63690   0.165   4.553  11.910 -0.3312  0.3188 -0.3637
20750SOL    HW163691   0.096   4.530  11.971  0.3044  0.9001  0.6107
20750SOL    HW263692   0.223   4.611  11.960 -0.8121  2.4296 -2.0768
20751SOL     OW63693   7.608   3.193  11.840  0.0996  0.3005  0.0886
20751SOL    HW163694   7.601   3.279  11.881 -2.0613 -0.5142  1.6717
20751SOL    HW263695   7.688   3.196  11.789  0.1805  3.1682  0.2570
20752SOL     OW63696   7.469   3.260   1.971 -0.5468 -0.1072  0.2764
20752SOL    HW163697   7.507   3.172   1.969 -0.4698 -0.0828 -1.4100
20752SOL    HW263698   7.409   3.259   2.045 -0.1073 -1.3911  0.6451
20753SOL     OW63699   7.097   2.363  11.894  0.0448  0.1632  0.1964
20753SOL    HW163700   7.117   2.269  11.896  2.4788  0.6176 -0.0451
20753SOL    HW263701   7.051   2.376  11.811  0.9964 -0.6101 -0.4759
20754SOL     OW63702   6.144   1.025  10.874 -0.3708  0.7293 -0.3070
20754SOL    HW163703   6.146   1.099  10.935 -0.2971 -0.0673  0.6898
20754SOL    HW263704   6.056   0.989  10.883  0.6814 -1.5820  2.1071
20755SOL     OW63705   6.152   4.482   0.521 -0.0241 -0.1157 -0.4185
20755SOL    HW163706   6.242   4.464   0.549 -0.8182 -2.9408  0.5920
20755SOL    HW263707   6.113   4.528   0.595  0.0671 -0.5639 -0.0897
20756SOL     OW63708   6.117   1.464  10.642  0.1517 -0.1233 -0.7456
20756SOL    HW163709   6.043   1.512  10.607 -0.7617 -0.1262  1.0613
20756SOL    HW263710   6.193   1.519  10.622 -0.3813  0.1867 -2.0528
20757SOL     OW63711   4.711   2.401  10.016 -0.6747 -0.3444  0.1194
20757SOL    HW163712   4.728   2.420  10.108  1.1406  4.1631 -0.8487
20757SOL    HW263713   4.616   2.409  10.007 -0.8330 -0.4370  1.5060
20758SOL     OW63714   7.281   1.562  12.333  0.3969 -0.8121 -0.0490
20758SOL    HW163715   7.196   1.547  12.376  0.7561 -0.8844  0.6599
20758SOL    HW263716   7.327   1.622  12.393  2.0395 -3.1554  1.1975
20759SOL     OW63717   5.778   1.059   0.709  0.5350  0.7530  0.1967
20759SOL    HW163718   5.797   0.980   0.759  1.4825  0.9884  0.2369
20759SOL    HW263719   5.701   1.037   0.657 -0.3413  0.4380  1.5822
20760SOL     OW63720   5.934   1.621  10.971 -0.4453  0.3015 -0.2720
20760SOL    HW163721   5.906   1.678  11.043  0.2419 -0.3806  0.5651
20760SOL    HW263722   5.894   1.536  10.991  1.7451 -0.5871  0.7359
20761SOL     OW63723   6.151   0.193  10.062  0.1794 -0.4342 -0.3265
20761SOL    HW163724   6.080   0.254  10.043  0.2506 -0.1904  0.1781
20761SOL    HW263725   6.213   0.244  10.114  1.2201 -0.3292 -1.6143
20762SOL     OW63726   7.808   3.186   1.969  0.1852 -0.3352 -0.4547
20762SOL    HW163727   7.760   3.120   1.919 -0.5836 -0.0240 -0.1340
20762SOL    HW263728   7.865   3.228   1.905 -1.1328  0.3976 -1.1937
20763SOL     OW63729   7.404   3.120   9.962 -0.4817  0.4907  0.3738
20763SOL    HW163730   7.379   3.091  10.049 -0.2249 -0.4331  0.1487
20763SOL    HW263731   7.498   3.136   9.968 -0.2088 -0.8208 -0.0468
20764SOL     OW63732   7.553   1.353   9.484  0.2500  0.0926  0.2845
20764SOL    HW163733   7.529   1.394   9.567  1.2199 -0.4102  0.8249
20764SOL    HW263734   7.511   1.408   9.417  0.6110  1.3101  1.0372
20765SOL     OW63735   6.395   0.467   0.642  0.3193 -0.2377  0.5253
20765SOL    HW163736   6.337   0.467   0.566 -0.3458  0.7198  1.0205
20765SOL    HW263737   6.473   0.421   0.612  1.0571  2.1311 -1.5021
20766SOL     OW63738   5.787   6.408  12.182  0.2825 -0.1061  0.5936
20766SOL    HW163739   5.728   6.342  12.216  1.8880 -1.5321  0.7443
20766SOL    HW263740   5.808   6.379  12.094  0.3721  0.6603  0.3491
20767SOL     OW63741   5.691   1.773  11.720 -0.0324 -0.0050  1.1537
20767SOL    HW163742   5.603   1.809  11.732 -0.6697 -1.1007  0.0885
20767SOL    HW263743   5.750   1.840  11.754 -1.2304  1.2673  0.8283
20768SOL     OW63744   5.359   4.006  10.930 -0.3537 -0.2629 -0.0003
20768SOL    HW163745   5.272   4.040  10.910 -0.7606 -1.2975 -0.0766
20768SOL    HW263746   5.394   3.977  10.845 -0.6629 -1.4456  0.2503
20769SOL     OW63747   6.239   1.964   0.034  0.1150  0.3861  0.6155
20769SOL    HW163748   6.333   1.946   0.036 -0.3051 -2.2090 -0.0235
20769SOL    HW263749   6.200   1.897   0.090 -1.3186  2.1351  1.8547
20770SOL     OW63750   6.027   2.726  10.182 -0.4547  0.2413  0.0551
20770SOL    HW163751   6.060   2.798  10.128 -0.8807  1.1797  1.0170
20770SOL    HW263752   6.002   2.767  10.265 -0.8721 -0.9885  0.5634
20771SOL     OW63753   6.467   5.381   9.142  0.3019  0.1111 -0.3497
20771SOL    HW163754   6.435   5.425   9.063 -0.2780 -1.0828 -0.8027
20771SOL    HW263755   6.408   5.411   9.211 -0.0471  0.0960 -0.6368
20772SOL     OW63756   5.697   2.914   0.406 -0.1156  0.6475 -0.4306
20772SOL    HW163757   5.612   2.941   0.440 -0.1139 -0.1409  0.2204
20772SOL    HW263758   5.754   2.990   0.421 -0.0028  0.1785  1.7645
20773SOL     OW63759   4.317   5.016   1.688  0.3624 -0.1213  0.0619
20773SOL    HW163760   4.348   5.001   1.777  0.7425 -0.8940 -0.1895
20773SOL    HW263761   4.375   5.084   1.654  2.1540 -1.8438 -0.5442
20774SOL     OW63762   5.920   2.173  12.314 -0.7021 -0.4461  0.0832
20774SOL    HW163763   5.963   2.255  12.289 -0.0793 -0.1303  2.0318
20774SOL    HW263764   5.984   2.105  12.293  0.4601 -0.0541  2.0762
20775SOL     OW63765   7.054   6.519   2.516  0.1695 -0.5789 -0.4829
20775SOL    HW163766   7.020   6.442   2.561  0.5688 -0.2066  0.4999
20775SOL    HW263767   7.002   6.526   2.436 -1.2020 -0.7457  0.3650
20776SOL     OW63768   6.857   4.004   0.357  0.0405 -0.1594  0.2949
20776SOL    HW163769   6.930   4.033   0.413  0.0553 -1.0154  0.7346
20776SOL    HW263770   6.885   3.919   0.323 -0.8162 -0.5860  0.6130
20777SOL     OW63771   7.316   3.364   2.596 -0.4051 -0.4684 -0.4728
20777SOL    HW163772   7.297   3.296   2.660  2.8047  0.0207  1.2203
20777SOL    HW263773   7.343   3.317   2.517 -1.0477 -1.0902 -0.3325
20778SOL     OW63774   6.963   4.627  12.463  0.3569  0.1086  0.5170
20778SOL    HW163775   6.911   4.580  12.527  0.1965 -0.2827  0.1048
20778SOL    HW263776   6.911   4.704  12.440  0.5184  0.3775  1.0204
20779SOL     OW63777   5.232   4.414   1.418 -0.3274  0.8851 -0.2001
20779SOL    HW163778   5.256   4.449   1.504 -2.0313  0.2370  0.5733
20779SOL    HW263779   5.267   4.325   1.418 -2.9199 -0.2467  1.1333
20780SOL     OW63780   6.823   4.445   1.533 -0.0373 -0.1289  0.2710
20780SOL    HW163781   6.769   4.412   1.606  0.0335 -0.5705  0.1306
20780SOL    HW263782   6.856   4.529   1.563  2.4462 -1.5966  1.9958
20781SOL     OW63783   6.136   3.560   0.462 -0.0013  0.6749  0.0283
20781SOL    HW163784   6.205   3.496   0.442 -0.4198  0.1773  0.1428
20781SOL    HW263785   6.069   3.509   0.508 -0.8907  0.9196 -0.9474
20782SOL     OW63786   6.071   5.936   2.469  0.1482  0.2046 -1.0950
20782SOL    HW163787   6.009   5.929   2.397 -0.2827 -1.3408 -0.6183
20782SOL    HW263788   6.156   5.917   2.430 -0.0172 -0.1370 -1.2924
20783SOL     OW63789   4.823   5.218   1.831 -0.1825  0.2907 -0.3391
20783SOL    HW163790   4.767   5.270   1.773  0.1298 -1.2123 -2.0929
20783SOL    HW263791   4.774   5.211   1.913 -0.3700  3.0046 -0.1425
20784SOL     OW63792   6.737   5.062   2.494 -0.0602 -0.0965 -0.2190
20784SOL    HW163793   6.827   5.036   2.516  0.2984 -0.3271 -1.8339
20784SOL    HW263794   6.689   4.980   2.489  0.8323 -0.6056 -4.2544
20785SOL     OW63795   7.536   2.227   1.938 -0.0765 -0.1046  0.6021
20785SOL    HW163796   7.581   2.258   1.860 -2.2259  0.4435 -0.4866
20785SOL    HW263797   7.477   2.299   1.963 -3.4419 -2.1861 -0.5965
20786SOL     OW63798   6.931   4.882  12.286  0.0242 -0.1006  0.0721
20786SOL    HW163799   6.896   4.800  12.250 -0.8750  1.3930 -2.7081
20786SOL    HW263800   7.026   4.871  12.282 -0.0142 -1.7096  1.6759
20787SOL     OW63801   5.295   7.426  11.886 -0.2913 -0.0889 -0.2723
20787SOL    HW163802   5.279   7.454  11.976 -0.0336  1.8698 -0.8078
20787SOL    HW263803   5.369   7.479  11.856 -0.2752 -0.8117 -1.6127
20788SOL     OW63804   6.423   5.263   2.125 -0.1396  0.3487 -0.3041
20788SOL    HW163805   6.457   5.315   2.052 -1.0355  1.3800 -0.0178
20788SOL    HW263806   6.490   5.272   2.193  0.6503 -0.5340 -0.9321
20789SOL     OW63807   7.344   5.718   1.888 -0.3800  0.1085  0.3521
20789SOL    HW163808   7.271   5.771   1.920 -1.9402 -1.7555  0.0849
20789SOL    HW263809   7.363   5.753   1.801 -0.9383  0.6291  0.4351
20790SOL     OW63810   6.240   4.611   1.148 -0.9197  0.4846  0.3064
20790SOL    HW163811   6.276   4.563   1.222 -0.7443  1.5031  0.8913
20790SOL    HW263812   6.307   4.676   1.126 -2.0910  1.9893  1.0034
20791SOL     OW63813   5.719   4.622  12.353  0.5214 -0.7642 -0.6550
20791SOL    HW163814   5.702   4.651  12.264 -0.1619  1.5856  0.1600
20791SOL    HW263815   5.636   4.584  12.383 -0.0384  0.6808 -0.2724
20792SOL     OW63816   6.563   3.184   0.689 -0.1997  0.5863 -0.3353
20792SOL    HW163817   6.545   3.135   0.609 -0.5580  3.5018 -2.2044
20792SOL    HW263818   6.651   3.220   0.676  0.5418 -0.3944  1.4964
20793SOL     OW63819   5.555   2.738   2.563  1.1180 -0.6729 -0.5031
20793SOL    HW163820   5.539   2.748   2.657  0.4574 -0.1263 -0.6678
20793SOL    HW263821   5.620   2.806   2.543  0.8186 -0.3971 -0.5497
20794SOL     OW63822   6.967   4.919   2.607  0.2858 -0.0481 -0.0256
20794SOL    HW163823   7.020   4.936   2.684  1.0226  0.4613 -0.6213
20794SOL    HW263824   6.924   4.835   2.624  1.0890 -0.3429  0.5736
20795SOL     OW63825   6.175   5.706   1.564  0.0097 -0.0489 -0.3119
20795SOL    HW163826   6.254   5.699   1.618  0.5333  1.4944 -0.8133
20795SOL    HW263827   6.156   5.616   1.538  1.6816 -0.4576 -0.2760
20796SOL     OW63828   6.379   4.255   1.041  0.3798 -0.5200  0.1967
20796SOL    HW163829   6.465   4.239   1.003  0.6465 -0.5357  0.7965
20796SOL    HW263830   6.322   4.273   0.966  0.8978 -0.5433 -0.2028
20797SOL     OW63831   6.694   5.212   0.461  0.4686 -0.4394  0.0180
20797SOL    HW163832   6.674   5.286   0.404  0.9816 -0.9388 -0.8455
20797SOL    HW263833   6.786   5.193   0.443  0.1219 -1.8297 -0.4484
20798SOL     OW63834   2.553   4.749   1.933 -1.3321  0.3300  0.0629
20798SOL    HW163835   2.631   4.756   1.987 -1.0367 -0.3201 -0.2683
20798SOL    HW263836   2.554   4.829   1.880  0.7074 -0.9198 -1.9966
20799SOL     OW63837   6.182   5.667   0.102 -0.1680 -0.6491 -0.0403
20799SOL    HW163838   6.267   5.664   0.059 -1.1531 -0.3341 -2.1479
20799SOL    HW263839   6.162   5.575   0.122  0.3384 -0.8082 -0.2479
20800SOL     OW63840   5.589   4.469   0.793  0.3562  0.1619 -0.3045
20800SOL    HW163841   5.573   4.403   0.725  0.4181  0.3627 -0.5120
20800SOL    HW263842   5.629   4.419   0.864  1.8074  0.2298 -1.0323
20801SOL     OW63843   6.280   4.327  11.746 -0.0729 -0.4608  1.1234
20801SOL    HW163844   6.330   4.366  11.674 -0.4190  1.1351  1.7146
20801SOL    HW263845   6.192   4.315  11.710 -0.2855  0.4759  1.2976
20802SOL     OW63846   4.838   2.388   0.991 -0.0097 -0.2548 -0.2478
20802SOL    HW163847   4.910   2.366   0.932 -0.0236  0.7552 -0.6633
20802SOL    HW263848   4.793   2.462   0.949 -0.4591  0.0193  0.6663
20803SOL     OW63849   0.274   5.842   0.637  0.3787  0.8241 -0.2768
20803SOL    HW163850   0.192   5.807   0.601 -0.0259  0.3438  1.0366
20803SOL    HW263851   0.321   5.765   0.668  0.2731  1.2694  1.0551
20804SOL     OW63852   7.478   5.333   3.037  0.2655  0.0180  0.0413
20804SOL    HW163853   7.571   5.312   3.025  0.2598 -0.2827  0.4836
20804SOL    HW263854   7.432   5.259   2.997  0.2399 -0.6469  1.2511
20805SOL     OW63855   4.904   3.778   0.936  0.4448 -0.0151  0.5806
20805SOL    HW163856   4.898   3.845   1.005 -1.8891  0.6249 -0.1350
20805SOL    HW263857   4.882   3.826   0.856 -0.0299 -1.3871 -0.1318
20806SOL     OW63858   6.377   3.671   1.199  0.3334  0.2352 -0.4227
20806SOL    HW163859   6.338   3.608   1.138  0.6458 -2.3922  1.8943
20806SOL    HW263860   6.468   3.642   1.208  0.6738  1.4590  0.1828
20807SOL     OW63861   4.855   4.724   0.403 -0.0535 -0.2019  0.3612
20807SOL    HW163862   4.784   4.774   0.443  0.0911 -0.1542  0.5602
20807SOL    HW263863   4.854   4.751   0.311 -0.9887 -1.0064  0.1142
20808SOL     OW63864   5.693   4.511   1.426 -1.1291 -0.6633 -1.0471
20808SOL    HW163865   5.768   4.453   1.411 -2.0645 -1.5513 -2.5545
20808SOL    HW263866   5.719   4.595   1.388 -0.0950 -0.3029  0.3872
20809SOL     OW63867   5.553   4.068   0.863  0.3310  0.1263  0.2300
20809SOL    HW163868   5.468   4.068   0.908  0.8860 -0.1430  1.3303
20809SOL    HW263869   5.599   4.144   0.900  0.4659  0.4472 -0.5768
20810SOL     OW63870   5.850   5.547   1.331  0.4229  0.7218  0.1821
20810SOL    HW163871   5.846   5.549   1.426 -1.8705 -1.9710  0.2670
20810SOL    HW263872   5.884   5.460   1.310 -0.4627  0.7313 -1.4437
20811SOL     OW63873   5.888   3.917   0.821  0.2347 -0.3938 -0.4702
20811SOL    HW163874   5.932   3.956   0.896 -0.7637  1.9016 -0.9756
20811SOL    HW263875   5.806   3.882   0.856 -0.5418  1.2638 -0.5085
20812SOL     OW63876   6.098   2.852   2.060 -0.3647 -0.1613 -0.6197
20812SOL    HW163877   6.006   2.831   2.040 -0.6307  0.5356 -0.1478
20812SOL    HW263878   6.109   2.942   2.030  0.2309 -0.3122 -0.8626
20813SOL     OW63879   0.190   5.371   1.625  0.1429 -0.3154  0.9023
20813SOL    HW163880   0.115   5.419   1.659 -0.0733 -1.1130  1.5778
20813SOL    HW263881   0.254   5.372   1.697  0.8704  0.5309  0.2631
20814SOL     OW63882   6.904   3.631   3.785  0.0277  0.5081 -0.2590
20814SOL    HW163883   6.901   3.650   3.691  0.0617  1.9227  0.0080
20814SOL    HW263884   6.997   3.629   3.806  0.2511 -3.2945 -0.8610
20815SOL     OW63885   6.438   4.439   0.599  0.0084 -0.3919 -0.1534
20815SOL    HW163886   6.481   4.480   0.674  2.1854 -0.7952 -1.0796
20815SOL    HW263887   6.427   4.347   0.624 -0.9441 -0.1554  0.3279
20816SOL     OW63888   4.767   4.130   1.359  0.4078  0.7382 -0.1816
20816SOL    HW163889   4.767   4.225   1.351 -0.6128  0.6761 -1.1723
20816SOL    HW263890   4.746   4.113   1.451  1.5207  1.4514  0.2251
20817SOL     OW63891   4.059   4.914   2.181 -0.1540 -0.0271 -0.0790
20817SOL    HW163892   4.130   4.862   2.218  2.7375  1.8450 -2.5704
20817SOL    HW263893   4.004   4.850   2.135  2.1359 -1.2055 -1.3539
20818SOL     OW63894   6.136   4.664  10.175 -0.5684 -0.6777  0.1553
20818SOL    HW163895   6.064   4.604  10.155 -0.5010 -0.4950 -0.6730
20818SOL    HW263896   6.191   4.661  10.097 -0.7932  0.7877 -0.0821
20819SOL     OW63897   7.337   5.511   0.084  0.1161  0.0104  0.4849
20819SOL    HW163898   7.372   5.563   0.157  1.4270 -0.0730 -0.0560
20819SOL    HW263899   7.395   5.531   0.010 -1.5804  0.6208 -0.7461
20820SOL     OW63900   6.256   5.834   1.180  0.1072 -0.3097  0.3164
20820SOL    HW163901   6.341   5.795   1.159  0.6995  1.2266 -0.3219
20820SOL    HW263902   6.193   5.763   1.171  1.0735 -1.0183 -1.1934
20821SOL     OW63903   6.888   5.119  12.431  0.3867 -0.4352 -0.1034
20821SOL    HW163904   6.901   5.041  12.377 -1.4928 -0.3953 -0.6936
20821SOL    HW263905   6.802   5.152  12.405  1.0024  1.6851  0.3339
20822SOL     OW63906   5.719   6.274   0.349 -0.0235 -0.2556  0.5401
20822SOL    HW163907   5.634   6.288   0.390  0.8799  3.2775  1.6190
20822SOL    HW263908   5.778   6.254   0.421  0.4361 -0.5252  0.0993
20823SOL     OW63909   4.568   4.515  12.072 -0.1948  0.0621  0.4995
20823SOL    HW163910   4.526   4.591  12.113 -0.5321  0.2515 -0.1800
20823SOL    HW263911   4.532   4.513  11.983  0.0280 -0.7302  0.4229
20824SOL     OW63912   6.452   4.314  12.243 -0.2090  0.2554 -0.1437
20824SOL    HW163913   6.452   4.262  12.162  0.7085  1.0834 -0.7058
20824SOL    HW263914   6.380   4.279  12.294  0.6686 -1.9200 -0.2764
20825SOL     OW63915   6.190   6.803  12.377 -0.0479  0.9907 -0.2447
20825SOL    HW163916   6.121   6.867  12.357 -1.7731  0.0499  2.2328
20825SOL    HW263917   6.173   6.730  12.318 -0.9366  0.9445  0.0546
20826SOL     OW63918   4.837   3.471   1.133 -0.5044 -0.2598 -0.0350
20826SOL    HW163919   4.885   3.398   1.093 -0.7322 -0.2837 -0.2660
20826SOL    HW263920   4.884   3.488   1.214  0.5014  0.3669 -0.7214
20827SOL     OW63921   6.703   4.097   0.627  0.7465  0.1440  0.1312
20827SOL    HW163922   6.681   4.159   0.558  1.7306  1.5130  0.9903
20827SOL    HW263923   6.661   4.016   0.600 -0.0800  1.0050 -1.3481
20828SOL     OW63924   5.805   3.444   1.257 -0.5428 -0.0734 -0.2717
20828SOL    HW163925   5.769   3.507   1.195 -1.5171  0.0753  0.4240
20828SOL    HW263926   5.866   3.391   1.205  1.7940  2.6018 -0.5011
20829SOL     OW63927   3.995   5.275   0.454  0.5078  0.6242  0.1087
20829SOL    HW163928   3.927   5.237   0.510 -0.0405  2.2749  0.6195
20829SOL    HW263929   4.012   5.208   0.388 -0.2192 -0.5922  1.1211
20830SOL     OW63930   4.690   2.591   0.367 -0.0510  0.3433 -0.0329
20830SOL    HW163931   4.723   2.595   0.277  0.3578  1.4654  0.1515
20830SOL    HW263932   4.603   2.552   0.359  0.9526 -1.9388 -0.6208
20831SOL     OW63933   6.384   3.591   0.139 -0.1478  0.4480  0.6363
20831SOL    HW163934   6.332   3.511   0.140  2.4524 -1.3970 -0.4776
20831SOL    HW263935   6.438   3.585   0.218  0.8507  0.5406 -0.0319
20832SOL     OW63936   4.770   4.591  11.661  0.1181  0.0072  0.1923
20832SOL    HW163937   4.773   4.501  11.630 -0.0367 -0.3351  1.1323
20832SOL    HW263938   4.720   4.638  11.594 -3.3715 -1.4375  1.5436
20833SOL     OW63939   6.187   4.091   2.471 -0.2566 -0.3122 -0.4599
20833SOL    HW163940   6.204   4.159   2.537  0.1505 -0.0458 -0.8303
20833SOL    HW263941   6.142   4.137   2.400  1.1506 -0.1366 -1.2742
20834SOL     OW63942   5.311   5.567   0.433  0.5314  0.2281 -0.1637
20834SOL    HW163943   5.270   5.652   0.449  1.0106  0.3848  0.2334
20834SOL    HW263944   5.238   5.505   0.436  0.3016  0.5210  0.3845
20835SOL     OW63945   5.585   7.639   1.573 -0.2006  0.2770 -0.6852
20835SOL    HW163946   5.644   7.596   1.635 -1.0368 -0.9004 -0.6769
20835SOL    HW263947   5.640   7.659   1.497  0.8494  1.7738  0.4100
20836SOL     OW63948   4.904   3.077   0.177  0.0565 -0.2754  0.0535
20836SOL    HW163949   4.880   3.014   0.110  1.3443  0.1336 -0.8296
20836SOL    HW263950   4.822   3.099   0.220 -0.5621 -1.7508 -0.3168
20837SOL     OW63951   0.292   4.438   2.286  0.1600  0.0765 -0.0341
20837SOL    HW163952   0.283   4.360   2.232 -0.3140  0.4935 -0.5701
20837SOL    HW263953   0.355   4.493   2.239  1.5401 -0.5462  1.0205
20838SOL     OW63954   7.822   5.029   0.071 -0.2853  0.1942  0.1715
20838SOL    HW163955   7.733   5.062   0.056 -0.8835 -1.1287  0.6199
20838SOL    HW263956   7.821   4.999   0.162  0.2931 -0.8119 -0.1433
20839SOL     OW63957   6.990   4.006   2.101  0.2509  0.1777 -0.3324
20839SOL    HW163958   7.015   3.914   2.108  0.1085  0.1613 -0.0379
20839SOL    HW263959   6.972   4.018   2.008 -0.5562 -0.3080 -0.2434
20840SOL     OW63960   5.998   3.601   0.239 -0.2227 -0.1642 -0.2293
20840SOL    HW163961   6.069   3.582   0.177  0.5556  2.5891 -0.3115
20840SOL    HW263962   6.035   3.580   0.325 -0.4343 -1.6640 -0.4910
20841SOL     OW63963   6.777   3.933   0.929  0.2833  0.1859  0.0067
20841SOL    HW163964   6.856   3.978   0.898  2.3895 -3.2305 -0.0598
20841SOL    HW263965   6.739   3.896   0.849 -0.2432  0.0985  0.2962
20842SOL     OW63966   4.599   5.735   2.033 -0.0594 -0.3250 -0.4077
20842SOL    HW163967   4.520   5.689   2.063  0.4552 -1.4836 -0.7728
20842SOL    HW263968   4.671   5.674   2.051  0.5121 -0.1743 -2.0036
20843SOL     OW63969   7.277   4.024   0.692 -0.7657 -0.1598 -0.3291
20843SOL    HW163970   7.219   4.070   0.753  0.6249  0.1867  0.7744
20843SOL    HW263971   7.347   4.086   0.674  0.5301 -1.3947  0.2668
20844SOL     OW63972   6.725   4.713   1.869  0.2433  0.3278  0.5435
20844SOL    HW163973   6.783   4.710   1.945 -1.3493 -0.1936  1.8169
20844SOL    HW263974   6.676   4.795   1.880 -2.4482 -1.3129  2.1167
20845SOL     OW63975   5.985   6.167   0.811  0.4344 -0.1603  0.2989
20845SOL    HW163976   6.053   6.205   0.755 -0.0624  0.7742  0.3178
20845SOL    HW263977   6.007   6.197   0.899  0.3190 -0.3400  0.3897
20846SOL     OW63978   4.357   4.555  11.723 -0.2259 -0.2977 -0.0261
20846SOL    HW163979   4.419   4.613  11.767  1.1403 -0.8311 -1.1512
20846SOL    HW263980   4.359   4.584  11.631 -1.8946 -0.1391 -0.0396
20847SOL     OW63981   5.153   4.308   0.021  0.2029 -0.0009 -0.3957
20847SOL    HW163982   5.155   4.324  -0.073 -2.4488  0.1448 -0.5010
20847SOL    HW263983   5.093   4.234   0.032  0.0722  0.2972  1.1807
20848SOL     OW63984   0.053   4.221   2.380 -0.4337 -0.3882  0.1803
20848SOL    HW163985   0.119   4.231   2.449 -1.2074  2.2879  0.6539
20848SOL    HW263986  -0.016   4.168   2.420 -0.5714  0.5774  1.3182
20849SOL     OW63987   6.255   4.049   1.859  0.2808 -0.2462 -0.1209
20849SOL    HW163988   6.163   4.057   1.886  0.8771 -1.5206  2.5351
20849SOL    HW263989   6.275   4.135   1.820 -2.1249 -0.0949 -1.2251
20850SOL     OW63990   5.351   3.883  12.096 -0.2743 -0.3166  0.1486
20850SOL    HW163991   5.445   3.866  12.084 -0.2918 -0.7404  0.5736
20850SOL    HW263992   5.347   3.969  12.136 -0.1652  0.6151 -1.7341
20851SOL     OW63993   6.140   5.523   0.568  0.3370 -0.4403 -0.2029
20851SOL    HW163994   6.077   5.557   0.504  0.2509 -2.8350 -1.4981
20851SOL    HW263995   6.225   5.556   0.538  0.1573 -0.5638 -0.8575
20852SOL     OW63996   6.661   3.456  11.779 -0.3924 -0.1702 -0.0141
20852SOL    HW163997   6.576   3.429  11.812 -0.1806 -0.0572  0.6559
20852SOL    HW263998   6.717   3.460  11.857  0.6416 -1.7276 -0.6222
20853SOL     OW63999   6.573   3.391   1.066  0.3645  0.2570  0.7793
20853SOL    HW164000   6.591   3.399   0.972 -0.4802  0.1494  0.5943
20853SOL    HW264001   6.478   3.377   1.070  0.7185 -2.4146  1.4767
20854SOL     OW64002   6.976   4.095   0.581 -0.2485 -0.1414 -0.0237
20854SOL    HW164003   6.881   4.107   0.585 -0.3878 -0.9948 -0.5843
20854SOL    HW264004   7.006   4.118   0.669 -0.8697  0.9150 -0.0644
20855SOL     OW64005   5.902   5.564   0.391 -0.2655 -0.7233 -0.5227
20855SOL    HW164006   5.854   5.537   0.469 -2.1682  0.6430 -1.1683
20855SOL    HW264007   5.836   5.567   0.322  0.8568  0.6692 -1.5825
20856SOL     OW64008   5.798   2.123   0.527 -0.4254 -0.7537 -0.4885
20856SOL    HW164009   5.769   2.068   0.454 -1.4391 -1.5628  0.4831
20856SOL    HW264010   5.767   2.210   0.505 -2.7150 -1.3829 -0.0372
20857SOL     OW64011   5.206   4.372   0.543  0.4869  0.3807 -0.0573
20857SOL    HW164012   5.175   4.446   0.491 -0.2174  0.2772  0.2018
20857SOL    HW264013   5.142   4.363   0.613  1.2653  0.3401  0.6771
20858SOL     OW64014   5.660   3.969   1.607  0.4484 -0.0024 -0.2345
20858SOL    HW164015   5.666   3.874   1.619 -1.4127 -0.0966  0.2487
20858SOL    HW264016   5.612   3.981   1.525  0.6705  0.5464 -0.2959
20859SOL     OW64017   6.577   4.571  11.923 -0.2320  0.3971 -0.2875
20859SOL    HW164018   6.577   4.648  11.979  2.2509 -0.2580  0.7537
20859SOL    HW264019   6.573   4.497  11.983  0.2775 -0.3011 -1.0874
20860SOL     OW64020   5.385   4.068  12.468 -0.3606 -0.0545 -0.1575
20860SOL    HW164021   5.414   4.129  12.535 -0.2681 -0.8443  0.5396
20860SOL    HW264022   5.434   3.987  12.486 -2.3347 -1.1644  0.5415
20861SOL     OW64023   5.877   6.093   0.538  0.5992  0.0649  0.2243
20861SOL    HW164024   5.811   6.025   0.526 -0.3864  1.2926 -2.0478
20861SOL    HW264025   5.885   6.104   0.632 -1.0747 -1.4225  0.5721
20862SOL     OW64026   6.099   4.465  11.569  0.1469  0.1858 -0.3377
20862SOL    HW164027   6.067   4.556  11.570 -1.0777 -0.0829  3.5897
20862SOL    HW264028   6.023   4.413  11.595  1.5714 -1.6011  0.4483
20863SOL     OW64029   6.543   3.561   0.357 -0.2587  0.1958 -0.2283
20863SOL    HW164030   6.627   3.515   0.363 -0.2792 -0.0676 -1.5348
20863SOL    HW264031   6.566   3.650   0.329 -0.2047  1.1155  2.4848
20864SOL     OW64032   6.113   5.374   4.030  0.7756 -0.1632 -0.1408
20864SOL    HW164033   6.170   5.450   4.042 -0.2518  0.4632  0.9028
20864SOL    HW264034   6.084   5.351   4.118  1.4962 -2.1343 -0.3705
20865SOL     OW64035   4.020   5.467   2.363  0.6687  0.1298 -0.2048
20865SOL    HW164036   4.005   5.547   2.414 -0.6375 -0.4368  0.3367
20865SOL    HW264037   4.070   5.410   2.421  2.8593  1.0446 -1.0944
20866SOL     OW64038   6.301   6.709   2.771  0.1983 -0.3014  0.5183
20866SOL    HW164039   6.336   6.672   2.851 -0.6283 -2.1912  0.0664
20866SOL    HW264040   6.349   6.790   2.759  0.9419 -0.4008  2.4521
20867SOL     OW64041   5.125   4.899   1.575 -0.1067 -0.2240 -0.8663
20867SOL    HW164042   5.088   4.980   1.609  2.3496  1.1591 -1.2527
20867SOL    HW264043   5.080   4.830   1.624  0.1346  1.4958  2.0552
20868SOL     OW64044   4.819   4.461  12.393  0.1236  0.2402 -0.0645
20868SOL    HW164045   4.751   4.423  12.338 -0.2064 -1.5557  1.4865
20868SOL    HW264046   4.898   4.410  12.372  0.0255 -0.3735  0.9818
20869SOL     OW64047   6.333   3.150   0.235 -0.0550  0.5447  0.4183
20869SOL    HW164048   6.322   3.119   0.146  0.5179  2.4399 -0.3566
20869SOL    HW264049   6.427   3.165   0.244 -0.2242  1.3771  0.9567
20870SOL     OW64050   6.207   4.985   2.505 -0.3298 -0.0537  0.9195
20870SOL    HW164051   6.186   4.897   2.535 -0.0214 -0.5290 -0.2213
20870SOL    HW264052   6.236   4.974   2.414 -2.4059  1.4478 -0.0157
20871SOL     OW64053   6.843   5.105   0.685 -0.1755  0.4001  0.0101
20871SOL    HW164054   6.882   5.184   0.721  0.1272  0.6299 -0.8040
20871SOL    HW264055   6.870   5.104   0.593 -2.8616  1.1089 -0.8940
20872SOL     OW64056   7.025   5.227   1.300 -0.1943 -0.1731  0.1930
20872SOL    HW164057   7.080   5.306   1.302  0.5910 -0.6368 -1.1939
20872SOL    HW264058   6.997   5.215   1.390  3.0347 -0.6118  1.2614
20873SOL     OW64059   0.303   5.650   1.266 -0.2174 -0.1241 -0.1364
20873SOL    HW164060   0.307   5.732   1.316 -2.2496  0.0157 -0.1334
20873SOL    HW264061   0.344   5.585   1.324 -0.8149  0.4116  0.9156
20874SOL     OW64062   4.644   6.569   1.538  0.1284 -0.0390  0.2104
20874SOL    HW164063   4.626   6.481   1.569  2.9441 -1.2159 -1.1485
20874SOL    HW264064   4.622   6.567   1.445 -0.3422  0.9043  0.2869
20875SOL     OW64065   5.912   6.680   1.604 -0.5381  0.3964  0.2019
20875SOL    HW164066   5.883   6.760   1.560 -0.1021 -0.1738 -1.1683
20875SOL    HW264067   5.990   6.653   1.556 -0.3085 -0.5017  1.0572
20876SOL     OW64068   5.679   2.007   0.303  0.0627 -0.1118 -0.2105
20876SOL    HW164069   5.673   1.913   0.320 -1.7694  0.1436  0.8092
20876SOL    HW264070   5.588   2.035   0.292  0.6226  1.4397 -1.1549
20877SOL     OW64071   5.888   5.143   0.742 -0.2916 -0.3627  0.0427
20877SOL    HW164072   5.832   5.080   0.697  0.1764  1.3726 -3.2349
20877SOL    HW264073   5.975   5.102   0.741 -0.6389 -1.2064  1.3256
20878SOL     OW64074   6.625   3.830   0.609  0.3685 -1.0297 -0.1773
20878SOL    HW164075   6.588   3.797   0.691  2.4384 -1.5469  0.6140
20878SOL    HW264076   6.706   3.780   0.598  2.3207  1.9329 -0.3258
20879SOL     OW64077   6.984   3.029  11.963 -0.6015  0.0403  0.2800
20879SOL    HW164078   6.956   3.085  12.035 -0.0942  0.7140 -0.0420
20879SOL    HW264079   6.907   2.975  11.944 -1.4483  1.3418 -0.1030
20880SOL     OW64080   5.240   5.042   1.099  0.4750 -0.0811 -0.3413
20880SOL    HW164081   5.247   5.012   1.189 -0.4039 -0.5701 -0.4274
20880SOL    HW264082   5.329   5.070   1.076  0.5007  0.9846  0.9823
20881SOL     OW64083   6.912   3.727   2.738 -0.4267 -0.4077 -0.5117
20881SOL    HW164084   6.947   3.682   2.815 -0.0111 -1.6572 -1.4059
20881SOL    HW264085   6.990   3.760   2.693 -0.7194  1.3313  0.1515
20882SOL     OW64086   6.821   2.054   1.952 -0.2922  0.1432  0.0843
20882SOL    HW164087   6.860   2.017   2.032 -0.4790 -1.3450 -0.4832
20882SOL    HW264088   6.731   2.023   1.953 -0.6670  1.1768 -0.0893
20883SOL     OW64089   5.006   5.131   1.667  0.6121 -0.2382 -0.1601
20883SOL    HW164090   4.943   5.153   1.736  0.7478 -0.8392  0.1602
20883SOL    HW264091   5.017   5.213   1.618 -0.2969 -0.0857 -0.1294
20884SOL     OW64092   6.578   5.277   2.409 -0.1283  0.2452  0.0948
20884SOL    HW164093   6.503   5.284   2.468 -1.4588 -0.3720 -1.4440
20884SOL    HW264094   6.629   5.204   2.444 -0.6132  0.2256  0.7831
20885SOL     OW64095   5.460   5.362  12.338  0.9295  0.4795 -0.4116
20885SOL    HW164096   5.441   5.397  12.251  1.3232  0.4208 -0.5223
20885SOL    HW264097   5.491   5.438  12.388 -0.5952  0.8100  0.0935
20886SOL     OW64098   7.284   3.247   2.170 -0.7181  0.0945  0.4022
20886SOL    HW164099   7.346   3.223   2.239 -1.1613 -0.9791  0.4528
20886SOL    HW264100   7.210   3.188   2.183 -1.2190  0.5241 -0.4134
20887SOL     OW64101   5.994   3.904  12.331  0.1232  0.1859  0.2520
20887SOL    HW164102   6.059   3.835  12.342  0.1299  0.2343  0.5405
20887SOL    HW264103   6.045   3.985  12.329  0.0320  0.2830  1.1783
20888SOL     OW64104   7.237   4.066   2.411 -0.3459  0.1478  0.2895
20888SOL    HW164105   7.269   3.990   2.364  2.3725  0.5149  1.3276
20888SOL    HW264106   7.198   4.122   2.344  0.3782 -0.8103 -0.9642
20889SOL     OW64107   5.917   6.265   3.428 -0.3419 -0.1290  0.4711
20889SOL    HW164108   5.895   6.174   3.409 -1.1344 -0.3407  2.2022
20889SOL    HW264109   5.872   6.315   3.360  0.0998 -1.0062 -0.4924
20890SOL     OW64110   5.577   3.682  12.324  0.2670  0.1127 -0.1513
20890SOL    HW164111   5.574   3.600  12.276  0.4149  0.1316 -0.1911
20890SOL    HW264112   5.663   3.719  12.303  0.3875  0.0543  0.2378
20891SOL     OW64113   7.912   5.064   1.637 -0.2645 -0.4535  0.5512
20891SOL    HW164114   8.001   5.029   1.626 -0.0386 -0.3410  1.8663
20891SOL    HW264115   7.869   5.046   1.553  0.7924 -1.1137  0.1257
20892SOL     OW64116   5.784   4.185   2.081 -0.4631  0.0015  0.3979
20892SOL    HW164117   5.767   4.273   2.115 -2.4585  0.0708 -0.6497
20892SOL    HW264118   5.700   4.155   2.047  0.7013 -1.3425 -1.4967
20893SOL     OW64119   6.453   4.000  12.496 -0.0439 -1.0131 -0.4863
20893SOL    HW164120   6.425   4.018  12.406  0.7355 -0.5018 -0.6323
20893SOL    HW264121   6.376   3.962  12.538 -1.2346  1.1541 -0.6193
20894SOL     OW64122   7.235   4.618   0.053  0.4057  0.2239  0.1075
20894SOL    HW164123   7.146   4.616   0.019  0.7639 -0.7767 -0.8168
20894SOL    HW264124   7.289   4.642  -0.022  1.0695 -0.6625  0.2864
20895SOL     OW64125   6.587   5.610   1.421 -0.3516 -0.3709 -0.6522
20895SOL    HW164126   6.673   5.591   1.458 -0.6466  0.0769  0.2905
20895SOL    HW264127   6.552   5.524   1.397 -0.5726 -0.7931  1.0796
20896SOL     OW64128   7.023   4.897   0.186 -0.2513 -0.0972  0.1009
20896SOL    HW164129   7.018   4.992   0.171 -1.2482  0.1601  1.7884
20896SOL    HW264130   6.966   4.859   0.119  0.7545  0.4034 -1.0817
20897SOL     OW64131   6.333   3.960   0.962 -0.3411 -0.1008  0.4099
20897SOL    HW164132   6.287   3.957   1.046 -1.5648  0.4121 -0.2031
20897SOL    HW264133   6.393   4.035   0.970 -0.6877  0.1485  0.7229
20898SOL     OW64134   6.852   4.399   0.835  0.5888 -0.0088  0.4388
20898SOL    HW164135   6.880   4.444   0.915  0.3961  0.5710  0.1825
20898SOL    HW264136   6.880   4.457   0.764  0.6989 -0.4921  0.0883
20899SOL     OW64137   7.191   5.793   0.061 -0.5746  0.2298  0.2362
20899SOL    HW164138   7.130   5.768   0.130 -0.1017 -1.1680  0.1796
20899SOL    HW264139   7.236   5.870   0.095  0.5344 -1.1361  2.0630
20900SOL     OW64140   6.991   5.830   1.193  0.1447 -0.1913 -0.3190
20900SOL    HW164141   7.044   5.783   1.257 -0.4108  0.2303  0.4853
20900SOL    HW264142   6.902   5.799   1.208  0.0647 -0.3879 -1.1769
20901SOL     OW64143   5.116   4.255   1.148  0.0942  0.1239  0.3090
20901SOL    HW164144   5.033   4.261   1.102 -1.1516  1.1946  2.5154
20901SOL    HW264145   5.154   4.342   1.141  1.2757 -0.4655 -1.0252
20902SOL     OW64146   6.234   3.931   0.152  0.2689  0.0748  0.1390
20902SOL    HW164147   6.200   4.019   0.164 -0.7509 -0.0964 -1.2332
20902SOL    HW264148   6.276   3.910   0.235 -0.7934  1.2753  1.0227
20903SOL     OW64149   7.495   5.047   1.809  0.2524 -0.0330 -0.0342
20903SOL    HW164150   7.420   5.017   1.860  2.0087  1.2292  3.7108
20903SOL    HW264151   7.570   5.003   1.849  1.9664  2.5312 -0.1871
20904SOL     OW64152   5.961   4.901   2.824  0.1980  0.4403 -0.5547
20904SOL    HW164153   6.045   4.857   2.838  1.1684  1.8778 -1.6504
20904SOL    HW264154   5.983   4.984   2.782 -1.8505  0.4034 -1.8445
20905SOL     OW64155   4.247   5.189   1.970 -0.0983 -0.4415 -0.3340
20905SOL    HW164156   4.177   5.174   2.035 -0.6406  1.0008 -0.5486
20905SOL    HW264157   4.213   5.259   1.914  1.9264  1.0204  0.1654
20906SOL     OW64158   4.732   4.535   1.951 -0.6118 -0.4553 -0.1562
20906SOL    HW164159   4.771   4.486   1.878 -0.5094 -1.6624  0.6864
20906SOL    HW264160   4.657   4.482   1.978  0.3950 -0.9769  1.7840
20907SOL     OW64161   6.593   3.807   1.509 -0.0156 -0.2177 -0.1847
20907SOL    HW164162   6.685   3.817   1.487 -0.3404 -1.1168 -2.1887
20907SOL    HW264163   6.551   3.886   1.475 -0.0873 -0.1815 -0.0121
20908SOL     OW64164   5.740   2.868   2.186  0.3035 -0.0098  0.1101
20908SOL    HW164165   5.721   2.941   2.245  2.6368 -0.0160  0.9831
20908SOL    HW264166   5.783   2.803   2.242  1.3369 -0.6005 -1.3044
20909SOL     OW64167   6.695   3.941   2.365  0.1708  0.6593  0.4735
20909SOL    HW164168   6.611   3.988   2.358 -1.4819 -1.4993  3.4817
20909SOL    HW264169   6.685   3.867   2.305 -0.0396  0.4404  0.7792
20910SOL     OW64170   6.008   4.774   2.320  0.1623 -0.4630  0.7899
20910SOL    HW164171   6.072   4.793   2.251  1.2037 -1.9489  1.2752
20910SOL    HW264172   5.946   4.846   2.316  2.0344  1.2405  0.4754
20911SOL     OW64173   6.423   3.995   1.354 -0.2488  0.0249 -0.1096
20911SOL    HW164174   6.340   3.966   1.315 -0.1879  0.5857 -0.6837
20911SOL    HW264175   6.490   3.967   1.291 -0.1785  1.2401 -0.6140
20912SOL     OW64176   6.536   2.774   0.446 -0.8714  1.0766 -0.0301
20912SOL    HW164177   6.502   2.693   0.485 -0.3814  0.5612 -0.6643
20912SOL    HW264178   6.548   2.753   0.354 -1.7032  2.1828 -0.4165
20913SOL     OW64179   5.420   5.662   2.044 -0.0373 -0.1386  0.8026
20913SOL    HW164180   5.371   5.580   2.040 -1.2454  0.5851 -0.0542
20913SOL    HW264181   5.493   5.644   2.103  0.0689 -2.0009  0.1745
20914SOL     OW64182   7.249   3.613  12.283  0.1205 -0.3938  0.4047
20914SOL    HW164183   7.293   3.555  12.344  3.0640  0.6822 -0.5215
20914SOL    HW264184   7.251   3.566  12.199  1.3271  0.4444 -0.0614
20915SOL     OW64185   6.611   6.627   2.168 -0.2717 -0.3805  0.2597
20915SOL    HW164186   6.561   6.668   2.098 -0.0158  2.5202  1.6095
20915SOL    HW264187   6.548   6.572   2.214 -1.1463 -0.0694 -0.5509
20916SOL     OW64188   6.280   3.234   0.737  0.5802  0.1438 -0.0278
20916SOL    HW164189   6.371   3.205   0.730  0.6361  0.6900 -2.1332
20916SOL    HW264190   6.265   3.284   0.657 -2.0833 -1.3021 -0.5277
20917SOL     OW64191   6.353   2.720   1.927 -0.0592  0.5428 -0.1830
20917SOL    HW164192   6.269   2.766   1.923 -0.0281  0.5809 -0.4002
20917SOL    HW264193   6.400   2.764   1.998 -0.6229 -0.1629  0.6665
20918SOL     OW64194   7.156   3.775   1.019  0.1607  0.0970 -0.2689
20918SOL    HW164195   7.163   3.788   0.924 -1.7553 -0.6800 -0.5599
20918SOL    HW264196   7.120   3.687   1.029 -0.0321  0.3081  1.1765
20919SOL     OW64197   4.323   3.288   1.360 -0.2316  0.1587  0.8290
20919SOL    HW164198   4.288   3.207   1.324  2.3934 -0.5677 -0.3456
20919SOL    HW264199   4.354   3.263   1.447 -0.1623  0.1035  0.7887
20920SOL     OW64200   7.325   5.420   1.921 -0.0212  0.1112  0.3241
20920SOL    HW164201   7.341   5.364   1.846 -0.5037 -0.3239  0.5389
20920SOL    HW264202   7.335   5.509   1.888  0.6466 -0.0940 -0.0436
20921SOL     OW64203   7.895   6.046   1.649 -0.3611  0.1995  0.1939
20921SOL    HW164204   7.923   6.128   1.689  0.7415  0.1336 -0.3911
20921SOL    HW264205   7.845   6.001   1.717  0.8310  0.4130  1.2391
20922SOL     OW64206   4.039   4.590   0.247 -0.1298  0.4231 -0.0402
20922SOL    HW164207   3.953   4.631   0.251 -0.4481 -0.1022 -1.1332
20922SOL    HW264208   4.057   4.563   0.337 -0.1213  2.4893  0.6218
20923SOL     OW64209   4.472   6.516   2.457 -0.2682  0.2019 -0.7344
20923SOL    HW164210   4.410   6.533   2.386 -1.1504 -0.6405 -0.1920
20923SOL    HW264211   4.446   6.578   2.526 -1.3309 -0.9775 -0.0371
20924SOL     OW64212   4.498   3.950  11.361 -0.8555 -0.0711 -0.0549
20924SOL    HW164213   4.592   3.934  11.348 -0.4745  1.2564  0.7811
20924SOL    HW264214   4.463   3.866  11.390 -0.0099 -0.6962 -0.7869
20925SOL     OW64215   0.014   2.506  11.800  0.0688  0.6695 -0.3127
20925SOL    HW164216  -0.069   2.473  11.767  0.0623 -0.5486  0.8093
20925SOL    HW264217   0.054   2.430  11.844  1.2985  1.4956  0.0554
20926SOL     OW64218   4.125   4.164   0.164 -0.5082 -0.5369  0.2263
20926SOL    HW164219   4.087   4.241   0.123 -0.2331  0.0062  0.9754
20926SOL    HW264220   4.209   4.193   0.198 -1.3224 -0.5604  2.4422
20927SOL     OW64221   6.766   6.193   1.819  0.2043  0.6736  0.8402
20927SOL    HW164222   6.846   6.198   1.766  0.5048 -0.7334  1.1196
20927SOL    HW264223   6.779   6.115   1.873 -1.0793  0.8127  1.3610
20928SOL     OW64224   6.330   5.546   2.111 -0.3133  0.2818  0.1214
20928SOL    HW164225   6.296   5.573   2.026  0.4013  0.1450 -0.2120
20928SOL    HW264226   6.259   5.565   2.172  0.4974  4.1322  0.1282
20929SOL     OW64227   0.113   3.571   1.629 -0.2447  0.4157 -0.1429
20929SOL    HW164228   0.104   3.652   1.678  1.5281  0.2616  0.5153
20929SOL    HW264229   0.054   3.581   1.555  0.3144  2.5459 -0.3749
20930SOL     OW64230   4.715   5.386   0.232  0.2672 -0.1527  0.2376
20930SOL    HW164231   4.679   5.302   0.202  1.1652 -0.4704  0.0351
20930SOL    HW264232   4.637   5.439   0.253 -0.3426 -0.6040 -0.7992
20931SOL     OW64233   6.910   6.174  11.583 -0.3815  0.2827  0.1199
20931SOL    HW164234   6.921   6.135  11.496  0.7202 -0.1518  0.4460
20931SOL    HW264235   6.832   6.230  11.574 -1.0953 -0.8156 -0.7629
20932SOL     OW64236   7.100   4.787   0.772  0.2109  0.5715  0.4455
20932SOL    HW164237   7.049   4.811   0.694 -2.1512 -0.9647  1.4293
20932SOL    HW264238   7.128   4.698   0.756  2.1387  1.1773  0.2152
20933SOL     OW64239   3.859   3.687  12.477 -0.2074  0.2578  0.2396
20933SOL    HW164240   3.838   3.666  12.567 -0.9031  0.9081  0.2374
20933SOL    HW264241   3.774   3.697  12.433 -0.0115 -3.4049 -1.3567
20934SOL     OW64242   5.480   4.935  12.381  0.3037  0.3341  0.3823
20934SOL    HW164243   5.452   4.877  12.452 -0.5377 -0.9695 -0.9503
20934SOL    HW264244   5.409   4.998  12.373 -0.2995 -0.4022 -0.2242
20935SOL     OW64245   6.588   4.088   1.800  0.6704  0.0091 -0.0322
20935SOL    HW164246   6.512   4.127   1.757 -0.5950 -0.6710  1.5195
20935SOL    HW264247   6.658   4.153   1.789 -0.2654  0.8773 -1.0114
20936SOL     OW64248   6.938   3.390   2.020  0.5695  0.4300 -0.4531
20936SOL    HW164249   6.881   3.433   1.956 -0.7043 -0.5389 -0.0150
20936SOL    HW264250   7.026   3.420   1.998  0.1689  0.1592 -2.6196
20937SOL     OW64251   5.644   6.103   0.139 -0.2362 -0.3943 -0.3923
20937SOL    HW164252   5.681   6.182   0.179 -1.2671  0.5163 -1.1601
20937SOL    HW264253   5.569   6.135   0.088  0.5196 -1.6016 -2.3852
20938SOL     OW64254   4.597   5.116   1.641 -0.2410  0.3605 -0.1057
20938SOL    HW164255   4.624   5.044   1.698  1.7117  1.8143  0.9299
20938SOL    HW264256   4.549   5.175   1.699 -1.8956 -0.0881 -0.9604
20939SOL     OW64257   7.458   5.807   2.426  0.3099  0.1075  0.5962
20939SOL    HW164258   7.381   5.854   2.458  0.6233  0.5349  0.7230
20939SOL    HW264259   7.531   5.842   2.476  0.7789  0.6273 -0.4141
20940SOL     OW64260   6.217   3.815   0.502 -0.2144 -0.2159  0.0998
20940SOL    HW164261   6.184   3.828   0.591  0.6588 -1.2073  0.5865
20940SOL    HW264262   6.193   3.725   0.480  0.1287 -0.1852 -0.4212
20941SOL     OW64263   6.248   3.407   1.322  0.0777  0.1800  0.3599
20941SOL    HW164264   6.285   3.405   1.234 -0.1935  0.9231  0.2286
20941SOL    HW264265   6.162   3.366   1.314 -1.1107  2.6497 -0.2841
20942SOL     OW64266   5.880   3.830   1.315 -0.1143  0.1998 -0.4384
20942SOL    HW164267   5.919   3.744   1.321 -0.9887 -0.2341 -0.7782
20942SOL    HW264268   5.795   3.821   1.359 -0.1971  0.8976 -0.4333
20943SOL     OW64269   7.233   4.272  12.286 -0.0383 -0.4226 -0.1560
20943SOL    HW164270   7.223   4.257  12.380 -1.0266  0.4263 -0.0981
20943SOL    HW264271   7.192   4.358  12.271  0.7081 -0.2372 -1.2552
20944SOL     OW64272   6.154   4.826   2.093 -0.4144 -0.3642 -0.0127
20944SOL    HW164273   6.128   4.856   2.006 -0.8109 -0.1324  0.1811
20944SOL    HW264274   6.198   4.743   2.078 -1.9300 -1.1474 -0.2865
20945SOL     OW64275   7.360   4.896   2.748  0.0882  0.0218  0.3863
20945SOL    HW164276   7.379   4.985   2.721  0.7479  0.0368  0.8718
20945SOL    HW264277   7.281   4.903   2.802 -0.4121  0.1773 -0.3570
20946SOL     OW64278   7.598   3.499   2.540  0.0255 -0.5798 -0.2068
20946SOL    HW164279   7.630   3.542   2.460 -0.5866 -0.6563 -0.5029
20946SOL    HW264280   7.503   3.496   2.529 -0.1121 -0.1144  0.7728
20947SOL     OW64281   0.095   4.978   0.329 -0.5506 -0.1366  0.2719
20947SOL    HW164282   0.066   5.000   0.418 -0.9395  0.0389  0.1025
20947SOL    HW264283   0.040   4.904   0.304 -1.3845  0.6690 -0.3375
20948SOL     OW64284   3.563   4.010  11.278  0.3000  0.4466  0.4010
20948SOL    HW164285   3.556   3.934  11.221  0.6775  0.3391  0.4954
20948SOL    HW264286   3.657   4.017  11.298  0.1874  0.5415  0.9241
20949SOL     OW64287   6.408   4.140   1.621  0.0348  0.2508 -0.4320
20949SOL    HW164288   6.393   4.082   1.546 -2.3774  0.0237  0.1675
20949SOL    HW264289   6.352   4.216   1.604 -0.5336  0.2071  1.1351
20950SOL     OW64290   6.310   3.391   1.067 -0.2656  0.0568  0.0077
20950SOL    HW164291   6.266   3.422   0.988 -0.5618 -2.9867 -1.1509
20950SOL    HW264292   6.297   3.296   1.066  1.0136 -0.2486  2.9561
20951SOL     OW64293   0.699   5.387   1.753  0.4747 -0.0336 -0.7905
20951SOL    HW164294   0.658   5.314   1.799 -1.8728  0.3768 -2.0453
20951SOL    HW264295   0.686   5.463   1.810 -0.5241  0.0763 -1.1394
20952SOL     OW64296   7.034   4.109   0.850  0.3092  0.1527 -0.5869
20952SOL    HW164297   6.956   4.159   0.874  0.4149 -0.2929  0.7519
20952SOL    HW264298   7.096   4.125   0.921  0.9652 -0.5320 -0.9890
20953SOL     OW64299   5.273   5.739  12.238  0.2163  0.5060  0.4075
20953SOL    HW164300   5.222   5.688  12.302 -1.6684  0.1844 -1.2675
20953SOL    HW264301   5.213   5.807  12.208  1.0484  0.6337 -1.0525
20954SOL     OW64302   5.916   7.965   2.917 -0.4733  0.1092  0.2530
20954SOL    HW164303   6.000   7.946   2.876 -0.4816 -0.9186  0.6925
20954SOL    HW264304   5.912   8.061   2.920  0.8237  0.1700  0.5365
20955SOL     OW64305   6.132   3.817   0.767 -0.0258  0.0103 -0.5508
20955SOL    HW164306   6.184   3.869   0.828 -0.5905  0.3281 -0.3255
20955SOL    HW264307   6.042   3.849   0.779 -0.4659 -1.3321 -0.0645
20956SOL     OW64308   6.228   3.778  12.082  0.0074  0.5272  1.0007
20956SOL    HW164309   6.237   3.836  12.007 -1.4433 -0.5633 -0.0615
20956SOL    HW264310   6.319   3.759  12.108  0.5183  1.5888  0.0822
20957SOL     OW64311   5.757   4.972   0.593  0.2157 -0.5908  0.4039
20957SOL    HW164312   5.762   5.026   0.514 -0.1452 -1.4182 -0.1879
20957SOL    HW264313   5.663   4.958   0.606  0.1708  0.7185  1.8027
20958SOL     OW64314   7.852   2.573   1.599  0.4145  0.3313  0.5824
20958SOL    HW164315   7.922   2.622   1.556  0.1860  2.1923  2.2173
20958SOL    HW264316   7.880   2.481   1.592  1.5438  0.7639 -1.3525
20959SOL     OW64317   6.916   4.127   2.357  0.3129  0.4012 -0.1896
20959SOL    HW164318   6.836   4.074   2.358  1.8965 -2.1404  1.3560
20959SOL    HW264319   6.952   4.113   2.269  0.7112 -1.2192  0.1915
20960SOL     OW64320   5.209   2.727   0.068 -0.0884 -0.6483  0.0153
20960SOL    HW164321   5.221   2.705   0.161  0.8530 -1.9568 -0.3804
20960SOL    HW264322   5.182   2.818   0.068 -1.2524 -0.9413  1.6480
20961SOL     OW64323   6.416   4.921   0.149  0.1425  0.1263  0.4858
20961SOL    HW164324   6.366   4.943   0.070  0.0469  1.0957  0.7972
20961SOL    HW264325   6.493   4.978   0.145 -0.1778  0.6435  1.3939
20962SOL     OW64326   5.435   5.890   1.677 -0.5243 -0.5000  0.1027
20962SOL    HW164327   5.380   5.958   1.639 -0.6092 -0.2125  0.7239
20962SOL    HW264328   5.499   5.869   1.609 -0.6297  0.0476 -0.1688
20963SOL     OW64329   7.475   5.699  12.415 -0.3026 -0.4789 -0.3223
20963SOL    HW164330   7.384   5.712  12.440 -0.4332  0.4358 -1.2203
20963SOL    HW264331   7.493   5.768  12.352  0.6291 -1.4136 -1.1302
20964SOL     OW64332   7.561   5.496  12.243 -0.0825 -0.9684  0.0022
20964SOL    HW164333   7.545   5.574  12.297 -0.3082 -1.7931  1.1562
20964SOL    HW264334   7.474   5.460  12.227 -0.0437 -0.5954 -1.1646
20965SOL     OW64335   5.066   4.867   2.920 -0.6762  0.4748  0.1046
20965SOL    HW164336   5.053   4.842   3.012  0.1738 -0.8095 -0.0934
20965SOL    HW264337   4.985   4.839   2.876 -1.0059  0.9188  0.4138
20966SOL     OW64338   3.941   3.503   0.658 -0.2745  0.0289 -0.0679
20966SOL    HW164339   3.934   3.535   0.568  0.5311  1.7685  0.4419
20966SOL    HW264340   3.854   3.517   0.696 -0.1134  1.0498 -0.0519
20967SOL     OW64341   7.834   3.883   2.670  0.0191  0.6729 -0.1453
20967SOL    HW164342   7.834   3.810   2.732 -0.4060  1.4344  0.7857
20967SOL    HW264343   7.744   3.918   2.674  0.9889  3.3592  2.0588
20968SOL     OW64344   0.229   2.606   2.542  0.6426 -0.0139  0.4353
20968SOL    HW164345   0.196   2.694   2.527  1.9603  0.5872  0.9550
20968SOL    HW264346   0.189   2.554   2.472  0.5079  1.1639 -0.3984
20969SOL     OW64347   5.224   3.931  11.618  0.0099 -0.3569  0.4142
20969SOL    HW164348   5.219   3.915  11.712  0.9524 -0.7173  0.4106
20969SOL    HW264349   5.284   3.864  11.585 -0.2278 -0.1698 -0.4320
20970SOL     OW64350   6.869   3.728   2.054  0.0830  0.2551 -0.6778
20970SOL    HW164351   6.773   3.726   2.060  0.1499  0.6725  0.7765
20970SOL    HW264352   6.886   3.791   1.984 -0.7004  0.5744 -0.6022
20971SOL     OW64353   6.290   2.664   3.071  0.1910 -0.1818  0.4006
20971SOL    HW164354   6.196   2.649   3.084  0.7430 -2.8661  2.1495
20971SOL    HW264355   6.320   2.704   3.153  0.7743 -0.4644  0.3334
20972SOL     OW64356   7.328   4.962   0.503 -0.2339 -0.2771 -0.0878
20972SOL    HW164357   7.287   4.887   0.459  1.4019 -0.0678 -2.1098
20972SOL    HW264358   7.269   4.982   0.576 -1.2030 -2.9187 -0.0352
20973SOL     OW64359   5.393   3.077   1.877  0.3647  0.3838 -0.5291
20973SOL    HW164360   5.412   3.009   1.941 -2.6317  1.0083  1.2122
20973SOL    HW264361   5.421   3.158   1.920  1.2576  0.5549 -1.3907
20974SOL     OW64362   6.616   3.832   1.781 -0.5431 -0.2116 -0.4849
20974SOL    HW164363   6.604   3.805   1.690 -2.6320  0.8917 -0.5756
20974SOL    HW264364   6.578   3.920   1.786  2.8825  1.3847  0.6173
20975SOL     OW64365   5.353   3.450   0.830 -0.4353  0.4267 -0.2324
20975SOL    HW164366   5.392   3.400   0.902  0.0502 -0.7677 -1.2765
20975SOL    HW264367   5.400   3.533   0.829  0.1592  0.1019  0.2766
20976SOL     OW64368   5.682   7.706   2.595  0.7538 -0.1243 -0.4807
20976SOL    HW164369   5.644   7.726   2.509  0.6346  0.4746 -0.2921
20976SOL    HW264370   5.608   7.674   2.647  0.6576  0.2997 -0.3521
20977SOL     OW64371   7.054   2.746   1.964  0.0014  0.1792  0.1511
20977SOL    HW164372   7.083   2.812   2.027 -1.3547  1.6144 -0.6259
20977SOL    HW264373   7.038   2.668   2.016 -2.8490  1.8173  2.0371
20978SOL     OW64374   6.975   3.431  12.243 -0.3510 -0.4766 -0.5009
20978SOL    HW164375   6.927   3.511  12.221 -1.8775 -1.6840 -1.7957
20978SOL    HW264376   6.948   3.411  12.333 -2.1622 -0.9737 -1.1018
20979SOL     OW64377   6.204   3.113   1.749 -0.4121 -0.2567 -0.6055
20979SOL    HW164378   6.249   3.098   1.666 -0.6784 -0.9572 -0.6387
20979SOL    HW264379   6.272   3.103   1.815 -0.5566 -1.7073 -0.6300
20980SOL     OW64380   3.491   1.790  12.175 -0.0277  0.0374  0.4274
20980SOL    HW164381   3.473   1.849  12.247  0.2070  0.6284  0.0128
20980SOL    HW264382   3.438   1.823  12.102  0.2725 -0.1259  0.1273
20981SOL     OW64383   3.648   3.346  11.384 -0.0868  0.2518 -0.1232
20981SOL    HW164384   3.711   3.368  11.453 -0.1305 -0.6621  0.2333
20981SOL    HW264385   3.573   3.402  11.402 -0.9858 -1.4438  1.9566
20982SOL     OW64386   6.730   4.879   3.132  0.3174  0.0227  0.3585
20982SOL    HW164387   6.652   4.894   3.186  0.4881  2.8206 -0.0467
20982SOL    HW264388   6.710   4.919   3.048  1.2367 -1.5764 -0.6739
20983SOL     OW64389   7.041   3.976   4.469  0.4288  0.0320 -0.2392
20983SOL    HW164390   6.964   3.955   4.415  0.8157 -3.4027  0.3293
20983SOL    HW264391   7.029   3.925   4.549  2.0908  1.4861  1.0210
20984SOL     OW64392   6.069   4.824   3.589 -0.1792 -0.4061 -0.1067
20984SOL    HW164393   6.159   4.814   3.558 -0.7300 -0.8109 -1.7150
20984SOL    HW264394   6.066   4.774   3.671  1.1138 -0.1649  0.1025
20985SOL     OW64395   4.983   5.319   3.857 -0.1258  0.4124 -0.3286
20985SOL    HW164396   4.983   5.368   3.775 -0.6036  0.5108 -0.2736
20985SOL    HW264397   4.973   5.228   3.831  1.1772  0.2869 -0.4542
20986SOL     OW64398   7.956   6.344   1.066  0.0046 -0.1132 -0.7222
20986SOL    HW164399   7.977   6.336   1.160 -1.5235  0.1942 -0.3267
20986SOL    HW264400   7.933   6.436   1.055  0.5773 -0.0603 -1.4979
20987SOL     OW64401   6.339   5.261   2.550  0.0873  0.1577  0.2548
20987SOL    HW164402   6.327   5.338   2.605 -0.1407  0.1856  0.1678
20987SOL    HW264403   6.269   5.267   2.484  0.5695  0.3100 -0.2525
20988SOL     OW64404   7.603   4.222   2.428 -0.3615 -0.0605 -0.5181
20988SOL    HW164405   7.630   4.313   2.441  0.1292 -0.0253 -1.7343
20988SOL    HW264406   7.568   4.219   2.340 -1.3970 -0.8284 -0.1018
20989SOL     OW64407   7.748   5.894   1.807  0.1489  0.2807  0.0759
20989SOL    HW164408   7.723   5.954   1.877  1.0878  0.1453  0.5484
20989SOL    HW264409   7.691   5.818   1.819 -0.0357  0.4643  0.3889
20990SOL     OW64410   6.810   4.744   2.720  0.4184  0.5340  0.0876
20990SOL    HW164411   6.775   4.694   2.647 -1.0883  2.0402 -0.2808
20990SOL    HW264412   6.793   4.690   2.797  0.7865 -0.4582 -0.5115
20991SOL     OW64413   6.687   5.464   2.232 -0.3312  0.5926  0.2334
20991SOL    HW164414   6.769   5.479   2.278 -1.1489 -1.2480  2.5013
20991SOL    HW264415   6.647   5.390   2.278 -2.3672  0.1698 -2.0130
20992SOL     OW64416   5.414   6.157   4.183  0.1749  0.5612 -0.6836
20992SOL    HW164417   5.320   6.168   4.174 -0.1985 -1.0133  0.7958
20992SOL    HW264418   5.430   6.066   4.159  0.8274 -0.1102  2.0313
20993SOL     OW64419   4.917   5.334   2.764  0.5564 -0.3189  0.2677
20993SOL    HW164420   4.934   5.412   2.711  2.7251 -1.4422 -0.8387
20993SOL    HW264421   4.840   5.356   2.815  0.5668  2.2082 -0.6615
20994SOL     OW64422   5.978   5.272   3.631  0.3816 -0.3714  0.0560
20994SOL    HW164423   5.976   5.212   3.557 -0.4419  0.2881 -0.4797
20994SOL    HW264424   5.910   5.240   3.691  0.6708 -0.5848  0.2741
20995SOL     OW64425   5.640   3.371   3.197 -0.2179  0.1117  0.2878
20995SOL    HW164426   5.619   3.362   3.104 -0.0114  1.2571  0.1122
20995SOL    HW264427   5.735   3.385   3.199 -0.2785  0.5044  0.6317
20996SOL     OW64428   7.278   4.473   2.324 -0.0376  0.0440 -0.2924
20996SOL    HW164429   7.267   4.444   2.414 -0.6201 -1.7476 -0.8908
20996SOL    HW264430   7.367   4.507   2.320 -0.3025  0.9805  1.1499
20997SOL     OW64431   5.950   5.877   3.780 -0.2986  0.3857 -0.1676
20997SOL    HW164432   5.863   5.914   3.768  0.9432  4.9213  2.2938
20997SOL    HW264433   5.991   5.884   3.694 -1.4871  0.8323 -0.7268
20998SOL     OW64434   6.265   5.307   3.731 -0.0758  0.6703  0.2088
20998SOL    HW164435   6.173   5.328   3.748 -0.1555  0.3894  0.1335
20998SOL    HW264436   6.275   5.317   3.636 -0.3902 -0.6680  0.0153
20999SOL     OW64437   6.019   5.881   1.840  0.2837 -0.6086  0.0320
20999SOL    HW164438   5.925   5.898   1.834  0.3927  1.7981  3.0203
20999SOL    HW264439   6.057   5.935   1.771 -0.3463  1.5230  1.2725
21000SOL     OW64440   3.981   5.294   1.567 -0.3500 -0.3207  0.7677
21000SOL    HW164441   3.926   5.357   1.615  1.8957  2.7381 -0.3357
21000SOL    HW264442   4.020   5.240   1.635  0.6664  2.1423  2.2904
21001SOL     OW64443   6.098   6.601   3.216 -0.4553 -0.4581  0.0346
21001SOL    HW164444   6.053   6.519   3.196  0.8334 -0.9416 -1.0241
21001SOL    HW264445   6.057   6.666   3.160 -0.9240 -0.5402  0.2778
21002SOL     OW64446   5.961   6.334   1.548  0.1368 -0.2310  0.1381
21002SOL    HW164447   5.999   6.416   1.579  0.2444 -0.1179 -0.2967
21002SOL    HW264448   5.899   6.309   1.617  2.4272 -1.4918  1.8744
21003SOL     OW64449   0.603   4.115   3.511 -0.0728 -0.1481 -0.1415
21003SOL    HW164450   0.578   4.158   3.593 -1.8668 -0.2158 -0.6065
21003SOL    HW264451   0.540   4.148   3.447 -1.1696 -2.9998 -0.6523
21004SOL     OW64452   7.963   4.953   2.780 -0.1576  0.5370 -0.4017
21004SOL    HW164453   7.890   4.901   2.812 -1.3908 -0.0911 -3.8149
21004SOL    HW264454   8.037   4.892   2.778  0.1682  0.7887  1.6893
21005SOL     OW64455   6.631   5.948   2.667  0.1385  0.5806  0.2666
21005SOL    HW164456   6.595   5.914   2.749 -0.2644 -0.7083 -0.4093
21005SOL    HW264457   6.647   5.870   2.614  0.1663  1.4076 -0.9795
21006SOL     OW64458   6.321   5.443   1.030  0.1467 -0.4204  0.0643
21006SOL    HW164459   6.414   5.454   1.051  0.0866  0.0495  0.1015
21006SOL    HW264460   6.276   5.503   1.090 -0.1611 -0.4613 -0.1272
21007SOL     OW64461   5.475   5.173   0.968  0.0071 -0.3589  0.3519
21007SOL    HW164462   5.548   5.226   0.937 -0.0501 -0.1333  0.6017
21007SOL    HW264463   5.429   5.147   0.888 -0.2528  0.3821  0.2534
21008SOL     OW64464   6.496   4.372   2.606 -0.3312 -0.0003  0.0461
21008SOL    HW164465   6.544   4.290   2.617 -0.5354 -0.0707  0.4543
21008SOL    HW264466   6.410   4.354   2.643 -0.9764 -0.1500 -1.4780
21009SOL     OW64467   5.146   3.969   2.412 -0.5409  0.6377  0.3094
21009SOL    HW164468   5.137   4.015   2.496 -1.2735 -0.7056  1.0017
21009SOL    HW264469   5.210   3.901   2.430  1.3090  1.9373 -0.9867
21010SOL     OW64470   5.527   3.326   1.081  0.3635 -0.2241 -0.4788
21010SOL    HW164471   5.565   3.239   1.077  3.4577  0.9797 -0.0097
21010SOL    HW264472   5.468   3.323   1.156 -1.2216 -2.3862 -1.6827
21011SOL     OW64473   0.061   2.464   3.372 -0.2244  0.0194 -0.4532
21011SOL    HW164474   0.027   2.506   3.451 -1.2771 -0.1622 -0.7985
21011SOL    HW264475   0.116   2.393   3.405 -0.2721  0.2380  0.1133
21012SOL     OW64476   6.512   3.753   4.349  0.0268  0.0499  0.0104
21012SOL    HW164477   6.422   3.776   4.328 -0.1964 -1.4770 -0.8445
21012SOL    HW264478   6.509   3.725   4.441 -0.1911  0.8240  0.2455
21013SOL     OW64479   6.266   3.132   3.024  0.2699 -0.3593 -0.4538
21013SOL    HW164480   6.239   3.186   3.098  0.2151  0.1472 -0.8347
21013SOL    HW264481   6.189   3.080   3.003 -0.0603  0.2406 -0.7939
21014SOL     OW64482   5.907   6.176   2.592  0.5700 -0.3533  0.1965
21014SOL    HW164483   5.893   6.138   2.679 -0.7216 -0.9753 -0.2570
21014SOL    HW264484   5.997   6.155   2.571  0.3238 -1.9195  0.5838
21015SOL     OW64485   6.050   5.207   3.212 -0.2316 -0.3262  0.0589
21015SOL    HW164486   5.993   5.143   3.169  0.1339 -0.1842 -0.6472
21015SOL    HW264487   6.039   5.189   3.306 -1.9032  0.1071 -0.0145
21016SOL     OW64488   7.043   1.807   3.808 -0.2775  0.4770 -0.3495
21016SOL    HW164489   7.012   1.830   3.896  0.5609 -0.1829  0.1398
21016SOL    HW264490   6.968   1.824   3.751 -1.4693 -0.8049  0.7454
21017SOL     OW64491   6.373   7.002   1.527 -0.1595  0.5887  0.2268
21017SOL    HW164492   6.330   7.076   1.486  1.3237  0.2127 -2.1680
21017SOL    HW264493   6.463   7.031   1.541  0.3820 -0.6378 -0.5371
21018SOL     OW64494   6.855   7.058   3.715  0.3635 -0.0543 -0.3436
21018SOL    HW164495   6.766   7.080   3.687  0.3187 -0.4639 -0.5248
21018SOL    HW264496   6.905   7.139   3.700 -0.5909  1.2229  2.6084
21019SOL     OW64497   6.498   6.002   1.997 -0.2652 -0.4522  0.0175
21019SOL    HW164498   6.432   5.959   2.050  0.9984  0.4089  2.4265
21019SOL    HW264499   6.493   6.094   2.021  0.8466 -0.1434 -0.8317
21020SOL     OW64500   7.530   4.607   2.300  0.1700  0.6888  0.7733
21020SOL    HW164501   7.561   4.651   2.221 -2.5249 -1.5675 -1.8167
21020SOL    HW264502   7.520   4.677   2.365  0.8268  2.9866 -1.4380
21021SOL     OW64503   7.563   4.856   1.584 -0.1311  0.4157  0.2564
21021SOL    HW164504   7.478   4.875   1.545  0.6436  0.9907 -1.2484
21021SOL    HW264505   7.566   4.911   1.662 -0.2444  2.2004 -0.9317
21022SOL     OW64506   7.270   4.874   3.676  0.3025 -0.1567  0.1335
21022SOL    HW164507   7.254   4.783   3.650  0.5216 -0.1802  0.0744
21022SOL    HW264508   7.203   4.893   3.742 -1.7417  0.6348 -2.0204
21023SOL     OW64509   6.542   4.556   4.545  0.0347  0.3287 -0.1596
21023SOL    HW164510   6.637   4.567   4.539  0.1739 -0.5679  0.2677
21023SOL    HW264511   6.510   4.642   4.575  0.7567  0.5030  0.1294
21024SOL     OW64512   5.654   5.357   4.070  0.1492  0.0915  0.1308
21024SOL    HW164513   5.737   5.312   4.087 -0.5370 -1.1356  0.4009
21024SOL    HW264514   5.679   5.441   4.032  1.4999 -0.4551 -0.2437
21025SOL     OW64515   6.759   6.605   2.623 -0.2357  0.0358  0.0473
21025SOL    HW164516   6.757   6.567   2.536 -2.1902 -0.8863  0.4310
21025SOL    HW264517   6.725   6.536   2.680 -0.2632  1.0683  1.3316
21026SOL     OW64518   7.092   6.122   0.089  0.4168  0.3987  0.0490
21026SOL    HW164519   7.060   6.173   0.014 -3.0285  0.2523  1.2411
21026SOL    HW264520   7.047   6.159   0.165 -1.0019 -3.1702  1.2041
21027SOL     OW64521   4.487   4.364   3.143  0.1572 -0.0373 -0.6151
21027SOL    HW164522   4.450   4.370   3.231  0.0603  1.2607 -0.7203
21027SOL    HW264523   4.553   4.296   3.149  1.4944  1.3284  0.9663
21028SOL     OW64524   7.029   5.741   4.212 -0.2357 -0.3294  0.1821
21028SOL    HW164525   7.112   5.731   4.166 -0.8564  0.1278 -1.1110
21028SOL    HW264526   7.015   5.657   4.255  1.0059 -0.3257  0.6321
21029SOL     OW64527   6.229   6.050   1.001  0.3735 -0.0799  0.3376
21029SOL    HW164528   6.201   5.985   0.937 -1.0207  0.2719  0.5565
21029SOL    HW264529   6.299   6.006   1.051  0.5300 -0.8304 -0.5180
21030SOL     OW64530   6.956   4.705   2.370 -0.1315  0.3597  0.2049
21030SOL    HW164531   6.942   4.622   2.415 -1.3306 -0.2545 -1.1990
21030SOL    HW264532   6.949   4.771   2.438  0.8288 -0.6633  1.3526
21031SOL     OW64533   6.571   4.978   1.918  0.0222 -0.1336  0.2177
21031SOL    HW164534   6.553   5.000   2.010 -1.2838  0.0988 -0.0685
21031SOL    HW264535   6.494   5.010   1.871 -0.3056 -2.1278 -0.6966
21032SOL     OW64536   5.792   3.260   2.571 -0.4577  0.4996 -0.6094
21032SOL    HW164537   5.881   3.249   2.603 -0.5528 -1.5740 -0.9634
21032SOL    HW264538   5.802   3.290   2.481 -0.1206  0.0469 -0.7226
21033SOL     OW64539   0.154   4.992   3.047  0.5066  0.2799 -0.1855
21033SOL    HW164540   0.085   4.999   3.113  1.8184  0.9059  1.2100
21033SOL    HW264541   0.232   5.026   3.092  1.7423 -0.5295 -1.6447
21034SOL     OW64542   5.310   4.159   1.402 -0.2589  0.0777 -0.3028
21034SOL    HW164543   5.359   4.113   1.334  2.0626  1.6021  0.2516
21034SOL    HW264544   5.226   4.112   1.406  0.9789 -2.4530 -1.5115
21035SOL     OW64545   6.373   3.526   2.016 -0.0632  0.0317  0.3550
21035SOL    HW164546   6.280   3.502   2.016  0.1145 -0.8229  2.2062
21035SOL    HW264547   6.393   3.542   2.108  1.9830 -1.3063  0.1977
21036SOL     OW64548   6.939   6.186   5.534  0.0139  0.4062  0.0528
21036SOL    HW164549   7.028   6.152   5.533  0.9524  2.6777  0.2895
21036SOL    HW264550   6.902   6.160   5.450  0.7814 -0.8293  0.0858
21037SOL     OW64551   7.158   3.906   0.450 -0.0968  0.2547 -0.0107
21037SOL    HW164552   7.151   3.973   0.519  1.1579  0.6852 -0.2731
21037SOL    HW264553   7.152   3.955   0.368  1.3898  0.1361 -0.2079
21038SOL     OW64554   5.591   5.142   1.208  0.3263 -0.2748 -0.0236
21038SOL    HW164555   5.644   5.072   1.170 -1.8064 -1.2017 -1.5031
21038SOL    HW264556   5.553   5.186   1.132 -0.5121  0.7374  0.9619
21039SOL     OW64557   5.294   5.032   2.882 -0.2673  0.3233 -1.0278
21039SOL    HW164558   5.205   5.002   2.899  0.0580 -0.3408 -0.4550
21039SOL    HW264559   5.328   4.972   2.816  0.2346 -0.3238 -0.1998
21040SOL     OW64560   6.436   5.663   1.650 -0.4636  0.1167 -0.8622
21040SOL    HW164561   6.484   5.648   1.569 -0.7624  1.0849 -1.2342
21040SOL    HW264562   6.410   5.576   1.679 -0.2578 -0.2501 -1.7504
21041SOL     OW64563   6.712   3.557   3.972 -0.3012  1.0907 -0.2961
21041SOL    HW164564   6.772   3.574   3.900 -0.4419 -2.4931 -1.4197
21041SOL    HW264565   6.625   3.559   3.932 -0.5542  1.1345  0.2470
21042SOL     OW64566   6.031   4.861   0.919 -0.3564  0.0144 -0.4649
21042SOL    HW164567   6.102   4.837   0.861 -0.6484  1.9738 -1.7395
21042SOL    HW264568   5.992   4.778   0.946  1.2016 -1.0140 -1.2629
21043SOL     OW64569   6.311   6.398   3.175  0.0151  0.4760  0.2184
21043SOL    HW164570   6.315   6.459   3.249 -0.4752  1.9026 -0.8871
21043SOL    HW264571   6.217   6.390   3.157  0.1384  0.2031 -0.2997
21044SOL     OW64572   0.540   4.346   2.420  0.4153  0.4466 -0.4241
21044SOL    HW164573   0.451   4.376   2.403 -1.0602 -2.2090  1.8307
21044SOL    HW264574   0.546   4.262   2.376  0.6109 -0.9108  2.0275
21045SOL     OW64575   6.568   7.290   3.038  0.5611  0.1280 -0.4553
21045SOL    HW164576   6.541   7.262   3.126  0.6794  0.2366 -0.3844
21045SOL    HW264577   6.550   7.384   3.036 -0.4001 -0.0523 -0.9018
21046SOL     OW64578   6.732   6.850   3.642 -0.0816  0.7887  0.0271
21046SOL    HW164579   6.660   6.904   3.610  0.2060  1.9570  1.2215
21046SOL    HW264580   6.792   6.913   3.682 -0.8810 -0.5180  3.7349
21047SOL     OW64581   5.191   5.093   1.921 -0.1135 -0.5779  0.3037
21047SOL    HW164582   5.105   5.098   1.879 -0.7885  0.8392  1.7540
21047SOL    HW264583   5.250   5.063   1.852 -1.4493  0.1728 -1.2174
21048SOL     OW64584   0.271   3.955   3.382 -0.1633  0.0820 -0.0562
21048SOL    HW164585   0.233   3.890   3.442  0.7985  0.9742  1.5798
21048SOL    HW264586   0.223   4.035   3.400  1.7972  1.0105  1.4285
21049SOL     OW64587   6.457   3.255   2.879  0.1466  0.5660 -0.4928
21049SOL    HW164588   6.437   3.204   2.800 -0.2980  0.2418 -0.1731
21049SOL    HW264589   6.391   3.228   2.942 -0.2327  1.7153 -0.3857
21050SOL     OW64590   5.422   4.319   4.376  0.3529  0.3832  0.1260
21050SOL    HW164591   5.509   4.344   4.344  1.0467 -1.0172  0.8288
21050SOL    HW264592   5.410   4.371   4.455  0.2550  1.0839 -0.3466
21051SOL     OW64593   5.808   4.707   1.984 -1.0159 -0.2073  0.1034
21051SOL    HW164594   5.782   4.654   2.060  0.7867 -1.9173 -0.3923
21051SOL    HW264595   5.847   4.786   2.023  1.3407 -1.7534  1.1125
21052SOL     OW64596   7.285   4.545   2.959  0.0573  0.0954  0.0980
21052SOL    HW164597   7.231   4.561   3.036 -1.7477 -2.4136 -0.5292
21052SOL    HW264598   7.265   4.455   2.933  1.7619  0.3216 -2.4037
21053SOL     OW64599   5.935   5.033   3.434 -0.0592  0.1550  0.5573
21053SOL    HW164600   5.974   4.981   3.504 -0.7791 -0.2406  0.6747
21053SOL    HW264601   5.853   4.988   3.414 -0.4022  0.9134  0.2442
21054SOL     OW64602   6.620   5.138   3.243 -0.1365 -0.6444 -0.0711
21054SOL    HW164603   6.587   5.226   3.228  1.4686  0.3229  1.6877
21054SOL    HW264604   6.571   5.107   3.320  2.3113  0.5309  2.1172
21055SOL     OW64605   6.853   3.508   2.258 -0.0862  0.6025 -0.0913
21055SOL    HW164606   6.897   3.438   2.210  1.2392  0.9268  0.5908
21055SOL    HW264607   6.865   3.586   2.203 -2.0497  0.2371 -1.1261
21056SOL     OW64608   6.430   4.621   2.428 -0.0169 -0.5307  0.0711
21056SOL    HW164609   6.337   4.626   2.447 -0.0553 -1.3784  0.1547
21056SOL    HW264610   6.461   4.545   2.477  0.1691 -1.9099 -2.0380
21057SOL     OW64611   6.427   3.989   2.057  0.0246 -0.0074 -0.5247
21057SOL    HW164612   6.351   3.981   1.999 -0.7204 -0.3182  0.4651
21057SOL    HW264613   6.494   4.029   2.003 -0.7779  0.0728 -1.4918
21058SOL     OW64614   7.420   2.430   3.272 -0.5033 -0.4214 -0.2467
21058SOL    HW164615   7.426   2.490   3.347  0.6116 -0.7867 -0.0342
21058SOL    HW264616   7.391   2.485   3.200  0.5105  0.3946 -0.0575
21059SOL     OW64617   7.390   3.204   4.425  0.0331  0.0362  0.7266
21059SOL    HW164618   7.339   3.240   4.498 -0.4145 -0.3003  0.5825
21059SOL    HW264619   7.452   3.274   4.402 -0.8437  0.7300  0.4342
21060SOL     OW64620   6.042   7.518   3.906  0.8113  0.1460  0.0491
21060SOL    HW164621   6.068   7.436   3.948  3.1726  0.4398 -0.6989
21060SOL    HW264622   6.121   7.572   3.908 -1.1465  3.2902  2.4259
21061SOL     OW64623   5.829   4.428   3.434 -0.1912  0.3603  0.3185
21061SOL    HW164624   5.879   4.352   3.464  0.0612  0.5638  0.4220
21061SOL    HW264625   5.895   4.489   3.402 -0.2460  1.1581  1.6172
21062SOL     OW64626   7.266   5.341   3.293  0.5989 -0.1071 -0.1315
21062SOL    HW164627   7.248   5.321   3.385  0.6695  2.2650  0.4668
21062SOL    HW264628   7.208   5.283   3.243 -2.2767  1.1911  1.5053
21063SOL     OW64629   6.490   4.434   3.295 -0.9021 -0.0672 -0.4912
21063SOL    HW164630   6.478   4.442   3.389  0.9295 -0.3000 -0.1879
21063SOL    HW264631   6.420   4.375   3.266 -2.7115  1.5769  0.3605
21064SOL     OW64632   5.566   5.389   5.541 -0.0404  0.2222 -0.3256
21064SOL    HW164633   5.535   5.426   5.624  1.9422 -0.7974  0.9829
21064SOL    HW264634   5.501   5.323   5.518 -0.4875  0.3342  0.5755
21065SOL     OW64635   6.495   5.295   5.019 -0.2422 -0.4330 -0.0195
21065SOL    HW164636   6.585   5.284   4.988  0.2369 -0.6071  1.3787
21065SOL    HW264637   6.492   5.384   5.053  0.1212 -1.2039  2.1334
21066SOL     OW64638   4.515   3.893   1.695  0.2640 -0.5699 -0.4410
21066SOL    HW164639   4.455   3.933   1.758  1.9164  1.2656  0.0640
21066SOL    HW264640   4.525   3.803   1.726 -0.6494 -0.3257  0.6367
21067SOL     OW64641   5.759   5.205   2.881  0.0804 -0.2693 -0.3511
21067SOL    HW164642   5.762   5.299   2.902 -0.4581 -0.6259  1.5013
21067SOL    HW264643   5.755   5.202   2.786 -1.6540  1.6678 -0.4145
21068SOL     OW64644   5.561   6.801   1.340  0.0703  0.3676  0.2359
21068SOL    HW164645   5.496   6.861   1.304 -0.4577 -1.1367 -1.4916
21068SOL    HW264646   5.511   6.739   1.392  0.1891 -0.3031 -0.4213
21069SOL     OW64647   7.222   5.326   4.034 -0.6429  0.3156  0.4395
21069SOL    HW164648   7.255   5.301   4.120 -1.1668  2.3502  1.2741
21069SOL    HW264649   7.287   5.387   3.999 -0.8308  0.1143 -0.2892
21070SOL     OW64650   7.533   3.690   2.137  0.0312  0.0732 -0.0318
21070SOL    HW164651   7.468   3.755   2.163  0.9275  1.0889 -0.2842
21070SOL    HW264652   7.584   3.674   2.216 -0.1238 -0.2557  0.0040
21071SOL     OW64653   5.749   5.867   1.803 -0.0291 -0.1692  0.0056
21071SOL    HW164654   5.684   5.920   1.849  1.0823  0.0363  1.4021
21071SOL    HW264655   5.759   5.789   1.858  3.0327  1.1251  1.5130
21072SOL     OW64656   6.453   4.096   2.315  0.0726  0.3492 -0.4314
21072SOL    HW164657   6.426   4.089   2.224  2.3266  1.5700 -1.2592
21072SOL    HW264658   6.453   4.189   2.334  0.7196  0.1886  0.4434
21073SOL     OW64659   6.914   5.980   2.965  0.1206  0.4967  0.2458
21073SOL    HW164660   6.971   5.913   3.003  1.0587  1.1345 -0.0061
21073SOL    HW264661   6.948   6.063   3.000 -1.6747  0.8009  1.3933
21074SOL     OW64662   5.919   4.398   2.472  0.3415 -0.4328  0.5411
21074SOL    HW164663   5.850   4.343   2.509  0.8080 -1.0278  0.5444
21074SOL    HW264664   5.925   4.473   2.531 -0.4896 -0.2328  0.3854
21075SOL     OW64665   6.440   6.765   1.936  0.3797  0.0313  0.4023
21075SOL    HW164666   6.464   6.681   1.898  1.1810 -0.7014  2.4082
21075SOL    HW264667   6.379   6.804   1.872  1.1151 -1.3879 -1.2452
21076SOL     OW64668   6.108   5.955   2.746  0.2321 -0.2753 -0.1243
21076SOL    HW164669   6.167   5.883   2.768  1.5155  0.7112 -0.2000
21076SOL    HW264670   6.121   5.968   2.652  1.6627  1.4055  0.2477
21077SOL     OW64671   6.968   6.162   3.190  0.0442 -0.5670  0.2264
21077SOL    HW164672   6.881   6.203   3.191  0.0214 -0.5978 -0.2330
21077SOL    HW264673   6.954   6.076   3.229 -0.1617 -0.6272  0.0248
21078SOL     OW64674   6.566   4.783   3.630  0.1084 -0.4928  0.3846
21078SOL    HW164675   6.515   4.766   3.551 -1.4356 -0.1421  1.2496
21078SOL    HW264676   6.640   4.835   3.601 -2.5232  3.2887 -0.3833
21079SOL     OW64677   7.236   5.611   2.581  0.3432 -0.8389  0.2144
21079SOL    HW164678   7.156   5.585   2.535  0.5986  1.0683 -1.4387
21079SOL    HW264679   7.307   5.587   2.521  0.7044  1.3942 -0.3364
21080SOL     OW64680   7.081   3.994   2.933  0.2595 -0.4837  0.6712
21080SOL    HW164681   7.091   3.975   2.839  2.0397 -0.0643  0.7390
21080SOL    HW264682   7.025   3.924   2.966 -0.1744 -0.7874 -0.6495
21081SOL     OW64683   7.307   4.264   3.024 -0.0411  0.3459 -0.8772
21081SOL    HW164684   7.285   4.216   2.945 -1.9465  1.3281 -1.0047
21081SOL    HW264685   7.290   4.203   3.095 -2.8292  0.8430 -1.0171
21082SOL     OW64686   5.369   5.999   0.424 -0.7917 -0.0057 -0.2573
21082SOL    HW164687   5.435   5.959   0.367  1.0102  0.3636  1.4359
21082SOL    HW264688   5.318   5.926   0.458 -0.5972 -0.4058 -0.8117
21083SOL     OW64689   5.554   4.443   3.435 -0.4467  0.6856 -0.0831
21083SOL    HW164690   5.549   4.418   3.527  0.0011  2.7062  0.5222
21083SOL    HW264691   5.648   4.450   3.417 -0.4481 -1.2704 -1.2015
21084SOL     OW64692   6.856   2.793   3.168 -0.4614  0.0362  0.3987
21084SOL    HW164693   6.799   2.840   3.229  0.3353  1.2612  0.2425
21084SOL    HW264694   6.884   2.715   3.215  0.4327  1.1388  1.7746
21085SOL     OW64695   6.664   3.941   4.191 -0.1962 -0.7926 -0.3802
21085SOL    HW164696   6.591   3.884   4.170 -0.3278 -0.6188 -0.4017
21085SOL    HW264697   6.681   3.990   4.110 -0.1961 -0.6810 -0.3136
21086SOL     OW64698   7.409   3.377   0.413 -0.2849  0.4496  0.3298
21086SOL    HW164699   7.420   3.290   0.375 -0.1379  0.5012  0.2513
21086SOL    HW264700   7.475   3.381   0.482  0.1911  0.7610 -0.1405
21087SOL     OW64701   5.188   6.401   2.352 -0.0168 -0.3601  0.1901
21087SOL    HW164702   5.272   6.419   2.394 -0.1237 -0.4658  0.4556
21087SOL    HW264703   5.189   6.455   2.273  0.2400 -0.2497  0.2651
21088SOL     OW64704   5.346   4.531   2.409  0.4085 -0.1826  0.1403
21088SOL    HW164705   5.324   4.438   2.405  0.3432 -0.2512  1.5887
21088SOL    HW264706   5.267   4.573   2.444  0.5407  0.3732 -0.2227
21089SOL     OW64707   7.416   2.754   1.301 -0.6602  0.4544 -0.2228
21089SOL    HW164708   7.501   2.763   1.344 -0.0576  0.1545 -1.3136
21089SOL    HW264709   7.366   2.831   1.329  0.2903  1.1078 -0.2837
21090SOL     OW64710   6.719   4.530   2.558 -0.0689 -0.2670 -0.2671
21090SOL    HW164711   6.643   4.474   2.572  1.0583 -1.5936  0.9230
21090SOL    HW264712   6.792   4.469   2.549  0.6984  0.8955 -2.8133
21091SOL     OW64713   5.743   6.089   3.229  0.0863  0.3171  0.5260
21091SOL    HW164714   5.736   6.066   3.136  1.2032 -0.8864  0.7103
21091SOL    HW264715   5.652   6.096   3.259 -0.3359 -2.1522 -0.0098
21092SOL     OW64716   6.884   4.558   4.235  0.7191 -0.7771  0.4279
21092SOL    HW164717   6.818   4.548   4.304  0.6660 -2.0995  0.1960
21092SOL    HW264718   6.899   4.470   4.201  1.1635 -0.2335 -0.8814
21093SOL     OW64719   7.708   3.054   1.621 -0.3190  0.5081  0.0815
21093SOL    HW164720   7.616   3.062   1.596 -0.5016 -2.8848 -0.7555
21093SOL    HW264721   7.717   2.964   1.652  2.8104  0.6475 -0.1219
21094SOL     OW64722   7.476   3.668   3.873  0.1801 -0.4489  0.1096
21094SOL    HW164723   7.391   3.629   3.893  1.9750 -3.8440  2.2031
21094SOL    HW264724   7.501   3.714   3.953 -0.1939  1.7771 -0.9890
21095SOL     OW64725   6.718   4.464   2.172 -0.4427 -0.1265  0.1480
21095SOL    HW164726   6.795   4.482   2.226 -0.2476 -0.4694 -0.0156
21095SOL    HW264727   6.647   4.449   2.235  0.2407 -2.7124  0.4125
21096SOL     OW64728   5.567   3.895   1.999  0.6434 -0.1713 -0.1915
21096SOL    HW164729   5.569   3.814   1.948 -0.5504 -0.0258 -0.4770
21096SOL    HW264730   5.476   3.922   1.999  0.8457  0.5887  0.8443
21097SOL     OW64731   7.341   6.840   3.397 -0.0672  0.0065  0.2469
21097SOL    HW164732   7.313   6.919   3.352  0.1987 -0.0674 -0.0487
21097SOL    HW264733   7.419   6.811   3.349  0.1653 -0.1200  0.6950
21098SOL     OW64734   7.918   4.554   1.456  0.0624 -0.1949  0.1802
21098SOL    HW164735   7.850   4.620   1.465  0.7319  0.5134  0.1931
21098SOL    HW264736   7.959   4.549   1.542  0.2327 -0.3770  0.0909
21099SOL     OW64737   4.548   3.511   2.308  0.2838  0.3340 -0.7150
21099SOL    HW164738   4.567   3.570   2.380  0.7469 -1.5284  0.7906
21099SOL    HW264739   4.453   3.498   2.312  0.0549  1.5908 -1.6014
21100SOL     OW64740   6.106   4.375   4.407 -0.5090  0.6828 -0.4839
21100SOL    HW164741   6.055   4.294   4.398 -0.9640  0.2718  3.6382
21100SOL    HW264742   6.197   4.346   4.415 -0.5517  0.6411 -0.1035
21101SOL     OW64743   6.163   4.796   3.120  0.0422 -0.0212  0.0389
21101SOL    HW164744   6.194   4.877   3.161  0.0191  0.2684 -0.5065
21101SOL    HW264745   6.074   4.785   3.155  0.5931 -0.6528  1.3167
21102SOL     OW64746   0.776   3.627   4.313 -0.5183  0.0746  0.3246
21102SOL    HW164747   0.711   3.585   4.369 -0.1580 -1.2171 -0.1845
21102SOL    HW264748   0.845   3.561   4.304  0.0533  0.7729 -0.5456
21103SOL     OW64749   6.269   4.231   3.263 -0.2318 -0.2052  0.8682
21103SOL    HW164750   6.244   4.139   3.264 -0.1232 -0.2623  2.8263
21103SOL    HW264751   6.190   4.277   3.235 -0.9872 -0.7474  2.0584
21104SOL     OW64752   7.750   4.964   0.920  0.3443  0.2680 -0.0396
21104SOL    HW164753   7.836   4.925   0.937 -0.3653 -0.5045  2.1496
21104SOL    HW264754   7.756   5.052   0.956  0.0246 -0.0516  0.8402
21105SOL     OW64755   7.963   3.874   2.202 -0.1444 -0.1604 -0.2881
21105SOL    HW164756   8.030   3.859   2.136  1.2485  2.2751  0.4359
21105SOL    HW264757   8.005   3.851   2.285 -0.2159  1.2181  0.1538
21106SOL     OW64758   7.672   4.765   3.086  0.3086  0.2865 -0.0042
21106SOL    HW164759   7.641   4.775   3.176 -0.5661 -0.9346 -0.1556
21106SOL    HW264760   7.597   4.729   3.039  1.2540 -0.5873 -0.8778
21107SOL     OW64761   7.624   5.519   1.049 -0.1258 -0.0433 -0.5546
21107SOL    HW164762   7.660   5.489   1.132 -0.7164 -1.4544 -0.7851
21107SOL    HW264763   7.664   5.605   1.035  1.4467 -0.6117  0.2470
21108SOL     OW64764   6.321   5.746   2.697 -0.3116  0.2975  0.1486
21108SOL    HW164765   6.396   5.768   2.642 -0.3343 -0.5198 -0.2298
21108SOL    HW264766   6.359   5.721   2.781 -0.3256  2.4858  0.8754
21109SOL     OW64767   7.107   5.165   0.996 -0.4468 -0.4127 -0.1684
21109SOL    HW164768   7.075   5.138   1.082 -0.4426 -0.3432 -0.1446
21109SOL    HW264769   7.201   5.149   0.999 -0.3169  0.3459  0.1317
21110SOL     OW64770   7.123   4.630   3.176  0.4637  0.0919  0.1967
21110SOL    HW164771   7.065   4.555   3.162  1.7241 -0.9271  0.3556
21110SOL    HW264772   7.064   4.706   3.173 -0.8460 -0.8947  0.1388
21111SOL     OW64773   5.541   7.137   2.340  0.6701  0.6546 -0.2751
21111SOL    HW164774   5.585   7.080   2.277  1.4966  1.1707 -0.1769
21111SOL    HW264775   5.447   7.121   2.326  0.8735 -1.1722  0.1674
21112SOL     OW64776   6.560   6.399   3.684 -0.3558  0.7247 -0.1317
21112SOL    HW164777   6.496   6.466   3.706 -1.3210 -0.2797  0.1929
21112SOL    HW264778   6.550   6.333   3.752 -0.5782 -0.5204 -1.3236
21113SOL     OW64779   7.420   6.826   2.740 -0.6217 -0.2679  0.0851
21113SOL    HW164780   7.331   6.793   2.725 -0.6980 -0.2077  0.3884
21113SOL    HW264781   7.450   6.856   2.654 -0.7535 -0.6335 -0.0881
21114SOL     OW64782   7.086   4.597   2.596 -0.2692 -0.5763  0.1878
21114SOL    HW164783   7.101   4.512   2.637 -0.4803 -0.1535  1.1672
21114SOL    HW264784   7.157   4.652   2.629 -0.1647 -0.3532 -0.4047
21115SOL     OW64785   5.563   4.053   2.840 -0.1938 -0.1541 -0.2637
21115SOL    HW164786   5.492   4.019   2.894 -0.0029 -2.2699 -1.2308
21115SOL    HW264787   5.522   4.074   2.757 -0.2540  1.8758  0.2355
21116SOL     OW64788   4.014   4.570   1.591  0.3121 -0.3137 -0.2491
21116SOL    HW164789   4.040   4.527   1.510 -0.0707 -0.5704 -0.2356
21116SOL    HW264790   3.919   4.562   1.594  0.2292  0.5336 -0.2495
21117SOL     OW64791   4.987   5.444   3.578  0.0758  0.5577  0.1558
21117SOL    HW164792   5.014   5.354   3.559  0.6065  0.3202  1.8610
21117SOL    HW264793   5.047   5.499   3.527  2.6536 -0.0152  2.3416
21118SOL     OW64794   6.164   6.080   3.229 -0.3931  0.2310 -0.6795
21118SOL    HW164795   6.114   6.001   3.248 -1.9992  1.7920  2.3760
21118SOL    HW264796   6.245   6.070   3.278  0.6902 -0.6397 -2.5517
21119SOL     OW64797   6.001   4.722   3.828 -1.0163  0.0446  0.2258
21119SOL    HW164798   5.940   4.656   3.863 -1.6019  0.9809  1.0070
21119SOL    HW264799   6.050   4.753   3.904 -0.4796  0.2440 -0.1988
21120SOL     OW64800   5.225   5.995   0.831 -0.7989 -0.3025 -0.6758
21120SOL    HW164801   5.316   5.986   0.858 -0.8000  0.1030 -0.5246
21120SOL    HW264802   5.175   5.953   0.901 -0.7271 -0.5430 -0.7692
21121SOL     OW64803   6.442   3.282   2.361  0.0010  0.1396 -0.2919
21121SOL    HW164804   6.500   3.354   2.384 -0.4115 -0.4384  3.1669
21121SOL    HW264805   6.364   3.294   2.416 -0.9019 -1.9042 -0.9888
21122SOL     OW64806   5.658   3.488   4.885 -0.4636  0.4993 -0.1919
21122SOL    HW164807   5.606   3.536   4.820 -0.6757  0.3114 -0.1650
21122SOL    HW264808   5.605   3.491   4.965 -1.1001 -0.8727 -0.5263
21123SOL     OW64809   6.682   3.263   2.571 -0.4831  0.3355  0.1240
21123SOL    HW164810   6.642   3.348   2.554  0.2928  1.0966  1.8995
21123SOL    HW264811   6.739   3.277   2.646 -0.0889 -1.6919  0.2705
21124SOL     OW64812   5.418   3.860   2.960  0.1524  0.0113  0.4803
21124SOL    HW164813   5.343   3.915   2.986 -0.4184 -0.9005  0.8010
21124SOL    HW264814   5.402   3.776   3.002  0.6689 -0.6249 -0.5598
21125SOL     OW64815   5.980   4.186   2.311  0.5085 -0.1961 -0.0075
21125SOL    HW164816   5.956   4.272   2.346  0.6346 -0.8826  1.8891
21125SOL    HW264817   5.954   4.189   2.219  1.4124  2.2135 -0.2533
21126SOL     OW64818   5.685   4.291   2.939  0.1019 -0.2586 -0.3582
21126SOL    HW164819   5.623   4.321   3.006  0.0281 -0.3469 -0.3869
21126SOL    HW264820   5.666   4.198   2.929 -0.9957  0.0917 -1.6935
21127SOL     OW64821   6.094   5.303   4.667  0.5241 -0.3195 -0.3863
21127SOL    HW164822   6.111   5.295   4.761 -1.2909  0.3331  0.0506
21127SOL    HW264823   6.035   5.378   4.660  0.0608 -0.7949 -1.9764
21128SOL     OW64824   6.699   5.160   1.396 -0.2040 -0.3846 -0.2969
21128SOL    HW164825   6.702   5.235   1.336 -1.0252 -0.6794 -0.7187
21128SOL    HW264826   6.783   5.163   1.442  0.1056  0.3201 -0.8874
21129SOL     OW64827   0.327   5.283   4.273  0.4579  0.3216 -0.4087
21129SOL    HW164828   0.389   5.212   4.261  2.0123  1.3122  1.2152
21129SOL    HW264829   0.251   5.242   4.315  0.7558 -0.6079 -0.7597
21130SOL     OW64830   5.768   2.306   2.365  0.5984 -0.2187  0.6019
21130SOL    HW164831   5.779   2.254   2.285  0.1418  1.2440 -0.4669
21130SOL    HW264832   5.682   2.279   2.399  0.1755  0.1218 -0.1721
21131SOL     OW64833   0.056   4.561   1.730  0.4581 -0.4161  0.6928
21131SOL    HW164834   0.151   4.558   1.730  0.5053  0.3891 -0.6812
21131SOL    HW264835   0.030   4.489   1.788  1.8525 -2.1694 -0.7200
21132SOL     OW64836   6.544   5.851   4.857  0.3701 -0.0830  0.0743
21132SOL    HW164837   6.538   5.946   4.847 -3.5077 -0.0435  1.1215
21132SOL    HW264838   6.488   5.816   4.788  1.7660 -1.6788 -0.3249
21133SOL     OW64839   5.409   4.649   2.163 -0.4910 -0.2311 -0.3208
21133SOL    HW164840   5.404   4.642   2.258 -1.0681 -0.8374 -0.3839
21133SOL    HW264841   5.461   4.574   2.136 -0.6468 -0.2730 -0.5095
21134SOL     OW64842   5.147   5.610   1.933  0.4239 -0.0397 -0.4334
21134SOL    HW164843   5.159   5.538   1.995 -0.4912  1.5346  1.7038
21134SOL    HW264844   5.056   5.638   1.946  0.9245  1.8791 -0.7127
21135SOL     OW64845   6.350   4.110   4.769 -0.0197  0.2246 -0.1930
21135SOL    HW164846   6.377   4.190   4.722 -0.3015 -0.2424 -1.1840
21135SOL    HW264847   6.268   4.085   4.727  0.1604 -0.6834 -0.0153
21136SOL     OW64848   0.170   4.768   2.727  0.3377  0.1123 -0.3596
21136SOL    HW164849   0.252   4.767   2.775  0.3174 -0.7655 -0.3247
21136SOL    HW264850   0.183   4.705   2.656  0.1812  1.0015 -1.1915
21137SOL     OW64851   7.059   6.141   2.524  1.1787  0.3037 -0.3396
21137SOL    HW164852   6.986   6.093   2.486  1.6761 -0.2518 -0.6062
21137SOL    HW264853   7.130   6.077   2.530  1.3171  0.5432  0.9264
21138SOL     OW64854   6.623   5.340   5.305 -0.9290 -0.0719  1.0923
21138SOL    HW164855   6.614   5.245   5.316 -2.2065  0.3329  5.1364
21138SOL    HW264856   6.534   5.374   5.315 -0.5086  1.5989 -0.4103
21139SOL     OW64857   6.604   5.388   0.696  0.2807  0.2239 -0.4789
21139SOL    HW164858   6.566   5.474   0.680 -0.8834 -0.4730 -1.6643
21139SOL    HW264859   6.618   5.351   0.609  0.4077 -0.9309  0.0096
21140SOL     OW64860   7.550   4.494   3.396  0.2998  0.1878 -0.3785
21140SOL    HW164861   7.554   4.401   3.420 -2.4736 -0.2749 -1.3276
21140SOL    HW264862   7.530   4.493   3.303 -3.4792  1.5688  0.2624
21141SOL     OW64863   6.643   4.225   0.877  0.6937 -0.3143  0.3827
21141SOL    HW164864   6.702   4.300   0.870  0.1703  0.1461  0.8295
21141SOL    HW264865   6.648   4.183   0.791 -0.0159  0.9832 -0.3165
21142SOL     OW64866   7.213   5.093   4.303  0.2603  0.4010 -0.2289
21142SOL    HW164867   7.250   5.037   4.235  1.3396  0.6923  0.1052
21142SOL    HW264868   7.259   5.177   4.293  1.3265  0.0972  1.5909
21143SOL     OW64869   6.575   6.223   2.163  0.3414  0.1867 -0.4299
21143SOL    HW164870   6.629   6.300   2.143  1.0000  0.2990  1.5324
21143SOL    HW264871   6.627   6.174   2.226 -1.3624 -0.3185  0.6372
21144SOL     OW64872   5.998   3.240   1.438  0.2581  0.0062 -0.2311
21144SOL    HW164873   5.941   3.285   1.376 -0.9075  1.0362  1.4934
21144SOL    HW264874   5.939   3.183   1.488  0.6700  1.0657  1.5599
21145SOL     OW64875   7.174   7.219   3.443  0.0110 -0.1176 -0.5524
21145SOL    HW164876   7.258   7.261   3.423  1.1064 -2.1363 -0.4044
21145SOL    HW264877   7.167   7.224   3.539 -0.9448  1.6208 -0.6691
21146SOL     OW64878   6.337   7.178   3.483  0.2349  0.2954 -0.3740
21146SOL    HW164879   6.362   7.164   3.392  1.7025  0.9680 -0.1148
21146SOL    HW264880   6.255   7.226   3.478  0.2495  0.2479 -1.3463
21147SOL     OW64881   7.316   5.751   3.441 -0.5166  0.6012  0.4290
21147SOL    HW164882   7.341   5.740   3.349  1.1696  0.4070  0.8801
21147SOL    HW264883   7.364   5.682   3.487 -0.6989  1.2143  1.5561
21148SOL     OW64884   5.581   4.841   1.764  0.2084 -0.0397 -0.2663
21148SOL    HW164885   5.631   4.861   1.685  0.4807  1.4619  0.2532
21148SOL    HW264886   5.511   4.907   1.765  1.3007  1.1837  1.6692
21149SOL     OW64887   5.600   4.765   3.905  0.3840 -0.4128  0.0309
21149SOL    HW164888   5.577   4.828   3.974  0.6268  0.6498 -0.8384
21149SOL    HW264889   5.666   4.709   3.945  2.0194  1.4385  0.0848
21150SOL     OW64890   6.247   7.188   2.177  0.4075  0.3213 -0.2152
21150SOL    HW164891   6.292   7.119   2.128  0.8140 -0.3794  1.0841
21150SOL    HW264892   6.156   7.161   2.178  0.5973 -0.3332  0.4687
21151SOL     OW64893   5.501   4.087   2.573  0.1915 -0.1403  0.1568
21151SOL    HW164894   5.559   4.059   2.502 -0.3204  0.7769 -0.6361
21151SOL    HW264895   5.433   4.019   2.576  0.2467 -0.2141 -0.1822
21152SOL     OW64896   6.450   3.532   2.890  0.2092 -0.4574  0.4004
21152SOL    HW164897   6.497   3.454   2.863 -0.0326 -0.1988 -0.8257
21152SOL    HW264898   6.517   3.599   2.903  0.4773 -1.0013  2.0532
21153SOL     OW64899   6.356   4.620   2.146 -0.3232 -0.1896 -0.0579
21153SOL    HW164900   6.296   4.561   2.102 -0.4089 -0.1751  0.0393
21153SOL    HW264901   6.365   4.584   2.234  0.9226 -1.0156 -0.4835
21154SOL     OW64902   7.687   5.240   2.202  0.1839  0.0552 -0.1602
21154SOL    HW164903   7.604   5.199   2.229  0.5207 -0.3902  0.2034
21154SOL    HW264904   7.750   5.168   2.201  0.6051  0.4277 -0.2828
21155SOL     OW64905   6.439   4.848   3.218  0.2994 -0.3513 -0.2713
21155SOL    HW164906   6.388   4.929   3.224  1.6537  0.4572  1.0636
21155SOL    HW264907   6.400   4.790   3.283  1.5408  0.5806  1.3804
21156SOL     OW64908   4.880   5.637   4.080  0.8637 -0.5700 -0.0176
21156SOL    HW164909   4.831   5.614   4.001 -1.4141 -1.4673  1.5397
21156SOL    HW264910   4.957   5.580   4.077  0.5527 -0.9684 -1.3174
21157SOL     OW64911   7.033   4.803   1.047  0.2634  0.3047 -0.2865
21157SOL    HW164912   7.127   4.818   1.034  0.4788 -0.9358 -0.2929
21157SOL    HW264913   6.994   4.818   0.961  0.4526  0.7901 -0.2924
21158SOL     OW64914   5.068   3.945   1.686 -0.2580 -0.3243 -0.5590
21158SOL    HW164915   4.996   3.969   1.745 -2.1782 -1.0650 -2.4443
21158SOL    HW264916   5.110   4.029   1.665 -1.5563  0.3415 -0.6024
21159SOL     OW64917   6.276   4.568   5.148 -0.0189  0.2186 -0.0469
21159SOL    HW164918   6.287   4.548   5.055 -1.1801 -0.7058  0.0013
21159SOL    HW264919   6.361   4.551   5.187  0.4361  0.4749 -0.9075
21160SOL     OW64920   4.917   3.043   2.677 -0.5273 -0.1868  0.7197
21160SOL    HW164921   4.930   3.117   2.737  2.3561  0.1979 -0.2608
21160SOL    HW264922   4.982   2.978   2.703  0.1854 -0.3842 -1.3734
21161SOL     OW64923   6.805   4.758   2.120 -0.1035 -0.1825  0.2331
21161SOL    HW164924   6.721   4.801   2.136  0.0586 -0.1291  0.9630
21161SOL    HW264925   6.829   4.720   2.204 -0.6185 -2.4021 -0.5594
21162SOL     OW64926   6.081   4.576   4.583  0.2070 -0.2409 -0.3419
21162SOL    HW164927   6.070   4.497   4.529  1.9817  0.0518 -1.1916
21162SOL    HW264928   6.119   4.640   4.524 -1.4025  1.3722  0.2869
21163SOL     OW64929   6.469   5.001   2.706 -0.3397  0.5268  0.0935
21163SOL    HW164930   6.514   4.988   2.622  0.3584  2.8327  0.0272
21163SOL    HW264931   6.380   5.024   2.681 -0.0747  1.4339 -0.0570
21164SOL     OW64932   6.349   4.533   4.892  0.2176  0.2183  0.3060
21164SOL    HW164933   6.377   4.455   4.844  0.0340  0.2789  0.1001
21164SOL    HW264934   6.416   4.598   4.875  0.3592  0.1150  0.4576
21165SOL     OW64935   4.427   3.063   5.130  0.1863 -0.0665  0.4388
21165SOL    HW164936   4.332   3.057   5.120  0.1137 -1.7683  1.6965
21165SOL    HW264937   4.441   3.146   5.175 -0.4558  1.3651 -1.8259
21166SOL     OW64938   6.281   5.947   4.542 -0.3541 -0.2328  0.1528
21166SOL    HW164939   6.280   6.010   4.470  0.9818  3.3267  2.9482
21166SOL    HW264940   6.192   5.951   4.578  0.0417  1.0006  1.0251
21167SOL     OW64941   6.079   5.676   3.035  0.3920 -0.3106 -0.4380
21167SOL    HW164942   6.097   5.604   3.096  0.5474 -0.9959 -1.2729
21167SOL    HW264943   6.146   5.741   3.054  0.1801 -0.3247  0.4109
21168SOL     OW64944   6.449   3.781   2.718  0.2484 -0.1934 -0.5507
21168SOL    HW164945   6.475   3.771   2.810 -0.8196 -1.2465 -0.3450
21168SOL    HW264946   6.517   3.735   2.669 -0.2188 -1.3649 -0.1367
21169SOL     OW64947   5.963   2.575   2.047  0.2778  0.6383 -0.1599
21169SOL    HW164948   5.938   2.554   2.137 -1.1289 -1.0589 -0.8853
21169SOL    HW264949   6.019   2.501   2.020 -1.8117 -0.5307 -1.6107
21170SOL     OW64950   6.059   4.402   3.187  0.2802  0.3065 -0.0238
21170SOL    HW164951   6.138   4.445   3.154 -0.0996  0.8702 -0.2042
21170SOL    HW264952   5.988   4.438   3.135 -0.0556 -0.5148 -0.1489
21171SOL     OW64953   6.256   7.722   3.117  0.0108  0.3052 -0.3369
21171SOL    HW164954   6.204   7.642   3.115 -1.6019  1.2917  0.3733
21171SOL    HW264955   6.256   7.749   3.209  2.1500  0.1383 -0.2414
21172SOL     OW64956   6.611   5.744   2.498  0.6342  0.0736  0.5752
21172SOL    HW164957   6.647   5.655   2.497 -2.4577 -1.2787  0.3318
21172SOL    HW264958   6.595   5.764   2.406  0.8079  0.6992  0.6753
21173SOL     OW64959   6.251   6.261   2.220  0.4741  0.0087  0.2445
21173SOL    HW164960   6.167   6.294   2.188  0.1118 -1.4400 -0.3995
21173SOL    HW264961   6.257   6.172   2.184  2.3047  0.0902  0.2647
21174SOL     OW64962   5.896   3.402   3.756  0.4325  0.0388  0.0232
21174SOL    HW164963   5.918   3.487   3.795  2.8829  0.0026 -1.0896
21174SOL    HW264964   5.934   3.406   3.668  1.3882 -2.5277  0.2462
21175SOL     OW64965   6.166   3.786   2.742 -0.0636 -0.2630 -0.1773
21175SOL    HW164966   6.261   3.769   2.747  0.1198  0.8903  0.4640
21175SOL    HW264967   6.149   3.849   2.811 -1.2578 -0.2045 -0.5056
21176SOL     OW64968   7.130   4.657   4.311 -0.0307  0.2215  0.0444
21176SOL    HW164969   7.134   4.584   4.372 -1.3829 -0.8537 -1.1112
21176SOL    HW264970   7.051   4.643   4.260  1.0934  1.0136 -2.0513
21177SOL     OW64971   5.366   4.885   2.661 -0.2769 -0.1636  0.0029
21177SOL    HW164972   5.419   4.810   2.636  0.6384  0.2067  0.7717
21177SOL    HW264973   5.280   4.867   2.624  0.3370 -0.8548 -1.1256
21178SOL     OW64974   6.075   5.803   4.071 -0.2540  0.3721 -0.2475
21178SOL    HW164975   6.059   5.810   3.977  0.1679  3.6122 -0.2013
21178SOL    HW264976   6.049   5.888   4.106  1.5454  0.0200  2.2411
21179SOL     OW64977   6.630   6.972   4.055 -0.1504 -0.7237 -0.2793
21179SOL    HW164978   6.626   6.948   4.147  0.1447 -1.1954 -0.3856
21179SOL    HW264979   6.720   7.001   4.041 -0.9461  2.3439  0.2875
21180SOL     OW64980   7.655   3.089   4.205 -0.3489  0.1585  0.0565
21180SOL    HW164981   7.722   3.029   4.172 -0.8833 -0.7278  0.5359
21180SOL    HW264982   7.584   3.032   4.233 -0.1525  0.8839  2.2179
21181SOL     OW64983   5.927   4.576   2.697 -0.5577 -0.0617  0.2960
21181SOL    HW164984   5.847   4.538   2.734 -0.7774 -0.3415 -0.4541
21181SOL    HW264985   5.994   4.557   2.762 -0.7640 -1.2978  0.1799
21182SOL     OW64986   6.510   7.623   3.591 -0.4425 -0.1197 -0.4078
21182SOL    HW164987   6.530   7.557   3.525 -0.4280 -2.0797  1.4601
21182SOL    HW264988   6.549   7.589   3.671 -0.6704  2.0608  0.7040
21183SOL     OW64989   5.905   3.266   5.167 -0.1965  0.2387 -0.2493
21183SOL    HW164990   5.835   3.272   5.233  1.0463 -1.2926  1.2909
21183SOL    HW264991   5.961   3.196   5.198  1.3664  0.5880 -2.1158
21184SOL     OW64992   6.106   5.981   1.605  0.0575 -0.1311  0.3791
21184SOL    HW164993   6.066   6.004   1.521 -1.0742  0.4375  1.0487
21184SOL    HW264994   6.132   5.890   1.594  1.3888  0.3892 -1.1180
21185SOL     OW64995   7.757   5.883   3.152  0.5839 -0.4147 -0.1910
21185SOL    HW164996   7.671   5.878   3.111  1.1855 -0.6735 -1.4618
21185SOL    HW264997   7.786   5.973   3.134  0.9475 -0.6004 -0.5392
21186SOL     OW64998   5.583   2.626   1.504 -0.1755 -0.6471 -0.0155
21186SOL    HW164999   5.624   2.619   1.590  0.4251  1.8302 -0.0485
21186SOL    HW265000   5.612   2.547   1.458 -1.6843 -2.7875  2.4503
21187SOL     OW65001   6.556   5.712   2.205  0.1806 -0.1792  0.0296
21187SOL    HW165002   6.606   5.630   2.204  0.3479 -0.1005  0.8876
21187SOL    HW265003   6.465   5.685   2.197  0.1100 -0.5849  1.7352
21188SOL     OW65004   7.472   7.496   3.244  0.2642  0.1319 -0.0237
21188SOL    HW165005   7.398   7.533   3.195 -1.5850  1.1581  3.1928
21188SOL    HW265006   7.472   7.403   3.222 -2.2298  0.0428  0.0758
21189SOL     OW65007   7.255   4.168   1.842 -0.0722 -0.0585  0.0524
21189SOL    HW165008   7.310   4.145   1.916  0.0000  0.3508  0.1296
21189SOL    HW265009   7.316   4.198   1.774  0.1723 -3.3097 -1.3440
21190SOL     OW65010   6.312   4.484   1.830  0.5478  0.0675 -0.2981
21190SOL    HW165011   6.320   4.449   1.741 -0.1949  0.8743 -0.6930
21190SOL    HW265012   6.402   4.480   1.865  0.8133 -0.4211 -1.0115
21191SOL     OW65013   7.236   2.577   2.424 -0.4027  0.2954  0.0658
21191SOL    HW165014   7.217   2.494   2.380 -2.6734  0.6581  0.2203
21191SOL    HW265015   7.149   2.615   2.441  0.4482  1.2483  2.7981
21192SOL     OW65016   6.493   5.901   2.908 -0.0801 -0.1988  0.3616
21192SOL    HW165017   6.555   5.936   2.972  0.7264  0.8601 -0.9446
21192SOL    HW265018   6.410   5.942   2.930  0.4707  1.1674 -0.0288
21193SOL     OW65019   6.986   6.097   2.089  0.3408  0.0631  0.1133
21193SOL    HW165020   7.068   6.052   2.069 -0.0726 -0.2782 -0.8620
21193SOL    HW265021   6.918   6.041   2.052 -0.2119  1.2843 -0.7958
21194SOL     OW65022   5.478   3.886   3.572 -0.3956 -0.2484 -0.3307
21194SOL    HW165023   5.469   3.838   3.490 -1.2226 -1.6323  0.5444
21194SOL    HW265024   5.458   3.977   3.549 -0.8259 -0.6513 -1.6172
21195SOL     OW65025   6.066   4.697   5.011  0.0859  0.7113 -0.3217
21195SOL    HW165026   6.068   4.609   4.974 -1.9823 -0.0996  1.2547
21195SOL    HW265027   6.107   4.688   5.097 -0.5495  1.1389  0.0430
21196SOL     OW65028   4.688   2.947   5.211  0.2590  0.5914  0.0357
21196SOL    HW165029   4.619   3.005   5.178 -0.5810 -0.7433 -0.6379
21196SOL    HW265030   4.692   2.965   5.305 -0.2305  1.4808 -0.1010
21197SOL     OW65031   6.714   7.243   5.961 -0.0499  0.0289  0.0100
21197SOL    HW165032   6.622   7.236   5.988 -0.4959 -0.2582 -1.4806
21197SOL    HW265033   6.732   7.337   5.961  0.1232  0.0194  1.7262
21198SOL     OW65034   5.698   6.015   3.879 -0.4439 -0.0296 -0.4243
21198SOL    HW165035   5.658   5.939   3.921  2.2669 -0.8517  0.9065
21198SOL    HW265036   5.733   6.067   3.951 -0.7095  1.5742 -1.4171
21199SOL     OW65037   7.037   5.465   3.837 -0.5914  0.6221  0.2721
21199SOL    HW165038   7.093   5.430   3.906 -1.5477  0.8259  1.1820
21199SOL    HW265039   7.078   5.548   3.813  2.3415 -1.4224 -2.7077
21200SOL     OW65040   6.588   3.917   4.940 -0.1884  0.0731  0.0353
21200SOL    HW165041   6.566   3.975   5.012 -1.4407 -0.3574  0.0246
21200SOL    HW265042   6.638   3.972   4.879 -0.3966  0.8371  0.5423
21201SOL     OW65043   6.898   4.901   4.310  0.3813  0.5480  0.6253
21201SOL    HW165044   6.905   4.996   4.314 -0.5086  0.5884  1.5989
21201SOL    HW265045   6.977   4.869   4.355  1.2959  0.7784 -0.7360
21202SOL     OW65046   7.101   5.286   6.932 -0.5676  0.1302  0.0289
21202SOL    HW165047   7.056   5.272   7.016 -0.3342 -1.6485 -0.0999
21202SOL    HW265048   7.050   5.354   6.888 -1.7949 -0.2305  0.8447
21203SOL     OW65049   0.150   4.693   4.300 -0.0360  0.1262 -0.4408
21203SOL    HW165050   0.210   4.633   4.345  0.2475  0.3004 -0.5856
21203SOL    HW265051   0.160   4.776   4.346  0.0039  0.2159 -0.6094
21204SOL     OW65052   6.986   3.793   6.187  0.1532 -0.4421  0.1981
21204SOL    HW165053   7.002   3.749   6.270  0.6523  0.2026  0.4524
21204SOL    HW265054   6.932   3.731   6.137 -0.1432 -0.8350  0.9890
21205SOL     OW65055   6.480   6.074   5.225 -0.3776  0.2642  0.0127
21205SOL    HW165056   6.399   6.047   5.269  0.2072 -1.1149  0.2902
21205SOL    HW265057   6.534   5.995   5.224  0.8637  1.0977 -0.4223
21206SOL     OW65058   6.404   5.506   6.239  0.0380  0.0940 -0.6256
21206SOL    HW165059   6.479   5.460   6.201  0.9720  0.3216  0.8468
21206SOL    HW265060   6.340   5.438   6.257  1.1103 -0.5827  0.8454
21207SOL     OW65061   4.905   6.031   5.608 -0.0507  0.1820 -0.8861
21207SOL    HW165062   4.837   5.998   5.666  0.2996 -0.2778 -0.7329
21207SOL    HW265063   4.986   6.021   5.658  0.1641  0.4607 -1.1744
21208SOL     OW65064   0.028   6.052   2.652 -0.4904 -0.3569 -0.3849
21208SOL    HW165065   0.057   6.128   2.602 -0.5371 -0.3038 -0.3322
21208SOL    HW265066  -0.013   5.995   2.587 -0.8458 -0.1397 -0.3531
21209SOL     OW65067   6.798   7.899   5.009  0.5673  0.1464  0.6848
21209SOL    HW165068   6.767   7.834   4.945  0.3570  1.8639 -1.0604
21209SOL    HW265069   6.882   7.864   5.038 -0.1007 -1.5101  0.7643
21210SOL     OW65070   7.795   5.514   5.157  0.6241 -0.4097  0.4477
21210SOL    HW165071   7.880   5.491   5.195  1.7036  1.0881 -0.9330
21210SOL    HW265072   7.811   5.595   5.110 -1.6838  0.1059  0.4346
21211SOL     OW65073   5.862   5.157   4.035  0.1452 -0.3264 -0.0146
21211SOL    HW165074   5.940   5.184   4.084 -0.9953  1.1756  1.0607
21211SOL    HW265075   5.847   5.067   4.064  0.6951 -0.1652  0.8312
21212SOL     OW65076   6.157   6.401   6.072  0.7211 -0.4227 -0.2219
21212SOL    HW165077   6.100   6.354   6.011  1.7102 -0.1160 -1.4407
21212SOL    HW265078   6.123   6.491   6.071 -0.4516 -0.8230  1.2069
21213SOL     OW65079   4.535   5.216   5.143 -0.2230 -0.2364 -0.0258
21213SOL    HW165080   4.626   5.194   5.124  0.3974  0.5870  1.7513
21213SOL    HW265081   4.509   5.152   5.210 -0.6279  0.1355  0.1770
21214SOL     OW65082   5.003   6.364   3.828  0.7466  0.8434  0.5288
21214SOL    HW165083   4.970   6.303   3.894 -0.9629  2.9977  1.7879
21214SOL    HW265084   5.098   6.356   3.834  0.5851 -1.5271  0.7512
21215SOL     OW65085   5.705   7.071   4.185  0.0607  0.5764 -0.3982
21215SOL    HW165086   5.636   7.065   4.119  0.7420 -0.0589 -1.0759
21215SOL    HW265087   5.776   7.016   4.151  1.5462  2.4670 -0.4974
21216SOL     OW65088   5.345   3.836   2.542  0.4981 -0.0369  0.3764
21216SOL    HW165089   5.311   3.780   2.612 -0.3947 -1.5648 -1.2018
21216SOL    HW265090   5.419   3.786   2.506 -0.6439 -0.5421 -1.4053
21217SOL     OW65091   0.587   4.753   3.143 -0.5017  0.1037  0.2803
21217SOL    HW165092   0.494   4.764   3.127 -0.4852  1.6187  1.0832
21217SOL    HW265093   0.629   4.782   3.061 -0.7535 -2.7961 -0.9829
21218SOL     OW65094   7.259   5.705   4.054  0.1215 -0.0288  0.2681
21218SOL    HW165095   7.233   5.615   4.034 -1.9040  0.7649 -0.9409
21218SOL    HW265096   7.309   5.734   3.977 -1.9878  0.8662 -0.8417
21219SOL     OW65097   7.251   5.079   3.160  0.8245 -0.3400 -0.3805
21219SOL    HW165098   7.261   5.090   3.255  0.2454  0.0037 -0.3514
21219SOL    HW265099   7.264   4.985   3.145 -1.1227 -0.7646  0.3297
21220SOL     OW65100   6.772   4.350   3.700 -0.5126  0.8044 -0.6696
21220SOL    HW165101   6.694   4.300   3.725  0.0479  0.8823  1.3449
21220SOL    HW265102   6.765   4.432   3.748  1.4476  0.2859  0.6033
21221SOL     OW65103   5.716   5.648   7.450  0.9515 -0.0527 -0.3754
21221SOL    HW165104   5.687   5.601   7.372 -0.2867 -1.1679  0.7147
21221SOL    HW265105   5.803   5.612   7.467  0.5125 -1.0979 -0.2529
21222SOL     OW65106   6.720   4.998   4.577 -0.3923  0.4266 -0.1299
21222SOL    HW165107   6.749   4.994   4.486  0.6184 -0.2247  0.2133
21222SOL    HW265108   6.706   5.092   4.593  1.7866  0.8143 -0.2494
21223SOL     OW65109   5.342   5.364   6.370  0.0867  0.7024  0.0336
21223SOL    HW165110   5.330   5.287   6.315 -0.6290  1.0041 -0.2521
21223SOL    HW265111   5.255   5.380   6.407  0.4468  0.7990  0.8608
21224SOL     OW65112   6.154   2.576   2.806 -0.4970 -0.1888  0.1432
21224SOL    HW165113   6.240   2.572   2.848  1.0645  1.4595 -2.6681
21224SOL    HW265114   6.103   2.636   2.861  0.3933 -0.5383  1.3862
21225SOL     OW65115   5.718   6.384   3.719  0.4096  0.0970 -0.2224
21225SOL    HW165116   5.813   6.395   3.712  0.7824 -1.9083  0.8169
21225SOL    HW265117   5.685   6.472   3.736  2.0072  0.9387 -1.2303
21226SOL     OW65118   6.440   3.621   3.648  0.6272  0.0962  0.0849
21226SOL    HW165119   6.490   3.702   3.655  1.3037  0.0014 -2.6016
21226SOL    HW265120   6.506   3.553   3.636 -0.0287 -0.2497 -1.8547
21227SOL     OW65121   5.737   3.341   3.987 -0.1096 -0.6408  0.2643
21227SOL    HW165122   5.807   3.339   3.921  0.4209  2.3735  0.5667
21227SOL    HW265123   5.659   3.368   3.939  0.0569  0.5882  0.6302
21228SOL     OW65124   4.826   5.029   7.138  0.1784  0.0039 -0.4280
21228SOL    HW165125   4.826   5.060   7.228 -0.4089 -0.8943 -0.0945
21228SOL    HW265126   4.741   5.057   7.103  0.0154 -0.4563 -0.4035
21229SOL     OW65127   6.881   5.467   1.156  0.4430 -0.4842  0.3967
21229SOL    HW165128   6.954   5.526   1.173 -0.2997 -0.1616  2.8052
21229SOL    HW265129   6.923   5.382   1.137  1.4455  0.1598 -0.3716
21230SOL     OW65130   0.225   5.598   3.260  0.0724  0.0872 -0.4361
21230SOL    HW165131   0.303   5.652   3.247  0.5665 -1.0570 -2.8824
21230SOL    HW265132   0.156   5.661   3.282  1.4560  1.2129  0.9752
21231SOL     OW65133   7.527   3.274   3.511  0.0066  0.2107  0.0839
21231SOL    HW165134   7.614   3.263   3.472  0.2120 -0.0443  0.6083
21231SOL    HW265135   7.537   3.245   3.601 -1.4880 -3.4626 -0.7634
21232SOL     OW65136   6.762   4.790   4.746  0.3168  0.1983 -0.0665
21232SOL    HW165137   6.835   4.813   4.803  0.0690 -0.2072  0.4256
21232SOL    HW265138   6.743   4.869   4.697  0.4441  0.5943  0.5166
21233SOL     OW65139   6.752   6.473   5.306 -0.1861  0.2773  0.1536
21233SOL    HW165140   6.766   6.557   5.263  1.7527 -0.2017 -0.2381
21233SOL    HW265141   6.668   6.442   5.271 -0.2002  1.3554 -0.8289
21234SOL     OW65142   6.287   5.962   5.385  0.6366  0.2234  0.6179
21234SOL    HW165143   6.339   5.954   5.465 -1.2700  0.0224  1.9209
21234SOL    HW265144   6.206   5.915   5.405  0.2928 -0.2630 -1.6471
21235SOL     OW65145   5.910   6.009   6.077 -0.4233  0.5993 -0.1222
21235SOL    HW165146   5.935   5.929   6.030 -1.5565 -0.1439  0.4803
21235SOL    HW265147   5.969   6.012   6.152  0.2146  0.8211 -0.6286
21236SOL     OW65148   5.755   4.418   5.077 -0.2262 -0.1482  0.3561
21236SOL    HW165149   5.706   4.355   5.129  0.4699 -0.6330  0.4353
21236SOL    HW265150   5.845   4.385   5.077 -0.0656  0.2527 -0.5119
21237SOL     OW65151   6.618   2.963   3.779  0.4051  0.1895  0.3862
21237SOL    HW165152   6.565   2.989   3.855 -0.0927  0.6954 -0.1252
21237SOL    HW265153   6.703   3.003   3.795 -0.0465  1.2999  0.1172
21238SOL     OW65154   6.266   4.546   5.479  0.1145 -0.5769  0.5892
21238SOL    HW165155   6.250   4.472   5.420  0.6830 -1.1040  1.0806
21238SOL    HW265156   6.357   4.570   5.464 -0.1002  0.0943  0.3570
21239SOL     OW65157   4.702   6.416   6.706  0.5324 -0.4267  0.0752
21239SOL    HW165158   4.639   6.372   6.648  1.7836 -2.2519  0.0155
21239SOL    HW265159   4.649   6.477   6.758 -1.0068 -0.6787 -1.1345
21240SOL     OW65160   5.996   3.050   6.124  0.2064 -0.2245 -0.5700
21240SOL    HW165161   6.040   2.971   6.156  1.2547 -0.6297 -2.8326
21240SOL    HW265162   5.906   3.022   6.108 -0.2778 -0.0825  1.5899
21241SOL     OW65163   4.737   3.071   4.672  0.6318 -0.2617  0.2217
21241SOL    HW165164   4.731   3.150   4.725 -0.5520  1.2864 -2.0660
21241SOL    HW265165   4.646   3.052   4.647  1.0622 -1.4523 -0.5359
21242SOL     OW65166   7.614   5.627   6.911  0.0784  0.3541  0.1651
21242SOL    HW165167   7.680   5.569   6.948 -0.2487 -0.8816 -1.1189
21242SOL    HW265168   7.534   5.575   6.909  0.0434  0.3750 -2.1088
21243SOL     OW65169   7.689   6.335   4.810 -0.2220  0.8873 -0.2534
21243SOL    HW165170   7.753   6.265   4.803 -1.2737 -0.0219 -1.1429
21243SOL    HW265171   7.611   6.301   4.767 -1.7209  1.4831  1.7984
21244SOL     OW65172   4.475   4.764   4.495 -0.3710  0.1609 -0.0182
21244SOL    HW165173   4.468   4.685   4.548 -0.5195 -0.4511 -0.9451
21244SOL    HW265174   4.451   4.737   4.407 -0.7437  1.3125 -0.2879
21245SOL     OW65175   7.654   5.551   4.763  0.1579 -0.2362 -0.1978
21245SOL    HW165176   7.672   5.639   4.795 -0.0615  0.0717 -0.9059
21245SOL    HW265177   7.715   5.495   4.812 -0.5701  0.1225  1.1888
21246SOL     OW65178   6.551   5.625   4.221 -0.1361  0.1021  0.2155
21246SOL    HW165179   6.599   5.672   4.153 -0.9209  0.6897  0.0630
21246SOL    HW265180   6.473   5.678   4.237 -0.7511 -0.8511  0.4437
21247SOL     OW65181   6.546   4.613   3.092  0.2482  0.8132 -0.1896
21247SOL    HW165182   6.534   4.570   3.177  1.2601  1.6147  0.3834
21247SOL    HW265183   6.508   4.700   3.104 -0.8596  0.4578 -1.0106
21248SOL     OW65184   7.376   5.294   4.256  0.3057 -0.0873 -0.3419
21248SOL    HW165185   7.395   5.387   4.270  0.0721 -0.3063  1.7370
21248SOL    HW265186   7.455   5.249   4.285  0.2465 -0.5725 -0.9196
21249SOL     OW65187   5.745   5.287   4.707 -0.0717  0.0183 -0.1246
21249SOL    HW165188   5.689   5.360   4.682 -0.6172 -1.2487 -2.9376
21249SOL    HW265189   5.733   5.279   4.802 -0.5990  3.0123  0.1552
21250SOL     OW65190   6.068   4.112   3.753 -0.6991  0.7395  0.0590
21250SOL    HW165191   6.065   4.016   3.756  1.7276  0.5080 -1.9709
21250SOL    HW265192   6.050   4.139   3.843  0.4344 -1.7138  1.1075
21251SOL     OW65193   4.883   4.974   5.343 -0.3283  0.6679  0.8200
21251SOL    HW165194   4.790   4.953   5.334  0.0675 -0.6248 -0.7698
21251SOL    HW265195   4.918   4.907   5.402  0.0140 -0.3605 -0.4895
21252SOL     OW65196   6.713   6.274   3.176 -0.0317  0.3726  0.4256
21252SOL    HW165197   6.678   6.297   3.262  0.6241  1.8487  0.3117
21252SOL    HW265198   6.657   6.320   3.114  0.5216  0.6503  0.1284
21253SOL     OW65199   5.339   3.952   6.250 -0.2414  0.5114 -0.1343
21253SOL    HW165200   5.268   4.014   6.233 -1.6655 -0.2423  2.4088
21253SOL    HW265201   5.384   3.989   6.326  0.1216 -0.5743  0.1873
21254SOL     OW65202   0.621   4.180   2.073  0.1252 -0.0612  0.5805
21254SOL    HW165203   0.624   4.128   2.154  1.7572  0.4938  0.9172
21254SOL    HW265204   0.617   4.115   2.003 -2.6197 -0.5507  1.0716
21255SOL     OW65205   5.339   6.125   5.583  1.4632 -0.5290 -0.2976
21255SOL    HW165206   5.298   6.064   5.644 -1.4581  0.3333 -1.2029
21255SOL    HW265207   5.296   6.106   5.499  1.6527  1.6547 -0.9357
21256SOL     OW65208   5.874   3.864   4.403 -0.9585 -0.0523  0.5542
21256SOL    HW165209   5.808   3.915   4.357 -1.2233 -1.2534 -0.4292
21256SOL    HW265210   5.946   3.854   4.341  1.3673  3.3267  2.3785
21257SOL     OW65211   6.312   6.162   6.113  0.2120 -0.3435 -0.4061
21257SOL    HW165212   6.250   6.234   6.100  0.7231 -0.1512 -2.0205
21257SOL    HW265213   6.388   6.203   6.154  0.2750 -0.0668 -0.7952
21258SOL     OW65214   5.742   5.786   5.043 -0.5896 -0.2010  0.1243
21258SOL    HW165215   5.757   5.766   4.950  0.6653 -0.7759  0.4387
21258SOL    HW265216   5.816   5.841   5.067 -0.8319 -0.1866  0.8416
21259SOL     OW65217   5.439   3.828   4.844  0.0250 -0.3772 -0.0646
21259SOL    HW165218   5.375   3.898   4.849 -1.0405 -1.4156  2.1913
21259SOL    HW265219   5.499   3.845   4.917  0.1565 -1.4110  0.0811
21260SOL     OW65220   4.389   2.228   5.969 -0.1988  0.1091 -0.4482
21260SOL    HW165221   4.334   2.303   5.947  0.9946  1.6593  1.4321
21260SOL    HW265222   4.332   2.172   6.022  0.0340  1.9532  1.9413
21261SOL     OW65223   7.272   2.542   3.849 -0.7836 -0.3284 -0.1542
21261SOL    HW165224   7.227   2.514   3.770  0.3022 -2.1692 -0.1538
21261SOL    HW265225   7.278   2.463   3.903 -0.6673  0.6758  1.3720
21262SOL     OW65226   5.878   4.034   6.723 -0.0657  0.0241  0.3071
21262SOL    HW165227   5.813   4.081   6.775 -0.4106  2.0989 -1.8314
21262SOL    HW265228   5.940   4.101   6.695  0.7889 -1.2179 -0.9580
21263SOL     OW65229   6.642   4.580   3.791 -0.0026 -0.2203 -0.0563
21263SOL    HW165230   6.621   4.572   3.884 -1.7740  0.3968 -0.3754
21263SOL    HW265231   6.611   4.667   3.766 -0.5445 -0.7815 -1.4559
21264SOL     OW65232   6.847   4.119   6.741  0.1578  0.3407  0.2134
21264SOL    HW165233   6.768   4.165   6.768 -0.3458 -0.6186  0.3943
21264SOL    HW265234   6.854   4.137   6.647 -2.4705 -2.6692 -0.7468
21265SOL     OW65235   7.376   5.461   5.285  0.0328 -0.6180 -0.1492
21265SOL    HW165236   7.341   5.518   5.216  0.7156 -0.6484 -0.5235
21265SOL    HW265237   7.339   5.497   5.366  0.1677  0.1474 -0.4135
21266SOL     OW65238   6.409   1.286   4.748  0.3958  0.2376  0.3740
21266SOL    HW165239   6.456   1.368   4.765  2.1346 -0.6779  0.1355
21266SOL    HW265240   6.340   1.310   4.686  0.2230  1.7013  1.0890
21267SOL     OW65241   6.485   4.827   4.571 -0.2330  0.9412  0.5508
21267SOL    HW165242   6.463   4.863   4.657  0.1051  2.6279 -0.0277
21267SOL    HW265243   6.563   4.876   4.545 -0.8114  1.0470 -1.0641
21268SOL     OW65244   5.992   3.883   3.972  0.2906 -0.3783 -0.1227
21268SOL    HW165245   6.045   3.853   3.898  0.9812  0.9584 -0.2042
21268SOL    HW265246   6.055   3.893   4.043  0.4935  2.5335 -0.5848
21269SOL     OW65247   4.938   4.078   4.041  0.4413 -0.3457  0.4264
21269SOL    HW165248   4.889   4.010   3.994  1.3702  0.0906 -1.2235
21269SOL    HW265249   5.007   4.030   4.087  0.3662 -0.6295  0.2469
21270SOL     OW65250   7.363   6.466   4.836 -0.0989  0.2883 -0.0404
21270SOL    HW165251   7.371   6.389   4.780  0.3622  0.1533  0.2095
21270SOL    HW265252   7.422   6.449   4.910 -2.6059 -0.7687  1.8911
21271SOL     OW65253   5.109   7.181   4.321  0.4390  0.3894  0.3280
21271SOL    HW165254   5.101   7.170   4.227 -1.1336 -1.4273  0.6205
21271SOL    HW265255   5.067   7.266   4.339 -0.7928 -0.0413 -0.4340
21272SOL     OW65256   7.067   5.945   4.726  0.7160 -0.1865  0.3441
21272SOL    HW165257   7.034   6.026   4.688  1.4480 -0.1527 -0.2661
21272SOL    HW265258   6.998   5.881   4.711 -0.0942  0.4376  1.3225
21273SOL     OW65259   6.658   5.370   4.269  0.0739  0.4595 -0.3426
21273SOL    HW165260   6.604   5.448   4.262  0.0578  0.5069  0.2790
21273SOL    HW265261   6.630   5.328   4.350  1.3219  0.7677  0.2840
21274SOL     OW65262   6.270   5.059   3.229  0.1802  0.3074 -0.2377
21274SOL    HW165263   6.200   5.093   3.173 -0.4950  1.0596  1.0216
21274SOL    HW265264   6.284   5.127   3.294  2.3525  0.3211 -0.6566
21275SOL     OW65265   6.878   2.957   5.894  0.4014 -0.4632  0.2375
21275SOL    HW165266   6.785   2.951   5.872  0.6889 -1.6290 -0.7680
21275SOL    HW265267   6.904   3.044   5.863  0.4787 -1.5431 -3.0864
21276SOL     OW65268   7.002   7.248   4.602 -0.9787  0.1520  0.2340
21276SOL    HW165269   7.069   7.296   4.650  0.3926 -0.7985 -0.6744
21276SOL    HW265270   6.951   7.204   4.670 -0.5532  0.7066  0.9226
21277SOL     OW65271   7.213   3.039   5.339 -0.2223  0.4978  0.4643
21277SOL    HW165272   7.296   2.993   5.350  0.1379  0.9799 -0.1975
21277SOL    HW265273   7.183   3.055   5.429 -0.9107 -1.9340  0.7484
21278SOL     OW65274   0.015   3.348   3.453 -0.0455 -0.2579 -0.2388
21278SOL    HW165275   0.083   3.408   3.481 -1.3782  1.4938 -0.6094
21278SOL    HW265276   0.058   3.291   3.389  0.9494  1.1450 -0.8705
21279SOL     OW65277   7.680   4.128   3.770  0.1121  0.3590  0.4277
21279SOL    HW165278   7.694   4.082   3.853  2.8588  0.7655  0.2625
21279SOL    HW265279   7.609   4.189   3.788 -1.6005 -1.8038  1.5015
21280SOL     OW65280   7.431   5.303   5.660  0.1917 -0.2679 -0.4993
21280SOL    HW165281   7.490   5.227   5.662 -0.3819 -0.7216  2.2248
21280SOL    HW265282   7.400   5.306   5.569  0.9611 -2.7241 -0.9183
21281SOL     OW65283   7.280   4.243   4.382 -0.0733  0.1971  0.0675
21281SOL    HW165284   7.294   4.198   4.465  1.9054  0.9158  0.1653
21281SOL    HW265285   7.239   4.326   4.406 -2.4126 -0.8367 -0.0033
21282SOL     OW65286   0.214   6.101   3.879  0.3081 -0.5472  0.2990
21282SOL    HW165287   0.231   6.167   3.945  0.2209 -0.8411  0.6187
21282SOL    HW265288   0.134   6.129   3.836  0.2287 -0.4883  0.4874
21283SOL     OW65289   5.987   5.952   5.100  0.7348  0.2146 -0.2471
21283SOL    HW165290   5.990   5.964   5.195  0.0467 -1.5857  0.0357
21283SOL    HW265291   6.075   5.922   5.077  1.0504  1.1350 -0.2630
21284SOL     OW65292   7.291   5.165   2.669  0.9037  0.0725  0.2046
21284SOL    HW165293   7.211   5.200   2.710 -1.3433 -2.9332 -1.2251
21284SOL    HW265294   7.318   5.233   2.607 -3.5355 -0.5242 -2.8674
21285SOL     OW65295   5.717   3.479   5.786  0.0858 -0.9866  0.3540
21285SOL    HW165296   5.662   3.506   5.712 -0.9081  0.2122  1.4994
21285SOL    HW265297   5.764   3.402   5.753 -0.8043 -0.8700 -1.3119
21286SOL     OW65298   7.736   7.023   3.688  0.4865  0.8397 -0.5842
21286SOL    HW165299   7.670   7.021   3.758  3.2475  0.1628  2.2241
21286SOL    HW265300   7.722   6.941   3.641  0.0936  0.0924  0.7692
21287SOL     OW65301   6.753   5.034   5.029  0.1060  0.1393 -0.5895
21287SOL    HW165302   6.836   4.998   4.998  1.1422  0.1577  1.9373
21287SOL    HW265303   6.749   5.121   4.990  1.2467  0.1033 -0.8285
21288SOL     OW65304   5.955   5.342   6.833 -0.0155 -0.1751  0.2129
21288SOL    HW165305   5.877   5.316   6.784 -0.7868  0.9165  0.8258
21288SOL    HW265306   5.945   5.300   6.918  0.8538 -1.3023 -0.2297
21289SOL     OW65307   0.635   5.341   3.670  0.4213 -0.2766  0.1092
21289SOL    HW165308   0.646   5.387   3.587 -0.4382  0.5445  0.4281
21289SOL    HW265309   0.721   5.304   3.689  0.7576 -0.0155 -0.8788
21290SOL     OW65310   6.920   5.167   4.331 -0.1130 -0.4539  0.2653
21290SOL    HW165311   7.001   5.217   4.346 -0.9728  0.6780  1.3316
21290SOL    HW265312   6.906   5.172   4.236  0.9997 -0.5829  0.0786
21291SOL     OW65313   6.939   4.946   5.331  0.1579  0.1908 -0.1734
21291SOL    HW165314   6.963   5.013   5.268 -0.5308  0.0669 -0.5811
21291SOL    HW265315   6.942   4.864   5.282  1.3158 -0.1310  0.4021
21292SOL     OW65316   5.444   5.175   4.780  0.1619  0.2547 -0.2406
21292SOL    HW165317   5.398   5.120   4.843 -0.2111 -0.7554 -1.3646
21292SOL    HW265318   5.522   5.206   4.828  0.8999 -2.0282  0.1589
21293SOL     OW65319   5.608   5.652   5.234  0.7539  0.4309 -0.6769
21293SOL    HW165320   5.660   5.696   5.166 -0.8468  0.8385 -1.7008
21293SOL    HW265321   5.556   5.588   5.186 -0.6357  0.9327  0.1107
21294SOL     OW65322   7.252   3.123   4.218  0.1171  0.5065 -0.1608
21294SOL    HW165323   7.168   3.164   4.236  0.2462  0.3078  0.9748
21294SOL    HW265324   7.311   3.159   4.284  0.9176  0.5880 -0.8939
21295SOL     OW65325   5.663   5.981   5.621  0.3890  0.1136  0.1957
21295SOL    HW165326   5.680   6.056   5.677  0.3297  0.7128 -0.5653
21295SOL    HW265327   5.749   5.948   5.598  0.4442  0.5640 -0.2647
21296SOL     OW65328   6.149   3.629   6.068 -0.1549  0.6894 -0.6549
21296SOL    HW165329   6.198   3.548   6.077 -1.9502 -0.3452  0.2985
21296SOL    HW265330   6.097   3.617   5.988 -1.5688  0.2234  0.3029
21297SOL     OW65331   6.439   5.894   6.553 -0.8158 -0.2125 -0.0046
21297SOL    HW165332   6.408   5.808   6.523 -0.7598 -0.3048  0.2062
21297SOL    HW265333   6.533   5.892   6.537 -0.3248 -1.2453  2.5432
21298SOL     OW65334   5.017   3.978   2.161  0.7644  0.5101  0.0820
21298SOL    HW165335   4.953   4.048   2.162 -1.1086 -1.0948 -1.0105
21298SOL    HW265336   5.042   3.966   2.253  0.0113  1.6057  0.4408
21299SOL     OW65337   5.426   4.429   4.634  0.5555  0.5070  0.2365
21299SOL    HW165338   5.406   4.472   4.717  2.6429  0.5289  0.7857
21299SOL    HW265339   5.429   4.336   4.656  2.2640  0.5965  0.4869
21300SOL     OW65340   7.528   6.362   3.997  0.1003  0.0687 -0.8287
21300SOL    HW165341   7.506   6.338   4.087 -0.7771 -0.7555 -1.2453
21300SOL    HW265342   7.560   6.452   4.004 -0.1130  0.0802  0.2820
21301SOL     OW65343   7.497   4.850   5.365  0.2158 -0.1673 -0.8462
21301SOL    HW165344   7.468   4.848   5.274 -0.0428  3.7764 -1.0557
21301SOL    HW265345   7.435   4.910   5.408  0.9887 -1.0595  1.6819
21302SOL     OW65346   0.285   3.606   3.852  0.1419 -0.2920  0.6397
21302SOL    HW165347   0.270   3.610   3.947  0.5480 -0.0249  0.6950
21302SOL    HW265348   0.256   3.691   3.820 -0.2859 -0.4966  0.4788
21303SOL     OW65349   7.107   4.444   6.942 -0.2578 -0.4235 -0.3091
21303SOL    HW165350   7.029   4.482   6.984  0.7774 -0.9652  2.3311
21303SOL    HW265351   7.123   4.500   6.866 -1.1751  1.9068  1.0949
21304SOL     OW65352   6.168   3.759   6.490 -0.2330  0.5906 -0.8395
21304SOL    HW165353   6.155   3.704   6.567  0.5275  1.2178 -0.2339
21304SOL    HW265354   6.263   3.769   6.483 -0.3539  2.6633 -0.2913
21305SOL     OW65355   7.227   5.492   5.537  0.6205  0.3275 -0.0407
21305SOL    HW165356   7.133   5.510   5.534  0.4793 -0.2704  0.6063
21305SOL    HW265357   7.254   5.518   5.625  1.0205  0.2881 -0.1486
21306SOL     OW65358   5.523   4.298   6.086 -0.4806  0.4994  0.0673
21306SOL    HW165359   5.505   4.323   6.177 -1.1450  0.0158  0.0780
21306SOL    HW265360   5.438   4.303   6.042  0.0726  2.1126 -0.8898
21307SOL     OW65361   6.100   2.716   6.221 -0.1873 -0.2494  0.1070
21307SOL    HW165362   6.173   2.664   6.186 -0.6099 -1.1041  0.4785
21307SOL    HW265363   6.127   2.737   6.311  1.4381  2.9503 -0.9779
21308SOL     OW65364   7.779   4.784   5.561 -0.2521 -0.4575 -0.0420
21308SOL    HW165365   7.727   4.825   5.630 -0.6977  0.9212 -1.1518
21308SOL    HW265366   7.724   4.713   5.528 -1.7747  1.3080 -1.5645
21309SOL     OW65367   6.459   5.232   6.336 -0.3805 -0.3582  0.0594
21309SOL    HW165368   6.468   5.141   6.365 -2.6027 -0.2508  1.3282
21309SOL    HW265369   6.502   5.283   6.404  0.9737 -0.4409 -0.7149
21310SOL     OW65370   7.487   3.561   3.156 -0.3775  0.0896 -0.2227
21310SOL    HW165371   7.436   3.633   3.118  1.8931  2.4873  0.8937
21310SOL    HW265372   7.437   3.533   3.232 -1.0254  0.9121 -0.3337
21311SOL     OW65373   4.541   4.750   5.759 -0.3796  0.0498 -0.4218
21311SOL    HW165374   4.532   4.775   5.667  1.0800 -0.7860 -0.8267
21311SOL    HW265375   4.514   4.658   5.762  0.9430 -0.3540 -0.3169
21312SOL     OW65376   5.269   6.276   3.834 -0.3133 -0.3216 -0.5231
21312SOL    HW165377   5.346   6.309   3.881 -1.8316  0.0356  1.8968
21312SOL    HW265378   5.274   6.181   3.843  0.4807 -0.3854 -1.4971
21313SOL     OW65379   7.130   5.712   3.751  0.3254  0.2929 -0.2708
21313SOL    HW165380   7.036   5.727   3.755  0.1129 -0.9847 -0.1859
21313SOL    HW265381   7.165   5.790   3.708 -0.9668 -0.0380 -2.0002
21314SOL     OW65382   6.663   4.047   5.594  0.5645 -0.1716  0.1550
21314SOL    HW165383   6.574   4.055   5.561  0.8409 -0.1325 -0.5979
21314SOL    HW265384   6.708   4.125   5.561  1.2806 -0.9689 -0.8152
21315SOL     OW65385   5.790   4.151   5.968  0.3305  0.1267 -0.7459
21315SOL    HW165386   5.721   4.160   5.903 -0.3166  0.1606 -0.0763
21315SOL    HW265387   5.745   4.114   6.045  0.6504  1.8658  0.3346
21316SOL     OW65388   0.371   4.362   3.618 -0.1137  0.0272  0.1408
21316SOL    HW165389   0.407   4.312   3.691 -0.3089 -0.5916 -0.1792
21316SOL    HW265390   0.326   4.436   3.660  1.2947  0.6831  0.5515
21317SOL     OW65391   6.205   5.456   5.824 -0.4737  0.2359 -0.0924
21317SOL    HW165392   6.181   5.367   5.850 -0.1721  0.5954  1.5706
21317SOL    HW265393   6.148   5.512   5.877  0.5699  1.0343  0.2185
21318SOL     OW65394   6.775   5.154   6.587 -0.3157 -0.3260 -0.4266
21318SOL    HW165395   6.755   5.061   6.594  1.8806 -1.0090 -2.0009
21318SOL    HW265396   6.866   5.161   6.616  0.4972  0.7902 -2.9802
21319SOL     OW65397   6.797   5.960   6.143  0.4139 -0.0221  0.0173
21319SOL    HW165398   6.808   6.030   6.078 -1.2290 -1.5158 -2.0535
21319SOL    HW265399   6.702   5.956   6.157  0.4270 -2.0216 -0.2031
21320SOL     OW65400   6.070   4.766   7.407 -0.3044 -0.2328 -0.6679
21320SOL    HW165401   6.105   4.711   7.476 -2.8743 -0.8733  0.2616
21320SOL    HW265402   6.119   4.742   7.328 -0.5576 -3.0621 -0.0668
21321SOL     OW65403   7.657   4.526   3.636 -0.0234  0.5551 -0.1518
21321SOL    HW165404   7.739   4.476   3.630 -0.0574  0.4781  0.0217
21321SOL    HW265405   7.611   4.507   3.554 -0.7727 -0.9963  0.5949
21322SOL     OW65406   5.879   4.797   3.216  0.0281  0.1893  0.3195
21322SOL    HW165407   5.907   4.882   3.184 -0.5546 -0.7477 -3.0475
21322SOL    HW265408   5.784   4.798   3.209  0.0061 -0.6992  0.3251
21323SOL     OW65409   4.991   3.978   5.544  0.0876  0.4744 -0.8280
21323SOL    HW165410   4.938   3.939   5.613  1.0250 -0.5258 -0.6376
21323SOL    HW265411   4.935   3.977   5.467 -0.3607 -0.0803 -0.5066
21324SOL     OW65412   5.994   2.879   4.615 -0.3351 -0.0855 -0.0511
21324SOL    HW165413   5.975   2.874   4.521  0.1314 -1.8073 -0.0930
21324SOL    HW265414   5.928   2.939   4.650 -1.0810 -0.1184 -1.3385
21325SOL     OW65415   5.131   6.018   5.348  0.3035  0.0907 -0.6526
21325SOL    HW165416   5.184   5.949   5.306  0.3999 -1.3247  1.6165
21325SOL    HW265417   5.042   5.982   5.350 -0.0597  0.9279 -1.2441
21326SOL     OW65418   6.634   4.777   5.929  0.1540  0.8259  0.2259
21326SOL    HW165419   6.613   4.827   5.850 -0.1993  0.6051  0.1802
21326SOL    HW265420   6.574   4.810   5.995 -0.8150 -0.2627 -0.0758
21327SOL     OW65421   5.973   6.002   5.379  0.1695  0.3507  0.6790
21327SOL    HW165422   5.953   5.928   5.435 -0.0491  0.8045  1.2085
21327SOL    HW265423   5.938   6.078   5.425 -0.3838  0.6894 -0.2635
21328SOL     OW65424   4.485   5.017   3.453 -0.3569  0.6287 -0.1828
21328SOL    HW165425   4.515   4.981   3.536  0.8033  1.4567 -0.2136
21328SOL    HW265426   4.390   5.012   3.457 -0.2826 -1.1241  0.3728
21329SOL     OW65427   5.853   5.650   4.191  0.0006  0.0005  0.2951
21329SOL    HW165428   5.802   5.642   4.110  0.1828 -1.3899  0.2933
21329SOL    HW265429   5.928   5.704   4.167 -0.2443  0.0792 -0.3114
21330SOL     OW65430   6.475   5.379   4.519  0.0841  0.0526  0.0305
21330SOL    HW165431   6.406   5.316   4.499  0.6521 -0.7634  0.5557
21330SOL    HW265432   6.431   5.463   4.523 -0.6254 -0.2491 -1.0900
21331SOL     OW65433   6.284   5.543   4.420 -0.1394  0.7709  0.1481
21331SOL    HW165434   6.212   5.562   4.480  0.7197  0.4291  1.3407
21331SOL    HW265435   6.275   5.607   4.349 -3.1132 -0.8347 -1.1296
21332SOL     OW65436   5.121   4.157   3.799  0.1270  0.2251  0.4461
21332SOL    HW165437   5.084   4.139   3.886  0.2682  0.5950  0.5867
21332SOL    HW265438   5.124   4.253   3.794 -0.2583  0.2118 -0.1311
21333SOL     OW65439   4.605   3.909   5.534  0.2203  0.9057  0.1490
21333SOL    HW165440   4.566   3.929   5.619  0.2489  1.2968  0.0741
21333SOL    HW265441   4.606   3.814   5.529 -2.7289  0.8135 -0.7452
21334SOL     OW65442   6.377   5.440   5.310 -0.4038 -0.0729  0.3176
21334SOL    HW165443   6.372   5.514   5.248 -2.2662 -0.1397  0.3272
21334SOL    HW265444   6.288   5.405   5.312 -0.2253 -0.5150  2.5197
21335SOL     OW65445   7.551   4.378   3.871 -0.3631  0.1654  0.6774
21335SOL    HW165446   7.535   4.428   3.951 -0.5362 -0.5626  1.1029
21335SOL    HW265447   7.585   4.443   3.809 -0.1646  0.7240  1.3574
21336SOL     OW65448   7.613   4.084   4.051 -0.0258 -0.0412 -0.0810
21336SOL    HW165449   7.539   4.087   4.111 -0.5661  0.8784 -0.7782
21336SOL    HW265450   7.657   4.168   4.062 -1.1425  0.8916 -2.1827
21337SOL     OW65451   6.059   6.342   6.325  0.0562  0.3871 -0.6335
21337SOL    HW165452   6.121   6.386   6.383 -0.4772 -1.1283  1.2163
21337SOL    HW265453   6.082   6.372   6.237  1.9306  1.5848  0.2004
21338SOL     OW65454   5.396   3.714   4.044  0.0305 -0.0379  0.7106
21338SOL    HW165455   5.325   3.694   4.105 -0.1793  0.1670  0.5316
21338SOL    HW265456   5.368   3.793   3.999  1.0466  0.9377  1.7153
21339SOL     OW65457   6.961   5.542   5.587 -0.0495 -0.1226  0.1888
21339SOL    HW165458   6.896   5.607   5.560  0.1625 -0.5347 -1.4588
21339SOL    HW265459   6.925   5.504   5.667 -0.2161  1.9303  1.1543
21340SOL     OW65460   5.824   4.323   3.830  0.0152 -0.0938  0.3309
21340SOL    HW165461   5.886   4.322   3.757 -1.0405 -0.3849 -0.5883
21340SOL    HW265462   5.804   4.231   3.846 -0.7030  0.0284  0.1510
21341SOL     OW65463   6.286   5.127   5.061 -0.2464  0.7132  0.4058
21341SOL    HW165464   6.222   5.182   5.016 -0.6460 -0.3006 -0.3104
21341SOL    HW265465   6.368   5.176   5.056 -0.7299  1.5376  0.3787
21342SOL     OW65466   7.041   3.270   4.266 -0.1341 -0.1214 -0.0887
21342SOL    HW165467   6.971   3.282   4.202 -0.7900  1.4276  0.8674
21342SOL    HW265468   7.030   3.342   4.328  1.1283 -0.9660  1.1837
21343SOL     OW65469   7.463   5.544   2.405 -0.5682  0.5166  0.0245
21343SOL    HW165470   7.449   5.517   2.314  0.8096  2.0346 -0.7002
21343SOL    HW265471   7.469   5.639   2.401  0.3973  0.5568  1.5660
21344SOL     OW65472   7.903   6.038   3.801 -0.0834 -0.1815  0.7016
21344SOL    HW165473   7.829   6.061   3.857  0.9931 -1.0025  2.5334
21344SOL    HW265474   7.926   5.949   3.826  0.7734 -0.4015 -0.7127
21345SOL     OW65475   5.275   5.713   6.808  0.4142  0.3216  0.3777
21345SOL    HW165476   5.292   5.618   6.803 -1.2956  0.0434 -0.8549
21345SOL    HW265477   5.337   5.744   6.875  2.7076 -1.2458 -0.8556
21346SOL     OW65478   5.972   6.446   3.651 -0.3777  0.1691 -0.6249
21346SOL    HW165479   6.045   6.448   3.714 -0.9364 -2.7399  0.3011
21346SOL    HW265480   5.996   6.377   3.590 -0.8661  1.4921 -2.3728
21347SOL     OW65481   6.312   4.120   3.997  0.2103  0.1692  0.1255
21347SOL    HW165482   6.360   4.199   4.022  0.2321  0.8240 -1.7961
21347SOL    HW265483   6.220   4.143   4.009  0.2468 -0.5126  2.1913
21348SOL     OW65484   6.907   3.455   4.416 -0.3178  0.1652 -0.1893
21348SOL    HW165485   6.874   3.513   4.347 -1.3819 -0.2478 -0.0412
21348SOL    HW265486   6.911   3.510   4.494  2.8459  1.2342 -0.9215
21349SOL     OW65487   5.962   4.302   5.536  0.0712 -0.6245 -0.0376
21349SOL    HW165488   5.869   4.299   5.555 -0.1200 -0.8885 -0.9547
21349SOL    HW265489   5.987   4.210   5.521  0.1726 -0.4279 -1.1404
21350SOL     OW65490   4.297   5.042   5.872 -0.0117  0.0591 -0.0602
21350SOL    HW165491   4.353   4.971   5.903  0.4599  0.1606 -0.6526
21350SOL    HW265492   4.217   4.999   5.843  0.0840 -0.1793  0.0251
21351SOL     OW65493   7.054   5.845   3.478  0.0782 -0.3057 -0.0016
21351SOL    HW165494   7.136   5.807   3.445  0.0836 -0.5544  0.2876
21351SOL    HW265495   7.012   5.773   3.525 -2.2803 -1.4394 -3.5113
21352SOL     OW65496   0.094   7.237   5.847 -0.2284  0.0439  0.4308
21352SOL    HW165497   0.044   7.280   5.777  0.0576  0.1029  0.2589
21352SOL    HW265498   0.040   7.248   5.925  0.5177  2.0698  0.7373
21353SOL     OW65499   7.095   5.490   2.068 -0.0276  0.1757 -0.5781
21353SOL    HW165500   7.081   5.423   2.135 -0.1179  1.0007  0.2429
21353SOL    HW265501   7.162   5.452   2.010 -1.0930 -1.1997 -0.9570
21354SOL     OW65502   5.486   5.205   6.068 -0.2503  0.1023 -0.4038
21354SOL    HW165503   5.402   5.177   6.030 -1.6090  2.8495  0.3325
21354SOL    HW265504   5.488   5.300   6.056  2.9735  0.0993 -0.7085
21355SOL     OW65505   7.153   3.375   3.485  0.0006  0.1317  0.2855
21355SOL    HW165506   7.167   3.331   3.569  1.2843 -1.1171 -0.5230
21355SOL    HW265507   7.241   3.401   3.458 -0.5607  1.7743 -0.0371
21356SOL     OW65508   5.921   3.686   5.084  0.0871 -0.6703 -0.2253
21356SOL    HW165509   5.850   3.713   5.024  0.3196  0.8076  0.1150
21356SOL    HW265510   5.951   3.603   5.049 -1.1042 -0.8039 -1.0120
21357SOL     OW65511   6.212   5.671   3.531  0.0145  0.7227  0.0128
21357SOL    HW165512   6.127   5.626   3.539  0.3225 -0.1407 -1.3457
21357SOL    HW265513   6.247   5.670   3.620  0.4094 -2.5853 -0.0606
21358SOL     OW65514   6.732   4.865   6.572  0.0982 -0.4047  0.4351
21358SOL    HW165515   6.703   4.773   6.568  0.3981 -0.4427 -2.4341
21358SOL    HW265516   6.821   4.864   6.539  0.2830  0.8787  0.8483
21359SOL     OW65517   6.143   2.913   4.888  0.7979  0.0239 -0.2051
21359SOL    HW165518   6.125   3.005   4.869 -1.0520 -0.4682 -1.1339
21359SOL    HW265519   6.099   2.865   4.818 -0.3419 -1.6341  1.5137
21360SOL     OW65520   7.104   6.791   3.824 -0.2125 -0.0897  0.2992
21360SOL    HW165521   7.104   6.812   3.731 -3.2613 -0.1812  0.1833
21360SOL    HW265522   7.122   6.874   3.868 -0.1196  0.2305 -0.3372
21361SOL     OW65523   5.967   5.252   5.244  0.0500 -0.7638  0.5192
21361SOL    HW165524   5.880   5.285   5.268  0.0820 -0.7170  0.5732
21361SOL    HW265525   5.957   5.157   5.240  0.3968 -0.9018  2.1890
21362SOL     OW65526   6.436   3.450   5.314 -0.1383  0.5801  0.3257
21362SOL    HW165527   6.430   3.542   5.339 -2.3080 -0.0265  2.3243
21362SOL    HW265528   6.349   3.428   5.280  0.2499 -0.8069  0.1544
21363SOL     OW65529   6.796   5.552   4.867 -0.1439 -0.6099 -0.1050
21363SOL    HW165530   6.701   5.560   4.873 -0.0146  0.9647  0.1822
21363SOL    HW265531   6.826   5.554   4.958  0.1815 -1.0649 -0.1967
21364SOL     OW65532   0.331   5.870   3.951  0.1795 -0.5579 -0.0485
21364SOL    HW165533   0.288   5.954   3.935 -0.3605 -0.5252  1.3681
21364SOL    HW265534   0.273   5.805   3.911  1.1149 -0.2222 -2.0489
21365SOL     OW65535   4.239   5.349   3.753  0.4376 -0.4910 -0.1074
21365SOL    HW165536   4.269   5.259   3.738 -1.2587 -0.8129 -2.0633
21365SOL    HW265537   4.239   5.359   3.848  1.9528 -2.0755  0.1092
21366SOL     OW65538   7.408   3.124   4.940  0.1096  0.0947 -0.0887
21366SOL    HW165539   7.365   3.084   4.864  0.3741 -0.0382 -0.1706
21366SOL    HW265540   7.414   3.217   4.918 -0.1377  0.1139 -0.0758
21367SOL     OW65541   6.092   3.833   4.731  0.4574 -0.6044 -0.2549
21367SOL    HW165542   6.015   3.854   4.784  0.6077 -1.0035  0.1272
21367SOL    HW265543   6.136   3.763   4.779  0.1453 -1.5717 -1.3281
21368SOL     OW65544   5.221   5.117   5.044  0.0440 -0.2035 -0.1995
21368SOL    HW165545   5.181   5.161   5.119  0.5681  0.8459 -0.5106
21368SOL    HW265546   5.168   5.038   5.031 -0.4694 -0.0479  0.8393
21369SOL     OW65547   5.981   1.345   6.215  0.3618 -0.4209 -1.0731
21369SOL    HW165548   5.886   1.351   6.210  0.4097  0.2574 -1.2986
21369SOL    HW265549   6.011   1.368   6.127  0.7908  1.0390 -0.5804
21370SOL     OW65550   5.899   4.765   4.352  0.3035 -0.3401  0.3923
21370SOL    HW165551   5.928   4.806   4.433  1.3142 -0.3314  0.0396
21370SOL    HW265552   5.979   4.757   4.299 -0.1122 -1.5253 -0.0874
21371SOL     OW65553   0.469   5.266   3.897 -0.0166 -0.3273 -0.9118
21371SOL    HW165554   0.529   5.235   3.830  0.3125 -0.8364 -0.4004
21371SOL    HW265555   0.460   5.191   3.957  0.4829  0.4260  0.1411
21372SOL     OW65556   6.765   5.262   4.872 -0.1001 -0.2170  0.0288
21372SOL    HW165557   6.803   5.349   4.881 -1.7294  0.5257  0.1116
21372SOL    HW265558   6.760   5.248   4.777  2.4113 -1.3076 -0.0175
21373SOL     OW65559   7.996   4.724   6.270 -0.3600  0.5282 -0.3045
21373SOL    HW165560   7.925   4.660   6.258 -0.1186  0.1536  0.2066
21373SOL    HW265561   7.967   4.777   6.344 -0.4896  0.9178 -0.6319
21374SOL     OW65562   7.258   5.423   4.919 -0.0880 -0.3156 -0.2249
21374SOL    HW165563   7.224   5.493   4.862 -1.8740 -2.5153 -2.0424
21374SOL    HW265564   7.219   5.442   5.005  2.2113  2.7454  0.3088
21375SOL     OW65565   7.248   5.789   5.346 -0.0875 -0.2816  0.0892
21375SOL    HW165566   7.307   5.774   5.420  1.4826  0.4767 -0.9679
21375SOL    HW265567   7.160   5.790   5.385  0.4416 -2.6630  1.5360
21376SOL     OW65568   5.853   4.589   7.052  0.2937 -0.1444 -0.1757
21376SOL    HW165569   5.764   4.606   7.021  0.7964  0.2249 -1.4647
21376SOL    HW265570   5.854   4.627   7.140 -0.0045  2.5327 -1.2198
21377SOL     OW65571   5.583   4.537   6.401 -0.2459 -0.0046 -0.1204
21377SOL    HW165572   5.656   4.476   6.395  0.8170  1.0625  1.2182
21377SOL    HW265573   5.604   4.606   6.339 -0.2373  0.1864  0.0939
21378SOL     OW65574   4.949   4.913   6.240  0.2105 -0.3498  0.8860
21378SOL    HW165575   4.933   4.886   6.150  1.7258  0.3689  0.3673
21378SOL    HW265576   4.980   4.833   6.284 -2.0695 -1.1026  1.2364
21379SOL     OW65577   0.320   3.042   1.615  0.3153  0.4593  0.6460
21379SOL    HW165578   0.243   3.094   1.592 -0.7908 -0.8769  1.2005
21379SOL    HW265579   0.372   3.039   1.534 -0.6427  0.6442  0.0081
21380SOL     OW65580   0.047   3.880   3.959 -0.1828 -0.3056 -0.0322
21380SOL    HW165581   0.030   3.929   3.879  0.8116  1.6108  0.8447
21380SOL    HW265582   0.021   3.940   4.029  1.1790 -0.9787  1.1023
21381SOL     OW65583   5.584   3.904   5.073 -0.5066 -0.1350  0.2006
21381SOL    HW165584   5.638   3.890   5.151 -0.8896  0.6292  0.6112
21381SOL    HW265585   5.494   3.903   5.106 -0.8218 -1.9360 -0.5506
21382SOL     OW65586   6.332   3.859   4.072 -0.2730  0.1986  0.3235
21382SOL    HW165587   6.268   3.814   4.126  0.6810  0.5015  1.7494
21382SOL    HW265588   6.298   3.948   4.061 -1.3766 -0.3777 -1.1661
21383SOL     OW65589   7.941   5.270   5.980 -0.0365  0.4854  0.5766
21383SOL    HW165590   7.908   5.301   6.064  0.7082 -1.6549  1.7290
21383SOL    HW265591   8.022   5.224   6.002  0.3065  0.1004 -1.3617
21384SOL     OW65592   6.448   5.628   2.951 -0.4629 -0.1755 -0.1896
21384SOL    HW165593   6.513   5.697   2.942  0.0343 -0.6759 -0.5324
21384SOL    HW265594   6.498   5.552   2.981 -0.9383 -0.4853 -0.1726
21385SOL     OW65595   5.594   5.005   4.592  0.3084 -0.1182  0.1631
21385SOL    HW165596   5.527   4.942   4.621 -0.8179  1.6256  1.6404
21385SOL    HW265597   5.584   5.079   4.653  2.8374  0.7001 -0.3199
21386SOL     OW65598   6.109   3.814   4.230  0.5924 -0.0584 -0.2817
21386SOL    HW165599   6.149   3.859   4.304  0.8398 -0.4636 -0.1651
21386SOL    HW265600   6.100   3.723   4.259 -1.3006  0.1973  0.0573
21387SOL     OW65601   6.605   4.461   4.303  0.0862 -0.2669  0.1004
21387SOL    HW165602   6.580   4.369   4.315 -1.8207  0.3281  1.2691
21387SOL    HW265603   6.560   4.506   4.375 -0.3802  1.7921 -1.4238
21388SOL     OW65604   6.661   3.606   3.194 -0.0818  0.1145  0.2552
21388SOL    HW165605   6.584   3.550   3.202 -1.0723  1.4009 -0.0581
21388SOL    HW265606   6.690   3.620   3.284 -0.4244 -0.0837  0.3960
21389SOL     OW65607   5.285   4.943   5.666  0.3463  0.1781  0.2263
21389SOL    HW165608   5.217   4.881   5.639  0.4387  0.5933 -0.9942
21389SOL    HW265609   5.347   4.945   5.593  1.2719  0.3929  1.0000
21390SOL     OW65610   5.321   6.424   5.613 -0.2432 -0.4037 -0.0270
21390SOL    HW165611   5.230   6.444   5.592 -0.2346  0.4705  0.7244
21390SOL    HW265612   5.324   6.328   5.617 -1.2773 -0.4290  0.5752
21391SOL     OW65613   7.423   5.752   5.822 -0.3862 -0.1172  0.2491
21391SOL    HW165614   7.367   5.674   5.824 -1.1937  0.4552  1.4485
21391SOL    HW265615   7.501   5.728   5.871 -1.7143  0.5456  2.8492
21392SOL     OW65616   0.562   4.434   4.614  0.2889  0.1041  0.3473
21392SOL    HW165617   0.483   4.462   4.660 -0.2058  0.7184 -0.8123
21392SOL    HW265618   0.619   4.510   4.616  0.6796 -0.1982  0.8081
21393SOL     OW65619   5.248   4.418   3.165  0.1526 -0.0997  0.3740
21393SOL    HW165620   5.193   4.397   3.241  0.0471  1.9041  0.9263
21393SOL    HW265621   5.192   4.402   3.089  0.0393 -1.5081  0.7384
21394SOL     OW65622   6.618   5.861   5.232 -0.2678  0.0504  0.0282
21394SOL    HW165623   6.655   5.821   5.154  0.2454  1.4358 -0.4727
21394SOL    HW265624   6.596   5.787   5.289 -0.8071 -1.0001 -1.4771
21395SOL     OW65625   5.452   3.683   5.797  0.6547  0.2193 -0.0336
21395SOL    HW165626   5.420   3.734   5.871  0.2916 -1.6103  1.1481
21395SOL    HW265627   5.375   3.638   5.763  1.1680 -0.6409 -0.1079
21396SOL     OW65628   5.995   6.050   4.165  0.2242  0.3614 -0.0982
21396SOL    HW165629   5.904   6.043   4.137  0.4435 -0.4541 -0.6455
21396SOL    HW265630   5.998   6.129   4.219 -1.3347 -0.9328  2.0116
21397SOL     OW65631   5.618   4.237   5.209 -0.2688 -0.0261  0.3803
21397SOL    HW165632   5.540   4.264   5.160 -0.0126  0.2891  0.1414
21397SOL    HW265633   5.586   4.170   5.269 -0.7949  0.3567  0.5381
21398SOL     OW65634   6.606   2.459   4.838  0.5283  0.6308 -0.7411
21398SOL    HW165635   6.648   2.535   4.879 -0.2709  0.2854  0.8013
21398SOL    HW265636   6.625   2.468   4.745  0.2662  2.8400 -0.6319
21399SOL     OW65637   7.145   5.191   2.941  0.4336  0.0975 -0.1470
21399SOL    HW165638   7.184   5.147   3.016  1.0853  0.9977  0.0716
21399SOL    HW265639   7.160   5.284   2.958 -0.2034  0.3596 -0.9601
21400SOL     OW65640   5.951   6.533   4.460 -0.0114 -0.3769  0.3523
21400SOL    HW165641   5.858   6.551   4.478 -0.2640 -1.4427  0.1891
21400SOL    HW265642   5.975   6.597   4.392 -0.6959 -0.2719  0.2030
21401SOL     OW65643   0.336   4.624   4.861  0.3579 -0.1603  0.2253
21401SOL    HW165644   0.296   4.557   4.917  0.7549 -0.9177 -0.3895
21401SOL    HW265645   0.278   4.630   4.785 -0.7706  1.6282  1.1547
21402SOL     OW65646   5.484   3.706   3.360 -0.6350 -0.1852 -0.0800
21402SOL    HW165647   5.432   3.668   3.289 -0.2873 -1.0249  0.1020
21402SOL    HW265648   5.546   3.764   3.316 -0.0814 -1.0889 -0.5256
21403SOL     OW65649   7.147   3.662   3.305  0.1606 -0.2316 -0.2478
21403SOL    HW165650   7.223   3.623   3.347  0.8105  1.1030 -0.1467
21403SOL    HW265651   7.178   3.690   3.219  0.6290  2.8870  0.8283
21404SOL     OW65652   6.479   5.071   4.335 -0.2599  0.0619  0.0471
21404SOL    HW165653   6.447   5.129   4.266 -0.1074  0.4032  0.2607
21404SOL    HW265654   6.410   5.073   4.401  0.2478  0.8946  0.5634
21405SOL     OW65655   5.470   5.344   4.256  0.1678 -0.2565 -0.0623
21405SOL    HW165656   5.557   5.327   4.221  0.7672  0.9033  0.7973
21405SOL    HW265657   5.480   5.424   4.308 -1.1265 -0.8114  1.1081
21406SOL     OW65658   5.050   4.977   6.991 -0.0862  0.1980  0.4255
21406SOL    HW165659   5.031   4.968   6.897 -0.9120  1.1095  0.4953
21406SOL    HW265660   4.969   5.009   7.029  0.5340  0.7421  1.3097
21407SOL     OW65661   5.567   3.598   6.591  0.2506 -0.7139 -0.2621
21407SOL    HW165662   5.604   3.539   6.525  1.0072  0.0408 -0.5282
21407SOL    HW265663   5.541   3.676   6.542  0.4096 -0.3215  0.2680
21408SOL     OW65664   5.977   5.093   6.654  0.0153  0.1024  0.6694
21408SOL    HW165665   5.969   5.080   6.748  2.7378  1.5138  1.2265
21408SOL    HW265666   6.070   5.077   6.636  0.0162  1.8923 -1.3619
21409SOL     OW65667   6.211   5.383   6.701  0.4058  0.6922 -0.0785
21409SOL    HW165668   6.162   5.402   6.621  1.1044  1.2045 -0.4006
21409SOL    HW265669   6.144   5.366   6.767 -0.1811  0.3176 -0.7539
21410SOL     OW65670   6.862   5.748   4.645  0.2172 -0.2338 -0.0931
21410SOL    HW165671   6.812   5.753   4.564  0.8636 -1.0212 -0.5531
21410SOL    HW265672   6.801   5.713   4.710  0.5996 -2.9195 -1.0590
21411SOL     OW65673   7.309   3.594   7.037  0.3348 -0.2144 -0.1369
21411SOL    HW165674   7.270   3.667   6.990  2.0043 -0.2181 -1.6889
21411SOL    HW265675   7.242   3.526   7.036 -0.5130  0.6087 -0.4748
21412SOL     OW65676   7.092   3.902   5.413  0.0307 -0.1084  0.0909
21412SOL    HW165677   7.107   3.994   5.432  1.2231 -0.3998  0.6914
21412SOL    HW265678   7.154   3.856   5.469 -0.2017 -1.2574 -0.5613
21413SOL     OW65679   7.317   6.219   7.382  0.4278 -0.1852  0.1807
21413SOL    HW165680   7.315   6.126   7.363 -1.9352 -0.0652 -0.4540
21413SOL    HW265681   7.226   6.242   7.402  0.6273  2.2752 -1.3111
21414SOL     OW65682   7.812   6.237   9.757  0.3350 -0.1543 -0.3207
21414SOL    HW165683   7.729   6.198   9.785  1.5191 -2.1096  0.7153
21414SOL    HW265684   7.787   6.315   9.708 -2.1222 -1.0111 -0.5555
21415SOL     OW65685   6.202   5.494   7.470  0.2667  0.3366  0.1544
21415SOL    HW165686   6.242   5.568   7.517  0.3581 -0.0327  0.6633
21415SOL    HW265687   6.262   5.421   7.486  0.1825  0.1545 -0.3634
21416SOL     OW65688   6.928   5.335   7.870 -0.0157  0.1586 -0.1282
21416SOL    HW165689   7.024   5.343   7.873  0.0918 -0.5558 -1.2116
21416SOL    HW265690   6.901   5.391   7.797 -0.4281  0.4039  0.2109
21417SOL     OW65691   4.873   5.413   7.137 -0.3894 -0.6232  0.3357
21417SOL    HW165692   4.795   5.446   7.181 -0.4215 -0.5632  0.2318
21417SOL    HW265693   4.846   5.399   7.046  0.4886  2.1643 -0.4418
21418SOL     OW65694   6.694   4.358   8.263 -0.4634 -0.1970 -0.0860
21418SOL    HW165695   6.690   4.354   8.358 -1.0696 -0.3916 -0.1146
21418SOL    HW265696   6.638   4.286   8.233  0.9896 -1.1745 -0.5905
21419SOL     OW65697   5.859   3.217   8.738 -0.0097 -0.0312 -0.1513
21419SOL    HW165698   5.847   3.289   8.676  0.3682  1.0899  1.0321
21419SOL    HW265699   5.889   3.144   8.684 -0.6710  0.6038 -1.4253
21420SOL     OW65700   7.520   4.334   6.010  0.1728 -0.8274 -0.1555
21420SOL    HW165701   7.441   4.283   5.994 -0.6175 -0.0301  1.0300
21420SOL    HW265702   7.570   4.281   6.073 -0.4591 -0.3636  0.7635
21421SOL     OW65703   5.335   4.750   6.055 -0.0976 -0.1038 -0.2732
21421SOL    HW165704   5.283   4.685   6.101  1.3498 -0.1435  1.3865
21421SOL    HW265705   5.279   4.778   5.982 -2.5162  0.0435  1.5321
21422SOL     OW65706   7.122   4.986   8.996  0.3197  0.0651  0.9322
21422SOL    HW165707   7.029   4.997   9.019  0.3914  1.5952  0.5863
21422SOL    HW265708   7.150   4.910   9.047 -1.2687 -0.7896  0.5949
21423SOL     OW65709   5.839   6.563   6.717  0.4245 -0.5130  0.0441
21423SOL    HW165710   5.896   6.638   6.700  0.9829 -1.0300 -0.4385
21423SOL    HW265711   5.765   6.574   6.657  1.4935 -1.3784 -1.5076
21424SOL     OW65712   7.061   6.373   7.086  0.0294  0.4007  0.1926
21424SOL    HW165713   7.064   6.416   7.171 -0.6219 -0.9944  0.9419
21424SOL    HW265714   7.152   6.350   7.068  0.2935  1.4561  0.0833
21425SOL     OW65715   4.521   5.347   5.418 -0.0984 -0.0942 -0.5232
21425SOL    HW165716   4.523   5.253   5.440 -0.6367 -0.1104 -0.5403
21425SOL    HW265717   4.613   5.369   5.403  0.1375 -0.4078  0.3757
21426SOL     OW65718   5.606   5.926   5.362 -0.0904  0.8510  0.2816
21426SOL    HW165719   5.577   5.836   5.381  1.0074  0.5619  0.6691
21426SOL    HW265720   5.612   5.967   5.448  0.5429  0.9250  0.2094
21427SOL     OW65721   5.201   3.352   6.915  0.7491 -0.0166 -0.7765
21427SOL    HW165722   5.200   3.440   6.878 -0.2846 -0.4062 -1.7289
21427SOL    HW265723   5.112   3.339   6.948  1.4132  0.0208  1.2061
21428SOL     OW65724   6.686   2.562   6.471  0.5289 -0.0355 -0.0001
21428SOL    HW165725   6.644   2.500   6.410  1.0942 -0.8179  0.3901
21428SOL    HW265726   6.720   2.631   6.415 -1.4350  0.7426 -0.3284
21429SOL     OW65727   6.849   4.803   6.135 -0.0803  0.9984  0.4090
21429SOL    HW165728   6.777   4.792   6.073 -1.3432  0.7468  1.8685
21429SOL    HW265729   6.919   4.841   6.083 -0.6447 -0.3887 -1.4564
21430SOL     OW65730   6.110   5.983   6.269  0.4304 -0.5117 -0.1148
21430SOL    HW165731   6.133   5.903   6.317 -0.5823 -1.2130 -0.7627
21430SOL    HW265732   6.172   6.049   6.301  2.2044 -1.8824 -0.5420
21431SOL     OW65733   7.092   4.059   6.338  0.1557 -0.4249  0.4955
21431SOL    HW165734   7.103   4.013   6.421 -0.2931  0.0879  0.8465
21431SOL    HW265735   7.018   4.016   6.297 -0.9968  0.6934  1.3382
21432SOL     OW65736   7.688   4.949   6.650  0.0035 -0.7639  0.3837
21432SOL    HW165737   7.674   4.874   6.708 -0.1653 -0.3595  0.8752
21432SOL    HW265738   7.772   4.986   6.678  0.1914 -0.8923 -0.0007
21433SOL     OW65739   6.049   4.224   6.548  0.3231  0.0947 -0.5729
21433SOL    HW165740   6.075   4.195   6.460 -0.4706 -0.5479 -0.6137
21433SOL    HW265741   6.076   4.316   6.552 -2.5665  1.1935 -2.7672
21434SOL     OW65742   6.401   4.457   5.771 -0.1904 -0.2617 -0.8094
21434SOL    HW165743   6.321   4.446   5.720 -0.3282 -0.6351 -0.5190
21434SOL    HW265744   6.371   4.481   5.858 -0.0797 -1.8910 -0.2751
21435SOL     OW65745   6.720   6.235   7.410  0.0460  0.3274  0.2717
21435SOL    HW165746   6.721   6.181   7.488 -3.5594 -0.5177 -0.0753
21435SOL    HW265747   6.661   6.307   7.432 -1.1552 -0.0050 -1.6293
21436SOL     OW65748   0.211   4.556   6.231  0.1270  0.2867  0.0122
21436SOL    HW165749   0.301   4.578   6.254  0.3643 -0.7261  0.1235
21436SOL    HW265750   0.160   4.634   6.252  1.1461  1.3161 -1.1966
21437SOL     OW65751   6.229   4.724   5.816 -0.0531 -0.1044  0.0300
21437SOL    HW165752   6.277   4.789   5.766 -0.6507 -0.6883 -1.3350
21437SOL    HW265753   6.293   4.655   5.834 -0.4718 -1.1725 -2.3130
21438SOL     OW65754   7.415   6.006   5.732 -0.2952  0.5017  0.0284
21438SOL    HW165755   7.412   5.912   5.751 -0.1878  0.3206 -0.7872
21438SOL    HW265756   7.474   6.042   5.797  0.3149 -0.1382 -0.1604
21439SOL     OW65757   7.139   7.044   9.971  0.0479  0.2792 -0.4596
21439SOL    HW165758   7.085   7.113  10.010 -0.7399 -1.1688  1.1702
21439SOL    HW265759   7.084   6.965   9.976  0.3313 -0.2503 -3.6163
21440SOL     OW65760   4.718   2.532   8.978  0.4403  0.0927  0.3404
21440SOL    HW165761   4.698   2.564   9.066  1.0135 -0.4204  0.6644
21440SOL    HW265762   4.633   2.508   8.941  0.0095  1.7829  0.1509
21441SOL     OW65763   6.062   5.038   6.210  0.4368  0.4770  0.0316
21441SOL    HW165764   6.038   4.948   6.188  1.7114 -0.7095  3.0288
21441SOL    HW265765   5.979   5.079   6.235 -0.3343  0.5663 -2.4350
21442SOL     OW65766   6.998   4.417   6.362  0.3893 -0.4398 -0.6702
21442SOL    HW165767   6.917   4.456   6.330 -0.6362 -1.9811 -0.0918
21442SOL    HW265768   6.974   4.326   6.383  2.5179 -1.2746 -1.5357
21443SOL     OW65769   6.568   5.714   7.647  0.0188  0.1193  0.0909
21443SOL    HW165770   6.512   5.677   7.578  1.7549  0.6844 -1.6914
21443SOL    HW265771   6.523   5.690   7.729 -1.8538 -1.0038 -1.1810
21444SOL     OW65772   5.593   4.981   6.228 -0.1095 -0.3856  0.1231
21444SOL    HW165773   5.561   5.053   6.173  0.7056  0.1919  0.3700
21444SOL    HW265774   5.536   4.984   6.305 -1.6845 -1.6197 -0.9238
21445SOL     OW65775   6.565   5.683   6.932 -0.1372  0.0916 -0.3434
21445SOL    HW165776   6.547   5.610   6.873 -2.2200  0.2458  0.0251
21445SOL    HW265777   6.488   5.688   6.988  0.9013  1.2283  1.0788
21446SOL     OW65778   6.890   3.484   6.645  0.2628  0.1511 -0.0648
21446SOL    HW165779   6.923   3.563   6.603 -1.4621  0.6367 -0.5754
21446SOL    HW265780   6.797   3.480   6.620 -0.3429 -0.5992  2.0707
21447SOL     OW65781   0.261   3.118   9.603  0.0245 -0.1931  0.2798
21447SOL    HW165782   0.221   3.191   9.555  0.2960  1.1066  1.9518
21447SOL    HW265783   0.350   3.112   9.568 -0.4585 -0.7687 -0.9335
21448SOL     OW65784   4.827   5.277   7.993  0.0965 -0.1365  0.3568
21448SOL    HW165785   4.777   5.253   8.071  0.4917  0.2937  0.7391
21448SOL    HW265786   4.768   5.335   7.944  0.2111  0.3446  0.7909
21449SOL     OW65787   0.799   3.087   8.357  0.3149  0.2467  0.0127
21449SOL    HW165788   0.762   3.000   8.375  3.4535 -0.9845  1.2994
21449SOL    HW265789   0.809   3.127   8.444  2.6084  0.1333 -0.1276
21450SOL     OW65790   5.692   4.268   4.540 -0.0653  0.2697 -0.2194
21450SOL    HW165791   5.691   4.276   4.445 -2.3459 -1.1949 -0.4061
21450SOL    HW265792   5.724   4.352   4.572 -1.2463  1.5597 -2.2520
21451SOL     OW65793   5.774   2.825   7.904 -0.2351 -0.3179 -0.2275
21451SOL    HW165794   5.715   2.774   7.849 -0.6112  1.1565 -1.2551
21451SOL    HW265795   5.751   2.801   7.993 -3.3654  1.1632 -0.5096
21452SOL     OW65796   4.622   5.116   8.738 -0.5771  0.1281 -0.2047
21452SOL    HW165797   4.549   5.077   8.786  1.2902 -1.5573  1.4686
21452SOL    HW265798   4.614   5.080   8.650 -1.9503  0.2895 -0.1711
21453SOL     OW65799   6.360   5.013   4.763 -0.0827 -0.1335 -0.0103
21453SOL    HW165800   6.270   4.983   4.778 -0.1072 -1.2489 -2.0271
21453SOL    HW265801   6.402   5.007   4.848 -1.5746 -0.8115  0.7190
21454SOL     OW65802   0.747   3.879   6.831 -0.8085  0.0333  0.3062
21454SOL    HW165803   0.788   3.864   6.745 -2.2984  0.8757 -0.5967
21454SOL    HW265804   0.692   3.802   6.845 -0.1545 -0.3572  0.7776
21455SOL     OW65805   6.351   5.284   4.204 -0.0693 -0.0617 -0.5150
21455SOL    HW165806   6.389   5.356   4.253  0.4426 -0.9176  0.3862
21455SOL    HW265807   6.297   5.326   4.137  0.0921  1.1422  0.0850
21456SOL     OW65808   7.156   3.959   6.042  0.2713  0.1795  0.3322
21456SOL    HW165809   7.166   3.904   5.965  0.8646  0.2216  0.3678
21456SOL    HW265810   7.098   3.910   6.100 -1.9478  1.0994 -0.9951
21457SOL     OW65811   6.985   5.580   6.585  0.1452  0.1924  0.4030
21457SOL    HW165812   6.963   5.655   6.640 -0.2145 -0.1197  0.6977
21457SOL    HW265813   6.971   5.504   6.642 -0.8228 -0.1736 -0.2997
21458SOL     OW65814   6.896   4.972   7.327 -0.3441  0.1914  0.3997
21458SOL    HW165815   6.858   4.926   7.403 -2.3636  0.4700 -0.3658
21458SOL    HW265816   6.898   4.906   7.258  0.2298  0.2845  0.3287
21459SOL     OW65817   6.708   3.833   5.203  0.5261 -0.5596  0.2805
21459SOL    HW165818   6.751   3.805   5.122  1.3487  0.4555  0.3501
21459SOL    HW265819   6.678   3.922   5.184  0.8294 -0.2721  1.1336
21460SOL     OW65820   6.488   6.653   7.950  0.7358 -0.5011 -0.2505
21460SOL    HW165821   6.437   6.594   7.894  0.2822  0.5804 -1.0298
21460SOL    HW265822   6.445   6.648   8.035  0.9536 -1.5792 -0.1839
21461SOL     OW65823   6.196   5.566   7.103  0.3141 -0.2757 -0.3929
21461SOL    HW165824   6.132   5.612   7.157 -0.0485 -1.7996  0.5471
21461SOL    HW265825   6.179   5.597   7.014 -1.9270 -0.7943 -0.2134
21462SOL     OW65826   6.393   3.119   5.633  0.0614 -0.0475  0.4195
21462SOL    HW165827   6.397   3.069   5.551  2.0082  0.7763 -0.0680
21462SOL    HW265828   6.331   3.189   5.615  0.7922  0.3899 -0.5657
21463SOL     OW65829   6.200   5.110   3.938  0.1740 -0.5577 -0.0790
21463SOL    HW165830   6.253   5.187   3.914  2.1705 -1.5063  1.0155
21463SOL    HW265831   6.115   5.146   3.961  0.8859  1.2796 -0.1363
21464SOL     OW65832   5.842   5.634   5.416 -0.7040  0.0453 -0.0598
21464SOL    HW165833   5.764   5.686   5.399 -0.6712 -0.0069 -0.3846
21464SOL    HW265834   5.837   5.561   5.353  0.0318  0.5092 -0.6837
21465SOL     OW65835   4.995   4.945   8.422  0.0646 -0.2932  0.1017
21465SOL    HW165836   4.946   4.864   8.413  1.0765 -1.1193  1.6740
21465SOL    HW265837   4.937   5.003   8.473  0.0299 -0.6440  0.4631
21466SOL     OW65838   7.738   6.385   5.243  0.0139 -0.0044  0.6282
21466SOL    HW165839   7.728   6.291   5.255  1.4490 -0.1216  1.1402
21466SOL    HW265840   7.693   6.424   5.317  0.9862 -0.3784  1.4390
21467SOL     OW65841   4.143   6.579   5.983 -0.1952  0.4930 -0.2927
21467SOL    HW165842   4.167   6.500   6.030 -1.1013  0.7556  0.6342
21467SOL    HW265843   4.226   6.620   5.960  0.2605 -0.1108  0.2674
21468SOL     OW65844   0.384   4.559   6.956 -0.0930 -0.0836 -0.5539
21468SOL    HW165845   0.464   4.513   6.985 -1.6921 -2.2857  0.7630
21468SOL    HW265846   0.399   4.577   6.864  2.2198  0.2799 -0.1814
21469SOL     OW65847   7.331   7.007   6.812  0.1370 -0.5734  0.5181
21469SOL    HW165848   7.256   7.013   6.753  0.3977  1.3835  0.3399
21469SOL    HW265849   7.408   7.016   6.755  0.3829  1.8523  1.1287
21470SOL     OW65850   4.958   3.675   7.019 -0.1152  0.6009  0.3126
21470SOL    HW165851   5.030   3.706   7.074 -1.2673 -0.3225  2.4622
21470SOL    HW265852   4.891   3.743   7.027  0.0315  0.8677 -0.6655
21471SOL     OW65853   4.699   5.145   6.601 -0.9041  0.3625  0.5446
21471SOL    HW165854   4.712   5.063   6.555 -0.9569 -0.0623  1.2687
21471SOL    HW265855   4.612   5.138   6.640 -0.9409  0.7918  0.5452
21472SOL     OW65856   6.503   2.134   8.723  0.5124 -0.0677  0.3917
21472SOL    HW165857   6.571   2.161   8.784  0.6969  3.1688 -1.0698
21472SOL    HW265858   6.473   2.215   8.682 -1.2942 -1.8250 -2.0835
21473SOL     OW65859   4.825   3.704   5.560 -0.3873 -0.3817  0.0262
21473SOL    HW165860   4.760   3.666   5.501 -2.4351 -0.1863  2.0120
21473SOL    HW265861   4.812   3.659   5.643  2.0451 -0.2990  0.5461
21474SOL     OW65862   7.496   4.226   9.035  0.3489  0.3150  0.0317
21474SOL    HW165863   7.456   4.284   8.969 -1.5984 -0.8292  0.1224
21474SOL    HW265864   7.583   4.264   9.050  0.0506  1.8339 -1.6237
21475SOL     OW65865   5.955   4.889   5.373 -0.1883  0.3763  0.0986
21475SOL    HW165866   5.912   4.861   5.292  0.2876 -0.3989  0.1087
21475SOL    HW265867   5.959   4.810   5.427 -0.8274  0.9595  1.0374
21476SOL     OW65868   5.898   5.611   6.621  0.5931  0.0913  0.3291
21476SOL    HW165869   5.805   5.596   6.607  0.2689  1.5072  0.7613
21476SOL    HW265870   5.942   5.548   6.564 -0.6366  0.4030 -1.0430
21477SOL     OW65871   6.158   5.650   7.923  0.0616  0.1609  0.1238
21477SOL    HW165872   6.067   5.621   7.932 -0.2288  1.1696  0.6351
21477SOL    HW265873   6.211   5.573   7.942 -0.6631  0.1460  2.2871
21478SOL     OW65874   5.961   3.411   7.212 -1.1489 -0.1776  0.5424
21478SOL    HW165875   5.973   3.318   7.194  0.3050  0.3624 -1.6241
21478SOL    HW265876   6.049   3.448   7.205 -1.8978  1.5664  0.0147
21479SOL     OW65877   4.864   3.915   5.797  0.2747 -0.3803 -0.8175
21479SOL    HW165878   4.780   3.960   5.807  0.4935  0.2774 -1.7625
21479SOL    HW265879   4.845   3.824   5.817 -0.2320  0.0785  0.8842
21480SOL     OW65880   7.900   4.984   5.743  0.3974 -0.1332  0.6523
21480SOL    HW165881   7.841   5.028   5.805 -0.4517  0.0669 -0.2774
21480SOL    HW265882   7.977   5.041   5.739 -0.5751  1.1816 -0.3246
21481SOL     OW65883   6.526   6.078   7.075  0.0326 -0.3751  0.5505
21481SOL    HW165884   6.479   6.007   7.032  1.4038 -0.3370 -1.1410
21481SOL    HW265885   6.581   6.035   7.141 -1.0766 -0.5806  1.3607
21482SOL     OW65886   5.421   1.473   5.813  0.0004  0.3133  0.3790
21482SOL    HW165887   5.396   1.545   5.756  2.3238  0.7231 -0.2037
21482SOL    HW265888   5.498   1.505   5.861 -0.7560 -0.6973  2.4030
21483SOL     OW65889   7.754   4.131   7.030 -0.6011 -0.3227  0.2882
21483SOL    HW165890   7.729   4.118   6.938 -0.8317  1.7739  0.0079
21483SOL    HW265891   7.836   4.082   7.040  1.3136  2.0882 -2.0362
21484SOL     OW65892   5.399   6.142   7.115  0.6002  0.2529 -0.0509
21484SOL    HW165893   5.392   6.216   7.055 -1.0058  1.2574  1.2831
21484SOL    HW265894   5.461   6.171   7.182 -0.2413  0.5221  0.6229
21485SOL     OW65895   5.089   5.143   5.285  0.3547  0.2634 -0.3440
21485SOL    HW165896   5.039   5.062   5.297 -0.7502  0.5388 -2.6737
21485SOL    HW265897   5.050   5.205   5.347 -0.4694 -0.2666 -0.3231
21486SOL     OW65898   7.599   6.782   7.334  0.0351 -0.1113 -0.4277
21486SOL    HW165899   7.593   6.810   7.243  2.8221  1.7431 -0.1844
21486SOL    HW265900   7.625   6.862   7.381  1.0186 -1.5389  1.5827
21487SOL     OW65901   6.007   4.294   5.041 -0.3121 -0.3963  0.0443
21487SOL    HW165902   6.025   4.357   4.970 -0.2954 -0.7825 -0.2958
21487SOL    HW265903   6.093   4.261   5.066  0.1689  2.4590  2.8214
21488SOL     OW65904   5.804   4.753   7.309  0.2974 -0.1728 -0.2347
21488SOL    HW165905   5.773   4.665   7.331 -1.8062  0.5130 -0.2437
21488SOL    HW265906   5.894   4.756   7.342  0.8215 -2.6840 -1.2548
21489SOL     OW65907   5.521   2.955   6.960  0.3440  0.0472 -0.2303
21489SOL    HW165908   5.452   2.906   6.914 -0.4771  0.9688 -0.0200
21489SOL    HW265909   5.518   2.922   7.050  1.6729 -1.4623 -0.7025
21490SOL     OW65910   7.817   4.425   6.442 -0.0556 -0.0267  0.0933
21490SOL    HW165911   7.871   4.421   6.521 -2.0011 -0.7635  1.4652
21490SOL    HW265912   7.871   4.383   6.374  1.0259 -0.8828  1.4309
21491SOL     OW65913   7.052   2.463   6.641  0.2019 -0.3707  1.1372
21491SOL    HW165914   7.028   2.449   6.549  0.2266  0.7351  0.9511
21491SOL    HW265915   7.113   2.536   6.639  1.0787 -1.0550  1.9359
21492SOL     OW65916   0.145   5.215   8.068  0.3081 -0.3263  0.1268
21492SOL    HW165917   0.175   5.162   8.142 -0.4030 -2.3135 -0.9276
21492SOL    HW265918   0.052   5.229   8.085  0.5477  0.8967  0.5392
21493SOL     OW65919   4.931   4.220   5.693 -0.4205  0.2376  0.0265
21493SOL    HW165920   4.953   4.142   5.641 -0.3655  0.3876 -0.1795
21493SOL    HW265921   4.913   4.187   5.780 -1.4215 -0.1318 -0.3121
21494SOL     OW65922   0.026   2.649   6.629 -0.8804  0.3732  0.0302
21494SOL    HW165923  -0.013   2.614   6.549 -0.6182  0.3777 -0.1023
21494SOL    HW265924   0.068   2.574   6.670  2.6168  1.0102 -1.9421
21495SOL     OW65925   6.796   6.132   6.389 -0.1219  0.3347  0.5188
21495SOL    HW165926   6.866   6.107   6.329 -0.8800 -0.5231 -0.0410
21495SOL    HW265927   6.778   6.052   6.439 -0.9447  0.4203  0.3872
21496SOL     OW65928   1.550   6.574   5.840 -0.3460  0.4597  0.0118
21496SOL    HW165929   1.544   6.489   5.884 -0.4247  0.1066 -0.6645
21496SOL    HW265930   1.482   6.570   5.773 -0.2425  0.9976 -0.1229
21497SOL     OW65931   5.705   4.209   6.868  0.0500 -0.1351  0.6439
21497SOL    HW165932   5.631   4.203   6.928 -0.8876 -2.2556 -0.6223
21497SOL    HW265933   5.665   4.218   6.781  1.3057  0.2181  0.0806
21498SOL     OW65934   6.945   3.581   6.391  0.0251  0.8568 -0.0450
21498SOL    HW165935   7.028   3.574   6.439 -1.2908  0.6022  2.3101
21498SOL    HW265936   6.934   3.495   6.350  0.2624  0.4196  0.7828
21499SOL     OW65937   0.108   5.421   8.699  0.1301 -0.0340  0.0797
21499SOL    HW165938   0.031   5.442   8.752 -0.6048 -0.6896 -0.7065
21499SOL    HW265939   0.074   5.410   8.610  1.5123  2.2305 -0.8228
21500SOL     OW65940   1.077   5.367   6.507  0.0214 -0.5262 -0.1445
21500SOL    HW165941   1.129   5.338   6.431  0.2803 -0.4361 -0.0019
21500SOL    HW265942   1.133   5.430   6.551 -1.2216  1.5859 -1.4366
21501SOL     OW65943   0.327   4.269   7.033 -0.6267  0.0604  0.4294
21501SOL    HW165944   0.355   4.272   6.941 -1.3156 -0.7338  0.1831
21501SOL    HW265945   0.351   4.354   7.068  1.1356 -0.1946 -0.0466
21502SOL     OW65946   5.886   4.908   5.092  0.5657 -0.4912  0.4329
21502SOL    HW165947   5.803   4.921   5.046 -1.9747 -0.9646  4.4067
21502SOL    HW265948   5.926   4.834   5.047 -0.7949  0.0811 -1.9543
21503SOL     OW65949   7.199   4.531   5.847  0.3557  0.1270 -0.3846
21503SOL    HW165950   7.141   4.456   5.864 -0.1121  0.4507 -0.5221
21503SOL    HW265951   7.257   4.501   5.778  0.8374 -0.4522  0.2514
21504SOL     OW65952   6.030   2.850   6.614  0.4195 -0.6486  0.0630
21504SOL    HW165953   5.976   2.903   6.672  2.4298  3.3146 -1.3784
21504SOL    HW265954   5.987   2.858   6.528  1.6670  0.1200 -0.5084
21505SOL     OW65955   6.074   3.813   8.477  0.0665  0.1188  0.0851
21505SOL    HW165956   6.091   3.768   8.395 -1.4350 -0.6600  0.1525
21505SOL    HW265957   6.101   3.751   8.545  1.9452  1.0271  0.2163
21506SOL     OW65958   4.996   5.618   8.168  0.0141  0.3300 -0.5128
21506SOL    HW165959   4.987   5.534   8.124  0.5555  0.4146 -0.7853
21506SOL    HW265960   4.995   5.682   8.098  0.2970  0.5046 -0.3591
21507SOL     OW65961   0.045   3.458   7.095  0.1988  0.3254  0.4709
21507SOL    HW165962   0.097   3.474   7.174  0.1107  1.7601  0.2701
21507SOL    HW265963   0.068   3.370   7.068  3.1168  1.1319 -0.0237
21508SOL     OW65964   5.665   4.168   7.486 -0.3942 -0.0173  0.1292
21508SOL    HW165965   5.739   4.115   7.457 -0.5128 -0.3171  0.3755
21508SOL    HW265966   5.701   4.224   7.555 -0.4941 -0.4675  0.5509
21509SOL     OW65967   4.947   4.923   7.502 -0.6490 -0.0584 -0.0329
21509SOL    HW165968   4.919   4.842   7.459 -0.8537  0.2734 -0.5332
21509SOL    HW265969   4.908   4.919   7.590  0.0202 -0.8827  0.2407
21510SOL     OW65970   4.642   5.495   7.602  0.1508 -0.2532 -0.1444
21510SOL    HW165971   4.646   5.488   7.506  0.3435  0.4245 -0.1893
21510SOL    HW265972   4.553   5.468   7.624 -0.0669  0.1096 -0.5626
21511SOL     OW65973   5.675   4.297   5.580  0.0940  0.2825 -0.3265
21511SOL    HW165974   5.642   4.260   5.662  2.4973  1.1547  1.1476
21511SOL    HW265975   5.626   4.379   5.570 -0.0265  0.3083  0.3937
21512SOL     OW65976   6.779   4.170   7.944 -0.1513 -0.1379  0.1894
21512SOL    HW165977   6.759   4.135   8.030 -1.3098 -1.5264 -0.5933
21512SOL    HW265978   6.813   4.258   7.961  1.1245 -0.9330  2.1277
21513SOL     OW65979   5.249   4.699   6.567 -0.1396 -0.0954  0.0956
21513SOL    HW165980   5.172   4.727   6.517 -0.8819 -0.5427  0.9570
21513SOL    HW265981   5.222   4.704   6.659  0.6590 -0.8425  0.3889
21514SOL     OW65982   0.135   5.954   5.823  0.1611 -0.7168 -0.2319
21514SOL    HW165983   0.077   5.884   5.854  0.6859 -0.3025  1.8020
21514SOL    HW265984   0.220   5.911   5.813 -0.0829 -0.9417 -1.6188
21515SOL     OW65985   6.850   5.904   7.017 -0.1469 -0.1378  0.2566
21515SOL    HW165986   6.836   5.985   6.968 -2.0337 -0.3451  0.3793
21515SOL    HW265987   6.806   5.919   7.101  0.9350 -0.6870  0.9447
21516SOL     OW65988   6.537   5.962   6.112 -0.2790 -0.2668  0.1485
21516SOL    HW165989   6.469   6.021   6.080 -1.8285 -1.1699  1.5777
21516SOL    HW265990   6.493   5.877   6.119  1.6777 -1.4779 -1.1705
21517SOL     OW65991   0.062   4.808   6.737  0.3994 -0.4977  0.4177
21517SOL    HW165992   0.097   4.761   6.661  0.6137 -0.8064  0.7058
21517SOL    HW265993  -0.011   4.755   6.767 -0.4383  0.2302 -0.2806
21518SOL     OW65994   0.211   5.162   8.753 -0.2197  0.1550 -0.1690
21518SOL    HW165995   0.142   5.169   8.819 -0.1229  0.2517 -0.0770
21518SOL    HW265996   0.255   5.247   8.755 -0.1700  0.1329 -0.3061
21519SOL     OW65997   5.421   5.062   7.053 -0.0612 -0.4499  0.2409
21519SOL    HW165998   5.457   5.006   7.121  1.8553 -1.4516 -1.4677
21519SOL    HW265999   5.366   5.003   7.000  0.4953 -0.3134 -0.5136
21520SOL     OW66000   5.642   4.525   6.681  0.3702 -0.5081  0.3044
21520SOL    HW166001   5.611   4.435   6.668  1.7543 -0.8281 -1.0971
21520SOL    HW266002   5.627   4.567   6.597 -3.5673  1.7431  1.8719
21521SOL     OW66003   5.417   3.314   8.004  0.5305 -0.1219 -0.1981
21521SOL    HW166004   5.335   3.301   7.956  1.5174 -1.8585 -1.5269
21521SOL    HW266005   5.400   3.390   8.059 -1.4869  0.4576 -1.4950
21522SOL     OW66006   5.886   6.245   5.500 -0.5378  0.4389  0.2301
21522SOL    HW166007   5.812   6.252   5.559 -1.1682 -1.6375 -0.2630
21522SOL    HW266008   5.963   6.254   5.557 -1.1260 -1.4150  1.4039
21523SOL     OW66009   6.619   5.634   5.854  0.4534  0.1588 -0.6874
21523SOL    HW166010   6.664   5.718   5.861 -0.0853  0.3992  0.0213
21523SOL    HW266011   6.654   5.581   5.925  0.4174 -0.0351 -0.8120
21524SOL     OW66012   3.975   6.114   6.250 -0.0297  0.5039  0.3537
21524SOL    HW166013   3.947   6.083   6.336  1.8657 -0.3147  0.7307
21524SOL    HW266014   4.039   6.049   6.221 -0.4899  0.8762 -1.6058
21525SOL     OW66015   5.533   2.913   8.337  0.2076  0.4773 -0.1365
21525SOL    HW166016   5.448   2.872   8.357  0.5276  0.1625  0.6092
21525SOL    HW266017   5.516   3.007   8.341  0.3022  0.4478  1.9558
21526SOL     OW66018   1.072   5.133   7.575 -0.4213 -0.0735  0.0644
21526SOL    HW166019   1.055   5.207   7.633  0.7773  0.4162 -0.1707
21526SOL    HW266020   1.150   5.159   7.527  0.9984 -2.1370  1.1037
21527SOL     OW66021   5.823   5.122   6.287  0.0821 -0.1953 -0.4907
21527SOL    HW166022   5.757   5.062   6.252  2.1560 -1.6726 -2.0896
21527SOL    HW266023   5.820   5.197   6.227 -1.2046  0.4946  0.3950
21528SOL     OW66024   6.423   3.800   4.673 -0.3249 -0.2480  0.1644
21528SOL    HW166025   6.373   3.740   4.727  0.3777 -1.1638 -0.1861
21528SOL    HW266026   6.407   3.886   4.712 -0.0599 -0.8516  1.6448
21529SOL     OW66027   6.550   2.696   5.547  0.3206 -0.1316  0.0258
21529SOL    HW166028   6.587   2.632   5.608  1.1660  0.3277  0.0023
21529SOL    HW266029   6.537   2.647   5.466  2.8222  0.1556 -0.6255
21530SOL     OW66030   6.396   4.111   5.926 -0.7886 -0.1877  0.1324
21530SOL    HW166031   6.332   4.085   5.860 -0.5808 -1.3873  0.3795
21530SOL    HW266032   6.389   4.044   5.995 -0.9782  1.0086  1.3274
21531SOL     OW66033   7.573   7.102   7.157  0.2033  0.2745 -0.4680
21531SOL    HW166034   7.507   7.032   7.157  0.0103  0.2466  3.5085
21531SOL    HW266035   7.530   7.175   7.201  1.5187  1.7506 -1.5413
21532SOL     OW66036   6.064   7.001   6.804  0.1325  0.5863 -0.1183
21532SOL    HW166037   6.064   7.018   6.899  0.9866  0.9140 -0.1649
21532SOL    HW266038   6.123   7.068   6.768 -0.7392  0.9059 -0.9719
21533SOL     OW66039   6.252   3.381   4.961 -0.3059 -0.4867 -0.1234
21533SOL    HW166040   6.209   3.411   5.042  1.9992  2.7427  0.1169
21533SOL    HW266041   6.341   3.358   4.988 -0.0978 -1.3158 -1.4484
21534SOL     OW66042   5.351   5.560   5.097  0.3432 -0.3232 -0.0495
21534SOL    HW166043   5.379   5.651   5.085  1.8771 -0.5899  1.1937
21534SOL    HW266044   5.256   5.566   5.105  0.5245  1.3723  1.4985
21535SOL     OW66045   7.233   4.541   6.510 -0.3846 -0.0757  0.7483
21535SOL    HW166046   7.256   4.617   6.456  0.0744 -0.3755  0.5148
21535SOL    HW266047   7.148   4.512   6.477  0.1506 -0.6000 -0.2015
21536SOL     OW66048   6.165   4.472   6.533  0.2881  0.2767 -0.0152
21536SOL    HW166049   6.112   4.511   6.463  2.1536  1.0294 -1.0734
21536SOL    HW266050   6.195   4.547   6.584 -0.8607 -0.2513  1.4966
21537SOL     OW66051   6.479   6.072   7.636 -0.4255  0.0211  0.5337
21537SOL    HW166052   6.477   6.055   7.731  0.1115  0.0861  0.5606
21537SOL    HW266053   6.399   6.032   7.603 -0.4239 -0.3535  0.9661
21538SOL     OW66054   7.216   3.534   6.439  0.6073 -0.2534 -0.5177
21538SOL    HW166055   7.294   3.590   6.443 -0.3165  1.0137  2.4518
21538SOL    HW266056   7.240   3.457   6.491 -0.0735  0.1878  0.4939
21539SOL     OW66057   0.791   4.694   6.623 -0.1514  0.1485 -0.4377
21539SOL    HW166058   0.855   4.762   6.604 -0.2100  0.1144 -0.7600
21539SOL    HW266059   0.836   4.612   6.601 -0.0228  0.0686  0.1039
21540SOL     OW66060   4.639   4.785   4.192  0.2853  0.1154 -0.1487
21540SOL    HW166061   4.589   4.866   4.201 -1.3307 -0.8204 -0.1297
21540SOL    HW266062   4.608   4.748   4.109  2.0090  0.1505 -0.8539
21541SOL     OW66063   5.846   6.507   6.412 -0.1451  0.1458  0.0387
21541SOL    HW166064   5.921   6.468   6.367 -0.8901 -0.4706 -0.6996
21541SOL    HW266065   5.775   6.443   6.402 -1.1385  1.2766 -0.4233
21542SOL     OW66066   4.816   4.909   7.738  0.1231  0.2216  0.4797
21542SOL    HW166067   4.755   4.983   7.745 -0.6512 -0.0627 -2.1911
21542SOL    HW266068   4.760   4.832   7.752 -0.3118 -0.0494 -2.1386
21543SOL     OW66069   3.911   5.813   8.716  0.1898  0.3259  0.1337
21543SOL    HW166070   3.911   5.772   8.629 -0.5603 -1.8925  1.0954
21543SOL    HW266071   3.987   5.871   8.715  0.4763  0.0039 -1.8416
21544SOL     OW66072   4.937   3.350   5.609 -0.8913  0.1300 -0.2680
21544SOL    HW166073   4.925   3.393   5.693 -0.7472 -1.9367  0.8784
21544SOL    HW266074   4.861   3.377   5.557 -2.0253 -0.0413  1.2151
21545SOL     OW66075   5.740   5.016   8.159 -0.2172 -0.2227  0.3285
21545SOL    HW166076   5.706   5.051   8.242  0.2554 -0.9465  0.8358
21545SOL    HW266077   5.662   5.004   8.105 -0.5256  0.3134  0.6417
21546SOL     OW66078   6.760   5.767   6.744 -0.1264 -0.3779 -0.1043
21546SOL    HW166079   6.700   5.733   6.810 -0.6693  0.5239 -0.1220
21546SOL    HW266080   6.839   5.790   6.792  0.7089 -2.6851 -0.2459
21547SOL     OW66081   6.408   3.750   5.047 -0.1973  0.1453  0.0656
21547SOL    HW166082   6.385   3.793   5.129 -2.3218 -0.5493 -0.0900
21547SOL    HW266083   6.478   3.803   5.010  1.2478  0.1417  2.5756
21548SOL     OW66084   7.840   3.857   8.613 -0.2931 -0.0641  0.2247
21548SOL    HW166085   7.822   3.922   8.545  0.9890 -1.3954 -1.4709
21548SOL    HW266086   7.759   3.808   8.622 -0.0393 -0.8604 -1.5047
21549SOL     OW66087   4.280   5.914   8.244  0.0508 -0.9567  0.5167
21549SOL    HW166088   4.375   5.912   8.257  0.3284  1.5298 -0.5749
21549SOL    HW266089   4.269   5.941   8.153 -1.6228  1.9042  1.4431
21550SOL     OW66090   6.827   5.033   7.008  0.5933  0.2660  0.6959
21550SOL    HW166091   6.867   4.951   7.038  0.0541  0.2722  1.4622
21550SOL    HW266092   6.841   5.094   7.081 -0.3131  0.4252  0.7366
21551SOL     OW66093   5.578   6.145   7.720 -0.1919 -0.5357  0.1485
21551SOL    HW166094   5.648   6.127   7.783 -0.5641  0.3840  0.8541
21551SOL    HW266095   5.615   6.121   7.636  2.8601  4.1096 -0.2283
21552SOL     OW66096   4.834   5.223   7.392 -1.0677 -0.0934 -0.3065
21552SOL    HW166097   4.744   5.219   7.359 -0.1983 -0.1883 -2.8325
21552SOL    HW266098   4.886   5.256   7.319  1.2098 -1.4677  0.5733
21553SOL     OW66099   5.511   6.432   5.948 -0.3927 -0.5238  0.4973
21553SOL    HW166100   5.422   6.423   5.916 -0.0501 -2.6360  0.0094
21553SOL    HW266101   5.554   6.350   5.925  1.6396  0.3538  0.8945
21554SOL     OW66102   7.398   5.625   6.197  0.0802  0.5311 -0.1609
21554SOL    HW166103   7.379   5.547   6.248 -0.1376  0.9418  0.3939
21554SOL    HW266104   7.482   5.656   6.230  1.0564 -0.4558 -1.6080
21555SOL     OW66105   6.777   4.525   5.207  0.2066 -0.5069  0.0730
21555SOL    HW166106   6.707   4.584   5.233  1.1592  0.8963 -0.4190
21555SOL    HW266107   6.737   4.468   5.141 -0.6030 -0.0426  0.1547
21556SOL     OW66108   7.894   4.956   4.689  0.0626 -0.4886  0.1097
21556SOL    HW166109   7.892   5.049   4.715  2.6359  0.5170 -2.6636
21556SOL    HW266110   7.941   4.913   4.760 -0.9427  0.3258  1.3278
21557SOL     OW66111   0.164   6.304   6.777 -0.0298 -0.2082 -0.0374
21557SOL    HW166112   0.104   6.366   6.817  0.0266  0.5115 -1.0442
21557SOL    HW266113   0.115   6.221   6.775  0.1747 -0.4201  2.0038
21558SOL     OW66114   5.160   4.144   7.252  0.5092 -0.0091  0.1323
21558SOL    HW166115   5.230   4.147   7.187  0.0294  1.0891 -0.3567
21558SOL    HW266116   5.088   4.194   7.212  0.2920  0.9076  1.6010
21559SOL     OW66117   6.966   6.454   8.128  0.6216 -0.3069  0.0905
21559SOL    HW166118   6.897   6.475   8.190  1.0289 -0.4063  0.5807
21559SOL    HW266119   6.934   6.377   8.081  0.1941 -0.0678 -0.0157
21560SOL     OW66120   1.262   4.291   5.041 -0.1574  0.0090 -0.0461
21560SOL    HW166121   1.299   4.220   4.987  0.9089 -0.6003  1.4217
21560SOL    HW266122   1.339   4.338   5.074 -0.7613  0.1568  1.2089
21561SOL     OW66123   6.128   5.749   5.711 -0.3829  0.0808 -0.6495
21561SOL    HW166124   6.178   5.829   5.730 -1.9038  1.0829 -0.6888
21561SOL    HW266125   6.188   5.695   5.660  0.6910  1.1825 -0.6116
21562SOL     OW66126   4.756   5.386   9.618 -0.0663 -0.1504  0.3804
21562SOL    HW166127   4.705   5.416   9.693  1.6315 -0.0672  1.5728
21562SOL    HW266128   4.706   5.314   9.582 -2.8152  2.1495 -0.7828
21563SOL     OW66129   7.887   5.890   5.667 -0.1781  0.3805 -0.0778
21563SOL    HW166130   7.841   5.828   5.610  1.5864  0.2333 -1.4209
21563SOL    HW266131   7.928   5.835   5.734 -3.8339  0.6752  2.7434
21564SOL     OW66132   5.433   5.479   8.677 -0.1831  0.3984 -0.3866
21564SOL    HW166133   5.390   5.561   8.701  0.1799  0.2984  0.6650
21564SOL    HW266134   5.415   5.469   8.583  0.4514  2.0909 -0.7302
21565SOL     OW66135   6.763   5.780   5.022 -0.2106 -0.4302 -0.3305
21565SOL    HW166136   6.807   5.858   4.988 -1.2627  0.6070  0.5888
21565SOL    HW266137   6.679   5.778   4.978  0.2990 -1.8159 -1.3051
21566SOL     OW66138   0.755   5.046   6.086  0.0653 -0.0232  0.4148
21566SOL    HW166139   0.847   5.065   6.104 -0.0061 -0.1070  0.8606
21566SOL    HW266140   0.755   5.017   5.994  0.8405 -2.3203  1.0675
21567SOL     OW66141   6.952   3.921   4.801  0.0921  0.2682 -0.2939
21567SOL    HW166142   7.026   3.954   4.852  0.9860  1.7698 -2.4083
21567SOL    HW266143   6.893   3.995   4.793 -0.1726 -0.0282 -1.1691
21568SOL     OW66144   6.809   3.856   6.801 -0.0221 -0.4266  0.3037
21568SOL    HW166145   6.818   3.950   6.787 -2.4477 -0.3627 -1.3570
21568SOL    HW266146   6.839   3.816   6.719 -2.1625 -0.8452 -0.3373
21569SOL     OW66147   6.436   6.583   6.631  0.6937  0.2406 -0.0665
21569SOL    HW166148   6.395   6.572   6.716  2.3914 -0.4899  0.6946
21569SOL    HW266149   6.518   6.629   6.649  0.0402  2.1562 -1.5968
21570SOL     OW66150   7.141   3.340   5.754 -0.2890  0.1770 -0.4215
21570SOL    HW166151   7.229   3.325   5.789 -0.4643  2.4719  1.2125
21570SOL    HW266152   7.155   3.369   5.664  0.3440 -2.8794 -1.4323
21571SOL     OW66153   7.278   3.624   7.968 -0.5986  0.1145  0.9607
21571SOL    HW166154   7.354   3.586   7.925  1.2853  0.6008  3.6327
21571SOL    HW266155   7.241   3.553   8.020 -1.0029  0.3131  0.9563
21572SOL     OW66156   7.206   5.563   5.856  0.1582  0.1345  0.4093
21572SOL    HW166157   7.169   5.503   5.921 -2.6573 -1.2396 -2.2406
21572SOL    HW266158   7.143   5.635   5.851  1.5400  1.4297  0.7521
21573SOL     OW66159   7.112   6.958   6.416  0.3054  0.3428 -0.1654
21573SOL    HW166160   7.177   6.893   6.390 -0.2082 -0.1763 -0.1694
21573SOL    HW266161   7.138   6.984   6.504  0.7469  0.4369 -0.3209
21574SOL     OW66162   7.411   6.025   6.673 -0.0041 -0.6010  0.0554
21574SOL    HW166163   7.436   6.048   6.584 -2.4293 -1.0396 -0.8273
21574SOL    HW266164   7.455   5.942   6.690  0.4318 -0.5460 -0.7683
21575SOL     OW66165   5.779   5.451   8.095 -0.5237  0.5326  0.1262
21575SOL    HW166166   5.698   5.417   8.057 -0.4913  1.3572 -0.7193
21575SOL    HW266167   5.820   5.501   8.024  1.9740 -1.8678 -0.2995
21576SOL     OW66168   4.804   2.947   6.068  0.7274 -0.4319 -0.0587
21576SOL    HW166169   4.741   2.942   5.996  0.7749  1.7067 -0.3274
21576SOL    HW266170   4.758   2.912   6.144  0.2495 -1.5716 -0.8388
21577SOL     OW66171   5.272   3.563   7.207 -0.4414 -0.4727  0.1981
21577SOL    HW166172   5.220   3.486   7.183 -0.0490 -0.2344 -1.4809
21577SOL    HW266173   5.281   3.556   7.302 -2.4395 -1.2080  0.3811
21578SOL     OW66174   7.218   3.206   6.219 -0.2664 -0.7070  0.1411
21578SOL    HW166175   7.187   3.207   6.309 -0.9726 -0.3628 -0.1013
21578SOL    HW266176   7.270   3.125   6.213 -1.8892 -1.8040  0.3115
21579SOL     OW66177   5.371   4.927   5.345  0.3563 -0.3680  0.3249
21579SOL    HW166178   5.415   4.842   5.341  0.0214 -0.5823  0.9920
21579SOL    HW266179   5.295   4.918   5.287  1.1318 -0.0140 -0.7890
21580SOL     OW66180   5.409   4.221   7.546 -0.5262 -0.3976 -0.0367
21580SOL    HW166181   5.486   4.183   7.503  0.6369 -0.1505  1.7279
21580SOL    HW266182   5.390   4.299   7.494 -0.2823 -1.0427 -1.1410
21581SOL     OW66183   6.075   2.637   7.308  0.1654 -0.0913  0.0820
21581SOL    HW166184   5.984   2.616   7.327  0.2858 -0.0854  0.6955
21581SOL    HW266185   6.090   2.720   7.353  0.4201  0.0126 -0.1879
21582SOL     OW66186   6.294   5.548   5.591 -0.2689 -0.1641  0.2824
21582SOL    HW166187   6.229   5.506   5.535 -1.7683 -0.5382  2.1778
21582SOL    HW266188   6.285   5.503   5.675  1.5516  0.6790  0.9618
21583SOL     OW66189   0.032   5.650   5.395 -0.6336 -0.1476 -0.2379
21583SOL    HW166190   0.094   5.708   5.438 -0.1633 -0.8011 -0.0227
21583SOL    HW266191  -0.054   5.687   5.417 -0.3741 -0.0191  0.6028
21584SOL     OW66192   5.756   5.393   5.332  0.3843 -0.4594  0.0340
21584SOL    HW166193   5.719   5.383   5.420  0.8074  0.9322  0.3837
21584SOL    HW266194   5.680   5.406   5.275  0.0998 -1.5050  0.1460
21585SOL     OW66195   6.303   5.753   4.234  0.0385  0.2486 -0.1452
21585SOL    HW166196   6.303   5.842   4.270  2.1383  1.0306 -1.8438
21585SOL    HW266197   6.231   5.752   4.172 -1.5107 -0.0643  1.5768
21586SOL     OW66198   6.958   5.900   7.556 -0.4968  0.4421  0.0827
21586SOL    HW166199   7.002   5.848   7.489 -0.5111  2.0732 -1.2444
21586SOL    HW266200   6.868   5.909   7.523 -0.4189  1.5169  0.1522
21587SOL     OW66201   6.629   4.252   6.830 -0.2229 -0.2578  0.2688
21587SOL    HW166202   6.611   4.324   6.890 -1.3655 -0.5655  0.3175
21587SOL    HW266203   6.558   4.189   6.845 -0.6554 -0.2570 -1.5289
21588SOL     OW66204   6.028   5.040   5.604 -0.9187  0.2313 -0.2133
21588SOL    HW166205   6.064   4.964   5.559  0.7799  1.8100 -1.6985
21588SOL    HW266206   5.946   5.059   5.558  0.3934  1.3333 -2.2465
21589SOL     OW66207   5.696   6.779   8.020  0.0181 -0.3349 -0.0104
21589SOL    HW166208   5.619   6.748   7.972 -2.0830  2.2495  1.4906
21589SOL    HW266209   5.753   6.816   7.953 -1.8063  1.1364 -0.8047
21590SOL     OW66210   7.036   5.896   6.717 -0.3845  0.0409 -0.0698
21590SOL    HW166211   6.989   5.960   6.771  1.3397  1.5187 -0.2264
21590SOL    HW266212   7.021   5.924   6.627  0.5162  0.3277 -0.1342
21591SOL     OW66213   0.462   5.044   7.781 -0.4847  0.7047  0.2282
21591SOL    HW166214   0.453   4.957   7.743  1.0044  0.4025  0.4852
21591SOL    HW266215   0.515   5.030   7.860  1.4580  2.0319 -0.7418
21592SOL     OW66216   5.508   4.711   5.323 -0.4723  0.3752  0.4806
21592SOL    HW166217   5.538   4.671   5.241  0.1286 -0.6822  1.1898
21592SOL    HW266218   5.587   4.744   5.364 -0.8524  1.4774  0.3529
21593SOL     OW66219   7.601   4.232   5.472 -0.6216  0.5875  0.2935
21593SOL    HW166220   7.629   4.320   5.499 -1.4879  0.8642  0.3130
21593SOL    HW266221   7.620   4.229   5.378  0.7011  0.2793  0.5469
21594SOL     OW66222   6.258   5.016   6.391  0.3672 -0.0985 -0.5465
21594SOL    HW166223   6.193   5.047   6.328 -0.7416  0.9245  1.0474
21594SOL    HW266224   6.241   4.922   6.400  0.5990 -0.2794 -1.7929
21595SOL     OW66225   0.215   6.795   7.032  0.3889  0.1654 -0.4863
21595SOL    HW166226   0.188   6.858   7.099 -0.2851 -1.8763  1.2675
21595SOL    HW266227   0.133   6.759   6.998  0.7661 -0.0938 -1.1331
21596SOL     OW66228   7.021   2.944   6.270  0.0020  0.0036  0.4354
21596SOL    HW166229   6.996   2.897   6.191  0.4524  1.2172 -0.4567
21596SOL    HW266230   6.940   2.984   6.301 -0.3740 -1.2636  1.1709
21597SOL     OW66231   6.851   5.272   7.233 -0.3962 -0.5959 -0.1642
21597SOL    HW166232   6.869   5.185   7.270  0.9095  0.0494  0.8002
21597SOL    HW266233   6.760   5.290   7.259 -0.5017 -1.4387  0.0956
21598SOL     OW66234   5.672   5.515   8.365  0.2623 -0.3718 -0.1292
21598SOL    HW166235   5.671   5.507   8.270 -0.6228  1.3346 -0.2954
21598SOL    HW266236   5.590   5.475   8.394  1.2749 -2.4361  0.1277
21599SOL     OW66237   6.090   4.072   4.577  0.1885  0.1453  0.4670
21599SOL    HW166238   6.029   4.122   4.631  0.8324  0.6034  0.7779
21599SOL    HW266239   6.092   3.985   4.617 -0.5059  0.0294  0.2604
21600SOL     OW66240   6.741   5.891   6.508  0.1287 -0.7188  0.1997
21600SOL    HW166241   6.780   5.835   6.440  1.3466  0.9698 -0.5869
21600SOL    HW266242   6.756   5.844   6.590  3.4379 -0.4716 -0.1264
21601SOL     OW66243   5.349   6.034   8.491 -0.6111  0.4459  0.1104
21601SOL    HW166244   5.272   6.011   8.543  0.6240 -0.0567  1.8243
21601SOL    HW266245   5.399   5.953   8.486  1.1607  1.3643  1.5273
21602SOL     OW66246   6.169   4.198   6.796  0.3289  0.1726 -0.2839
21602SOL    HW166247   6.120   4.274   6.828 -0.8373 -0.6616 -0.0453
21602SOL    HW266248   6.129   4.177   6.712 -2.1754 -2.6244  1.4180
21603SOL     OW66249   5.935   5.675   6.271  0.5232  0.1086  0.3337
21603SOL    HW166250   5.870   5.736   6.306  1.0351  0.0972  1.3172
21603SOL    HW266251   5.882   5.604   6.234 -0.0444  0.5942  0.1916
21604SOL     OW66252   6.281   5.948   7.032  0.0247 -0.0165  0.2022
21604SOL    HW166253   6.217   5.882   7.003  0.2509 -0.1721  0.0534
21604SOL    HW266254   6.341   5.957   6.958  0.2364  0.0547  0.3821
21605SOL     OW66255   5.665   4.563   4.587 -0.2549  0.1094 -0.1600
21605SOL    HW166256   5.580   4.519   4.596 -0.2227  0.0081 -0.3583
21605SOL    HW266257   5.648   4.636   4.527 -0.8334  1.7253  1.8149
21606SOL     OW66258   0.523   5.815   6.692 -0.1325 -0.1273 -0.4594
21606SOL    HW166259   0.433   5.833   6.667 -0.1749  0.0866 -0.1558
21606SOL    HW266260   0.558   5.764   6.619 -0.8443 -1.2229 -0.0755
21607SOL     OW66261   0.504   2.293   8.348 -0.2216  0.4682  0.0069
21607SOL    HW166262   0.547   2.375   8.323  1.9044  0.0784  2.0326
21607SOL    HW266263   0.566   2.225   8.323  1.0868 -0.0546  3.9719
21608SOL     OW66264   5.704   4.082   6.240 -0.0337  0.1245 -0.1720
21608SOL    HW166265   5.610   4.102   6.232  0.4062  2.1002 -1.2314
21608SOL    HW266266   5.740   4.158   6.286  0.8080 -1.4758  1.9402
21609SOL     OW66267   6.421   4.755   6.521  0.3975  0.1059 -0.0636
21609SOL    HW166268   6.355   4.765   6.589  0.7163  1.3711  0.0824
21609SOL    HW266269   6.498   4.721   6.568  0.5495  0.7715  0.1806
21610SOL     OW66270   6.164   3.862   6.223 -0.4357  0.3129 -0.1689
21610SOL    HW166271   6.152   3.783   6.170 -0.8308  0.0379  0.3178
21610SOL    HW266272   6.152   3.831   6.314 -1.3328  1.0709 -0.0179
21611SOL     OW66273   4.813   4.835   5.819  0.1174  0.2437 -0.0647
21611SOL    HW166274   4.803   4.826   5.725 -0.3241  1.1334 -0.1104
21611SOL    HW266275   4.747   4.776   5.856  0.3803 -0.2081 -0.2975
21612SOL     OW66276   5.947   6.094   7.533 -0.1405 -0.1648 -0.1556
21612SOL    HW166277   5.904   6.011   7.553 -0.7820  0.3683  0.7644
21612SOL    HW266278   5.940   6.103   7.438  0.8907 -1.6629 -0.4133
21613SOL     OW66279   7.153   3.501   4.981 -0.2061 -0.0864 -1.0369
21613SOL    HW166280   7.074   3.451   5.003  1.1884 -1.0597  2.5315
21613SOL    HW266281   7.139   3.587   5.019  0.3286 -0.1976 -0.5695
21614SOL     OW66282   7.077   2.903   6.576  0.1756  0.1249 -0.3087
21614SOL    HW166283   6.986   2.900   6.607  0.3588  2.2781  0.6091
21614SOL    HW266284   7.071   2.882   6.483 -1.5572  2.2227 -0.7412
21615SOL     OW66285   5.778   5.563   5.849 -0.1495  0.1364 -0.2091
21615SOL    HW166286   5.851   5.621   5.868  0.2498 -1.0954  2.4660
21615SOL    HW266287   5.750   5.530   5.935 -2.1945 -1.4098 -1.3673
21616SOL     OW66288   4.693   3.402   5.486 -0.2585  0.0647 -0.2671
21616SOL    HW166289   4.655   3.487   5.461  1.0470  0.5331 -0.7301
21616SOL    HW266290   4.629   3.365   5.547 -0.7147  1.5305  0.2033
21617SOL     OW66291   6.766   7.447   8.070 -0.1018 -0.3460 -0.6987
21617SOL    HW166292   6.799   7.500   7.998 -3.5167 -0.3065 -2.4506
21617SOL    HW266293   6.755   7.509   8.142 -0.1256  0.4599 -1.3780
21618SOL     OW66294   5.605   4.817   7.503  0.0775 -0.5151 -0.2296
21618SOL    HW166295   5.670   4.806   7.433  1.4849 -3.7074  1.3475
21618SOL    HW266296   5.552   4.737   7.499  0.1063 -0.7320  2.1697
21619SOL     OW66297   5.443   5.149   8.438  0.4763 -0.3009  0.0631
21619SOL    HW166298   5.417   5.193   8.358  0.4713 -0.5480 -0.0713
21619SOL    HW266299   5.366   5.157   8.495  0.7780  0.6176  0.3663
21620SOL     OW66300   5.252   2.416   8.452 -1.1869  0.3480 -0.2090
21620SOL    HW166301   5.190   2.481   8.484 -2.8178 -1.3503  0.2225
21620SOL    HW266302   5.286   2.374   8.531 -1.9319 -0.8988 -0.5310
21621SOL     OW66303   6.035   5.694   8.445  0.3053 -0.3780 -0.1446
21621SOL    HW166304   5.962   5.699   8.507 -0.7480 -1.2014 -1.2547
21621SOL    HW266305   6.030   5.776   8.396  0.6572 -0.0659  0.3373
21622SOL     OW66306   6.783   2.843   9.296  0.3248 -0.4673 -0.2553
21622SOL    HW166307   6.752   2.754   9.310  1.1541 -0.7675 -0.2754
21622SOL    HW266308   6.704   2.897   9.302  0.1344 -0.9050  2.4054
21623SOL     OW66309   7.605   2.865   8.796 -0.0647  0.2029 -0.2466
21623SOL    HW166310   7.590   2.864   8.702  0.3650 -1.7108 -0.3350
21623SOL    HW266311   7.541   2.803   8.831 -2.0229  2.7912  1.0886
21624SOL     OW66312   7.239   4.278   6.317  0.0180 -0.7965  0.5437
21624SOL    HW166313   7.180   4.346   6.349  1.0251  0.7099 -0.6216
21624SOL    HW266314   7.184   4.201   6.306 -1.8698  0.6658 -0.9170
21625SOL     OW66315   5.835   3.123   8.333  0.2636  0.0148 -0.1475
21625SOL    HW166316   5.902   3.164   8.278 -0.0707  0.3676 -0.2996
21625SOL    HW266317   5.775   3.194   8.354  0.6810 -0.0040  1.1391
21626SOL     OW66318   5.644   5.511   7.229 -0.4810 -0.2588  0.3266
21626SOL    HW166319   5.553   5.533   7.210  0.0074  2.1261  0.3476
21626SOL    HW266320   5.683   5.496   7.143 -0.3339  1.4548  0.0474
21627SOL     OW66321   6.707   3.626   8.832  0.4434 -0.1919  0.1551
21627SOL    HW166322   6.630   3.583   8.869  1.2655 -2.8571 -0.9847
21627SOL    HW266323   6.674   3.672   8.755 -0.0861 -1.0980 -0.1778
21628SOL     OW66324   6.533   5.111   9.185  0.2067  0.3600  0.0746
21628SOL    HW166325   6.508   5.198   9.153  0.1083  0.6445  0.9172
21628SOL    HW266326   6.572   5.068   9.109 -1.5377  0.4143 -0.9074
21629SOL     OW66327   4.608   7.104  10.159  0.4722 -0.6673  0.4767
21629SOL    HW166328   4.662   7.030  10.188  2.7988  0.4605 -0.6897
21629SOL    HW266329   4.671   7.167  10.125 -1.7068 -0.2523 -3.3122
21630SOL     OW66330   0.132   5.728   8.985  0.1656  0.2742 -0.5084
21630SOL    HW166331   0.173   5.645   8.960 -2.1180 -0.8720 -0.8165
21630SOL    HW266332   0.104   5.766   8.902 -0.2848  0.5035 -0.2551
21631SOL     OW66333   6.808   3.528  10.574  0.0380  0.3002 -0.2073
21631SOL    HW166334   6.807   3.571  10.660 -1.5615  0.1926 -0.1429
21631SOL    HW266335   6.813   3.600  10.511  0.4582  0.4136 -0.0507
21632SOL     OW66336   7.659   2.057   8.262  0.0674 -0.0217 -0.2378
21632SOL    HW166337   7.602   2.092   8.194  0.3988  0.4973 -0.2524
21632SOL    HW266338   7.742   2.038   8.216 -0.3046 -1.4486 -0.3742
21633SOL     OW66339   6.783   5.613   8.931  0.1018 -0.0408 -0.6027
21633SOL    HW166340   6.869   5.594   8.893  0.8750  0.2888  0.9232
21633SOL    HW266341   6.767   5.704   8.909  1.3168  0.6573  1.2202
21634SOL     OW66342   6.346   4.853   8.911 -0.1628  0.2433 -0.0036
21634SOL    HW166343   6.328   4.788   8.844 -1.0762 -0.8727  1.2727
21634SOL    HW266344   6.269   4.909   8.912  0.4240  1.0873 -0.7804
21635SOL     OW66345   6.157   6.826   7.200  0.3617 -0.4466 -0.3804
21635SOL    HW166346   6.155   6.811   7.105 -0.2235 -0.6233 -0.3438
21635SOL    HW266347   6.191   6.745   7.236 -2.1999 -1.5555 -0.2296
21636SOL     OW66348   5.616   3.202   8.934 -0.5122  0.6021  0.0390
21636SOL    HW166349   5.652   3.173   8.850  3.2896 -0.1942  1.7376
21636SOL    HW266350   5.576   3.124   8.972 -1.1834  0.6842 -0.4706
21637SOL     OW66351   5.525   5.805   9.300  0.0529 -0.1690  0.1497
21637SOL    HW166352   5.444   5.835   9.258 -0.2889 -2.0965 -0.6946
21637SOL    HW266353   5.579   5.773   9.228  1.9391  1.7509  0.6115
21638SOL     OW66354   6.253   5.984   7.531 -0.0771 -0.7127  0.3169
21638SOL    HW166355   6.266   5.946   7.444 -0.9722 -1.5577  0.5431
21638SOL    HW266356   6.166   6.023   7.528 -0.0578 -0.6281  0.7954
21639SOL     OW66357   7.090   3.845   7.641 -0.0728 -0.0419  0.1262
21639SOL    HW166358   7.012   3.900   7.637 -0.2358 -0.3140 -0.5396
21639SOL    HW266359   7.065   3.772   7.698  0.1291  0.5373  0.9753
21640SOL     OW66360   4.515   4.012   8.842 -0.4029 -0.2222 -0.2311
21640SOL    HW166361   4.560   3.937   8.803 -0.2573  1.2781 -3.2847
21640SOL    HW266362   4.425   3.982   8.853  0.3372 -1.9102  2.0146
21641SOL     OW66363   7.596   5.261   7.151  0.2962 -0.1811  0.2565
21641SOL    HW166364   7.513   5.232   7.114  0.8164 -0.0753 -1.0527
21641SOL    HW266365   7.602   5.215   7.235 -2.2116  1.6854  1.5842
21642SOL     OW66366   5.028   5.974   8.201  0.3997 -0.5828  0.4978
21642SOL    HW166367   5.013   5.932   8.116  1.8182  0.8342 -0.4991
21642SOL    HW266368   5.119   5.955   8.222 -0.1322 -1.6156  2.1690
21643SOL     OW66369   7.502   6.539   9.995 -0.0021 -0.6260  0.1405
21643SOL    HW166370   7.445   6.473   9.955 -1.0924  1.1475 -1.3527
21643SOL    HW266371   7.542   6.584   9.921  0.6281  0.4634  1.1227
21644SOL     OW66372   0.457   5.824   9.201 -0.1170  0.3788  0.9557
21644SOL    HW166373   0.406   5.900   9.174 -1.0721  0.1082  1.9549
21644SOL    HW266374   0.517   5.808   9.127 -1.6758  0.4994 -0.3896
21645SOL     OW66375   6.312   5.378   7.888 -0.2713  0.7348 -0.2010
21645SOL    HW166376   6.321   5.284   7.901  0.9030  0.9379  0.6476
21645SOL    HW266377   6.399   5.406   7.858 -0.2959  1.6879  0.5771
21646SOL     OW66378   5.806   3.911   7.405  0.4502 -0.4900 -0.3497
21646SOL    HW166379   5.821   3.921   7.500 -0.1402  0.4633 -0.3475
21646SOL    HW266380   5.894   3.917   7.367  0.6093 -0.0756  0.0721
21647SOL     OW66381   0.900   4.882   8.966  0.2948  0.4372  0.3097
21647SOL    HW166382   0.973   4.863   8.908  0.3243  0.7538  0.2426
21647SOL    HW266383   0.915   4.827   9.043  0.4728  0.3241  0.1948
21648SOL     OW66384   5.969   4.150   7.865 -0.6444  0.0577  0.2740
21648SOL    HW166385   5.924   4.162   7.949 -0.0200 -0.5129  0.6929
21648SOL    HW266386   6.060   4.172   7.883 -0.5424  0.1321 -0.3118
21649SOL     OW66387   5.654   3.780   7.991 -0.1165 -0.5043  0.1084
21649SOL    HW166388   5.646   3.870   7.960 -1.0210 -1.5602 -3.0733
21649SOL    HW266389   5.564   3.755   8.013  0.1608 -0.6287  1.1831
21650SOL     OW66390   6.010   4.665   6.843  0.3973 -0.4135  0.0753
21650SOL    HW166391   6.050   4.746   6.876  0.8054 -0.2565 -0.7585
21650SOL    HW266392   5.958   4.632   6.916  0.9754  0.1049  0.7371
21651SOL     OW66393   7.266   4.924   8.265  0.1500 -0.0831  0.3350
21651SOL    HW166394   7.361   4.938   8.266 -0.2343  3.4306  0.8435
21651SOL    HW266395   7.230   5.004   8.303 -3.0938 -0.7573 -0.9979
21652SOL     OW66396   6.234   4.234   9.510  0.0065 -0.2431 -0.0632
21652SOL    HW166397   6.211   4.168   9.444 -0.4223 -0.3965  0.2315
21652SOL    HW266398   6.290   4.296   9.464  0.0900 -0.6012 -0.4493
21653SOL     OW66399   0.362   6.139   7.592 -0.2368  0.5962  0.1370
21653SOL    HW166400   0.432   6.164   7.532 -0.8255  4.0646  0.7245
21653SOL    HW266401   0.286   6.127   7.535  0.2139 -0.7303 -0.2282
21654SOL     OW66402   6.711   6.605   7.665 -0.1429 -0.0518  0.1723
21654SOL    HW166403   6.659   6.600   7.744  0.4112 -0.1081  0.5426
21654SOL    HW266404   6.710   6.698   7.641 -0.5496 -0.0813  0.0831
21655SOL     OW66405   5.926   5.509   7.527  0.6773 -0.6370 -0.2650
21655SOL    HW166406   6.016   5.489   7.503  0.6248 -0.1327 -0.9263
21655SOL    HW266407   5.890   5.427   7.559  1.9062 -0.4572  1.7851
21656SOL     OW66408   0.159   3.150  10.100  0.4933 -0.2792  0.4108
21656SOL    HW166409   0.172   3.073  10.045 -1.5391 -1.1560  1.0568
21656SOL    HW266410   0.244   3.166  10.140  1.0408 -1.9855  0.0066
21657SOL     OW66411   5.740   6.555   8.794 -0.4490 -0.5502 -0.5470
21657SOL    HW166412   5.674   6.583   8.858  0.1883  1.3750 -0.6720
21657SOL    HW266413   5.809   6.514   8.847 -1.1725 -1.4863 -0.3018
21658SOL     OW66414   5.937   5.180   8.679 -0.1194 -0.1761 -0.0699
21658SOL    HW166415   5.885   5.249   8.637 -1.3286 -0.9533  0.1198
21658SOL    HW266416   5.995   5.149   8.609 -1.0950 -0.4562 -0.7764
21659SOL     OW66417   7.205   4.045   7.835  0.5050  0.0294  0.2584
21659SOL    HW166418   7.211   4.134   7.801 -1.1413 -0.1033 -0.4693
21659SOL    HW266419   7.190   3.991   7.758  0.1256 -0.7182  0.8428
21660SOL     OW66420   6.823   3.144   9.629 -0.1377 -0.4170  0.0720
21660SOL    HW166421   6.827   3.128   9.535 -2.2118 -2.1772  0.2044
21660SOL    HW266422   6.773   3.225   9.637  0.2587 -0.1258 -0.3412
21661SOL     OW66423   0.976   2.515   8.797  0.2270 -0.5097  0.0491
21661SOL    HW166424   1.062   2.542   8.766 -0.8790  1.5748 -1.5063
21661SOL    HW266425   0.929   2.598   8.809 -1.3991 -1.5704  1.3814
21662SOL     OW66426   0.163   3.978   6.921 -0.1381  0.2199  0.1797
21662SOL    HW166427   0.228   3.988   6.991  3.0707 -0.7492 -2.4229
21662SOL    HW266428   0.122   3.894   6.938  0.8413 -0.1590  0.7464
21663SOL     OW66429   4.985   4.787   7.201  0.4964  0.0695 -0.3873
21663SOL    HW166430   4.959   4.814   7.113  1.3761  0.2424 -0.6034
21663SOL    HW266431   4.905   4.751   7.240  0.1562 -0.2300 -1.3402
21664SOL     OW66432   5.136   4.960  10.200  0.3239  0.0013  0.2926
21664SOL    HW166433   5.067   4.939  10.137 -0.7752 -0.0185  1.4598
21664SOL    HW266434   5.213   4.913  10.168 -0.5971 -1.2099 -0.2233
21665SOL     OW66435   7.174   4.192   5.443 -0.2729  0.6754 -0.2145
21665SOL    HW166436   7.238   4.253   5.478 -1.3084  0.2823  2.7023
21665SOL    HW266437   7.122   4.243   5.382 -0.2669  2.3624  1.1274
21666SOL     OW66438   7.008   4.400   9.887 -0.1849  0.0336  0.7147
21666SOL    HW166439   6.943   4.373   9.823  1.3282 -0.9743 -0.4879
21666SOL    HW266440   6.997   4.340   9.960  0.7015 -1.5199 -0.3629
21667SOL     OW66441   6.320   5.107   7.975  0.7396 -0.1415  0.5869
21667SOL    HW166442   6.337   5.042   7.907 -3.0753  0.5995 -1.3498
21667SOL    HW266443   6.249   5.070   8.027  0.2203  1.3912  1.0265
21668SOL     OW66444   6.694   3.033   9.018 -0.2693 -0.4795  0.4912
21668SOL    HW166445   6.777   3.077   9.029 -0.8034  0.8988 -0.6572
21668SOL    HW266446   6.674   2.996   9.104  1.1619 -0.2097  0.9609
21669SOL     OW66447   4.798   4.884   8.721  0.1748  0.0021 -0.3187
21669SOL    HW166448   4.749   4.964   8.702 -1.0870 -0.6156  0.1738
21669SOL    HW266449   4.795   4.834   8.639  1.1089  0.5079 -0.6788
21670SOL     OW66450   6.852   4.963   8.941 -1.1327  0.3813  0.4076
21670SOL    HW166451   6.848   4.965   8.845  0.1746 -0.3315  0.3102
21670SOL    HW266452   6.825   4.874   8.964 -0.3660  0.1941  0.6133
21671SOL     OW66453   0.044   2.634   8.109  0.4647  0.0022 -0.9424
21671SOL    HW166454   0.138   2.617   8.109  1.7001  5.1424 -0.7391
21671SOL    HW266455   0.024   2.660   8.020 -0.3518  0.4812 -0.6303
21672SOL     OW66456   6.999   3.424   8.494 -0.2257  0.0009 -0.2371
21672SOL    HW166457   7.024   3.456   8.581  2.8771  0.1805 -1.0799
21672SOL    HW266458   7.033   3.335   8.490 -0.5045 -0.0777 -1.2040
21673SOL     OW66459   5.315   4.613   8.906  0.3798 -0.4118  0.6299
21673SOL    HW166460   5.319   4.537   8.849  0.1621 -0.5507  0.7964
21673SOL    HW266461   5.381   4.597   8.973  0.8143 -0.1282  0.2743
21674SOL     OW66462   6.732   5.312   8.649 -0.3046  0.0545 -0.1784
21674SOL    HW166463   6.769   5.225   8.668 -0.3610  0.0745  0.0193
21674SOL    HW266464   6.661   5.294   8.587  0.7372  0.1222 -1.4624
21675SOL     OW66465   6.047   6.724   7.960 -0.3958 -0.5930 -0.1467
21675SOL    HW166466   5.970   6.769   7.925 -0.7595 -2.0614 -1.2901
21675SOL    HW266467   6.042   6.635   7.926 -0.3530 -1.9629  3.0235
21676SOL     OW66468   7.394   5.227   8.036 -0.4300  0.7301 -0.1088
21676SOL    HW166469   7.471   5.276   8.006 -0.8451  1.7952  0.5117
21676SOL    HW266470   7.430   5.148   8.076  0.5326  2.2041  2.1168
21677SOL     OW66471   6.482   2.519   8.838  0.4619 -0.2108 -0.2419
21677SOL    HW166472   6.504   2.471   8.759  1.1865  1.0974 -0.8636
21677SOL    HW266473   6.387   2.511   8.846  0.5696 -1.9099 -0.1771
21678SOL     OW66474   6.574   5.885   8.501 -0.1287  0.5418  0.1153
21678SOL    HW166475   6.523   5.839   8.434 -0.6374 -0.4020  1.1388
21678SOL    HW266476   6.509   5.934   8.551  0.0368 -0.0817  0.9612
21679SOL     OW66477   4.178   5.369   8.701 -0.6424  0.5568 -0.7242
21679SOL    HW166478   4.125   5.301   8.742 -1.2054  0.8982 -0.8796
21679SOL    HW266479   4.133   5.451   8.722 -0.3422  0.8256 -1.1115
21680SOL     OW66480   6.605   4.709   7.104 -0.0799  0.4781 -0.2622
21680SOL    HW166481   6.554   4.703   7.184 -1.8457 -0.0310 -1.3721
21680SOL    HW266482   6.543   4.739   7.037  0.8568 -0.8908 -1.8386
21681SOL     OW66483   4.820   5.595   7.771 -0.2799  0.1954 -0.8312
21681SOL    HW166484   4.747   5.571   7.713 -1.5593 -1.4115  1.3026
21681SOL    HW266485   4.881   5.522   7.764  0.5424  0.9271 -1.5963
21682SOL     OW66486   5.820   4.818   8.570 -0.2413 -0.1274  0.0845
21682SOL    HW166487   5.739   4.806   8.521 -0.6985  1.3283  0.4505
21682SOL    HW266488   5.799   4.884   8.636  1.2877  0.4212  0.0713
21683SOL     OW66489   6.406   4.813   7.445 -0.5062  0.4277  0.4348
21683SOL    HW166490   6.492   4.786   7.476  0.8037  1.9020 -1.5738
21683SOL    HW266491   6.353   4.734   7.447  0.1288 -0.0406  3.9274
21684SOL     OW66492   6.814   5.015   8.652 -0.8544  0.3431  0.3749
21684SOL    HW166493   6.811   4.919   8.657  1.4943  0.1954  0.2031
21684SOL    HW266494   6.836   5.034   8.561  1.6018  0.8372  0.9851
21685SOL     OW66495   5.704   5.326   6.720 -0.3524 -0.0266 -1.0607
21685SOL    HW166496   5.744   5.312   6.634 -2.0053 -1.9072 -1.6048
21685SOL    HW266497   5.691   5.238   6.754 -0.2413  0.6803  0.9001
21686SOL     OW66498   7.429   3.784   8.962  0.5583 -0.0160  0.3547
21686SOL    HW166499   7.443   3.793   9.056  1.1865  2.5450  0.0962
21686SOL    HW266500   7.334   3.779   8.952  0.4551  0.2999  1.1118
21687SOL     OW66501   5.139   4.743   9.230 -0.3961 -0.1577  0.2419
21687SOL    HW166502   5.193   4.807   9.185  0.3374 -0.3670  0.8034
21687SOL    HW266503   5.056   4.744   9.183  0.1031  0.1448 -0.6522
21688SOL     OW66504   6.304   4.300   7.471  0.6031 -0.3536  1.0137
21688SOL    HW166505   6.307   4.330   7.380 -2.5246  0.9559  1.2012
21688SOL    HW266506   6.352   4.218   7.471  0.7710 -0.3506 -1.8097
21689SOL     OW66507   5.464   4.986   7.307  0.0117  0.1275  0.3788
21689SOL    HW166508   5.517   4.924   7.358 -0.4861  1.0892  2.1508
21689SOL    HW266509   5.376   4.947   7.306  0.4051 -0.8177 -1.4328
21690SOL     OW66510   7.481   6.301   7.150 -0.1217 -0.0990 -0.2107
21690SOL    HW166511   7.454   6.217   7.112  0.1831  0.5407 -1.9515
21690SOL    HW266512   7.421   6.315   7.223 -1.0535 -1.1772 -0.7349
21691SOL     OW66513   6.389   2.869   8.812  0.4398 -0.1913  0.7719
21691SOL    HW166514   6.302   2.839   8.839  0.2626 -1.8056 -1.3358
21691SOL    HW266515   6.372   2.941   8.751  0.6415  0.1519  1.1148
21692SOL     OW66516   6.539   5.065   8.124  0.1376 -0.1259  0.0506
21692SOL    HW166517   6.452   5.073   8.086 -0.3462 -1.2029  0.8835
21692SOL    HW266518   6.552   4.971   8.136  1.6894 -0.0508 -0.6537
21693SOL     OW66519   5.755   4.336   6.415 -0.2850 -0.5264  0.1516
21693SOL    HW166520   5.685   4.296   6.466  1.3180 -1.7775  1.4726
21693SOL    HW266521   5.835   4.316   6.463  1.0941  0.1406 -1.7296
21694SOL     OW66522   7.167   4.263   8.169  0.2099  0.2756  0.5217
21694SOL    HW166523   7.087   4.306   8.140  0.0135 -0.8668 -0.6782
21694SOL    HW266524   7.146   4.170   8.168  0.6835  0.0796  2.9192
21695SOL     OW66525   6.903   4.455   8.592 -0.2672  0.8659  0.5107
21695SOL    HW166526   6.937   4.535   8.550  1.8041 -1.5511 -2.9743
21695SOL    HW266527   6.969   4.433   8.657  0.7258  0.5281 -0.5666
21696SOL     OW66528   7.510   5.026   7.649  0.1417 -0.5791 -0.1532
21696SOL    HW166529   7.428   5.037   7.697 -1.3119 -3.2591 -1.7882
21696SOL    HW266530   7.572   4.992   7.714  0.2716  2.0118  1.2400
21697SOL     OW66531   7.507   6.334   7.557  0.0754  0.1341 -0.2893
21697SOL    HW166532   7.436   6.304   7.501 -0.0401 -2.0668  0.9215
21697SOL    HW266533   7.537   6.255   7.603  0.5497  1.6911  2.3040
21698SOL     OW66534   7.605   5.494   8.310  0.4755  0.0555 -0.0550
21698SOL    HW166535   7.649   5.572   8.276  0.2245  0.5438  0.7060
21698SOL    HW266536   7.614   5.501   8.405  1.8415 -1.6697  0.0098
21699SOL     OW66537   5.401   4.825   6.845 -0.2152 -0.2496  0.5441
21699SOL    HW166538   5.315   4.784   6.842 -0.4715  0.3397 -0.7582
21699SOL    HW266539   5.392   4.904   6.791  1.8419 -1.5366 -1.8886
21700SOL     OW66540   5.423   4.174   7.810 -0.4934 -0.1192  0.4704
21700SOL    HW166541   5.412   4.181   7.715  0.1280 -2.6799  0.1210
21700SOL    HW266542   5.355   4.113   7.837  0.3648 -0.7044  1.3865
21701SOL     OW66543   7.510   4.243   7.503 -0.3638  0.4334  0.3294
21701SOL    HW166544   7.487   4.193   7.425 -0.0703 -1.5200  1.4195
21701SOL    HW266545   7.427   4.279   7.535 -0.7594 -0.2744  0.1082
21702SOL     OW66546   7.292   4.440   7.308 -0.3208  0.5774  0.5246
21702SOL    HW166547   7.352   4.495   7.357 -0.5472 -0.1928  1.6965
21702SOL    HW266548   7.330   4.435   7.220  0.1239  1.9117  0.6146
21703SOL     OW66549   7.088   3.084   7.608  0.2114 -0.4762  0.7091
21703SOL    HW166550   7.035   3.025   7.555 -0.7934  1.9291 -1.1678
21703SOL    HW266551   7.178   3.060   7.589 -0.1530 -2.1299  0.9403
21704SOL     OW66552   7.100   5.977   7.186 -0.0627 -0.1995 -0.7743
21704SOL    HW166553   7.178   6.014   7.145  0.5484  1.0347  1.3711
21704SOL    HW266554   7.031   6.041   7.168  0.2503  0.4404  0.1976
21705SOL     OW66555   0.078   4.506   8.801  0.0902 -0.5301  0.3818
21705SOL    HW166556   0.149   4.476   8.857  1.1706 -2.0967 -1.6608
21705SOL    HW266557   0.115   4.579   8.752  0.3651 -1.3324 -0.6703
21706SOL     OW66558   0.698   6.717   7.862 -0.2376  0.0193  0.4565
21706SOL    HW166559   0.612   6.756   7.871 -0.3040  0.3122 -1.1978
21706SOL    HW266560   0.702   6.687   7.771  1.2029 -0.4608  0.6479
21707SOL     OW66561   0.379   7.206   8.090  0.0027 -0.1308 -0.0398
21707SOL    HW166562   0.391   7.112   8.077 -1.4082 -0.2938 -0.3292
21707SOL    HW266563   0.395   7.245   8.004  0.3773 -0.1283  0.0301
21708SOL     OW66564   6.262   5.122   6.640  0.3242 -0.0038  0.4253
21708SOL    HW166565   6.268   5.218   6.647  2.8569 -0.1158  0.9649
21708SOL    HW266566   6.298   5.102   6.554 -2.8606 -0.3890 -0.9308
21709SOL     OW66567   7.796   6.110   5.825 -0.6656 -0.8575 -0.1786
21709SOL    HW166568   7.727   6.150   5.771 -0.6252 -1.9013 -1.0359
21709SOL    HW266569   7.834   6.042   5.769  0.7333 -0.6426  0.4640
21710SOL     OW66570   5.238   4.005   8.429  0.4602  0.2316 -0.3925
21710SOL    HW166571   5.173   4.076   8.428 -0.4856 -0.4831 -4.4215
21710SOL    HW266572   5.187   3.927   8.452  0.8875  0.3182  0.9454
21711SOL     OW66573   4.097   6.005   8.432 -0.2422  0.4839  0.0602
21711SOL    HW166574   4.128   6.095   8.425  2.4586 -0.0771  2.5734
21711SOL    HW266575   4.147   5.957   8.366 -0.8179  0.6104 -0.4786
21712SOL     OW66576   5.933   3.020   8.566 -0.3115 -0.0878 -0.2508
21712SOL    HW166577   6.022   3.021   8.533 -0.4996 -0.2562 -0.7767
21712SOL    HW266578   5.880   3.055   8.495 -0.5195  1.2795  0.5427
21713SOL     OW66579   1.200   5.996   9.625 -0.1697 -0.0911  0.3065
21713SOL    HW166580   1.210   5.938   9.549 -1.1598  1.3594 -0.9829
21713SOL    HW266581   1.148   5.944   9.687 -0.8581 -0.6911 -0.7340
21714SOL     OW66582   6.236   3.592   8.838 -0.0759 -0.1641 -0.4298
21714SOL    HW166583   6.144   3.595   8.867 -0.5153 -1.5112 -1.6100
21714SOL    HW266584   6.231   3.579   8.744  1.3071 -1.9849 -0.3003
21715SOL     OW66585   6.414   4.026   8.112  0.3987 -0.4988 -0.0718
21715SOL    HW166586   6.428   3.992   8.023 -1.9125  0.5455 -0.9232
21715SOL    HW266587   6.334   3.983   8.142 -0.0709  0.7902  0.6064
21716SOL     OW66588   6.997   3.162   9.936 -0.1697  0.3131  0.3728
21716SOL    HW166589   6.995   3.166   9.841  0.4152 -0.7641  0.2995
21716SOL    HW266590   7.050   3.237   9.963 -0.9965  1.0854 -0.0889
21717SOL     OW66591   0.283   3.922   8.977  0.2835  0.6034  0.1418
21717SOL    HW166592   0.337   3.876   9.041  0.2456 -0.4771 -0.5716
21717SOL    HW266593   0.297   3.875   8.895  0.1183  1.7943 -0.5917
21718SOL     OW66594   7.690   4.521   7.239  0.2088  0.2680  0.0196
21718SOL    HW166595   7.762   4.576   7.208 -0.3244  0.7619 -0.3661
21718SOL    HW266596   7.679   4.545   7.331  1.8452 -1.2552  0.6710
21719SOL     OW66597   5.564   3.724   8.325 -0.1180 -0.3615  0.0824
21719SOL    HW166598   5.655   3.741   8.350  0.0557 -0.4151 -0.5020
21719SOL    HW266599   5.530   3.810   8.299  0.6152 -0.7486 -2.3976
21720SOL     OW66600   5.875   4.290   7.323 -0.3401 -0.3324 -0.4299
21720SOL    HW166601   5.930   4.231   7.375  0.6616  0.1761 -0.8785
21720SOL    HW266602   5.902   4.274   7.233  0.5473  1.3559 -0.5124
21721SOL     OW66603   5.275   4.146   8.161  0.3280 -0.7790 -0.0628
21721SOL    HW166604   5.255   4.079   8.096  1.6922 -0.9139 -0.3832
21721SOL    HW266605   5.220   4.123   8.236  0.1033 -1.7242 -0.4996
21722SOL     OW66606   5.965   3.655   7.370 -0.0493  0.0385 -0.0277
21722SOL    HW166607   5.895   3.717   7.348 -1.3419 -1.2691  0.2076
21722SOL    HW266608   5.946   3.577   7.317 -0.6097 -1.4984  2.2646
21723SOL     OW66609   6.419   3.651   7.917 -0.1058 -0.0379 -0.5286
21723SOL    HW166610   6.359   3.601   7.862 -0.5197 -1.2826  0.9693
21723SOL    HW266611   6.386   3.741   7.912 -0.6871 -0.2905 -1.5528
21724SOL     OW66612   4.473   5.246   7.980 -0.1423 -0.4949  0.1087
21724SOL    HW166613   4.485   5.339   7.963  0.6900 -0.1797  2.1048
21724SOL    HW266614   4.527   5.229   8.058 -1.3118 -2.3533  0.5669
21725SOL     OW66615   5.890   4.525   8.119 -0.0300  0.7277 -0.1139
21725SOL    HW166616   5.925   4.501   8.034 -0.7809 -0.0487 -0.2113
21725SOL    HW266617   5.852   4.612   8.107 -3.1091 -0.6652 -1.4808
21726SOL     OW66618   0.040   5.694   7.236  0.0124  0.0361  0.1319
21726SOL    HW166619   0.114   5.644   7.270 -1.5078 -0.0894  3.7645
21726SOL    HW266620  -0.017   5.629   7.195  0.5004 -0.3804  0.1093
21727SOL     OW66621   4.816   4.347   9.094 -0.2279  0.0511 -0.4149
21727SOL    HW166622   4.848   4.307   9.012 -1.6964  0.5788 -1.2802
21727SOL    HW266623   4.744   4.403   9.066  0.0441  1.2136  1.1178
21728SOL     OW66624   4.556   3.820   8.488 -0.7708 -0.6044  0.5632
21728SOL    HW166625   4.606   3.829   8.569  0.0403 -0.2172  0.0364
21728SOL    HW266626   4.599   3.749   8.441  0.0943  0.5578 -0.4511
21729SOL     OW66627   6.459   5.048   9.653  0.2459  0.1177  0.3542
21729SOL    HW166628   6.434   5.060   9.561 -3.2432  0.9047  1.3005
21729SOL    HW266629   6.453   4.953   9.666 -1.7280  0.1994  0.3296
21730SOL     OW66630   4.997   3.462   9.802 -0.2664 -0.0811  0.3576
21730SOL    HW166631   5.008   3.551   9.770  1.0026  0.0369  1.0252
21730SOL    HW266632   4.944   3.418   9.735 -0.0519  0.8955 -0.4785
21731SOL     OW66633   5.240   4.328   8.539  0.9736 -0.0433  0.1704
21731SOL    HW166634   5.160   4.277   8.551 -0.6939  2.8633  3.7858
21731SOL    HW266635   5.246   4.343   8.445 -1.6678 -1.9567 -0.4063
21732SOL     OW66636   6.010   6.126   6.831  0.5907 -0.1062  0.3480
21732SOL    HW166637   6.054   6.042   6.815 -0.4938 -0.6535  0.0885
21732SOL    HW266638   6.023   6.175   6.750  1.0124 -0.1235  0.4036
21733SOL     OW66639   6.107   5.958   7.928 -0.1449  0.0717 -0.2866
21733SOL    HW166640   6.017   5.932   7.910 -0.3081  0.4276  0.0004
21733SOL    HW266641   6.141   5.890   7.986  0.4057 -1.1287 -1.9282
21734SOL     OW66642   6.803   5.371   7.624 -0.6273  0.2952 -0.4863
21734SOL    HW166643   6.731   5.397   7.567 -1.8799  0.9127  1.2645
21734SOL    HW266644   6.875   5.430   7.601 -1.9657  2.3756  0.3287
21735SOL     OW66645   5.936   5.187   7.056  0.3633  0.5084 -0.3724
21735SOL    HW166646   5.862   5.134   7.085  0.1373 -0.0579 -1.8952
21735SOL    HW266647   5.986   5.203   7.136 -0.5469 -0.4500  0.4281
21736SOL     OW66648   5.216   4.739   8.125 -0.2469  0.7772 -0.0935
21736SOL    HW166649   5.156   4.679   8.169 -0.4003  0.5942 -0.5444
21736SOL    HW266650   5.240   4.694   8.044  1.0504  0.5404  0.3955
21737SOL     OW66651   6.216   2.472   8.873  0.7394 -0.4040 -0.2016
21737SOL    HW166652   6.192   2.400   8.932 -2.5899 -1.0208 -2.0504
21737SOL    HW266653   6.188   2.551   8.919 -0.9887 -0.8072 -0.4940
21738SOL     OW66654   6.805   4.277   9.214  0.0769 -0.4647  0.0885
21738SOL    HW166655   6.842   4.288   9.302 -2.1410  0.3765  0.9863
21738SOL    HW266656   6.710   4.274   9.228 -0.2839 -1.6873 -2.1701
21739SOL     OW66657   6.635   2.194   9.247 -0.3843 -0.5198  0.1308
21739SOL    HW166658   6.554   2.226   9.207 -1.0097 -0.0204  1.7080
21739SOL    HW266659   6.618   2.102   9.265 -0.1224 -0.7318 -0.6499
21740SOL     OW66660   6.180   3.414   6.336  0.0469  0.2188  0.0833
21740SOL    HW166661   6.093   3.376   6.322  0.0361  0.1101  0.4206
21740SOL    HW266662   6.218   3.420   6.249 -0.5181  0.7984 -0.1281
21741SOL     OW66663   5.436   3.744   8.830 -0.6711  0.1123  0.3212
21741SOL    HW166664   5.406   3.831   8.857 -0.4260  0.7230 -1.2523
21741SOL    HW266665   5.360   3.705   8.786 -0.0875  0.5397 -1.1459
21742SOL     OW66666   5.423   5.771   8.421  0.0451 -0.0617 -0.7715
21742SOL    HW166667   5.382   5.688   8.445  0.0143  0.1927  0.0932
21742SOL    HW266668   5.435   5.766   8.326 -1.4744 -0.3671 -0.9626
21743SOL     OW66669   0.422   4.939   9.834 -0.4662 -0.0640 -0.1487
21743SOL    HW166670   0.510   4.900   9.836 -0.4311  0.0339  2.1485
21743SOL    HW266671   0.436   5.031   9.858 -1.0596  0.3420 -1.2681
21744SOL     OW66672   6.814   4.482   9.629 -0.0811  0.1825 -0.2149
21744SOL    HW166673   6.814   4.542   9.703  0.7109  1.3512 -1.1265
21744SOL    HW266674   6.721   4.466   9.612 -0.2891 -1.3834  1.9794
21745SOL     OW66675   7.406   2.294   5.549  0.8429  0.2075  0.5497
21745SOL    HW166676   7.465   2.353   5.502 -0.2963  1.3257  0.4577
21745SOL    HW266677   7.413   2.210   5.502 -0.7310  1.4396 -2.1164
21746SOL     OW66678   7.837   5.299   7.971  0.0629 -0.6548 -0.6278
21746SOL    HW166679   7.881   5.284   7.887 -1.0599 -0.5057 -1.2626
21746SOL    HW266680   7.779   5.374   7.954 -0.4594 -0.8699  0.1727
21747SOL     OW66681   6.354   6.394   7.089 -0.4826 -0.1451  0.2983
21747SOL    HW166682   6.354   6.433   7.001 -0.3765  0.5816  0.6130
21747SOL    HW266683   6.429   6.335   7.089  0.0896  0.5626  0.1992
21748SOL     OW66684   5.867   3.664   8.122  0.1724 -0.4897  0.0457
21748SOL    HW166685   5.793   3.683   8.064 -0.5137 -0.9527  0.7528
21748SOL    HW266686   5.828   3.655   8.209  1.0535 -0.8118  0.4196
21749SOL     OW66687   5.332   6.237   7.519  0.0048  0.2612 -0.1481
21749SOL    HW166688   5.326   6.161   7.461  0.5101  0.7535 -0.8553
21749SOL    HW266689   5.408   6.218   7.575  0.7205  0.6641 -0.9597
21750SOL     OW66690   6.974   2.798   7.966 -0.5235  0.1283  0.0367
21750SOL    HW166691   6.975   2.858   7.890  1.4782  0.9523  0.6584
21750SOL    HW266692   6.901   2.830   8.020 -1.4379  0.0549 -1.1113
21751SOL     OW66693   0.653   5.328   9.260  0.0132  0.0296  0.0167
21751SOL    HW166694   0.561   5.350   9.245 -0.0834  0.5791  1.2761
21751SOL    HW266695   0.650   5.244   9.306  0.2447 -0.8763 -1.5330
21752SOL     OW66696   6.204   6.588   7.507  0.7778 -0.3600  0.1234
21752SOL    HW166697   6.248   6.591   7.423  0.0916 -0.8244 -0.2600
21752SOL    HW266698   6.206   6.496   7.532  1.0084 -0.2216  0.6335
21753SOL     OW66699   5.194   4.976   8.228 -0.3875 -0.1076 -0.5705
21753SOL    HW166700   5.209   4.885   8.199 -0.6354 -0.1781 -0.4761
21753SOL    HW266701   5.146   4.967   8.310  1.6691  0.0562  0.7006
21754SOL     OW66702   7.702   5.964   7.697 -0.3863  0.6703 -0.2844
21754SOL    HW166703   7.795   5.977   7.716  0.0002 -2.9101  1.0926
21754SOL    HW266704   7.659   6.038   7.739  1.7827  2.6018 -1.2126
21755SOL     OW66705   7.484   4.713   7.982 -0.6950 -0.4325 -0.1005
21755SOL    HW166706   7.519   4.686   7.897 -0.8910 -1.1425  0.0389
21755SOL    HW266707   7.474   4.632   8.031 -0.8017 -0.0522  0.5252
21756SOL     OW66708   6.133   5.021   8.514 -0.3626 -0.4133  0.1426
21756SOL    HW166709   6.181   5.083   8.459 -0.0209 -0.1894  0.6903
21756SOL    HW266710   6.097   4.958   8.452 -1.6773  0.9564 -0.5588
21757SOL     OW66711   4.503   3.851   8.104  0.5565  0.0327  0.2601
21757SOL    HW166712   4.567   3.914   8.072 -0.1442  0.2671 -0.7442
21757SOL    HW266713   4.429   3.904   8.134 -0.4904 -0.2625 -1.5750
21758SOL     OW66714   0.007   3.394   8.022 -0.0069 -0.2332  0.4034
21758SOL    HW166715  -0.027   3.479   8.051 -0.7625 -0.7665  1.1477
21758SOL    HW266716   0.056   3.413   7.942  1.1884  1.1385  1.4162
21759SOL     OW66717   7.920   4.691   8.615 -0.5657  0.4364  0.0183
21759SOL    HW166718   7.958   4.774   8.585  0.4986 -0.3385 -0.8978
21759SOL    HW266719   7.963   4.625   8.561 -0.0489 -0.8828  1.9519
21760SOL     OW66720   5.643   4.035   7.879  0.2998 -0.4161 -0.0336
21760SOL    HW166721   5.704   4.094   7.923  0.9683 -2.0596  1.3236
21760SOL    HW266722   5.566   4.090   7.860  1.3021  1.1349  0.2095
21761SOL     OW66723   5.827   3.951   7.675 -0.1215 -0.2264 -0.0522
21761SOL    HW166724   5.893   4.015   7.702 -0.4279  0.8152 -1.6515
21761SOL    HW266725   5.758   3.957   7.742  0.5627 -0.0196  0.6439
21762SOL     OW66726   6.297   1.977   9.314 -0.1133  0.3493 -0.4219
21762SOL    HW166727   6.291   1.894   9.361 -0.0128  0.1634 -0.7327
21762SOL    HW266728   6.228   2.031   9.352  0.1396  0.2959  0.1169
21763SOL     OW66729   6.562   4.892   9.935  0.4369  0.0181 -0.1412
21763SOL    HW166730   6.651   4.916   9.962  0.7999 -2.7901  1.5056
21763SOL    HW266731   6.510   4.971   9.952  2.4542  1.4918 -0.4610
21764SOL     OW66732   0.265   4.422   8.975  0.6872 -0.4143 -0.1523
21764SOL    HW166733   0.267   4.327   8.961  1.0337 -0.1025 -2.5168
21764SOL    HW266734   0.356   4.449   8.969  1.0610 -0.2204  3.6798
21765SOL     OW66735   5.046   4.697   8.959  0.0941 -0.2890 -0.3707
21765SOL    HW166736   5.137   4.669   8.945 -0.0234  0.0867 -2.0874
21765SOL    HW266737   4.993   4.631   8.914 -0.4430 -0.0922 -0.0330
21766SOL     OW66738   5.797   5.849   7.209  0.1289 -0.1377 -0.1427
21766SOL    HW166739   5.706   5.833   7.232  0.5330 -0.6200  1.1815
21766SOL    HW266740   5.815   5.938   7.241 -0.3193  0.6305 -1.8903
21767SOL     OW66741   0.553   5.170   7.152  0.3958 -0.2733  0.3304
21767SOL    HW166742   0.527   5.261   7.166  1.9694  0.3627 -0.6117
21767SOL    HW266743   0.555   5.131   7.240  0.1215  0.7154  0.7814
21768SOL     OW66744   0.586   5.938   7.356  0.1224  0.2482  0.3906
21768SOL    HW166745   0.612   5.939   7.264  0.7591 -0.6326  0.5443
21768SOL    HW266746   0.515   5.874   7.359  1.3646 -1.1861  0.7941
21769SOL     OW66747   0.087   5.867   8.747  0.1172 -0.1490  0.1266
21769SOL    HW166748   0.158   5.844   8.686  2.5335  2.5551  1.6420
21769SOL    HW266749   0.030   5.926   8.696  0.7085  0.0971 -0.2634
21770SOL     OW66750   5.607   4.755   8.382 -0.0195  0.4318 -0.5196
21770SOL    HW166751   5.575   4.665   8.370 -2.8600  1.3147 -0.4397
21770SOL    HW266752   5.661   4.771   8.305  0.5095 -1.2942 -0.5626
21771SOL     OW66753   5.370   4.829   8.513 -0.1740 -0.3569  0.2166
21771SOL    HW166754   5.287   4.801   8.475 -1.0308  2.3268 -0.1288
21771SOL    HW266755   5.431   4.833   8.439 -0.3557 -0.1924  0.0784
21772SOL     OW66756   7.506   4.679   6.420  0.1669 -0.3243 -0.7732
21772SOL    HW166757   7.484   4.769   6.395 -1.3753 -0.8705 -1.4842
21772SOL    HW266758   7.535   4.639   6.338 -0.1476 -0.7562 -0.6743
21773SOL     OW66759   6.972   6.676   7.137  0.7361  0.0821  0.0096
21773SOL    HW166760   7.058   6.671   7.180  0.4599  0.2005  0.5962
21773SOL    HW266761   6.928   6.748   7.182  0.1490 -0.2955  0.0501
21774SOL     OW66762   6.140   3.538   7.847 -0.1678  0.0111 -0.7189
21774SOL    HW166763   6.122   3.445   7.858 -0.8512  0.1312 -0.7573
21774SOL    HW266764   6.068   3.571   7.794 -0.6763  0.8134  0.4050
21775SOL     OW66765   0.731   5.634   8.563  0.2799 -0.0766  0.0316
21775SOL    HW166766   0.749   5.566   8.628  0.1276  0.8861  1.1152
21775SOL    HW266767   0.696   5.587   8.488  1.8391 -1.3777  0.0823
21776SOL     OW66768   5.357   4.161   6.416 -0.2536  0.4616  0.1728
21776SOL    HW166769   5.285   4.165   6.479 -0.8789 -0.1343 -0.4864
21776SOL    HW266770   5.344   4.238   6.360 -0.6050  0.1593 -0.1713
21777SOL     OW66771   7.265   5.604   6.580  0.3621 -0.0574  0.0212
21777SOL    HW166772   7.250   5.641   6.667  1.3685 -1.4510  0.8238
21777SOL    HW266773   7.177   5.585   6.547 -0.0586  1.0038  0.4727
21778SOL     OW66774   7.327   4.407   9.214  0.2404  0.1629  0.5448
21778SOL    HW166775   7.302   4.318   9.189 -0.5326  0.3960  0.4728
21778SOL    HW266776   7.335   4.403   9.309 -0.9657  0.2967  0.6643
21779SOL     OW66777   0.188   3.192   7.829 -0.5724 -0.3669 -0.8736
21779SOL    HW166778   0.123   3.140   7.878 -1.6611  0.5984 -1.2456
21779SOL    HW266779   0.265   3.193   7.885 -0.5749 -2.1948 -0.7535
21780SOL     OW66780   5.310   3.298   7.490 -0.4549 -0.5555  0.0979
21780SOL    HW166781   5.270   3.225   7.539 -1.2488 -1.0155 -1.1636
21780SOL    HW266782   5.244   3.321   7.424  0.1101  0.8043 -0.0213
21781SOL     OW66783   5.251   5.391   7.917  0.5710  0.5212  0.1725
21781SOL    HW166784   5.227   5.357   8.003  1.6557  1.5498  0.9048
21781SOL    HW266785   5.309   5.323   7.880  1.6016  0.9057  1.0412
21782SOL     OW66786   6.755   5.485   8.046  0.3224  0.6730 -0.3799
21782SOL    HW166787   6.701   5.433   8.106 -3.4503  1.3333 -2.8580
21782SOL    HW266788   6.798   5.421   7.990  1.2357  0.1557  0.8553
21783SOL     OW66789   0.753   6.314   8.568 -0.0340  0.3139 -0.4100
21783SOL    HW166790   0.819   6.332   8.635 -1.0639 -1.2997  1.1386
21783SOL    HW266791   0.773   6.375   8.498  2.5462  0.4859  0.3638
21784SOL     OW66792   6.398   1.285   6.313  0.0928 -0.2713  0.6203
21784SOL    HW166793   6.318   1.280   6.367 -0.5384  1.1627 -0.1275
21784SOL    HW266794   6.425   1.376   6.319 -0.2343  0.0477 -1.7847
21785SOL     OW66795   6.480   7.966   8.317 -0.5140 -0.1388  0.3814
21785SOL    HW166796   6.448   7.899   8.257 -1.6019  0.4181  0.3150
21785SOL    HW266797   6.541   7.920   8.375  0.8941 -0.6247 -1.3861
21786SOL     OW66798   6.679   5.284   8.216  0.7931 -0.4110  0.2967
21786SOL    HW166799   6.622   5.213   8.186  1.6405 -1.5604  1.3195
21786SOL    HW266800   6.687   5.271   8.310  0.2457  1.6150  0.6864
21787SOL     OW66801   6.031   5.421   8.245  0.3011  0.2669 -0.0057
21787SOL    HW166802   5.947   5.465   8.236 -0.6978 -1.5431  0.1320
21787SOL    HW266803   6.011   5.328   8.240  2.3975 -0.2103 -0.7941
21788SOL     OW66804   6.656   4.308   6.568 -0.2621  0.6444  0.2579
21788SOL    HW166805   6.644   4.293   6.662 -1.1051  0.3792  0.1111
21788SOL    HW266806   6.568   4.319   6.534 -0.0302 -0.3902 -0.6985
21789SOL     OW66807   5.008   4.380  10.543 -0.2744  0.1496  0.3390
21789SOL    HW166808   5.046   4.294  10.561 -1.5044 -0.4260  0.3568
21789SOL    HW266809   4.990   4.416  10.630  0.1458  0.3849  0.3293
21790SOL     OW66810   5.832   5.124   8.977 -0.1790 -0.7746 -0.7909
21790SOL    HW166811   5.877   5.040   8.978  1.2854 -0.0138  0.2905
21790SOL    HW266812   5.846   5.158   8.888 -0.2081 -1.3627 -1.0225
21791SOL     OW66813   6.805   4.284   5.507  0.2981 -0.2133  0.0093
21791SOL    HW166814   6.844   4.350   5.564 -1.2112  0.3829  0.4187
21791SOL    HW266815   6.865   4.277   5.433 -0.1537  2.6988 -0.7670
21792SOL     OW66816   5.630   4.101   9.743 -0.3366  0.4285  0.1736
21792SOL    HW166817   5.582   4.055   9.674  0.1950 -0.0526  0.1173
21792SOL    HW266818   5.674   4.031   9.792 -0.4788  0.7915  0.8202
21793SOL     OW66819   6.397   4.348   6.484 -0.4714 -0.3853  0.2406
21793SOL    HW166820   6.304   4.356   6.507 -0.7852 -1.4395 -0.5637
21793SOL    HW266821   6.408   4.407   6.409 -0.8014 -1.1241 -0.4160
21794SOL     OW66822   6.117   6.696   6.908 -0.1647 -0.1774 -0.0313
21794SOL    HW166823   6.079   6.687   6.820 -0.0425 -1.9143  0.0468
21794SOL    HW266824   6.196   6.748   6.895 -0.1310 -0.4361 -0.9645
21795SOL     OW66825   7.602   1.976   9.779 -0.3554 -0.1133  0.1162
21795SOL    HW166826   7.575   2.026   9.856 -0.3257  0.9521 -0.5363
21795SOL    HW266827   7.665   1.912   9.812 -1.6300 -0.8294  1.2314
21796SOL     OW66828   5.497   4.579   7.178 -0.0866  0.3044  0.7011
21796SOL    HW166829   5.562   4.524   7.222 -0.3344  0.1697  0.9053
21796SOL    HW266830   5.531   4.591   7.090 -1.3707 -2.5431 -0.3007
21797SOL     OW66831   6.992   3.870   8.453 -0.1883 -0.3252  0.0697
21797SOL    HW166832   7.000   3.946   8.509 -0.6202 -0.4845  0.3481
21797SOL    HW266833   6.953   3.903   8.372  0.4682 -0.0903 -0.1528
21798SOL     OW66834   5.733   4.649  10.264 -0.1487  0.1652  0.1652
21798SOL    HW166835   5.774   4.712  10.205  0.0793 -0.4856 -0.3810
21798SOL    HW266836   5.667   4.605  10.211 -0.7175  0.3507  0.7070
21799SOL     OW66837   5.675   5.721   9.082 -0.1536  0.7468 -0.3841
21799SOL    HW166838   5.711   5.767   9.006  0.7263  0.9044  0.1133
21799SOL    HW266839   5.752   5.692   9.131 -0.7082  1.5697  1.0085
21800SOL     OW66840   6.616   2.630   9.738  0.6277 -0.6266  0.6357
21800SOL    HW166841   6.681   2.701   9.744 -0.7547  0.5625  2.1557
21800SOL    HW266842   6.668   2.550   9.749  2.1384  0.1269 -0.4902
21801SOL     OW66843   6.040   6.871   8.687 -0.1654  0.0214 -0.7934
21801SOL    HW166844   6.110   6.807   8.697 -2.3082 -2.0437  3.3893
21801SOL    HW266845   5.973   6.826   8.635  0.1793  0.7361 -1.8940
21802SOL     OW66846   6.157   4.966   8.114  0.1996  0.2951  0.0393
21802SOL    HW166847   6.149   4.947   8.208  0.4476  0.0920  0.0189
21802SOL    HW266848   6.069   4.954   8.079  0.1574  0.1390  0.2016
21803SOL     OW66849   7.555   5.112   9.601  0.1371 -0.0314 -0.1880
21803SOL    HW166850   7.610   5.168   9.546 -0.4200  0.0576 -0.6639
21803SOL    HW266851   7.562   5.150   9.689 -0.1025  0.6907 -0.4738
21804SOL     OW66852   6.849   4.469   7.076  0.2171 -0.0873  0.7990
21804SOL    HW166853   6.821   4.428   7.157 -1.4335 -0.4690  0.0852
21804SOL    HW266854   6.767   4.485   7.028  1.1265  0.3447 -0.6711
21805SOL     OW66855   6.120   4.172   8.539 -0.3325 -0.1943 -0.3039
21805SOL    HW166856   6.079   4.155   8.455  0.9752 -0.0794 -0.9830
21805SOL    HW266857   6.205   4.211   8.518 -1.3483  3.2223  1.0501
21806SOL     OW66858   5.648   4.799   7.788 -0.6670 -0.4320  0.4276
21806SOL    HW166859   5.644   4.831   7.698 -3.9649  0.0254  0.6278
21806SOL    HW266860   5.597   4.718   7.788 -0.1977 -0.7619  1.7906
21807SOL     OW66861   6.860   5.230   9.062 -0.1799  0.6238 -0.2861
21807SOL    HW166862   6.857   5.141   9.027  0.4372  0.4286  0.1416
21807SOL    HW266863   6.772   5.265   9.046 -0.5859 -0.2331 -0.0140
21808SOL     OW66864   5.769   4.085   8.836 -0.0537 -0.1687 -0.0325
21808SOL    HW166865   5.685   4.051   8.804 -1.0064  1.1112  0.9830
21808SOL    HW266866   5.747   4.170   8.875  1.6154 -0.1079  0.8692
21809SOL     OW66867   6.677   6.240   8.221 -0.4470  0.1028  0.3905
21809SOL    HW166868   6.735   6.171   8.191 -0.5502 -0.3144  1.1298
21809SOL    HW266869   6.735   6.307   8.256 -0.3564  0.3233 -0.1631
21810SOL     OW66870   6.377   3.757   9.096  0.1513 -0.5815 -0.2228
21810SOL    HW166871   6.291   3.729   9.127  0.2256  0.1463  0.7036
21810SOL    HW266872   6.422   3.676   9.072 -1.1424 -0.9002 -1.7110
21811SOL     OW66873   5.900   4.816   6.130 -0.2585  0.5432 -0.1896
21811SOL    HW166874   5.813   4.838   6.096 -0.7632  0.6750  1.1450
21811SOL    HW266875   5.917   4.727   6.099 -1.8545 -0.3637  1.3957
21812SOL     OW66876   6.936   6.467   7.602 -0.1770  0.5782 -0.0123
21812SOL    HW166877   6.999   6.500   7.666  0.2310  2.0482 -1.1024
21812SOL    HW266878   6.859   6.524   7.612 -0.1314  0.7876 -0.7591
21813SOL     OW66879   6.564   5.178   8.472 -0.1754  0.0527  0.5882
21813SOL    HW166880   6.577   5.096   8.519 -2.5068 -0.7556 -0.0474
21813SOL    HW266881   6.492   5.160   8.411  1.0210  1.7874 -1.4858
21814SOL     OW66882   5.759   5.879   6.633  0.2337 -0.5090  0.1939
21814SOL    HW166883   5.798   5.792   6.622  0.0798 -0.7183  1.2016
21814SOL    HW266884   5.805   5.917   6.708 -0.7345 -0.3177  0.7083
21815SOL     OW66885   6.243   5.239   9.012  0.4272  0.1907 -0.0614
21815SOL    HW166886   6.334   5.213   8.997  0.1176 -1.3168  0.5768
21815SOL    HW266887   6.221   5.293   8.935  1.6898  0.1603 -0.4701
21816SOL     OW66888   6.432   5.684   7.418 -0.0630 -0.1977  0.2954
21816SOL    HW166889   6.445   5.632   7.338  0.4209 -1.4563  1.1543
21816SOL    HW266890   6.371   5.753   7.392  0.6868 -0.1074 -1.3498
21817SOL     OW66891   6.935   4.725   7.446 -0.5689 -0.1256  0.0054
21817SOL    HW166892   6.894   4.639   7.439 -0.9538  0.0770 -0.2325
21817SOL    HW266893   6.890   4.767   7.520 -1.1429  0.2861 -0.5712
21818SOL     OW66894   7.444   7.218   9.666 -0.2252 -0.4088 -0.0901
21818SOL    HW166895   7.435   7.174   9.750 -0.3600 -0.2446 -0.0201
21818SOL    HW266896   7.373   7.282   9.663 -0.4432 -0.6600 -0.4773
21819SOL     OW66897   4.358   3.213   7.801  0.2746 -0.3213 -0.1842
21819SOL    HW166898   4.284   3.267   7.826  0.5732  0.1757 -0.3627
21819SOL    HW266899   4.373   3.232   7.709 -1.0132 -2.3851 -0.8856
21820SOL     OW66900   6.553   6.014   7.977  0.2494  0.3249  0.1102
21820SOL    HW166901   6.563   5.924   8.007  2.0990  0.5814  0.4131
21820SOL    HW266902   6.488   6.052   8.036  0.3982 -0.4603  0.8003
21821SOL     OW66903   0.758   5.883   6.848 -0.2181 -0.2556  0.0758
21821SOL    HW166904   0.669   5.913   6.830 -0.5997 -1.0236  0.6407
21821SOL    HW266905   0.783   5.831   6.771 -0.6497 -0.8919  0.3606
21822SOL     OW66906   6.903   5.536   7.264 -0.4476  0.3434  0.3160
21822SOL    HW166907   6.808   5.524   7.263 -0.3621 -0.3767 -0.3359
21822SOL    HW266908   6.938   5.451   7.238  0.4697 -0.0079  2.5123
21823SOL     OW66909   6.279   6.170   7.865  0.1539  0.1942 -0.2697
21823SOL    HW166910   6.225   6.097   7.895  1.8496 -1.0440 -0.0654
21823SOL    HW266911   6.318   6.206   7.946 -1.0435  1.6805 -0.3147
21824SOL     OW66912   7.435   5.962   8.082  0.0574  1.2431  0.0418
21824SOL    HW166913   7.413   5.900   8.152 -0.6623  1.6947  0.2231
21824SOL    HW266914   7.352   6.004   8.061 -0.0011  0.2273 -1.9636
21825SOL     OW66915   7.261   3.387   7.367  0.6321 -0.4938 -0.1250
21825SOL    HW166916   7.223   3.474   7.366 -0.8096 -1.0928 -0.1254
21825SOL    HW266917   7.194   3.332   7.408  2.3651 -1.2307  1.9291
21826SOL     OW66918   0.243   2.315   8.303  0.0783  0.1197 -0.1102
21826SOL    HW166919   0.193   2.338   8.381 -0.1276  1.2912 -0.5734
21826SOL    HW266920   0.334   2.314   8.333  0.0397  0.9893  0.0537
21827SOL     OW66921   1.493   3.452   7.193  0.0006 -0.2211 -0.0392
21827SOL    HW166922   1.463   3.478   7.280 -1.1946 -2.6650  0.3746
21827SOL    HW266923   1.440   3.375   7.172 -0.6087  0.9602 -3.4566
21828SOL     OW66924   6.655   6.769   8.440  0.1900  0.3805 -0.0073
21828SOL    HW166925   6.667   6.694   8.499 -0.5072  0.9469  0.8845
21828SOL    HW266926   6.674   6.845   8.495 -0.9738  0.9483 -0.3720
21829SOL     OW66927   5.478   6.576   8.636  0.4391 -0.7107  0.8238
21829SOL    HW166928   5.443   6.512   8.699  1.2167 -0.8084  1.1641
21829SOL    HW266929   5.565   6.598   8.669 -0.1275  1.1641  1.1737
21830SOL     OW66930   4.574   4.418   9.478 -0.3833 -0.0112 -0.2664
21830SOL    HW166931   4.624   4.358   9.423  0.4243 -1.2610  1.6773
21830SOL    HW266932   4.485   4.414   9.444  0.1822 -0.3389 -1.7619
21831SOL     OW66933   5.964   3.950   9.987  0.1558 -0.4638  0.3133
21831SOL    HW166934   6.011   3.982   9.910 -0.7142  3.4894  1.1827
21831SOL    HW266935   5.873   3.941   9.957 -0.0181  0.1975  0.6215
21832SOL     OW66936   6.057   5.762   9.557  0.6866  0.1427 -0.0999
21832SOL    HW166937   6.133   5.727   9.509  1.3907  2.0419 -0.4464
21832SOL    HW266938   5.981   5.725   9.511  1.2887 -3.3037  1.3798
21833SOL     OW66939   6.503   6.221   9.870  0.4753 -0.2703 -0.2606
21833SOL    HW166940   6.428   6.280   9.870  0.1530 -0.6781 -0.3086
21833SOL    HW266941   6.506   6.185   9.782  0.9616  0.0348 -0.3758
21834SOL     OW66942   6.427   4.383  10.507  0.4136  0.4937  0.5049
21834SOL    HW166943   6.441   4.337  10.424  0.4422  1.7150 -0.1806
21834SOL    HW266944   6.473   4.466  10.497  0.5759  0.5751  1.8236
21835SOL     OW66945   6.221   5.964   9.741  0.4257  0.0135 -0.2453
21835SOL    HW166946   6.297   5.980   9.686 -0.8033  2.9471 -1.2532
21835SOL    HW266947   6.168   5.902   9.691  1.3939 -0.8766 -0.2129
21836SOL     OW66948   7.723   5.316   7.443  0.2132  0.1020  0.8602
21836SOL    HW166949   7.675   5.241   7.409  0.4110 -0.2598  1.3643
21836SOL    HW266950   7.665   5.355   7.507 -0.7140  1.5783 -0.7849
21837SOL     OW66951   6.037   4.924  11.269 -0.3168 -0.7436  0.1169
21837SOL    HW166952   6.075   4.992  11.326 -0.8980 -0.0183 -0.3383
21837SOL    HW266953   5.958   4.965  11.234  0.0257 -1.1902 -1.2044
21838SOL     OW66954   7.600   5.069  10.645 -0.0780  0.1740 -0.0802
21838SOL    HW166955   7.577   5.094  10.556  2.7580 -0.3015 -1.0400
21838SOL    HW266956   7.571   5.142  10.699 -3.1508 -0.1459 -1.1023
21839SOL     OW66957   7.860   4.899   9.054 -0.1287  0.3771  0.2439
21839SOL    HW166958   7.893   4.815   9.086  1.1982  0.7445 -0.0837
21839SOL    HW266959   7.813   4.877   8.973  0.4282 -0.0367  0.0198
21840SOL     OW66960   3.837   3.458  11.575  0.3058 -0.0788 -0.1671
21840SOL    HW166961   3.785   3.469  11.655  0.3116  2.6086 -0.4289
21840SOL    HW266962   3.928   3.459  11.605  0.3038  0.7262 -0.1790
21841SOL     OW66963   4.067   2.926   9.494 -0.9311  0.1348  0.3788
21841SOL    HW166964   4.035   2.932   9.404 -1.4378 -1.2185  0.4363
21841SOL    HW266965   4.106   2.838   9.500  0.5147  0.7821  1.0524
21842SOL     OW66966   5.872   4.339  11.659 -0.1438 -0.2332 -0.3894
21842SOL    HW166967   5.844   4.263  11.711  0.4207 -1.5793 -1.9806
21842SOL    HW266968   5.790   4.379  11.629 -0.4423 -0.3966  0.1840
21843SOL     OW66969   5.659   4.819   9.957 -0.4683 -0.5279 -0.2485
21843SOL    HW166970   5.591   4.760   9.925 -0.0159  0.3114 -3.0555
21843SOL    HW266971   5.621   4.906   9.949  0.5567 -0.1182 -0.9009
21844SOL     OW66972   7.793   3.185   7.756 -0.3639  0.0897  0.7720
21844SOL    HW166973   7.750   3.241   7.820  0.2405  0.2558  1.0317
21844SOL    HW266974   7.856   3.134   7.806  0.0889  0.1937  0.3259
21845SOL     OW66975   5.459   3.420   8.737  0.0749 -0.3695 -0.4604
21845SOL    HW166976   5.402   3.486   8.699  0.5520  0.8970  0.8963
21845SOL    HW266977   5.409   3.339   8.733 -0.1844 -0.1618 -2.9805
21846SOL     OW66978   7.271   5.065   9.998 -0.6328  0.5849 -0.1440
21846SOL    HW166979   7.223   4.988   9.967 -0.9742  1.5982 -2.3708
21846SOL    HW266980   7.219   5.140   9.967  0.3630  1.7153  0.8160
21847SOL     OW66981   5.100   5.419   8.428 -0.5800 -0.0483  0.2136
21847SOL    HW166982   5.098   5.377   8.514  0.6022 -1.0464 -0.2165
21847SOL    HW266983   5.008   5.432   8.405 -1.0863 -3.2711 -0.0340
21848SOL     OW66984   5.416   2.187   9.331  0.4409  0.1077  0.3277
21848SOL    HW166985   5.456   2.176   9.245  0.3100 -0.4515  0.3335
21848SOL    HW266986   5.440   2.108   9.379 -0.4245 -0.0988  0.4272
21849SOL     OW66987   5.086   5.298  11.983 -0.1597  0.0532 -0.5097
21849SOL    HW166988   5.105   5.224  11.925  0.1189 -0.4131  0.1709
21849SOL    HW266989   5.116   5.374  11.934 -0.0845 -0.3109 -1.0524
21850SOL     OW66990   6.345   3.088   8.640 -0.0922 -0.1860 -0.2504
21850SOL    HW166991   6.382   3.177   8.641 -1.3821  0.3750  0.8242
21850SOL    HW266992   6.275   3.092   8.576 -1.2176  0.0678  0.9457
21851SOL     OW66993   7.120   3.766   8.980 -0.5379 -0.2940 -0.2510
21851SOL    HW166994   7.088   3.756   8.891 -1.0599 -1.2535  0.0354
21851SOL    HW266995   7.079   3.846   9.011  0.8294  0.9022 -1.3510
21852SOL     OW66996   6.054   4.735   7.741 -0.5475 -0.8341  0.0975
21852SOL    HW166997   5.993   4.780   7.682 -0.0108 -1.0975 -0.6887
21852SOL    HW266998   6.024   4.757   7.829 -0.1052  1.3937 -0.2378
21853SOL     OW66999   6.337   4.527   8.770  0.3078  0.1259  0.3743
21853SOL    HW167000   6.416   4.539   8.823  1.3417  0.3033 -1.1473
21853SOL    HW267001   6.302   4.615   8.758  0.5535  0.1830  0.0661
21854SOL     OW67002   7.100   6.540  11.280  0.1050 -0.4813 -0.1283
21854SOL    HW167003   7.035   6.502  11.340 -0.1429 -0.1135 -0.1546
21854SOL    HW267004   7.048   6.595  11.221  0.2100 -1.7415 -1.4326
21855SOL     OW67005   5.746   5.918  10.394  0.3284 -0.1603 -0.4641
21855SOL    HW167006   5.696   5.848  10.436 -2.1844  1.9212  0.2889
21855SOL    HW267007   5.718   5.915  10.302 -0.6166  0.4502 -0.2186
21856SOL     OW67008   7.164   5.330   7.427  0.3859  0.0316  0.4226
21856SOL    HW167009   7.238   5.347   7.485  0.0005 -2.2307  1.7108
21856SOL    HW267010   7.094   5.387   7.459  1.0600  0.9734  0.2448
21857SOL     OW67011   3.777   3.589  10.712 -0.0083  0.0722 -1.1035
21857SOL    HW167012   3.830   3.552  10.782 -0.2575  0.8345 -0.4902
21857SOL    HW267013   3.839   3.608  10.642  0.0122 -2.2742 -1.8097
21858SOL     OW67014   6.798   5.635  10.984 -0.0844  0.0293 -0.1237
21858SOL    HW167015   6.760   5.635  11.072 -0.6174 -0.4034 -0.3463
21858SOL    HW267016   6.731   5.593  10.929 -0.8064  2.3833 -1.1960
21859SOL     OW67017   5.766   3.428   9.003 -0.2967 -0.1665 -0.1724
21859SOL    HW167018   5.681   3.471   9.014  0.0463  1.0340 -1.7848
21859SOL    HW267019   5.745   3.340   8.972 -0.9537 -0.0988  0.0622
21860SOL     OW67020   4.280   1.730   9.493  0.3877  0.8151 -0.3863
21860SOL    HW167021   4.313   1.761   9.577  1.3158  3.0523 -1.4879
21860SOL    HW267022   4.192   1.769   9.486  0.7144  1.5030 -0.8501
21861SOL     OW67023   6.178   5.035   8.801  0.1930 -0.2639  0.4706
21861SOL    HW167024   6.169   5.053   8.708 -2.7626 -0.8850  0.5311
21861SOL    HW267025   6.121   5.099   8.844 -0.3750 -1.4976  1.6346
21862SOL     OW67026   0.487   4.500  10.114 -0.1277  0.0555  0.3226
21862SOL    HW167027   0.498   4.454  10.197  0.7409 -2.1610 -0.9418
21862SOL    HW267028   0.396   4.531  10.116  0.1693  1.0024  2.4941
21863SOL     OW67029   7.094   5.125  11.609  0.4743 -0.0658 -0.7376
21863SOL    HW167030   7.145   5.108  11.531  1.1561 -0.5902 -0.1889
21863SOL    HW267031   7.152   5.178  11.665 -0.7198  2.0676 -1.4006
21864SOL     OW67032   5.758   2.051  11.839 -0.0692 -0.3148 -0.0179
21864SOL    HW167033   5.829   2.114  11.826 -3.2038  3.4170 -0.9240
21864SOL    HW267034   5.730   2.065  11.929 -2.1197  1.2701 -0.8318
21865SOL     OW67035   7.302   4.417  10.711 -0.1842 -0.0727  0.3506
21865SOL    HW167036   7.242   4.447  10.642  0.8379  1.6290  0.1589
21865SOL    HW267037   7.250   4.424  10.791 -1.7185 -2.9958 -0.2318
21866SOL     OW67038   0.935   5.999  10.382  0.4566  0.2635  0.2976
21866SOL    HW167039   0.959   6.066  10.319  1.3060  0.8303  1.1873
21866SOL    HW267040   1.017   5.953  10.402 -0.3341 -2.0662 -1.3817
21867SOL     OW67041   0.010   4.569   9.768  0.2826 -0.4565  0.4678
21867SOL    HW167042   0.064   4.605   9.698  1.6357 -1.9598  0.7092
21867SOL    HW267043   0.045   4.482   9.784 -3.2280 -2.1974 -0.4680
21868SOL     OW67044   6.621   4.161   9.680  0.0856  0.0860  0.2665
21868SOL    HW167045   6.688   4.177   9.746 -1.9675 -1.2420  2.8256
21868SOL    HW267046   6.662   4.102   9.617  2.0440  1.2633  0.3547
21869SOL     OW67047   0.890   4.013   8.839  0.3782 -0.0437 -0.6208
21869SOL    HW167048   0.877   4.016   8.934  0.4282 -0.4478 -0.6014
21869SOL    HW267049   0.813   3.966   8.806  1.7183 -2.4149 -0.5169
21870SOL     OW67050   6.029   3.475  10.100 -0.0316  0.3647 -0.2772
21870SOL    HW167051   6.044   3.567  10.122  0.7898 -0.0252  0.8978
21870SOL    HW267052   6.060   3.466  10.010  0.3618  1.1128 -0.2232
21871SOL     OW67053   7.110   4.851  10.700  0.1260 -0.7556 -0.6649
21871SOL    HW167054   7.162   4.846  10.619 -1.3465  1.4072 -1.8491
21871SOL    HW267055   7.144   4.927  10.746 -2.0725  0.9233 -1.6343
21872SOL     OW67056   7.456   4.396  11.791  0.3940  0.3092 -0.1066
21872SOL    HW167057   7.392   4.463  11.766 -1.4406 -0.9242  1.0972
21872SOL    HW267058   7.461   4.337  11.716 -0.3342  0.0937  0.0099
21873SOL     OW67059   5.889   4.999   9.613 -0.8148  0.0306  0.0481
21873SOL    HW167060   5.873   4.919   9.664 -2.8296  0.6881  0.5424
21873SOL    HW267061   5.831   4.991   9.538  1.2157 -0.3400 -1.5725
21874SOL     OW67062   6.450   2.816   8.046  0.4547 -0.1705 -0.0045
21874SOL    HW167063   6.404   2.732   8.041  0.2409 -0.0509 -0.0844
21874SOL    HW267064   6.534   2.795   8.087  0.8921 -0.6244 -1.0869
21875SOL     OW67065   5.162   6.240  10.340  0.3564 -0.5143  0.4650
21875SOL    HW167066   5.088   6.226  10.399  0.8192 -1.3372  0.8784
21875SOL    HW267067   5.143   6.185  10.264 -1.6474  2.7020 -1.5455
21876SOL     OW67068   3.595   4.297  12.076 -0.0742  0.2882 -0.0402
21876SOL    HW167069   3.600   4.335  11.988 -0.4232 -1.4878 -0.8649
21876SOL    HW267070   3.512   4.250  12.078  1.4464 -2.6027 -0.0431
21877SOL     OW67071   7.179   2.488   9.191  0.2385  0.4643 -0.7411
21877SOL    HW167072   7.169   2.580   9.214 -1.7098  0.9948 -3.2266
21877SOL    HW267073   7.089   2.458   9.173  1.0939 -0.9634 -3.0867
21878SOL     OW67074   7.175   6.809  11.156  0.8457  0.2827 -0.1507
21878SOL    HW167075   7.180   6.719  11.125  2.4055  0.8931 -1.7890
21878SOL    HW267076   7.258   6.824  11.202  0.8636  1.0647 -0.4246
21879SOL     OW67077   5.956   3.170   8.967  0.2085  0.4198 -0.0385
21879SOL    HW167078   5.919   3.183   8.879  0.5039  2.2360  0.0714
21879SOL    HW267079   6.013   3.245   8.980  2.1141 -1.0927  0.7534
21880SOL     OW67080   7.216   2.687  10.066 -0.1374 -0.2240 -0.2564
21880SOL    HW167081   7.274   2.748  10.020  0.8399 -0.4518  0.6289
21880SOL    HW267082   7.208   2.612  10.007 -1.5756  0.8332 -1.4837
21881SOL     OW67083   5.121   5.731   8.428 -0.2066  0.1682 -0.3298
21881SOL    HW167084   5.127   5.643   8.466 -0.8010  0.9398  1.6755
21881SOL    HW267085   5.073   5.719   8.346  0.1808 -1.4294 -0.3494
21882SOL     OW67086   5.695   4.191  10.192 -0.4058  0.7179 -0.2329
21882SOL    HW167087   5.665   4.281  10.182  1.7173  1.2840 -2.5897
21882SOL    HW267088   5.634   4.140  10.138 -1.0632  0.8403  0.3746
21883SOL     OW67089   7.562   4.083   8.688 -0.6340 -0.0920 -0.4762
21883SOL    HW167090   7.645   4.037   8.682 -0.8754 -0.5332 -0.5338
21883SOL    HW267091   7.578   4.168   8.648 -0.5528 -0.6501 -1.6632
21884SOL     OW67092   4.936   4.717  10.594  0.0576 -0.3372 -0.0513
21884SOL    HW167093   4.865   4.653  10.584 -1.5762  1.5494 -1.2909
21884SOL    HW267094   4.895   4.802  10.577  2.2803  1.0182  0.8388
21885SOL     OW67095   5.682   5.140   9.215 -0.1233 -0.0164 -0.2264
21885SOL    HW167096   5.747   5.184   9.270 -0.5226  0.6435 -0.2695
21885SOL    HW267097   5.720   5.142   9.127 -0.2363  0.4614 -0.2701
21886SOL     OW67098   0.879   6.333   9.899 -0.3581 -0.2957  0.2665
21886SOL    HW167099   0.973   6.314   9.890 -0.3715  0.4476 -2.1718
21886SOL    HW267100   0.835   6.262   9.853 -0.7807  1.0470 -1.5237
21887SOL     OW67101   5.814   5.663   9.441 -0.5157  0.1681  0.2580
21887SOL    HW167102   5.850   5.634   9.357  0.9367 -0.8425  1.1709
21887SOL    HW267103   5.725   5.627   9.442 -1.6410  2.5344 -1.9667
21888SOL     OW67104   4.906   5.298  11.069 -0.0851  0.1731  0.4062
21888SOL    HW167105   4.979   5.275  11.126  0.1438 -0.8520 -0.2724
21888SOL    HW267106   4.903   5.228  11.004 -1.3731  0.4509  0.1307
21889SOL     OW67107   6.022   3.406  11.752 -0.1782  0.0966 -0.0892
21889SOL    HW167108   6.026   3.364  11.839  0.6539  0.9908  0.3228
21889SOL    HW267109   6.025   3.500  11.771  0.3387  0.2932 -1.1029
21890SOL     OW67110   5.661   6.266   9.151 -0.1576  0.1179  0.1028
21890SOL    HW167111   5.705   6.216   9.219  0.5724  0.0835 -0.3832
21890SOL    HW267112   5.693   6.229   9.069 -1.4719 -0.2352 -0.2733
21891SOL     OW67113   6.393   5.462   9.402 -0.0383  0.6534  0.1533
21891SOL    HW167114   6.475   5.428   9.438 -1.0031 -0.2223  1.6632
21891SOL    HW267115   6.332   5.460   9.476 -2.3867 -1.9746 -1.6484
21892SOL     OW67116   6.453   4.676  10.466  0.0582 -0.0467 -0.0607
21892SOL    HW167117   6.452   4.767  10.437 -0.9137 -0.0992 -0.2213
21892SOL    HW267118   6.383   4.670  10.531  1.2177 -0.2871  1.2220
21893SOL     OW67119   4.704   4.557  10.566  0.7810 -0.6793  0.2321
21893SOL    HW167120   4.656   4.487  10.523 -1.8715 -0.8475  3.0982
21893SOL    HW267121   4.696   4.538  10.659  2.0833  2.1263  1.0383
21894SOL     OW67122   5.627   6.317  11.150 -0.0136 -0.1465  1.0296
21894SOL    HW167123   5.660   6.230  11.172  0.9684 -0.3902 -1.1653
21894SOL    HW267124   5.618   6.316  11.055 -0.0341  2.1357  0.9543
21895SOL     OW67125   6.810   6.484   9.046 -0.1919  0.4053  0.1241
21895SOL    HW167126   6.840   6.544   9.115 -0.4503  0.9769 -0.2544
21895SOL    HW267127   6.745   6.429   9.090  0.7364 -0.2471  0.7191
21896SOL     OW67128   5.689   4.163  11.807 -0.3112 -0.7014 -0.2890
21896SOL    HW167129   5.633   4.151  11.729  0.1754 -0.7032 -0.6423
21896SOL    HW267130   5.631   4.200  11.873 -0.0507  2.3382 -1.6193
21897SOL     OW67131   5.798   3.814   8.883  0.0665  0.6264 -0.5299
21897SOL    HW167132   5.759   3.770   8.808 -0.1998  1.8128 -1.1086
21897SOL    HW267133   5.814   3.904   8.854 -0.7942  1.3556  1.0668
21898SOL     OW67134   4.694   5.167   9.959 -0.8104 -0.3112  1.0384
21898SOL    HW167135   4.621   5.219   9.925  2.0427  3.4912  0.0094
21898SOL    HW267136   4.739   5.135   9.881 -0.7119 -1.7402  1.6376
21899SOL     OW67137   5.806   4.753   9.744 -0.9155 -0.4060  0.3568
21899SOL    HW167138   5.786   4.754   9.838 -0.0160 -0.1785  0.5571
21899SOL    HW267139   5.811   4.661   9.722  1.4330 -0.5092  1.1262
21900SOL     OW67140   6.106   4.509   9.607 -0.0653  0.6109  0.3034
21900SOL    HW167141   6.098   4.420   9.641  0.7095  0.9970  1.5943
21900SOL    HW267142   6.019   4.547   9.619 -0.0671  0.4166  0.9574
21901SOL     OW67143   7.460   3.950  10.574 -0.3115 -0.4365  0.2477
21901SOL    HW167144   7.465   4.045  10.573  1.1766 -0.4973  0.2728
21901SOL    HW267145   7.430   3.926  10.486  0.7666  0.0051 -0.2542
21902SOL     OW67146   7.019   4.333  11.679  0.1514 -0.2372 -0.3182
21902SOL    HW167147   7.091   4.305  11.622 -0.5719 -0.0280 -1.3719
21902SOL    HW267148   7.038   4.424  11.699  1.7381 -0.9791  1.9076
21903SOL     OW67149   4.633   1.987   7.527 -0.2451 -0.1506 -0.2785
21903SOL    HW167150   4.637   2.071   7.572  3.9592  0.1001 -0.6537
21903SOL    HW267151   4.634   2.009   7.434  2.6369 -0.4306 -0.4071
21904SOL     OW67152   5.595   5.017   8.782 -0.3267  0.4945  0.2500
21904SOL    HW167153   5.586   5.021   8.877 -3.2598  1.4349  0.0265
21904SOL    HW267154   5.608   5.107   8.755  0.8225  0.1967 -0.2675
21905SOL     OW67155   3.839   4.026  10.976  0.5244 -0.1233 -0.4881
21905SOL    HW167156   3.863   4.054  10.887  1.9198 -1.7740 -0.6776
21905SOL    HW267157   3.916   3.979  11.008 -0.2973 -0.3391  1.2619
21906SOL     OW67158   6.366   4.277   8.153 -0.0371 -0.7984 -0.5935
21906SOL    HW167159   6.312   4.291   8.231 -0.7727  0.5064 -1.3095
21906SOL    HW267160   6.379   4.182   8.150 -2.1663 -1.1484 -0.2811
21907SOL     OW67161   7.381   4.305  10.276 -0.0615 -0.1562 -0.3701
21907SOL    HW167162   7.470   4.281  10.302 -0.1472  0.2047  0.2749
21907SOL    HW267163   7.392   4.349  10.191  0.1314 -2.0873 -1.3924
21908SOL     OW67164   5.809   6.424   8.415  0.2264  0.0591 -0.2654
21908SOL    HW167165   5.771   6.458   8.334 -1.4972  0.8619  0.8015
21908SOL    HW267166   5.737   6.429   8.478  1.0614 -1.9702  0.9389
21909SOL     OW67167   7.599   7.356  10.430  0.1497 -0.1472  0.2119
21909SOL    HW167168   7.644   7.282  10.389  1.8858  1.1483 -0.3509
21909SOL    HW267169   7.509   7.351  10.398  0.8989 -0.5092 -1.9491
21910SOL     OW67170   6.559   5.304   9.755  0.1185  0.1996 -0.1363
21910SOL    HW167171   6.525   5.224   9.713  0.1014  0.2857 -0.2878
21910SOL    HW267172   6.611   5.346   9.686 -0.8800  0.9472 -0.4548
21911SOL     OW67173   7.810   5.557   9.198  0.1446 -0.7567  0.5440
21911SOL    HW167174   7.882   5.513   9.243  1.3260  0.0798 -0.4565
21911SOL    HW267175   7.849   5.636   9.161 -1.2050 -0.4607 -0.3430
21912SOL     OW67176   6.522   4.681  10.118  0.1081 -0.5574 -0.3850
21912SOL    HW167177   6.489   4.732  10.045  2.5318  1.2456 -0.3371
21912SOL    HW267178   6.528   4.743  10.191  1.5942 -1.2629  0.1458
21913SOL     OW67179   5.534   6.672   8.961  0.7263 -0.1103 -0.1969
21913SOL    HW167180   5.472   6.635   9.024 -1.0352  1.1722 -1.0757
21913SOL    HW267181   5.613   6.687   9.012 -0.2032 -0.3312  1.3982
21914SOL     OW67182   5.405   3.836   9.224 -0.3416  0.7902  0.1515
21914SOL    HW167183   5.360   3.784   9.291  0.9201 -2.1556 -1.0754
21914SOL    HW267184   5.480   3.781   9.199  0.0159  2.3939 -2.6611
21915SOL     OW67185   6.167   3.834   9.399 -0.3035  0.6100 -0.5004
21915SOL    HW167186   6.077   3.828   9.428  0.1232  0.0515  0.7738
21915SOL    HW267187   6.180   3.756   9.344 -0.2478  0.0091  0.3490
21916SOL     OW67188   7.493   5.758   9.786 -1.0671 -0.0169 -0.2280
21916SOL    HW167189   7.468   5.846   9.759 -1.0155 -0.2316 -0.9801
21916SOL    HW267190   7.410   5.713   9.802 -1.1323  0.8427  2.5156
21917SOL     OW67191   6.133   2.483  10.233  0.0433  0.3808  0.3349
21917SOL    HW167192   6.062   2.419  10.220 -0.2286  0.3716  1.6577
21917SOL    HW267193   6.093   2.567  10.212 -0.2684  0.3333  0.7055
21918SOL     OW67194   6.684   4.992  11.513  0.0641 -0.4178 -0.4148
21918SOL    HW167195   6.710   4.921  11.455 -1.8362 -0.5300 -1.1815
21918SOL    HW267196   6.619   5.042  11.464 -1.1376 -0.1394  1.3351
21919SOL     OW67197   6.190   3.819   7.823  0.0855 -0.7174  0.4061
21919SOL    HW167198   6.181   3.725   7.809 -1.5069 -0.7791  1.5435
21919SOL    HW267199   6.116   3.842   7.879  1.7412  0.7958  2.1490
21920SOL     OW67200   0.022   4.934   8.568  0.3301  0.2548  0.3347
21920SOL    HW167201  -0.046   4.990   8.607 -0.5016  0.9710 -2.0086
21920SOL    HW267202   0.085   4.996   8.532  0.4191 -0.3326 -0.5447
21921SOL     OW67203   0.834   5.235   8.302  1.0403  0.8600 -0.4389
21921SOL    HW167204   0.744   5.202   8.300  1.1198  0.5035  0.9649
21921SOL    HW267205   0.825   5.328   8.324  0.9662  1.1354 -1.5712
21922SOL     OW67206   5.580   3.042   8.669  0.3325 -0.3268  0.0891
21922SOL    HW167207   5.551   2.957   8.639  1.6702 -0.7682 -0.0411
21922SOL    HW267208   5.584   3.096   8.590 -1.0369  0.0482  0.2466
21923SOL     OW67209   1.714   4.989  10.604 -0.3773 -0.4346 -0.2199
21923SOL    HW167210   1.748   4.930  10.536 -0.3241  0.3677 -0.9104
21923SOL    HW267211   1.637   5.029  10.564 -1.3202 -1.1748  0.8155
21924SOL     OW67212   6.726   7.199  11.033  0.0663  0.0718  0.4227
21924SOL    HW167213   6.780   7.128  11.067  1.7031  0.3260 -1.4468
21924SOL    HW267214   6.636   7.166  11.037  0.6717 -1.6181  0.7081
21925SOL     OW67215   5.815   5.092  11.827  0.6700  0.1438  0.5093
21925SOL    HW167216   5.885   5.140  11.872  2.0862 -2.1293  0.9273
21925SOL    HW267217   5.858   5.055  11.750  0.3520 -2.3623  1.4406
21926SOL     OW67218   4.750   5.626  12.078  0.5197  0.2669  0.0842
21926SOL    HW167219   4.703   5.555  12.120 -0.0827 -0.0167 -1.0494
21926SOL    HW267220   4.682   5.681  12.039  1.0619  0.5164 -0.5285
21927SOL     OW67221   3.732   3.301  11.028 -0.0138  0.1459 -0.5580
21927SOL    HW167222   3.763   3.236  11.090  0.6052 -0.5004 -1.5255
21927SOL    HW267223   3.641   3.275  11.009  0.2470 -0.4761 -0.9781
21928SOL     OW67224   6.097   4.778   9.862 -0.0921 -0.4332  0.2602
21928SOL    HW167225   6.057   4.762   9.777  0.3821  3.1504 -0.7890
21928SOL    HW267226   6.185   4.740   9.855 -0.5467 -1.4224 -0.2707
21929SOL     OW67227   6.574   3.463  10.247  0.2983  0.0402 -0.3458
21929SOL    HW167228   6.614   3.378  10.268 -1.1551  0.0144  2.9095
21929SOL    HW267229   6.620   3.525  10.303 -1.5280  0.6330  0.5525
21930SOL     OW67230   6.106   3.469   8.373  0.1666  0.3526  0.1984
21930SOL    HW167231   6.010   3.463   8.372  0.1422  0.1861  1.6255
21930SOL    HW267232   6.128   3.513   8.290 -1.0990 -0.0523 -0.3845
21931SOL     OW67233   5.873   4.841   9.356 -0.4407 -0.0657  0.8339
21931SOL    HW167234   5.879   4.859   9.262 -1.9507  0.4199  0.8156
21931SOL    HW267235   5.963   4.853   9.388  0.5923 -2.3500 -0.8868
21932SOL     OW67236   5.641   3.791   9.558 -0.2491 -0.5224  0.1969
21932SOL    HW167237   5.591   3.716   9.526  0.0277  0.1891 -2.1262
21932SOL    HW267238   5.574   3.859   9.570 -0.0199  0.4437 -2.9559
21933SOL     OW67239   6.974   3.614   9.973  0.0301 -0.3992  0.1741
21933SOL    HW167240   6.969   3.527  10.014 -0.8864 -0.4066  0.0684
21933SOL    HW267241   6.899   3.661  10.008  1.5875  1.0380  1.7391
21934SOL     OW67242   7.882   5.058   9.709 -0.0741  0.3258  0.4454
21934SOL    HW167243   7.874   5.012   9.625  0.7177 -1.2964  1.2182
21934SOL    HW267244   7.971   5.038   9.739 -0.4530  0.6103  1.8330
21935SOL     OW67245   7.010   4.694   9.531  0.0641 -0.0214  0.2567
21935SOL    HW167246   6.933   4.641   9.553 -1.2221  1.1903 -1.0981
21935SOL    HW267247   6.976   4.783   9.524  1.9373  0.8042  1.2434
21936SOL     OW67248   7.137   5.976  10.311  0.1844  0.1552 -0.5393
21936SOL    HW167249   7.228   5.949  10.328 -1.1498 -4.5108  0.5459
21936SOL    HW267250   7.110   5.923  10.235 -2.1800 -0.1867  0.4582
21937SOL     OW67251   5.599   4.273   8.977 -0.2580 -0.6534 -0.0935
21937SOL    HW167252   5.554   4.250   8.896  1.4953  1.0516 -1.6704
21937SOL    HW267253   5.581   4.367   8.988  1.3347 -0.3727  0.2632
21938SOL     OW67254   6.147   6.086  10.274  1.1062  0.1893  0.8089
21938SOL    HW167255   6.102   6.070  10.190  1.0973 -1.3101  1.0807
21938SOL    HW267256   6.123   6.011  10.328 -0.3379  1.9757  2.8179
21939SOL     OW67257   7.583   6.245  12.426 -0.1598  0.2295 -0.5259
21939SOL    HW167258   7.570   6.281  12.514 -1.7789  0.4015 -0.8128
21939SOL    HW267259   7.651   6.301  12.388  1.9199 -0.9550  1.1904
21940SOL     OW67260   7.305   4.945  10.505  0.1207 -0.5458  0.9910
21940SOL    HW167261   7.258   4.992  10.435  0.9363 -1.2526 -0.0672
21940SOL    HW267262   7.391   4.987  10.508  0.2410 -0.8111  1.2625
21941SOL     OW67263   7.572   3.434   9.139 -0.7408  0.4465 -0.1833
21941SOL    HW167264   7.606   3.451   9.051 -1.8058  0.6350 -0.5782
21941SOL    HW267265   7.519   3.512   9.160  0.5245  0.9937  1.1701
21942SOL     OW67266   5.562   4.202  10.963  0.2010  0.2897 -0.4264
21942SOL    HW167267   5.508   4.126  10.943 -1.4129  0.5704  2.2844
21942SOL    HW267268   5.647   4.166  10.988 -1.3220 -1.1332  3.5957
21943SOL     OW67269   4.605   1.832   9.938 -0.2522  0.0713 -0.6316
21943SOL    HW167270   4.681   1.877   9.975 -0.9150  0.6759  0.0285
21943SOL    HW267271   4.624   1.739   9.951  0.1789  0.2328 -0.0639
21944SOL     OW67272   5.821   3.357  10.655 -0.2108  0.5893  0.0702
21944SOL    HW167273   5.802   3.326  10.566 -1.2456  0.2348  0.4037
21944SOL    HW267274   5.774   3.441  10.661 -1.3101 -0.0582  0.7422
21945SOL     OW67275   5.173   5.192   8.081  0.4749 -0.3222 -0.3962
21945SOL    HW167276   5.114   5.155   8.016 -0.1926 -0.5160  0.3014
21945SOL    HW267277   5.187   5.122   8.144 -0.2648  0.3812  0.5818
21946SOL     OW67278   5.142   5.026   9.432  0.4046  0.2254 -0.2577
21946SOL    HW167279   5.137   5.088   9.360 -1.1016 -1.0348 -1.2953
21946SOL    HW267280   5.236   5.022   9.453  0.5568  2.7498 -0.1727
21947SOL     OW67281   5.971   4.200   9.606 -0.5389  0.8694  0.6741
21947SOL    HW167282   5.909   4.210   9.534  0.9742 -0.8277 -0.9359
21947SOL    HW267283   6.056   4.220   9.569  0.0340  2.7840  2.7617
21948SOL     OW67284   6.836   4.777  10.715  0.3727  0.3548 -0.4076
21948SOL    HW167285   6.787   4.839  10.769  0.0176  0.5956 -0.9941
21948SOL    HW267286   6.921   4.819  10.703  0.5168  0.2170  0.1078
21949SOL     OW67287   7.076   4.501  10.530 -0.6529  0.6874 -0.1433
21949SOL    HW167288   7.083   4.575  10.590  2.2177  0.8085 -0.4574
21949SOL    HW267289   7.084   4.540  10.443  2.4095  0.0544 -0.2812
21950SOL     OW67290   7.482   4.629  11.214  0.2955 -0.1459  0.0123
21950SOL    HW167291   7.491   4.570  11.139 -0.5138 -0.2666  0.0087
21950SOL    HW267292   7.516   4.579  11.288  1.7057  0.2040 -0.3604
21951SOL     OW67293   4.818   3.968  10.011 -0.4642  0.2203 -0.0425
21951SOL    HW167294   4.752   4.017  10.059 -0.8988  2.7305 -2.9168
21951SOL    HW267295   4.777   3.883   9.994 -1.5878  0.5081  1.0690
21952SOL     OW67296   6.527   2.742   9.026  0.2377  0.6772 -0.3966
21952SOL    HW167297   6.544   2.651   9.000  4.0909  1.3473 -0.8737
21952SOL    HW267298   6.486   2.781   8.949  1.2102 -0.0038 -1.2882
21953SOL     OW67299   5.765   6.692  12.177 -0.0141  0.0848 -0.3757
21953SOL    HW167300   5.777   6.702  12.271 -1.2482 -0.3431 -0.1549
21953SOL    HW267301   5.779   6.599  12.160  1.3860  0.3520 -0.8240
21954SOL     OW67302   0.878   6.602   9.054 -0.3520 -0.1294 -0.2654
21954SOL    HW167303   0.880   6.565   8.966 -0.3735  0.8250 -0.6872
21954SOL    HW267304   0.804   6.559   9.097 -0.0985 -0.8886 -0.5824
21955SOL     OW67305   6.993   6.361  10.220 -0.1747  0.1533  0.4028
21955SOL    HW167306   7.055   6.411  10.273 -0.1980 -0.3891  0.9556
21955SOL    HW267307   6.920   6.342  10.279 -1.0161  1.0234 -0.3147
21956SOL     OW67308   5.476   3.544  11.889  0.0438  0.4153  0.1775
21956SOL    HW167309   5.514   3.624  11.927 -1.3675  0.6678  1.1458
21956SOL    HW267310   5.544   3.478  11.900  0.6862  1.1445  0.7081
21957SOL     OW67311   6.024   3.869   9.049  0.1721 -0.2819 -0.1740
21957SOL    HW167312   5.938   3.855   9.010 -0.3119  0.8734  0.4463
21957SOL    HW267313   6.065   3.782   9.049 -1.3499 -1.0256  0.3892
21958SOL     OW67314   5.589   5.006  10.264 -0.2602  0.0088  0.6475
21958SOL    HW167315   5.638   5.022  10.183  0.5507  1.5099  1.3971
21958SOL    HW267316   5.583   4.911  10.270 -0.4696 -0.1448 -1.2432
21959SOL     OW67317   7.152   4.631   9.774 -0.5201 -0.1139  0.3251
21959SOL    HW167318   7.103   4.655   9.695  0.4534 -2.2179 -0.9783
21959SOL    HW267319   7.112   4.549   9.804  0.3515 -0.3391  0.9172
21960SOL     OW67320   3.507   4.553  10.289  0.0906 -0.2138 -0.1371
21960SOL    HW167321   3.555   4.631  10.316 -0.7371  0.0339  0.6933
21960SOL    HW267322   3.415   4.578  10.296 -0.1809 -0.7330 -1.5085
21961SOL     OW67323   6.834   4.655   9.818  0.1518 -0.1671 -0.2174
21961SOL    HW167324   6.852   4.746   9.841 -0.2666 -0.2321  0.4120
21961SOL    HW267325   6.831   4.610   9.903  3.0377 -1.3047 -0.5901
21962SOL     OW67326   6.936   2.352  11.244  0.1453 -0.3632  0.1949
21962SOL    HW167327   6.879   2.428  11.235  0.3676 -0.1997  0.1501
21962SOL    HW267328   6.895   2.284  11.191  0.2869 -0.0750 -0.2940
21963SOL     OW67329   6.578   4.718   9.147 -0.0244 -0.0012  0.1024
21963SOL    HW167330   6.550   4.688   9.233  1.0827 -1.2088  0.0773
21963SOL    HW267331   6.537   4.804   9.136  1.2977  1.0334  2.6172
21964SOL     OW67332   6.139   4.305   8.793  0.4492  0.2238  0.2461
21964SOL    HW167333   6.141   4.243   8.720 -0.9178  0.4498  0.0013
21964SOL    HW267334   6.192   4.379   8.764 -0.2089  0.3759 -0.5732
21965SOL     OW67335   6.310   5.817  11.766 -0.1497 -0.0805  0.4525
21965SOL    HW167336   6.232   5.840  11.716  0.2544  0.1487 -0.0757
21965SOL    HW267337   6.298   5.861  11.850 -1.2487 -1.1787  0.9111
21966SOL     OW67338   6.080   7.010   8.921 -0.1127  0.2355  0.4158
21966SOL    HW167339   6.081   6.947   8.848  0.2447  0.7973 -0.0753
21966SOL    HW267340   6.059   7.093   8.880 -0.4341  0.4624  1.0425
21967SOL     OW67341   7.614   4.978  11.645  0.5453 -0.3264  0.2219
21967SOL    HW167342   7.623   5.071  11.624 -0.4261 -0.6306 -1.7087
21967SOL    HW267343   7.559   4.977  11.723  2.3273  0.7666  1.5745
21968SOL     OW67344   5.140   4.511  10.027 -0.7284  0.0058  0.3191
21968SOL    HW167345   5.050   4.536  10.047 -1.6561 -0.0526 -3.2280
21968SOL    HW267346   5.137   4.480   9.937  3.2816  2.2929 -0.8424
21969SOL     OW67347   5.638   4.152  10.583 -0.2639 -0.2353 -0.3903
21969SOL    HW167348   5.679   4.147  10.497  1.6668  0.0256  0.4575
21969SOL    HW267349   5.601   4.240  10.587  0.3651  0.0470 -0.6593
21970SOL     OW67350   7.201   4.189   9.681 -0.2494  0.0768  0.0268
21970SOL    HW167351   7.243   4.226   9.758  0.7983 -0.4864 -0.2567
21970SOL    HW267352   7.171   4.102   9.711  0.2717 -0.1936 -0.2268
21971SOL     OW67353   6.550   2.831  10.323  0.5424 -0.0268  0.5960
21971SOL    HW167354   6.545   2.741  10.289  2.1059  0.0357  0.1044
21971SOL    HW267355   6.485   2.879  10.272 -1.2434 -1.1038  1.7524
21972SOL     OW67356   6.880   4.327  12.133 -0.4125  0.4390  0.0160
21972SOL    HW167357   6.943   4.381  12.181 -1.2174 -0.8699  2.7283
21972SOL    HW267358   6.931   4.251  12.106 -0.0401  1.0189 -0.9869
21973SOL     OW67359   4.775   2.868   0.402 -0.5244 -0.0720 -0.1426
21973SOL    HW167360   4.757   2.779   0.374  0.4426 -0.4007  0.2420
21973SOL    HW267361   4.692   2.901   0.435 -0.9802 -0.6852 -0.6720
21974SOL     OW67362   5.005   2.703  11.708 -0.0055  0.4651 -0.0575
21974SOL    HW167363   4.995   2.610  11.730  1.5443  0.3891  0.4213
21974SOL    HW267364   4.951   2.715  11.630 -0.8730 -0.6443  0.3518
21975SOL     OW67365   6.458   5.352  10.369 -0.5964  0.7523  0.3557
21975SOL    HW167366   6.543   5.350  10.413 -1.7606 -0.6851  2.7660
21975SOL    HW267367   6.464   5.284  10.302  0.5190  1.5062 -0.3409
21976SOL     OW67368   5.317   4.458   7.404  0.0753 -0.0114 -0.5788
21976SOL    HW167369   5.350   4.504   7.326  1.4423  1.0621  0.5734
21976SOL    HW267370   5.222   4.465   7.397  0.0720 -1.1762 -2.8518
21977SOL     OW67371   5.700   6.421   0.126  0.1559 -0.7238 -0.3334
21977SOL    HW167372   5.784   6.431   0.082  1.2981  1.1331  2.0243
21977SOL    HW267373   5.719   6.371   0.205 -1.0186 -0.6056  0.0503
21978SOL     OW67374   7.504   5.133  10.116 -0.4215  0.3576  0.1555
21978SOL    HW167375   7.426   5.096  10.074  0.3062  0.1038 -1.0087
21978SOL    HW267376   7.576   5.113  10.056  0.2055  2.5308  0.1282
21979SOL     OW67377   5.931   5.725   9.165  0.1133  0.0746 -0.2739
21979SOL    HW167378   5.963   5.811   9.193  1.0286 -1.3135  3.5020
21979SOL    HW267379   6.010   5.676   9.141 -0.1001 -0.5420  0.2568
21980SOL     OW67380   7.741   5.540  10.426 -0.6634  0.7957  0.1063
21980SOL    HW167381   7.746   5.474  10.495  2.6607  1.1734  0.3920
21980SOL    HW267382   7.700   5.495  10.352 -2.1689 -0.3008  1.5538
21981SOL     OW67383   5.743   6.550  10.389  0.1689  0.6234 -0.2488
21981SOL    HW167384   5.668   6.542  10.448 -0.7889  2.4152 -1.1443
21981SOL    HW267385   5.819   6.531  10.444 -0.8774 -0.5892  0.8390
21982SOL     OW67386   3.953   4.053  10.164 -0.0089 -0.0611 -0.2790
21982SOL    HW167387   3.862   4.064  10.137  0.2929 -0.3415 -1.5082
21982SOL    HW267388   3.968   4.120  10.230 -0.9089  0.4474 -0.5808
21983SOL     OW67389   5.946   7.488  11.878 -0.2585  0.2223  0.1486
21983SOL    HW167390   5.968   7.519  11.790  1.0212 -1.9421 -0.3502
21983SOL    HW267391   5.881   7.420  11.864 -2.1991  1.7665  1.1482
21984SOL     OW67392   7.394   5.767   8.785 -0.3828 -0.1919 -0.1112
21984SOL    HW167393   7.397   5.789   8.692  1.2830  0.4091  0.0561
21984SOL    HW267394   7.310   5.721   8.796  0.4321 -2.4985 -2.4085
21985SOL     OW67395   7.831   6.602   9.906  0.4194 -0.2678  0.2650
21985SOL    HW167396   7.821   6.666   9.976  0.0720 -1.1140  1.0183
21985SOL    HW267397   7.919   6.567   9.918 -0.0348 -1.2196  1.0174
21986SOL     OW67398   4.198   4.691   0.615  0.0478 -0.2270  0.0547
21986SOL    HW167399   4.148   4.771   0.634  1.8067  1.4265 -1.7460
21986SOL    HW267400   4.279   4.701   0.663  0.9617 -0.0889 -1.4435
21987SOL     OW67401   5.755   5.650  10.289  0.0470  0.3223  0.6698
21987SOL    HW167402   5.700   5.597  10.231 -0.1291  0.4159  0.7486
21987SOL    HW267403   5.804   5.707  10.229  1.3106 -0.8963  0.4849
21988SOL     OW67404   4.820   5.920  12.178 -0.4314  0.2411  0.5798
21988SOL    HW167405   4.765   5.872  12.116  1.6277 -2.3473  0.5688
21988SOL    HW267406   4.799   5.881  12.263 -0.0145  0.5952  0.8496
21989SOL     OW67407   0.525   3.424   7.437  1.0042 -0.2392  0.1539
21989SOL    HW167408   0.522   3.493   7.503 -0.1769 -0.4505  0.3470
21989SOL    HW267409   0.522   3.342   7.487  0.6488 -0.4061 -0.1346
21990SOL     OW67410   6.557   5.534  10.801  0.4183 -0.6402 -0.2420
21990SOL    HW167411   6.509   5.587  10.738  1.3684 -1.0241 -1.3271
21990SOL    HW267412   6.508   5.452  10.806  1.0842 -1.1495 -1.5765
21991SOL     OW67413   7.742   3.712   9.552 -0.9039  0.3267 -0.6744
21991SOL    HW167414   7.736   3.754   9.466 -1.5335  0.8858 -0.3641
21991SOL    HW267415   7.720   3.781   9.614  0.3912  0.1582 -0.0012
21992SOL     OW67416   4.792   4.352  10.106  0.6808  0.4723  0.6261
21992SOL    HW167417   4.734   4.277  10.091 -1.5865  2.0072  1.1871
21992SOL    HW267418   4.817   4.345  10.197  2.6118 -0.9499  0.0470
21993SOL     OW67419   7.890   5.411   8.870  0.2044 -0.9926 -0.1333
21993SOL    HW167420   7.927   5.372   8.949  0.5892 -0.5749 -0.0978
21993SOL    HW267421   7.796   5.397   8.878  0.2666 -1.2268  0.2474
21994SOL     OW67422   0.216   4.568  10.037  0.0224  0.1752 -1.1427
21994SOL    HW167423   0.128   4.579  10.074 -0.2070  4.4728 -2.4575
21994SOL    HW267424   0.208   4.494   9.977 -2.1661 -0.6551  0.0700
21995SOL     OW67425   5.834   5.397   9.585  0.2698 -0.0912 -0.2700
21995SOL    HW167426   5.836   5.373   9.492  0.2500 -0.8336 -0.0902
21995SOL    HW267427   5.770   5.467   9.591 -1.6059 -1.7053 -0.4561
21996SOL     OW67428   5.761   5.291  10.189 -0.3181 -0.5246 -0.2508
21996SOL    HW167429   5.742   5.206  10.147 -1.1821  0.7548 -2.6397
21996SOL    HW267430   5.826   5.332  10.131 -1.2456  1.1563 -0.1477
21997SOL     OW67431   6.470   5.193  11.864 -0.4604 -0.4026 -0.3245
21997SOL    HW167432   6.466   5.245  11.783 -1.6300  0.0430 -0.0086
21997SOL    HW267433   6.514   5.112  11.838 -0.0169  0.0959 -1.1947
21998SOL     OW67434   6.109   4.733   0.120  0.0602 -0.2422 -0.0539
21998SOL    HW167435   6.030   4.751   0.069 -0.0667 -0.3630  0.1000
21998SOL    HW267436   6.108   4.798   0.189  0.7993  0.6153 -0.8311
21999SOL     OW67437   5.880   6.368   8.929 -0.4037  0.9324  0.1613
21999SOL    HW167438   5.916   6.421   9.001 -2.0233  0.5125  1.3306
21999SOL    HW267439   5.881   6.279   8.962 -0.2349  0.5869 -0.7506
22000SOL     OW67440   6.324   2.960  10.151  0.1434  0.5187 -0.6847
22000SOL    HW167441   6.298   3.052  10.139 -2.0181 -0.0700 -0.9694
22000SOL    HW267442   6.357   2.934  10.065 -0.7951  0.5866 -1.0764
22001SOL     OW67443   6.115   4.565  10.456  0.1553 -0.1465 -0.4844
22001SOL    HW167444   6.198   4.596  10.491 -0.8208  2.0781  0.0274
22001SOL    HW267445   6.093   4.629  10.387 -1.5893 -0.0995  0.0726
22002SOL     OW67446   7.924   5.778   9.144 -0.2893  0.1420 -0.1162
22002SOL    HW167447   7.899   5.864   9.112  2.7480  1.7604  1.4436
22002SOL    HW267448   8.001   5.755   9.092  0.0889 -0.7096  0.7871
22003SOL     OW67449   6.940   3.768   8.779  0.1383  0.0044  0.7403
22003SOL    HW167450   6.883   3.700   8.816  0.1428 -0.2931  0.2023
22003SOL    HW267451   6.887   3.847   8.779 -0.7005 -0.5198 -0.8485
22004SOL     OW67452   4.145   3.843   1.061  0.2160  0.1204 -0.5414
22004SOL    HW167453   4.110   3.859   0.973 -0.7916 -2.2086 -0.6324
22004SOL    HW267454   4.211   3.775   1.048  0.3964  0.0949  0.4424
22005SOL     OW67455   5.884   4.435  11.332  0.0722 -0.6680 -0.4283
22005SOL    HW167456   5.903   4.341  11.337  0.7726 -0.4717  1.2340
22005SOL    HW267457   5.798   4.444  11.373 -0.4838 -0.6739 -1.5328
22006SOL     OW67458   5.617   2.300  10.496 -0.1167 -0.2017 -0.3958
22006SOL    HW167459   5.521   2.307  10.500 -0.1055 -0.0946 -0.3096
22006SOL    HW267460   5.636   2.218  10.542 -0.2578 -0.9151 -1.5852
22007SOL     OW67461   0.305   5.126   9.065  0.1774 -0.6961  0.3794
22007SOL    HW167462   0.340   5.170   8.987  1.2457 -0.7305  0.8262
22007SOL    HW267463   0.213   5.111   9.044 -0.6809  3.0227  0.7037
22008SOL     OW67464   6.967   3.996   9.069 -0.2788  0.1857 -0.6236
22008SOL    HW167465   6.920   4.007   9.152  1.3224  2.0000  0.0995
22008SOL    HW267466   6.934   4.066   9.014  1.5134  1.5097 -0.0953
22009SOL     OW67467   0.990   5.733   9.301 -0.2756  0.0853 -0.2116
22009SOL    HW167468   0.904   5.692   9.296 -0.1852 -0.6408  2.7410
22009SOL    HW267469   1.046   5.679   9.245 -1.5484  0.2680 -1.7512
22010SOL     OW67470   7.451   6.483  10.934 -0.2415 -0.1930  0.3558
22010SOL    HW167471   7.374   6.448  10.889  1.0248 -1.8158 -0.6495
22010SOL    HW267472   7.433   6.468  11.027 -0.3569 -2.3705  0.0474
22011SOL     OW67473   7.023   6.476   9.976 -0.0877 -0.1810  0.6576
22011SOL    HW167474   7.005   6.417  10.049 -0.6571  1.0033  1.5075
22011SOL    HW267475   6.936   6.499   9.942  0.1673 -0.6419 -0.3437
22012SOL     OW67476   7.207   4.433  11.244 -0.1591 -0.4576 -0.4712
22012SOL    HW167477   7.122   4.392  11.224 -0.1151  0.4615 -2.9367
22012SOL    HW267478   7.268   4.394  11.182  0.5163  1.1593 -0.8865
22013SOL     OW67479   7.110   5.654   0.328  0.4028 -0.1793  0.1783
22013SOL    HW167480   7.203   5.640   0.345  0.3421 -0.2135  0.4914
22013SOL    HW267481   7.088   5.730   0.381  0.2183 -0.2585  0.2143
22014SOL     OW67482   5.465   4.372  10.598  0.4904  0.6248  0.2063
22014SOL    HW167483   5.406   4.320  10.545  0.1849  1.9861 -0.8533
22014SOL    HW267484   5.418   4.385  10.681 -0.5596  1.3419 -0.4686
22015SOL     OW67485   6.771   6.297  10.439 -0.1438  0.4145  0.2566
22015SOL    HW167486   6.733   6.253  10.363 -0.3393  2.2546 -0.7710
22015SOL    HW267487   6.698   6.304  10.501 -0.2605 -0.1571  0.1938
22016SOL     OW67488   7.889   5.491   8.453 -0.7510  0.2284  0.3830
22016SOL    HW167489   7.963   5.470   8.396 -0.4348 -0.1872  0.9408
22016SOL    HW267490   7.894   5.586   8.464  0.7333  0.0392  1.7685
22017SOL     OW67491   5.478   4.937   8.109  0.6426 -0.6205 -0.2424
22017SOL    HW167492   5.402   4.917   8.164  0.3723  0.6335 -0.1231
22017SOL    HW267493   5.441   4.943   8.020  1.3321 -4.2798 -0.9376
22018SOL     OW67494   6.593   3.481  10.913  0.1556  0.2552  0.0849
22018SOL    HW167495   6.640   3.399  10.923 -0.1786  0.0186 -0.2907
22018SOL    HW267496   6.512   3.458  10.867  0.5784  0.9626 -1.0543
22019SOL     OW67497   6.839   3.903   9.877 -0.6350  0.1682  0.0032
22019SOL    HW167498   6.795   3.849   9.943  0.4174  0.1721  0.7311
22019SOL    HW267499   6.794   3.882   9.795 -2.3656  0.5803  0.7823
22020SOL     OW67500   6.067   6.431   8.729 -0.1341  0.9759 -0.3361
22020SOL    HW167501   6.127   6.361   8.702 -0.0502  1.2340 -0.8315
22020SOL    HW267502   6.001   6.387   8.782  0.3841  0.6575  0.0525
22021SOL     OW67503   5.519   5.736  10.464 -0.5732 -0.7876 -0.6158
22021SOL    HW167504   5.545   5.649  10.433 -1.1608 -0.6453 -1.5434
22021SOL    HW267505   5.462   5.770  10.395  0.0067  0.5267 -0.4792
22022SOL     OW67506   6.739   3.417   9.200 -0.0037  0.3558  0.0479
22022SOL    HW167507   6.816   3.438   9.254 -0.0214 -0.1832  0.2890
22022SOL    HW267508   6.667   3.463   9.243 -0.1293 -0.5725  0.8509
22023SOL     OW67509   7.148   6.702   9.000  0.3444 -0.4315  0.6792
22023SOL    HW167510   7.213   6.734   9.063  0.1422  1.4999 -0.0395
22023SOL    HW267511   7.157   6.606   9.003  1.9686 -0.2796  1.9004
22024SOL     OW67512   6.358   5.758   9.089 -0.0832  0.4388  0.6016
22024SOL    HW167513   6.385   5.807   9.012  0.0768 -0.5919 -0.0236
22024SOL    HW267514   6.429   5.696   9.105 -0.7348 -0.2889  0.7407
22025SOL     OW67515   4.042   6.090  10.240 -0.1937 -0.0172  0.2712
22025SOL    HW167516   4.095   6.040  10.302 -0.2135  0.0349  0.3298
22025SOL    HW267517   3.954   6.053  10.249 -0.0266 -0.5921 -0.3380
22026SOL     OW67518   3.306   4.341   9.828  0.8896  0.5796  0.8915
22026SOL    HW167519   3.348   4.367   9.746  0.9838  0.1165  0.7859
22026SOL    HW267520   3.320   4.415   9.887  2.8282  0.0303  1.2029
22027SOL     OW67521   7.180   3.766  10.335 -0.1325  0.1922  0.0171
22027SOL    HW167522   7.217   3.855  10.338  1.0154 -0.2717  0.1965
22027SOL    HW267523   7.159   3.752  10.243 -0.3954  0.6765 -0.0007
22028SOL     OW67524   0.320   3.701  10.009 -0.0994 -0.0343 -0.2102
22028SOL    HW167525   0.287   3.628   9.958 -1.4617  0.4384 -0.0397
22028SOL    HW267526   0.297   3.680  10.100 -2.5340  1.5855 -0.3721
22029SOL     OW67527   6.710   4.751   8.688  0.1663 -0.3313  0.0888
22029SOL    HW167528   6.756   4.683   8.638  2.6272  0.9139  0.5041
22029SOL    HW267529   6.701   4.715   8.776 -0.2110 -0.8353 -0.1560
22030SOL     OW67530   1.611   5.403   9.796  0.0891  0.1681  0.0576
22030SOL    HW167531   1.525   5.437   9.770  0.5210  0.3802 -1.1910
22030SOL    HW267532   1.601   5.308   9.791 -0.1637  0.1807  0.2560
22031SOL     OW67533   6.630   4.380  11.071  0.1216  0.4443  0.1852
22031SOL    HW167534   6.639   4.290  11.102  0.9118  0.6971  0.7252
22031SOL    HW267535   6.580   4.372  10.990  0.6515 -0.5405 -0.0660
22032SOL     OW67536   3.283   3.654   0.072  0.6816  0.4470 -0.2997
22032SOL    HW167537   3.267   3.710   0.148  2.1251  1.0924 -0.4477
22032SOL    HW267538   3.228   3.691   0.003  1.3712  1.5171 -0.3017
22033SOL     OW67539   4.050   1.591  10.880 -0.3318 -0.2440  0.1236
22033SOL    HW167540   4.041   1.549  10.794 -0.1949  2.2772 -1.2124
22033SOL    HW267541   3.962   1.620  10.902 -0.2677 -0.3875  0.5797
22034SOL     OW67542   6.151   2.197   9.117  0.2661 -0.1318  0.0113
22034SOL    HW167543   6.102   2.133   9.066 -1.7983  1.9683 -0.7723
22034SOL    HW267544   6.100   2.209   9.197  1.9770 -1.2376  1.3749
22035SOL     OW67545   6.315   4.595   9.875  0.6022 -0.3598 -0.2069
22035SOL    HW167546   6.385   4.530   9.866 -0.3029 -1.7586  1.8618
22035SOL    HW267547   6.235   4.543   9.882 -0.3509  1.0699 -0.0826
22036SOL     OW67548   6.387   3.863  11.399 -0.7462 -0.1497  0.4604
22036SOL    HW167549   6.360   3.833  11.486 -0.9152  0.1782  0.5221
22036SOL    HW267550   6.348   3.950  11.391  0.6332  0.5211  0.7205
22037SOL     OW67551   7.704   5.723   8.202 -0.2269  0.3096  0.2517
22037SOL    HW167552   7.748   5.745   8.120  1.1427  0.6503  1.0377
22037SOL    HW267553   7.767   5.747   8.270 -1.4518  0.3465  1.4256
22038SOL     OW67554   6.873   4.442   9.005 -0.1919  0.6148  0.0238
22038SOL    HW167555   6.937   4.396   8.950  0.1161  0.9111  0.1282
22038SOL    HW267556   6.849   4.379   9.072  0.4810  0.7048  0.3638
22039SOL     OW67557   0.782   6.050  11.279  0.2915  0.1563 -0.6527
22039SOL    HW167558   0.859   5.993  11.282 -0.2696 -0.5971  0.8605
22039SOL    HW267559   0.712   5.994  11.244  0.3131  0.6955 -1.5812
22040SOL     OW67560   4.371   3.861  11.099 -0.5819  0.2474  0.0383
22040SOL    HW167561   4.444   3.822  11.147 -0.8475 -1.2246 -0.7008
22040SOL    HW267562   4.363   3.807  11.020 -1.8985  0.9291 -0.3178
22041SOL     OW67563   5.550   4.314   8.328 -0.2296 -0.1514 -0.2774
22041SOL    HW167564   5.504   4.385   8.373  0.4523 -0.8769  1.6682
22041SOL    HW267565   5.554   4.343   8.237 -0.7956  1.8620  0.2695
22042SOL     OW67566   6.977   6.904  10.821  0.2202 -0.2160  0.1398
22042SOL    HW167567   6.952   6.982  10.773  1.5933 -1.0331 -2.0519
22042SOL    HW267568   6.973   6.929  10.913 -0.1440  2.1704 -0.4832
22043SOL     OW67569   3.509   4.891   1.534  1.0760  0.1971  0.0918
22043SOL    HW167570   3.459   4.928   1.607 -1.2648  1.7344 -2.1221
22043SOL    HW267571   3.458   4.815   1.508  1.5879 -0.0126 -0.2836
22044SOL     OW67572   5.776   2.187  12.074 -0.0832 -0.6582 -0.2128
22044SOL    HW167573   5.689   2.226  12.083  0.0775 -0.6899  2.1958
22044SOL    HW267574   5.810   2.183  12.164  1.2583 -3.2417 -0.7314
22045SOL     OW67575   3.320   3.999  11.742  0.7324 -0.8191 -0.8651
22045SOL    HW167576   3.394   3.952  11.705  1.4648 -0.1492 -0.2923
22045SOL    HW267577   3.354   4.086  11.762  0.2397 -0.9718  0.8683
22046SOL     OW67578   6.089   5.773  11.259  0.2068 -0.1716  0.0450
22046SOL    HW167579   6.184   5.767  11.246  0.7067 -1.9647  3.5001
22046SOL    HW267580   6.053   5.703  11.203  0.8616  0.4176 -1.1649
22047SOL     OW67581   6.663   5.158  12.179  0.2953  0.1017 -0.6013
22047SOL    HW167582   6.698   5.154  12.090  0.0668 -2.0690 -0.6488
22047SOL    HW267583   6.660   5.252  12.200 -0.7771  0.7730 -3.3248
22048SOL     OW67584   0.396   5.072  10.606 -0.0988  0.1047 -0.6034
22048SOL    HW167585   0.344   5.125  10.545 -1.4086  0.6591  0.9384
22048SOL    HW267586   0.399   4.985  10.566 -1.5449  0.2697 -1.1172
22049SOL     OW67587   5.668   4.484  11.539 -0.3159 -0.2995  0.0639
22049SOL    HW167588   5.583   4.447  11.564 -0.3471 -1.3636 -1.5017
22049SOL    HW267589   5.650   4.531  11.458  0.5843 -0.5323 -0.2790
22050SOL     OW67590   4.226   4.021   0.404  0.0022  0.4872  0.4583
22050SOL    HW167591   4.163   4.055   0.340 -1.8035  0.8043  2.2865
22050SOL    HW267592   4.303   4.076   0.394 -0.4991  0.9967 -0.9139
22051SOL     OW67593   6.957   6.110   1.253 -0.0169 -0.1904 -0.2319
22051SOL    HW167594   6.890   6.097   1.321  0.3507 -0.6437  0.0504
22051SOL    HW267595   6.987   6.022   1.232  1.1423  0.0607  0.3060
22052SOL     OW67596   5.625   3.983   0.346 -0.0655 -0.3979  0.2415
22052SOL    HW167597   5.645   3.979   0.439 -0.6420  0.4471  0.4163
22052SOL    HW267598   5.533   3.957   0.340 -0.0459 -0.4025 -0.0889
22053SOL     OW67599   6.600   3.811   0.236 -0.1006  0.0931 -0.0700
22053SOL    HW167600   6.548   3.836   0.312  0.5744  0.6347  0.2277
22053SOL    HW267601   6.581   3.880   0.171  1.3819  1.1721  0.5765
22054SOL     OW67602   5.032   3.823   1.423  0.7631  0.3847  0.5320
22054SOL    HW167603   5.017   3.848   1.514 -1.4420 -0.2274  0.3681
22054SOL    HW267604   5.039   3.907   1.377 -0.8963  0.7470  0.8685
22055SOL     OW67605   5.749   5.588   0.185  0.0403 -0.1846 -0.4799
22055SOL    HW167606   5.677   5.632   0.139  0.6928  0.2520 -1.0901
22055SOL    HW267607   5.725   5.495   0.183 -2.5325  0.1782  2.7885
22056SOL     OW67608   6.646   4.207   1.274  0.2585 -0.0871  0.3354
22056SOL    HW167609   6.593   4.136   1.239 -0.9240  0.4711  0.9294
22056SOL    HW267610   6.698   4.166   1.343  1.2421 -0.8091 -0.7987
22057SOL     OW67611   5.515   4.293   0.571 -0.0108  0.0234 -0.3955
22057SOL    HW167612   5.478   4.351   0.504 -0.8422 -0.0677 -0.0246
22057SOL    HW267613   5.440   4.246   0.606  0.2639  0.8460  1.3696
22058SOL     OW67614   6.898   4.537  10.805  0.0590  0.5571  0.9247
22058SOL    HW167615   6.992   4.535  10.822  0.0218  1.5722  1.2994
22058SOL    HW267616   6.883   4.620  10.759 -0.2531 -0.8519 -1.7028
22059SOL     OW67617   4.666   4.704  11.423 -0.0463  0.0965  0.2712
22059SOL    HW167618   4.717   4.785  11.426 -0.1835  0.1689  0.7659
22059SOL    HW267619   4.633   4.700  11.333 -2.1297  1.9310  0.8447
22060SOL     OW67620   1.028   3.566  12.454 -0.1927 -0.3198 -0.4931
22060SOL    HW167621   0.961   3.499  12.464 -1.2767  1.0333  2.3753
22060SOL    HW267622   1.009   3.606  12.369 -2.5916 -0.4856 -0.1155
22061SOL     OW67623   0.570   7.271  11.639 -0.6643  0.4351 -0.6402
22061SOL    HW167624   0.579   7.218  11.718  0.9548  0.6840 -0.6217
22061SOL    HW267625   0.584   7.210  11.567 -1.3174  0.3685 -0.7189
22062SOL     OW67626   5.690   3.704   1.476 -0.1138 -0.2331  0.0652
22062SOL    HW167627   5.640   3.627   1.450  2.0881 -1.1066 -1.9430
22062SOL    HW267628   5.767   3.669   1.521  1.0313  0.7393 -1.0602
22063SOL     OW67629   5.793   4.949  11.123  0.3921  0.0278  0.2302
22063SOL    HW167630   5.770   4.857  11.112  3.0313 -0.8927  1.5221
22063SOL    HW267631   5.767   4.990  11.041  1.0475 -2.3246 -1.2517
22064SOL     OW67632   6.077   3.849  11.525  0.0198  0.2910 -0.5535
22064SOL    HW167633   6.094   3.771  11.471 -0.2800  0.6539 -1.1815
22064SOL    HW267634   6.088   3.923  11.466 -3.0896  0.6092 -0.9377
22065SOL     OW67635   5.255   6.162   1.989  0.1162  0.4362 -0.0573
22065SOL    HW167636   5.272   6.067   1.990 -0.5190  0.2960 -0.9540
22065SOL    HW267637   5.170   6.170   2.034  0.7176  0.7220  1.0656
22066SOL     OW67638   7.913   4.660  10.213 -0.0196  0.1932  0.2906
22066SOL    HW167639   7.875   4.584  10.257 -1.1311  0.8714  0.5471
22066SOL    HW267640   7.869   4.663  10.128 -0.4187  0.8669  0.5075
22067SOL     OW67641   6.616   5.078  10.945  0.5497  0.5960  0.1145
22067SOL    HW167642   6.708   5.068  10.921  0.6672 -0.0855  0.8256
22067SOL    HW267643   6.584   4.989  10.956  0.1699  0.8554  1.2256
22068SOL     OW67644   0.230   6.778  11.198 -0.1158  0.3225 -0.1802
22068SOL    HW167645   0.291   6.726  11.147  1.5058  1.6131  0.3587
22068SOL    HW267646   0.164   6.806  11.134 -0.3440 -1.3433 -0.7063
22069SOL     OW67647   5.928   4.372   8.957  0.2480  0.3054 -0.0120
22069SOL    HW167648   5.955   4.321   9.033  1.1020  0.5043 -0.1723
22069SOL    HW267649   5.994   4.353   8.890 -0.3340  0.3566 -0.6121
22070SOL     OW67650   6.499   3.756   0.834  0.8463 -0.7595  0.1981
22070SOL    HW167651   6.434   3.799   0.890  0.6797  0.1761 -0.6866
22070SOL    HW267652   6.463   3.669   0.816  0.1789 -0.5070  0.2925
22071SOL     OW67653   7.523   5.196  11.339 -0.4627  0.1078 -0.4730
22071SOL    HW167654   7.430   5.214  11.354 -0.4492 -0.0199 -0.2303
22071SOL    HW267655   7.568   5.239  11.411 -0.4472 -1.0507  0.2230
22072SOL     OW67656   6.170   3.735  12.453 -0.1106  0.5123 -0.0636
22072SOL    HW167657   6.259   3.700  12.448  0.5010  2.1621 -2.5650
22072SOL    HW267658   6.175   3.803  12.520 -0.1258 -0.8710  1.4114
22073SOL     OW67659   7.753   5.543  10.019  0.3578  0.2751  0.3623
22073SOL    HW167660   7.826   5.498  10.060 -0.0943  1.0942  2.1632
22073SOL    HW267661   7.755   5.631  10.056 -1.1386  0.5212 -0.0624
22074SOL     OW67662   5.064   4.687  11.251 -1.1506 -0.2578 -0.2456
22074SOL    HW167663   5.060   4.780  11.273 -0.5913  0.0288 -1.2860
22074SOL    HW267664   5.029   4.643  11.328 -2.8038  0.8859 -0.2788
22075SOL     OW67665   7.217   4.772   9.356 -0.8490  0.1654 -0.3458
22075SOL    HW167666   7.161   4.707   9.400  0.6470 -0.4024  0.7902
22075SOL    HW267667   7.256   4.822   9.427  1.2292 -0.4352 -1.0020
22076SOL     OW67668   6.925   6.630  11.087 -0.0357 -0.2057  0.3032
22076SOL    HW167669   6.832   6.625  11.110 -0.1945 -2.5971 -0.6673
22076SOL    HW267670   6.931   6.590  11.001  2.0940 -1.4459  0.9644
22077SOL     OW67671   4.426   4.542  12.397  0.0138  0.7650  0.0280
22077SOL    HW167672   4.359   4.543  12.465 -0.7847 -0.1545 -0.7287
22077SOL    HW267673   4.398   4.610  12.336 -3.0706 -2.7228 -2.8804
22078SOL     OW67674   5.987   6.084  12.067  0.7053 -0.0754  0.1359
22078SOL    HW167675   5.952   6.002  12.033  0.6848  0.3578 -0.9352
22078SOL    HW267676   5.949   6.152  12.011  0.0283  0.7556  1.5573
22079SOL     OW67677   5.821   4.280  12.379  0.1445 -0.2684  0.4534
22079SOL    HW167678   5.837   4.220  12.306  1.4951 -0.3754  0.8055
22079SOL    HW267679   5.880   4.354  12.362  0.8913 -0.5541  1.7210
22080SOL     OW67680   6.646   4.146   0.270 -0.1981 -0.5901  0.5061
22080SOL    HW167681   6.617   4.062   0.307 -1.7636  0.6264  2.2180
22080SOL    HW267682   6.742   4.138   0.265 -0.3215 -2.5201  0.4637
22081SOL     OW67683   6.660   4.378  10.737 -0.7300  0.5236  0.5777
22081SOL    HW167684   6.650   4.413  10.648 -0.7818 -0.4829  0.1734
22081SOL    HW267685   6.732   4.429  10.774  0.2087  0.0487 -0.5305
22082SOL     OW67686   5.521   5.981  12.324  0.1537  0.5967 -0.1560
22082SOL    HW167687   5.438   5.989  12.371 -1.3105  0.7646 -2.5888
22082SOL    HW267688   5.501   5.927  12.248  1.7428  2.3517 -1.9441
22083SOL     OW67689   7.519   5.827  11.355 -0.0090 -0.2272 -0.3913
22083SOL    HW167690   7.539   5.917  11.382  3.9137 -0.8663 -0.6764
22083SOL    HW267691   7.461   5.838  11.279 -2.8084  1.8237  1.8083
22084SOL     OW67692   6.942   4.186   1.153  0.2261 -0.1738 -0.1083
22084SOL    HW167693   6.949   4.092   1.169 -0.3325 -0.3271 -0.7299
22084SOL    HW267694   6.868   4.195   1.094  0.0875  0.6887  0.1819
22085SOL     OW67695   6.052   6.296  12.285 -0.2108  0.4325  0.1891
22085SOL    HW167696   6.105   6.293  12.205  0.2291  0.5633  0.4719
22085SOL    HW267697   5.962   6.282  12.255  0.0833 -0.7327 -0.2061
22086SOL     OW67698   0.296   5.869  10.982  0.1760 -0.1594  0.0354
22086SOL    HW167699   0.303   5.836  10.892  1.5808  0.7920 -0.2481
22086SOL    HW267700   0.295   5.964  10.972 -1.7521 -0.0380  0.9423
22087SOL     OW67701   7.548   5.823   0.145 -1.4496 -0.3305  0.3601
22087SOL    HW167702   7.486   5.892   0.121  1.4961  1.3430 -3.8378
22087SOL    HW267703   7.553   5.767   0.067 -0.1935 -2.4113  1.8381
22088SOL     OW67704   4.954   3.326  11.018  0.1285  0.0684 -0.1641
22088SOL    HW167705   4.890   3.389  11.051  0.3216  0.5684 -0.7268
22088SOL    HW267706   4.915   3.241  11.036 -0.0535  0.3354  0.7838
22089SOL     OW67707   5.640   3.472  12.147  0.5788  0.2728 -0.5971
22089SOL    HW167708   5.697   3.456  12.072  1.2966  0.7952 -0.1805
22089SOL    HW267709   5.672   3.411  12.214  0.6023  0.5157 -0.3864
22090SOL     OW67710   6.345   3.935  10.923  0.3541 -0.1582  0.0513
22090SOL    HW167711   6.257   3.897  10.927 -0.1063  0.9719  1.3296
22090SOL    HW267712   6.401   3.863  10.893 -0.3272 -2.1757  3.1607
22091SOL     OW67713   6.616   5.412  12.041 -0.1576  0.1601 -0.0377
22091SOL    HW167714   6.673   5.376  11.972 -1.0007  1.2496 -1.3417
22091SOL    HW267715   6.527   5.392  12.011 -0.5311  0.2136  1.0056
22092SOL     OW67716   6.509   5.526   0.467  0.0327  0.7045  0.3036
22092SOL    HW167717   6.472   5.458   0.410  2.0345 -0.7320  0.6374
22092SOL    HW267718   6.452   5.602   0.453 -1.5803 -0.6629 -0.9693
22093SOL     OW67719   6.948   5.242  10.590 -0.5805  0.7583  0.6492
22093SOL    HW167720   6.904   5.175  10.643 -0.4929  0.0176 -0.1880
22093SOL    HW267721   6.960   5.316  10.650  2.1724 -1.0532  2.5814
22094SOL     OW67722   0.239   5.769  10.739  0.0410 -0.1871  0.5396
22094SOL    HW167723   0.198   5.687  10.712 -0.4637 -0.5970  2.4082
22094SOL    HW267724   0.250   5.818  10.657  1.6513 -2.6495 -0.8286
22095SOL     OW67725   4.205   3.457   0.700 -0.0401 -0.0234 -0.5733
22095SOL    HW167726   4.222   3.379   0.753  1.1550  0.1189 -0.7308
22095SOL    HW267727   4.113   3.477   0.717  0.7554  1.1984  3.0723
22096SOL     OW67728   7.845   4.231   9.481 -0.2617  0.3744 -0.7637
22096SOL    HW167729   7.876   4.316   9.451 -0.2469  0.3773 -0.7399
22096SOL    HW267730   7.855   4.174   9.405 -0.0975  0.3495 -0.7250
22097SOL     OW67731   5.382   7.144  11.880 -0.4065 -0.2255 -0.1088
22097SOL    HW167732   5.465   7.161  11.835 -0.4096  2.8477  0.7913
22097SOL    HW267733   5.334   7.226  11.872 -3.5248 -1.9603 -0.7508
22098SOL     OW67734   6.497   5.068  10.485  0.3027  0.7699 -0.7060
22098SOL    HW167735   6.571   5.127  10.501  0.5648  0.6518 -1.4302
22098SOL    HW267736   6.475   5.033  10.571  1.4228  0.4151 -0.5511
22099SOL     OW67737   7.712   6.789  11.663 -0.3771 -0.0886  0.6287
22099SOL    HW167738   7.631   6.834  11.638 -0.8001 -1.0401  0.2013
22099SOL    HW267739   7.691   6.696  11.652  0.5755 -0.3759  1.1410
22100SOL     OW67740   6.522   6.035   0.145  0.5598  0.4742 -0.3322
22100SOL    HW167741   6.558   5.990   0.222 -2.0452  0.2494  0.8647
22100SOL    HW267742   6.543   5.977   0.072  0.2652 -1.0156  0.7070
22101SOL     OW67743   5.653   3.803   0.932 -0.2686  0.6381  0.1148
22101SOL    HW167744   5.635   3.742   0.860  0.5939  0.1590  0.2940
22101SOL    HW267745   5.592   3.876   0.917 -0.6083  0.2064 -0.6804
22102SOL     OW67746   6.843   5.552  11.653  0.0475 -0.0235 -0.3673
22102SOL    HW167747   6.831   5.457  11.659  0.4356 -0.0478  0.0817
22102SOL    HW267748   6.756   5.587  11.673  0.4491 -0.2250  2.1244
22103SOL     OW67749   4.088   4.210  11.111  0.4220  0.5423 -0.1082
22103SOL    HW167750   4.171   4.166  11.128 -0.7662 -1.6717  0.2702
22103SOL    HW267751   4.050   4.163  11.037 -0.3378  1.7977 -0.5629
22104SOL     OW67752   0.680   5.963   0.383 -0.3254 -0.1832 -0.0934
22104SOL    HW167753   0.625   5.895   0.343 -1.5044  1.7840 -2.0019
22104SOL    HW267754   0.623   6.004   0.448 -0.4086  0.4508 -0.5597
22105SOL     OW67755   0.327   4.518  11.686  0.5003 -0.5998  0.1434
22105SOL    HW167756   0.390   4.588  11.703 -0.7498  0.7502 -0.5858
22105SOL    HW267757   0.256   4.534  11.748 -0.0185 -0.9518 -0.3556
22106SOL     OW67758   7.268   4.676  11.401 -0.5924  0.5036  0.3161
22106SOL    HW167759   7.362   4.659  11.403 -0.2891  1.9970  0.0376
22106SOL    HW267760   7.232   4.603  11.350  0.7690  1.2713 -1.8947
22107SOL     OW67761   5.514   4.230  12.033 -0.1723 -0.3236 -0.1780
22107SOL    HW167762   5.522   4.325  12.043  1.4232 -0.4342 -0.1068
22107SOL    HW267763   5.541   4.195  12.118  3.2007 -0.9248 -1.3314
22108SOL     OW67764   6.058   3.805  11.151  0.6087  0.6453  0.0049
22108SOL    HW167765   6.132   3.763  11.196  0.8145  0.1101 -0.8121
22108SOL    HW267766   5.995   3.734  11.138  1.0290  0.5220 -1.5378
22109SOL     OW67767   6.143   3.716   9.762  0.3034 -0.1469  0.1274
22109SOL    HW167768   6.117   3.807   9.764 -0.1096 -0.2394  2.8931
22109SOL    HW267769   6.229   3.716   9.720  0.2721  1.5009  0.0341
22110SOL     OW67770   5.884   1.928  10.469  0.2044 -0.5240 -0.0788
22110SOL    HW167771   5.935   1.898  10.394  1.4881 -0.2495  0.6476
22110SOL    HW267772   5.815   1.862  10.480  1.9840 -2.4068  0.5005
22111SOL     OW67773   6.380   4.181   0.612 -0.0133 -0.1486 -0.4699
22111SOL    HW167774   6.286   4.199   0.604 -0.7035 -2.3467  1.5884
22111SOL    HW267775   6.387   4.086   0.605  2.0828 -0.0338 -0.5064
22112SOL     OW67776   7.640   6.280  11.845  0.0452 -0.3008  0.2702
22112SOL    HW167777   7.555   6.277  11.889 -1.1202  0.3022 -1.7862
22112SOL    HW267778   7.647   6.196  11.801  0.0014  0.0583 -0.4337
22113SOL     OW67779   6.462   5.356   1.374  0.5316 -0.3138  0.1344
22113SOL    HW167780   6.479   5.294   1.302 -1.7355 -0.0097 -0.7688
22113SOL    HW267781   6.490   5.310   1.453 -0.3411 -2.2078 -0.5935
22114SOL     OW67782   3.867   5.539  12.218  0.5257  0.1010 -0.1165
22114SOL    HW167783   3.787   5.579  12.252 -0.0504 -0.4969 -0.7327
22114SOL    HW267784   3.928   5.539  12.292 -1.1135 -2.3755  1.3721
22115SOL     OW67785   5.781   2.997  12.060  0.0778  0.3331  0.1000
22115SOL    HW167786   5.763   2.904  12.070 -1.4774  0.5673 -0.2619
22115SOL    HW267787   5.858   3.000  12.003  1.0570 -0.7337  1.3238
22116SOL     OW67788   6.307   4.840  11.700 -0.3497  0.9168 -1.0353
22116SOL    HW167789   6.267   4.888  11.773 -0.7699 -0.5946 -0.2180
22116SOL    HW267790   6.270   4.880  11.622 -2.1305  0.7326 -0.3439
22117SOL     OW67791   7.664   3.723   0.172  0.2445  0.4832 -0.0463
22117SOL    HW167792   7.614   3.642   0.179  2.0080 -0.5798  1.2003
22117SOL    HW267793   7.661   3.761   0.260  0.4375  1.1569 -0.3216
22118SOL     OW67794   0.391   5.166  12.433 -0.2866  0.7334 -0.2141
22118SOL    HW167795   0.314   5.162  12.490 -0.7479 -1.3660 -0.8595
22118SOL    HW267796   0.465   5.149  12.492 -0.4245  1.5916  0.2220
22119SOL     OW67797   5.884   4.513  12.048 -0.5532  0.1226  0.1084
22119SOL    HW167798   5.892   4.561  11.965 -1.1337  0.5708  0.2985
22119SOL    HW267799   5.806   4.551  12.090 -1.5212 -1.5360 -0.0850
22120SOL     OW67800   6.523   5.047  12.374  0.0979 -0.5476 -0.1603
22120SOL    HW167801   6.458   4.998  12.325  0.0925  0.2058 -0.9240
22120SOL    HW267802   6.571   5.097  12.308 -0.7438  1.4905  0.6707
22121SOL     OW67803   0.018   5.746   0.621 -0.2190  0.0611 -0.4833
22121SOL    HW167804  -0.045   5.748   0.693  0.9323 -0.4517  0.5744
22121SOL    HW267805  -0.004   5.822   0.568 -1.1733  0.3881  0.3541
22122SOL     OW67806   7.694   5.969   0.590 -0.0220 -0.7019 -0.2137
22122SOL    HW167807   7.647   6.031   0.645 -1.1904 -2.3005  0.6986
22122SOL    HW267808   7.678   5.999   0.501 -2.2734 -0.7790  0.0980
22123SOL     OW67809   6.952   5.892  12.037 -0.4071 -0.1021  0.2915
22123SOL    HW167810   7.021   5.826  12.028 -1.7313 -1.5374  0.1393
22123SOL    HW267811   6.971   5.935  12.120  0.2831 -0.9421  0.5873
22124SOL     OW67812   5.689   4.533  10.546  0.3739  0.8387 -0.5694
22124SOL    HW167813   5.596   4.512  10.548  0.7160 -0.9269 -1.3891
22124SOL    HW267814   5.702   4.577  10.462  0.5795 -0.5993 -1.3139
22125SOL     OW67815   5.570   4.232  12.293  0.0290 -0.6150  0.3472
22125SOL    HW167816   5.503   4.195  12.351  1.3528 -1.9565  1.0986
22125SOL    HW267817   5.638   4.265  12.352 -0.2068  1.3247 -0.3814
22126SOL     OW67818   5.120   2.796  12.239  0.0088 -0.3410  0.4014
22126SOL    HW167819   5.027   2.774  12.229 -0.2039 -0.0230  1.4876
22126SOL    HW267820   5.120   2.883  12.280  0.7825 -0.3124  0.3592
22127SOL     OW67821   6.117   4.493  10.843 -0.0835  0.2828 -0.3912
22127SOL    HW167822   6.064   4.414  10.837  0.8780 -0.2383 -3.0077
22127SOL    HW267823   6.055   4.565  10.826 -0.5097 -0.0669 -0.3404
22128SOL     OW67824   5.783   2.772  10.979  0.1845  0.3120 -0.0922
22128SOL    HW167825   5.875   2.755  10.960  0.3573 -1.1146  1.7732
22128SOL    HW267826   5.779   2.864  11.003  1.3952  0.0435  1.2213
22129SOL     OW67827   6.429   4.580  11.652  0.1408  0.2658  0.5377
22129SOL    HW167828   6.477   4.558  11.732  1.7360  0.5090 -0.3148
22129SOL    HW267829   6.397   4.669  11.667  1.2436  0.6682  0.5493
22130SOL     OW67830   5.134   5.593  12.422  0.5257 -0.0189  0.3750
22130SOL    HW167831   5.206   5.587  12.485 -1.3804  2.1514  2.9970
22130SOL    HW267832   5.066   5.535  12.457  0.6762 -1.6216 -1.7679
22131SOL     OW67833   6.002   5.664  11.867 -0.2413  0.1040  0.2241
22131SOL    HW167834   6.057   5.637  11.941  2.0832  2.7467 -0.3567
22131SOL    HW267835   5.954   5.740  11.899 -0.9818 -0.1252 -0.3169
22132SOL     OW67836   7.427   3.255   9.291 -0.0506  0.0617 -0.0948
22132SOL    HW167837   7.461   3.255   9.380  0.5934  0.7013 -0.3244
22132SOL    HW267838   7.480   3.321   9.245  0.0111 -0.6431 -1.0859
22133SOL     OW67839   5.188   4.594  12.103 -0.4614  0.2016 -1.1039
22133SOL    HW167840   5.208   4.515  12.053 -0.4781 -0.5059 -0.0294
22133SOL    HW267841   5.093   4.591  12.115 -0.5796  0.8422 -1.7716
22134SOL     OW67842   5.862   4.789   0.027  0.1029 -0.0560  0.4491
22134SOL    HW167843   5.789   4.743  -0.015  0.8756 -1.4968  0.6275
22134SOL    HW267844   5.858   4.878  -0.008 -1.4727 -0.2282  0.1319
22135SOL     OW67845   6.789   4.121   1.480  0.3001 -0.2530  0.2241
22135SOL    HW167846   6.871   4.144   1.523 -1.2043  1.4647  2.3946
22135SOL    HW267847   6.791   4.026   1.473  1.8172 -0.3628  1.6294
22136SOL     OW67848   7.253   3.991   1.499  0.4310 -0.1342  0.0422
22136SOL    HW167849   7.261   3.918   1.438  0.7297 -0.8366  0.8991
22136SOL    HW267850   7.343   4.008   1.528  0.7169  2.1324 -1.8936
22137SOL     OW67851   6.373   4.485  10.986  0.4415 -0.3324 -0.0906
22137SOL    HW167852   6.391   4.425  11.059  1.1506 -2.2485 -1.7509
22137SOL    HW267853   6.279   4.502  10.992  0.3002 -1.2758  0.6836
22138SOL     OW67854   3.734   5.083   0.093  1.0272  0.0253  0.1327
22138SOL    HW167855   3.710   5.150   0.029  2.2779  0.3361 -0.0432
22138SOL    HW267856   3.690   5.004   0.062 -1.1994  0.9337  0.8447
22139SOL     OW67857   6.010   4.201   0.221 -0.2201 -0.0606 -0.2206
22139SOL    HW167858   5.978   4.288   0.196  1.9014  1.2502  1.2251
22139SOL    HW267859   6.104   4.214   0.236  0.3673 -2.8475 -0.8913
22140SOL     OW67860   4.831   3.668  10.802  0.2818  1.0301  0.0454
22140SOL    HW167861   4.804   3.619  10.880 -0.3777  1.0594 -0.1631
22140SOL    HW267862   4.755   3.666  10.745  0.8048  0.9010 -0.6629
22141SOL     OW67863   5.269   2.474   0.966  0.4223 -0.0903  0.1343
22141SOL    HW167864   5.208   2.409   0.931 -1.8944 -0.2094  3.8781
22141SOL    HW267865   5.330   2.424   1.019  0.3393  0.5205  0.8261
22142SOL     OW67866   7.495   4.982  11.166  0.1379  0.0278  0.2781
22142SOL    HW167867   7.500   5.059  11.222 -1.3765  0.0970  0.3392
22142SOL    HW267868   7.494   4.908  11.228 -2.6327  0.1420  0.4548
22143SOL     OW67869   6.485   3.663  11.948  0.6148 -0.7370  0.3575
22143SOL    HW167870   6.464   3.577  11.912 -1.1910  0.4344 -1.6264
22143SOL    HW267871   6.478   3.651  12.043 -1.4750 -2.3614  0.0730
22144SOL     OW67872   5.898   5.475  12.348 -0.3143  0.2921  0.5445
22144SOL    HW167873   5.817   5.519  12.324 -0.9508 -0.8502  0.5419
22144SOL    HW267874   5.929   5.436  12.266 -0.1108  0.1722  0.6787
22145SOL     OW67875   3.959   4.276  11.801 -0.2846  0.4288  0.2367
22145SOL    HW167876   3.938   4.346  11.863  0.4525  0.0978  0.8652
22145SOL    HW267877   4.034   4.231  11.839 -1.4310 -1.4358  0.3960
22146SOL     OW67878   5.901   5.590  10.493  0.3093 -0.1822  0.4776
22146SOL    HW167879   5.844   5.611  10.419  0.8695  1.4173  0.4686
22146SOL    HW267880   5.902   5.494  10.496 -0.8046 -0.2629 -0.7257
22147SOL     OW67881   5.938   4.796  12.079  0.0074 -0.2135 -0.5560
22147SOL    HW167882   5.942   4.736  12.005  1.7514 -0.7673 -0.0684
22147SOL    HW267883   5.848   4.792  12.109  0.3573 -4.0033  0.5274
22148SOL     OW67884   5.082   4.562   0.358  0.0112 -0.1078 -0.2326
22148SOL    HW167885   5.004   4.607   0.391  0.9943  1.3679  0.1787
22148SOL    HW267886   5.065   4.551   0.264 -0.8198 -0.0753 -0.0918
22149SOL     OW67887   0.872   5.920  12.385  0.3231 -0.0889 -0.6474
22149SOL    HW167888   0.867   5.975  12.307  0.6809  2.2126  0.8855
22149SOL    HW267889   0.965   5.907  12.400  0.2461 -0.9912 -0.8760
22150SOL     OW67890   6.256   4.639  11.943  0.4509 -0.0455 -0.0357
22150SOL    HW167891   6.232   4.553  11.909  0.5816  0.6557 -2.0069
22150SOL    HW267892   6.310   4.678  11.874  0.3740  1.6340  0.8066
22151SOL     OW67893   4.582   4.363  12.297  0.2672 -0.0545  0.1117
22151SOL    HW167894   4.589   4.406  12.211 -0.5178 -1.2725 -0.5941
22151SOL    HW267895   4.527   4.421  12.349 -0.3137  0.0742 -0.6373
22152SOL     OW67896   7.738   4.695  12.112 -0.1533 -0.7957 -0.0392
22152SOL    HW167897   7.679   4.726  12.180  1.0407 -0.0627  0.7108
22152SOL    HW267898   7.742   4.766  12.048  0.6880 -0.3910  0.4395
22153SOL     OW67899   7.022   5.557  11.124  0.2201 -0.4392 -0.0137
22153SOL    HW167900   6.966   5.574  11.049  0.3380  0.3405  0.0622
22153SOL    HW267901   7.030   5.642  11.168  1.2322 -0.5892  0.1269
22154SOL     OW67902   6.571   5.586  11.621 -0.2332 -0.2080 -0.1543
22154SOL    HW167903   6.521   5.579  11.702 -0.1545 -3.2100 -0.2287
22154SOL    HW267904   6.508   5.565  11.552  0.1465  0.3617 -0.6875
22155SOL     OW67905   5.575   5.516   9.544 -0.0764 -0.8112  0.2187
22155SOL    HW167906   5.544   5.496   9.633  3.6998 -3.2442  1.2088
22155SOL    HW267907   5.541   5.444   9.491 -1.5507  0.1498 -0.2134
22156SOL     OW67908   4.188   4.874   0.278  0.4194  0.1181 -0.2737
22156SOL    HW167909   4.136   4.795   0.263 -1.5858  0.7912  2.4183
22156SOL    HW267910   4.125   4.946   0.274  1.7804  1.3555 -0.3076
22157SOL     OW67911   6.229   5.343  11.264  0.0155  0.2283 -0.0257
22157SOL    HW167912   6.239   5.276  11.196  0.5706 -0.2092  0.4795
22157SOL    HW267913   6.139   5.332  11.295 -0.1966  0.3386 -0.5825
22158SOL     OW67914   6.208   3.219   9.910 -0.5967  0.0113  0.0018
22158SOL    HW167915   6.168   3.304   9.892  0.6469  0.8590  1.0219
22158SOL    HW267916   6.240   3.226  10.000 -2.5996 -2.4224  1.0257
22159SOL     OW67917   5.374   6.376   0.176 -0.2737 -0.1945 -0.1135
22159SOL    HW167918   5.327   6.444   0.224  0.0455  0.7957 -1.1523
22159SOL    HW267919   5.460   6.414   0.158  0.6084 -1.6143  0.9175
22160SOL     OW67920   5.617   5.607  12.316 -0.2934  0.0559 -0.1055
22160SOL    HW167921   5.688   5.670  12.331 -0.6460  0.3025  0.6144
22160SOL    HW267922   5.597   5.615  12.223  1.2381 -0.6900 -0.5378
22161SOL     OW67923   6.034   5.008   0.195 -0.9050  0.5167 -0.4732
22161SOL    HW167924   6.101   5.073   0.214  0.7425 -1.3643  0.4678
22161SOL    HW267925   6.021   5.014   0.100 -1.1408  2.4605 -0.3615
22162SOL     OW67926   7.065   4.904  11.290 -0.6774  0.2987 -0.6993
22162SOL    HW167927   7.139   4.857  11.329 -2.7244 -0.8287  2.2189
22162SOL    HW267928   7.065   4.877  11.198  0.3018 -2.7665  0.0755
22163SOL     OW67929   5.522   6.371   0.512 -0.1866  0.2032  0.3336
22163SOL    HW167930   5.542   6.423   0.590  1.1121  0.3210 -0.0617
22163SOL    HW267931   5.503   6.284   0.545  0.4080  0.2410  0.7802
22164SOL     OW67932   0.248   3.878  11.844 -0.1539 -0.3034 -0.2076
22164SOL    HW167933   0.249   3.787  11.817 -1.7958 -1.1819  2.2832
22164SOL    HW267934   0.164   3.912  11.813 -0.9338 -0.6031  1.4737
22165SOL     OW67935   5.232   4.145   0.312  0.6465  0.6292 -0.4739
22165SOL    HW167936   5.238   4.201   0.390 -0.1003 -0.3442  0.3142
22165SOL    HW267937   5.138   4.131   0.300  0.8326 -1.1138 -0.1492
22166SOL     OW67938   6.423   2.930  11.830 -0.4347  0.1409  0.6528
22166SOL    HW167939   6.342   2.948  11.783  0.9228  1.1771 -1.4394
22166SOL    HW267940   6.484   2.997  11.799  0.6000  0.9605  4.0056
22167SOL     OW67941   5.037   3.979  12.272  0.4649  0.3564 -0.3826
22167SOL    HW167942   5.126   4.000  12.244  0.5366  0.1986 -0.2691
22167SOL    HW267943   5.036   3.994  12.366  0.3137  0.5580 -0.4140
22168SOL     OW67944   5.084   3.345  10.050 -0.0398 -0.2453 -0.1341
22168SOL    HW167945   5.021   3.378   9.985 -1.8072  1.2394  2.1683
22168SOL    HW267946   5.054   3.256  10.068  0.8642 -0.9183 -1.7447
22169SOL     OW67947   6.899   2.870  10.519  1.0291 -0.2509 -0.0292
22169SOL    HW167948   6.967   2.828  10.466  1.3927  0.0600  0.1845
22169SOL    HW267949   6.841   2.799  10.544  1.2407 -0.5103 -0.2707
22170SOL     OW67950   6.044   2.763  10.954  0.0896  0.1327 -0.1376
22170SOL    HW167951   6.087   2.714  10.884 -0.5906  0.0045 -0.4654
22170SOL    HW267952   6.101   2.840  10.967 -0.1760  0.5470 -1.3479
22171SOL     OW67953   7.950   6.507  12.198 -0.6706  0.6788 -0.1812
22171SOL    HW167954   7.940   6.602  12.194 -0.3004  0.6759 -2.3026
22171SOL    HW267955   8.043   6.492  12.181 -1.1811 -0.1205 -2.6502
22172SOL     OW67956   4.974   4.286  12.210 -0.2528  0.1005 -0.4741
22172SOL    HW167957   5.017   4.344  12.147 -0.0239  0.9197  0.4132
22172SOL    HW267958   4.932   4.220  12.156 -0.7718  1.2536 -1.5491
22173SOL     OW67959   7.087   5.231   9.254 -0.1646  0.3578 -0.1109
22173SOL    HW167960   7.135   5.154   9.221 -1.7147 -1.2956  1.3121
22173SOL    HW267961   7.002   5.226   9.212 -0.7738  0.4681  1.0728
22174SOL     OW67962   4.869   5.262  12.131 -0.5257 -0.5101 -0.2081
22174SOL    HW167963   4.804   5.331  12.120  0.4957  0.3219 -1.1917
22174SOL    HW267964   4.945   5.292  12.083  1.1285 -0.7860  2.0701
22175SOL     OW67965   6.157   4.928  11.941  0.0140  0.2456 -0.4039
22175SOL    HW167966   6.217   4.967  12.005 -1.9165  1.9485  0.4807
22175SOL    HW267967   6.106   4.865  11.991  0.7795 -0.9659 -1.0901
22176SOL     OW67968   4.740   4.141  11.699 -0.2665 -0.2423 -0.1896
22176SOL    HW167969   4.689   4.173  11.625 -0.3573 -0.5898 -0.2835
22176SOL    HW267970   4.689   4.165  11.776 -0.2226  0.0312 -0.2479
22177SOL     OW67971   6.369   4.771  11.383 -0.0306 -0.2334  0.3828
22177SOL    HW167972   6.323   4.780  11.300 -0.5309  0.4897  0.7339
22177SOL    HW267973   6.377   4.676  11.396  2.4771 -0.4539 -1.8074
22178SOL     OW67974   5.639   3.964   0.617  0.4330 -0.6648  0.5341
22178SOL    HW167975   5.602   4.017   0.687 -0.1866 -0.2506 -0.0912
22178SOL    HW267976   5.729   3.947   0.644  0.0869 -0.8409  1.6105
22179SOL     OW67977   6.917   5.147  11.291 -0.0434 -0.3200 -0.2263
22179SOL    HW167978   6.981   5.205  11.250  0.3546  0.1182  0.9653
22179SOL    HW267979   6.963   5.064  11.302 -0.2251 -0.5107 -0.8421
22180SOL     OW67980   6.822   4.596   0.653 -0.0598  0.0237 -0.8057
22180SOL    HW167981   6.872   4.625   0.576  0.6757 -1.5246 -0.9492
22180SOL    HW267982   6.770   4.522   0.621 -1.4611  0.7733 -0.3268
22181SOL     OW67983   4.730   4.137  12.267  0.1780  0.3989  0.0023
22181SOL    HW167984   4.667   4.188  12.318  0.2480  1.8967 -1.3147
22181SOL    HW267985   4.808   4.132  12.322 -0.4947  0.0216  0.9422
22182SOL     OW67986   7.925   4.513  12.088 -0.2703  0.0496  0.5976
22182SOL    HW167987   7.897   4.427  12.056 -1.0375  0.6766 -0.4822
22182SOL    HW267988   7.846   4.567  12.085  0.6908  1.4852 -1.2432
22183SOL     OW67989   6.155   4.522   9.308 -0.7440  0.8410  0.2070
22183SOL    HW167990   6.167   4.550   9.399  1.1147  0.9840 -0.0445
22183SOL    HW267991   6.164   4.602   9.257  0.1788  0.4880 -0.2119
22184SOL     OW67992   5.530   5.692   0.078  0.5214  0.0950  0.4518
22184SOL    HW167993   5.534   5.682  -0.018  2.4547  1.7571  0.2807
22184SOL    HW267994   5.438   5.676   0.100 -0.4090  1.5799 -1.9389
22185SOL     OW67995   4.281   4.877  11.766  0.0670 -0.1281  0.2573
22185SOL    HW167996   4.209   4.939  11.753 -0.6027 -0.7150  1.0467
22185SOL    HW267997   4.239   4.791  11.764  0.9298 -0.5507 -0.4670
22186SOL     OW67998   0.985   5.108   0.770 -0.3555  0.6066  0.2046
22186SOL    HW167999   1.052   5.160   0.814  0.7657  0.8598 -1.6721
22186SOL    HW268000   1.004   5.018   0.797 -0.6279  0.8809  1.3684
22187SOL     OW68001   6.115   4.262   0.876  0.1117 -0.5665  0.0633
22187SOL    HW168002   6.106   4.217   0.792  1.7576 -2.6228  0.8892
22187SOL    HW268003   6.150   4.348   0.853  0.1357 -0.9308 -1.3730
22188SOL     OW68004   4.801   4.935  11.376 -0.3767 -0.4149 -0.2596
22188SOL    HW168005   4.887   4.930  11.334 -0.5276 -0.3998 -0.5720
22188SOL    HW268006   4.766   5.019  11.348  1.3889  1.8444  3.5096
22189SOL     OW68007   6.729   3.885   9.622  0.2487  0.0411 -0.0152
22189SOL    HW168008   6.688   3.826   9.559 -0.5843  0.2372  0.3365
22189SOL    HW268009   6.810   3.913   9.579 -0.3172  0.2032 -1.0133
22190SOL     OW68010   7.157   4.977  11.906  0.3099  0.1174 -0.3234
22190SOL    HW168011   7.133   4.892  11.942  0.4848  0.6274  1.0593
22190SOL    HW268012   7.086   4.998  11.844 -0.6928 -0.2168  0.6772
22191SOL     OW68013   5.001   4.216   9.946 -0.0140 -0.2579 -0.1832
22191SOL    HW168014   5.030   4.276   9.877 -2.9946  0.1033 -1.2562
22191SOL    HW268015   4.940   4.267   9.999 -0.7082 -1.6174  0.3931
22192SOL     OW68016   7.486   6.967  11.538 -0.0406  0.2197  0.1431
22192SOL    HW168017   7.502   6.984  11.631  1.0026 -0.5141  0.1142
22192SOL    HW268018   7.542   7.030  11.492 -0.4317  0.4728  0.0116
22193SOL     OW68019   6.916   5.426   0.512  0.3325  0.2246 -0.3020
22193SOL    HW168020   6.926   5.386   0.598  1.5019  2.5297  0.7164
22193SOL    HW268021   6.994   5.398   0.464  1.6287  1.9181  0.7195
22194SOL     OW68022   5.407   6.936   1.639  0.1057 -0.1091  0.1857
22194SOL    HW168023   5.364   6.851   1.652  0.4689 -0.5415 -1.2982
22194SOL    HW268024   5.361   6.976   1.566  1.3789 -0.0303 -0.6126
22195SOL     OW68025   4.806   7.167   1.838 -0.6576 -0.5012 -0.0917
22195SOL    HW168026   4.753   7.206   1.908 -0.3085  1.0298 -0.6275
22195SOL    HW268027   4.895   7.165   1.874 -0.5745 -0.2377 -0.2790
22196SOL     OW68028   4.750   7.928   0.235  0.0647 -0.1199 -0.6307
22196SOL    HW168029   4.807   7.853   0.252 -0.7209 -1.1673 -2.3923
22196SOL    HW268030   4.673   7.913   0.291  0.9817  0.7230  0.9146
22197SOL     OW68031   0.300   7.757   0.502 -0.1888 -0.5043  0.3151
22197SOL    HW168032   0.269   7.822   0.439  0.0853 -1.4242 -0.8057
22197SOL    HW268033   0.324   7.681   0.448  1.4450 -0.7936  1.3926
22198SOL     OW68034   7.280   7.229  12.398 -0.4192  0.4008 -0.3719
22198SOL    HW168035   7.247   7.170  12.466  1.1213 -0.6422 -0.4736
22198SOL    HW268036   7.329   7.172  12.339  0.7431  1.7237 -0.7421
22199SOL     OW68037   7.110   5.913  12.276  0.3539 -0.0127 -0.2067
22199SOL    HW168038   7.194   5.914  12.230  0.4947  1.3518  0.0430
22199SOL    HW268039   7.131   5.877  12.362  0.4809 -0.6092 -0.4781
22200SOL     OW68040   6.322   7.197   0.443 -0.2564 -0.6624 -0.0051
22200SOL    HW168041   6.389   7.265   0.434 -0.7958 -0.1377 -0.0878
22200SOL    HW268042   6.372   7.118   0.465  0.3032 -0.0405  1.1011
22201SOL     OW68043   5.865   0.517   3.241 -0.0314  0.9149  0.0248
22201SOL    HW168044   5.791   0.459   3.222 -2.0069  3.0192  0.7882
22201SOL    HW268045   5.860   0.531   3.336  1.4893  0.9530  0.1165
22202SOL     OW68046   5.288   6.573   0.758 -0.4301 -0.7176  0.1408
22202SOL    HW168047   5.230   6.603   0.688 -0.2147  0.5728  0.4906
22202SOL    HW268048   5.270   6.479   0.765 -1.0019 -0.7235 -1.1197
22203SOL     OW68049   5.862   5.733   1.557 -0.1754  0.6670 -0.0762
22203SOL    HW168050   5.948   5.725   1.600 -0.6844 -0.2711  0.8207
22203SOL    HW268051   5.802   5.753   1.629 -0.8202  0.5822 -0.5907
22204SOL     OW68052   5.902   7.499   0.235 -0.7233  0.3978  0.0815
22204SOL    HW168053   5.987   7.534   0.261 -0.8104  1.3835 -0.8750
22204SOL    HW268054   5.913   7.477   0.142 -1.9231  1.9758 -0.4825
22205SOL     OW68055   7.700   7.203   1.593 -0.2060  0.0879 -0.5733
22205SOL    HW168056   7.654   7.241   1.667  1.2552  1.3170 -0.2689
22205SOL    HW268057   7.649   7.124   1.571  1.0221 -2.2309  3.7699
22206SOL     OW68058   5.209   0.555   1.260 -0.1473  0.6104  0.3797
22206SOL    HW168059   5.184   0.642   1.293  0.5305  0.8127  0.3815
22206SOL    HW268060   5.141   0.496   1.293  0.2347  0.8837  1.7266
22207SOL     OW68061   6.618   0.283   1.666 -0.5078 -0.5584 -0.4897
22207SOL    HW168062   6.637   0.376   1.679  1.0722 -0.8118 -0.7106
22207SOL    HW268063   6.584   0.253   1.751 -0.2342  0.0400 -0.1656
22208SOL     OW68064   5.517   7.269   1.195 -0.3091  0.0804 -0.6267
22208SOL    HW168065   5.553   7.260   1.283  2.5786 -4.4929 -1.9791
22208SOL    HW268066   5.424   7.288   1.210  0.1814  0.2873  3.3249
22209SOL     OW68067   6.216   6.859   1.280 -0.3620 -0.0619  0.3306
22209SOL    HW168068   6.148   6.831   1.218 -0.5825  1.4087 -0.1311
22209SOL    HW268069   6.177   6.934   1.325 -0.0485 -0.8556  1.9882
22210SOL     OW68070   6.040   6.811  11.402 -0.2691 -0.4469 -0.7876
22210SOL    HW168071   6.043   6.906  11.390 -0.5847 -0.5411 -1.6357
22210SOL    HW268072   6.114   6.778  11.352 -1.8119 -0.8704 -2.8991
22211SOL     OW68073   4.761   5.784   1.807 -0.5927  0.1229  0.1920
22211SOL    HW168074   4.845   5.806   1.847 -0.8105 -0.2258  0.8597
22211SOL    HW268075   4.708   5.752   1.880 -0.8170 -1.0396 -0.4591
22212SOL     OW68076   5.460   7.317   1.852 -0.3452  0.3267  0.1353
22212SOL    HW168077   5.515   7.277   1.785  0.7934  1.3403  0.4207
22212SOL    HW268078   5.412   7.386   1.806 -1.7095 -0.8171 -0.1953
22213SOL     OW68079   5.433   7.882   1.513 -0.2666  0.1566 -0.3568
22213SOL    HW168080   5.468   7.951   1.569  3.4380  0.4395 -2.7137
22213SOL    HW268081   5.489   7.807   1.528  0.3549 -0.0083 -2.9502
22214SOL     OW68082   6.933   7.309   3.338 -0.4316 -0.4232  0.3561
22214SOL    HW168083   7.015   7.268   3.365 -0.4458 -1.6588 -1.3431
22214SOL    HW268084   6.956   7.361   3.261 -1.2268 -0.7819 -0.1372
22215SOL     OW68085   5.718   4.272   2.619 -0.3303  0.1691  0.0594
22215SOL    HW168086   5.633   4.232   2.603 -1.4394  2.1096  0.8296
22215SOL    HW268087   5.719   4.290   2.713  1.2458 -0.4282  0.1912
22216SOL     OW68088   0.639   0.577   0.463 -0.3072  0.7519 -0.0086
22216SOL    HW168089   0.565   0.554   0.520 -0.4289  0.2929 -0.3513
22216SOL    HW268090   0.621   0.667   0.436  0.7102  1.7038  2.1931
22217SOL     OW68091   5.450   6.794  12.430 -0.4497 -0.0098 -0.2781
22217SOL    HW168092   5.366   6.806  12.474  0.4337 -0.8705  1.7350
22217SOL    HW268093   5.452   6.701  12.407 -0.0662  0.0264 -0.3950
22218SOL     OW68094   6.858   6.660   0.739 -0.1203  0.2809  0.3306
22218SOL    HW168095   6.901   6.579   0.769 -0.7997  0.0867  0.8002
22218SOL    HW268096   6.908   6.730   0.780  1.4423  0.1963 -1.2909
22219SOL     OW68097   7.871   7.107   0.272 -0.1663  0.1662 -0.6085
22219SOL    HW168098   7.950   7.082   0.320  0.0265 -1.5659 -1.7245
22219SOL    HW268099   7.854   7.198   0.298  2.5702  0.8297 -0.8335
22220SOL     OW68100   4.114   6.603   0.792 -0.4607  0.0581 -0.0609
22220SOL    HW168101   4.041   6.621   0.851 -1.0346  0.4475 -0.8650
22220SOL    HW268102   4.073   6.558   0.718 -0.3010  2.3013 -1.5967
22221SOL     OW68103   0.313   0.086   0.857  0.1200  0.1246  0.3098
22221SOL    HW168104   0.221   0.086   0.832 -0.2508 -1.8290  1.4400
22221SOL    HW268105   0.322   0.159   0.918 -0.9680 -0.3311  1.0394
22222SOL     OW68106   6.357   6.259   0.895  0.1001  0.2137 -0.4814
22222SOL    HW168107   6.447   6.235   0.917 -0.0617  0.4787  0.4961
22222SOL    HW268108   6.303   6.193   0.938 -0.2379  0.9907  0.3134
22223SOL     OW68109   6.631   5.071   0.130  0.6960 -0.2913  0.3971
22223SOL    HW168110   6.608   5.088   0.039  1.5914 -3.1084 -0.4475
22223SOL    HW268111   6.639   5.158   0.169  0.8700  1.0359 -2.3559
22224SOL     OW68112   5.322   7.956   3.223 -0.4997 -0.6611 -0.4741
22224SOL    HW168113   5.354   7.871   3.254  2.2549  0.4043 -0.0783
22224SOL    HW268114   5.355   8.019   3.287 -2.2438  0.7663 -0.9107
22225SOL     OW68115   7.767   2.037  11.827  0.5603 -0.3177 -0.1352
22225SOL    HW168116   7.704   2.100  11.861 -0.2691 -2.2767  2.2700
22225SOL    HW268117   7.722   1.995  11.753  0.3289  0.4567 -0.4453
22226SOL     OW68118   6.357   7.763   2.212  0.0952 -0.0970 -0.7780
22226SOL    HW168119   6.421   7.691   2.208  0.1855 -0.0329 -0.5024
22226SOL    HW268120   6.289   7.731   2.271  1.0188  0.7387  0.8018
22227SOL     OW68121   4.615   6.003   2.160  0.2505 -0.0670  0.2907
22227SOL    HW168122   4.595   5.935   2.096 -0.9632  0.1466  0.4189
22227SOL    HW268123   4.624   6.083   2.107 -0.1554 -0.0000  0.3197
22228SOL     OW68124   7.409   5.852   1.368  0.2524 -0.2395  0.0123
22228SOL    HW168125   7.492   5.806   1.386 -0.3054 -0.6122  1.9355
22228SOL    HW268126   7.408   5.924   1.431 -0.1299  0.8048 -1.1553
22229SOL     OW68127   6.263   1.204  12.462 -0.0619  0.0459 -0.4394
22229SOL    HW168128   6.267   1.296  12.439 -0.0101  0.3957  0.9191
22229SOL    HW268129   6.185   1.196  12.517  1.9477  0.0732  2.6554
22230SOL     OW68130   6.064   5.398   2.467  0.0580  0.0326 -0.1889
22230SOL    HW168131   6.072   5.348   2.386  2.8720 -1.2903  0.7660
22230SOL    HW268132   6.100   5.484   2.444  1.2292 -0.4612 -0.3160
22231SOL     OW68133   5.258   7.092   2.282  0.1225 -0.1302 -0.1034
22231SOL    HW168134   5.287   7.130   2.199  1.3012  0.3986  0.5132
22231SOL    HW268135   5.260   6.997   2.266 -0.6535 -0.0113 -0.9766
22232SOL     OW68136   7.709   7.836   2.055  0.1180 -0.6020  0.0036
22232SOL    HW168137   7.759   7.878   1.985  1.3101  0.3832  1.3809
22232SOL    HW268138   7.744   7.874   2.136 -1.4964 -1.3857  1.1311
22233SOL     OW68139   4.670   5.387   1.500  0.2125 -0.6518 -0.4993
22233SOL    HW168140   4.636   5.435   1.575  3.6467  0.8136  0.2993
22233SOL    HW268141   4.654   5.295   1.521 -3.6103 -0.1653 -0.5730
22234SOL     OW68142   6.920   7.392   1.589  0.2776  0.0375 -0.0783
22234SOL    HW168143   6.835   7.348   1.602  0.1266 -0.3671 -2.0716
22234SOL    HW268144   6.899   7.485   1.595 -0.4461 -0.0386 -1.0955
22235SOL     OW68145   5.063   4.790   0.593  0.3719 -0.2834 -0.1711
22235SOL    HW168146   5.020   4.844   0.659 -1.2704 -0.3214 -1.1475
22235SOL    HW268147   4.991   4.742   0.551  1.6324 -2.1742 -0.2793
22236SOL     OW68148   5.636   5.839   2.148  0.3684 -0.3889 -0.4040
22236SOL    HW168149   5.709   5.782   2.172 -0.8809 -1.8193  0.2241
22236SOL    HW268150   5.584   5.845   2.228  1.1687  2.9134  0.0255
22237SOL     OW68151   0.084   6.861   1.587 -0.3689  0.5055  0.5915
22237SOL    HW168152   0.093   6.782   1.640  1.3418  0.9351  0.9949
22237SOL    HW268153   0.024   6.917   1.637 -2.7083 -1.0233 -0.3571
22238SOL     OW68154   6.029   6.530   2.841 -0.0834  0.9696 -0.0171
22238SOL    HW168155   6.059   6.442   2.818 -1.9636  0.2486  0.1242
22238SOL    HW268156   6.092   6.588   2.798  1.4606 -0.4212  0.2479
22239SOL     OW68157   3.746   7.634   1.847 -0.3029  0.0900  0.4750
22239SOL    HW168158   3.786   7.562   1.896 -2.3159  0.0836  2.2553
22239SOL    HW268159   3.712   7.593   1.768 -0.2583 -0.6723  0.8406
22240SOL     OW68160   5.933   5.777   1.076 -0.2525  0.4577  0.3302
22240SOL    HW168161   5.952   5.865   1.042 -0.3908  0.8960  1.3404
22240SOL    HW268162   5.878   5.737   1.009  1.0682  0.5554 -0.8755
22241SOL     OW68163   1.486   5.992   0.626 -0.1004  0.1170  0.0052
22241SOL    HW168164   1.481   6.080   0.665  1.1878  0.9100 -1.4878
22241SOL    HW268165   1.564   5.953   0.664  0.0671  0.1476 -0.2991
22242SOL     OW68166   6.116   6.937   0.302 -0.2665  0.1927  0.1016
22242SOL    HW168167   6.109   7.031   0.282  0.1287  0.0674 -0.6578
22242SOL    HW268168   6.034   6.917   0.347 -0.9534  0.6299 -0.9033
22243SOL     OW68169   6.857   5.758  12.292 -0.4888 -0.3987 -0.6778
22243SOL    HW168170   6.941   5.803  12.293 -0.1155 -1.0650 -1.1814
22243SOL    HW268171   6.869   5.687  12.230 -1.2605 -0.8243 -0.3525
22244SOL     OW68172   6.441   7.729   1.908 -0.2661  0.1967  0.6469
22244SOL    HW168173   6.367   7.682   1.948 -0.5181  0.5965  0.6602
22244SOL    HW268174   6.447   7.810   1.958 -0.1843  0.4229  0.2708
22245SOL     OW68175   6.287   7.423   0.787  0.0736  0.2468 -0.6528
22245SOL    HW168176   6.205   7.409   0.833  0.6210  0.9955  0.6151
22245SOL    HW268177   6.319   7.335   0.768 -1.1891 -0.0464 -1.5232
22246SOL     OW68178   5.806   5.777  12.326  0.1667 -0.2316 -0.0749
22246SOL    HW168179   5.900   5.763  12.341  0.2734  0.8313  0.2998
22246SOL    HW268180   5.787   5.860  12.369 -1.0912 -0.7423  0.3797
22247SOL     OW68181   4.509   7.260   3.848  0.4045 -0.0317  0.5112
22247SOL    HW168182   4.587   7.305   3.817  0.4843  0.1862  1.0054
22247SOL    HW268183   4.449   7.331   3.873 -0.1945 -0.1942 -0.4482
22248SOL     OW68184   3.839   5.683   1.638  0.3949  0.0448 -0.1020
22248SOL    HW168185   3.828   5.588   1.648 -0.8253  0.1521 -0.2840
22248SOL    HW268186   3.805   5.719   1.720 -0.4851  0.3926 -0.6107
22249SOL     OW68187   0.382   6.587   0.829 -0.3854 -0.0107  0.2455
22249SOL    HW168188   0.406   6.566   0.920 -1.8103  2.2542  1.2390
22249SOL    HW268189   0.465   6.612   0.788  0.6021 -2.8634  0.2871
22250SOL     OW68190   6.993   7.625   2.209  0.2152  0.0591 -0.4310
22250SOL    HW168191   6.913   7.630   2.262  0.1896  0.4116 -0.5029
22250SOL    HW268192   7.037   7.708   2.223  0.3689  0.0285 -0.7113
22251SOL     OW68193   5.186   6.882   0.038 -0.0170  0.6071 -0.7580
22251SOL    HW168194   5.157   6.914  -0.048  1.0990 -0.2382 -1.4750
22251SOL    HW268195   5.169   6.788   0.035  1.8358  0.2412 -0.8327
22252SOL     OW68196   6.400   7.350   1.465 -0.4394  0.1394 -0.4287
22252SOL    HW168197   6.433   7.388   1.384  0.6722  2.1104  0.8519
22252SOL    HW268198   6.478   7.337   1.519 -0.9766 -2.5939 -0.1815
22253SOL     OW68199   5.222   6.297   0.735  0.1035  0.1726 -0.2297
22253SOL    HW168200   5.270   6.249   0.668 -0.0848 -0.8676  0.3516
22253SOL    HW268201   5.181   6.229   0.788 -0.4764  0.9957  0.4073
22254SOL     OW68202   6.439   0.105   1.604 -0.6444  0.2992 -0.8095
22254SOL    HW168203   6.486   0.187   1.615  1.2108 -0.8662  0.4274
22254SOL    HW268204   6.441   0.088   1.510  0.2515  0.9269 -0.9099
22255SOL     OW68205   6.054   6.078   0.325 -0.4913 -0.0411  0.5215
22255SOL    HW168206   6.027   5.988   0.305 -0.4842  0.1951 -0.6564
22255SOL    HW268207   6.015   6.097   0.410 -2.1320 -0.5053 -0.0846
22256SOL     OW68208   7.259   7.346  12.133  0.1586 -0.3554 -0.0532
22256SOL    HW168209   7.252   7.330  12.227  0.9005 -1.3191 -0.1445
22256SOL    HW268210   7.182   7.301  12.096  0.6616 -1.2692 -0.0282
22257SOL     OW68211   5.658   5.495   1.767  0.1993 -0.3384  0.5266
22257SOL    HW168212   5.568   5.524   1.750  0.0841 -0.5097  0.8417
22257SOL    HW268213   5.693   5.560   1.828  0.7779  0.5596 -0.7157
22258SOL     OW68214   4.260   6.261   0.132  0.5572  0.0133  0.5053
22258SOL    HW168215   4.326   6.289   0.197  0.1787  0.6870  0.6080
22258SOL    HW268216   4.186   6.320   0.147  0.6239  0.4591 -0.8261
22259SOL     OW68217   6.964   7.111   1.089  0.4248 -0.1683  0.7517
22259SOL    HW168218   6.998   7.186   1.040  1.0305  0.8233  2.5665
22259SOL    HW268219   6.871   7.106   1.064  0.4416  1.0193  0.3726
22260SOL     OW68220   3.608   5.115  12.078 -0.1552  0.0714 -0.1365
22260SOL    HW168221   3.671   5.183  12.056 -0.4027 -0.1076 -1.4934
22260SOL    HW268222   3.549   5.111  12.002 -1.1495 -0.4995  0.6384
22261SOL     OW68223   5.623   7.765   2.341  0.4786 -0.0905  0.0636
22261SOL    HW168224   5.544   7.713   2.326 -0.4148  1.1601  0.3038
22261SOL    HW268225   5.652   7.789   2.253  1.0686 -1.1931 -0.0679
22262SOL     OW68226   1.228   7.984   0.445 -0.4389  0.3023 -0.3762
22262SOL    HW168227   1.171   8.002   0.371 -0.2033 -2.3564 -1.3015
22262SOL    HW268228   1.285   7.912   0.416  1.4328  0.9021  1.5001
22263SOL     OW68229   5.670   4.944   1.507 -0.0677  0.5096  0.0087
22263SOL    HW168230   5.635   5.033   1.501 -0.6880  0.2503 -0.3169
22263SOL    HW268231   5.617   4.893   1.445 -0.7548 -0.4095  1.3049
22264SOL     OW68232   7.168   6.253   1.350 -0.4135  0.4268  0.2723
22264SOL    HW168233   7.194   6.311   1.279  1.7026 -1.2741 -0.4399
22264SOL    HW268234   7.090   6.208   1.318  1.5835 -1.7572 -1.9581
22265SOL     OW68235   7.651   7.227  12.477 -0.1269 -0.2267  0.1833
22265SOL    HW168236   7.569   7.245  12.524 -1.4368  0.1483 -2.1148
22265SOL    HW268237   7.654   7.132  12.470  0.6454 -0.3602  1.9097
22266SOL     OW68238   6.132   5.291   2.216  0.2126  0.0408  1.4586
22266SOL    HW168239   6.108   5.227   2.149 -0.3580  1.6081  0.0741
22266SOL    HW268240   6.224   5.312   2.196  1.0852 -1.7594  3.1905
22267SOL     OW68241   6.866   0.134   0.647 -0.3555  0.7138 -0.2060
22267SOL    HW168242   6.935   0.081   0.686 -1.0537  0.7141  1.1244
22267SOL    HW268243   6.831   0.184   0.721 -2.1797  0.2398 -0.6926
22268SOL     OW68244   3.773   4.602   0.336 -0.0474 -0.0232 -0.3754
22268SOL    HW168245   3.712   4.647   0.277 -0.1885 -0.4410 -0.5479
22268SOL    HW268246   3.753   4.638   0.422 -0.2621  0.1382 -0.4898
22269SOL     OW68247   6.051   5.721  12.391  1.1835  0.1206 -0.2667
22269SOL    HW168248   6.006   5.638  12.376  0.0541  0.7687 -0.5958
22269SOL    HW268249   6.076   5.719  12.483  0.1168 -0.0989  0.0333
22270SOL     OW68250   6.626   6.539   4.053 -0.1126 -0.9106  0.4973
22270SOL    HW168251   6.617   6.464   3.995  0.1984  0.5004 -1.4474
22270SOL    HW268252   6.687   6.598   4.009  0.1987  0.2139  2.2953
22271SOL     OW68253   6.752   7.107   3.309  0.0199 -0.8345  0.3084
22271SOL    HW168254   6.821   7.048   3.279  0.5313  0.7469 -1.9269
22271SOL    HW268255   6.795   7.192   3.317 -1.3200 -0.1465  0.5005
22272SOL     OW68256   6.271   6.858  11.956 -0.0223 -0.5621 -0.2178
22272SOL    HW168257   6.206   6.791  11.980 -1.0348  0.1649 -0.8156
22272SOL    HW268258   6.259   6.869  11.862 -0.9900  1.5561  0.1075
22273SOL     OW68259   7.496   7.210   0.233 -0.2346  0.2443  0.5659
22273SOL    HW168260   7.530   7.127   0.266 -1.5081 -0.9583 -1.0146
22273SOL    HW268261   7.431   7.238   0.297 -0.5846 -0.5583  0.5650
22274SOL     OW68262   5.272   6.072   2.848 -0.3341  0.2396 -0.9631
22274SOL    HW168263   5.270   6.118   2.932 -0.8092 -1.1082 -0.2097
22274SOL    HW268264   5.185   6.086   2.811 -0.6040 -0.3279 -0.5634
22275SOL     OW68265   4.178   5.654   3.349  0.1547 -0.0688 -0.1463
22275SOL    HW168266   4.233   5.731   3.364  0.3001  0.0882 -1.4370
22275SOL    HW268267   4.181   5.640   3.255 -0.6062 -1.1194 -0.0274
22276SOL     OW68268   6.375   5.033   0.387 -0.1433 -0.1665  0.5778
22276SOL    HW168269   6.458   5.030   0.435  0.7108  1.2509 -0.7069
22276SOL    HW268270   6.392   4.986   0.305 -0.5519  0.2592  0.2385
22277SOL     OW68271   6.006   5.516   2.061  0.0506 -0.1155  0.2855
22277SOL    HW168272   5.980   5.562   2.141  1.1180  1.6238 -0.3240
22277SOL    HW268273   6.059   5.442   2.092  0.2054  0.3606  1.1962
22278SOL     OW68274   5.287   4.528   1.912  0.6998  0.1838  0.2347
22278SOL    HW168275   5.286   4.591   1.983  0.7576 -0.4838  0.8386
22278SOL    HW268276   5.250   4.448   1.949  3.2842 -1.0701  0.4007
22279SOL     OW68277   7.581   6.837   0.551 -0.0612  0.1978  0.2760
22279SOL    HW168278   7.549   6.831   0.641  1.7689 -0.4019  0.9400
22279SOL    HW268279   7.633   6.758   0.539  0.5215  0.7441 -0.9861
22280SOL     OW68280   6.989   7.810   1.027 -0.3936  0.6267  0.3400
22280SOL    HW168281   6.943   7.893   1.043  0.2136  0.8262  1.0988
22280SOL    HW268282   6.923   7.753   0.987 -1.3621  0.8426  1.5695
22281SOL     OW68283   6.256   5.858   0.774  0.5437 -0.1543 -0.0784
22281SOL    HW168284   6.177   5.866   0.722 -0.6513 -0.1839  1.6673
22281SOL    HW268285   6.286   5.768   0.759  0.0614 -0.2468 -0.4898
22282SOL     OW68286   7.485   6.594  10.555  0.3933 -0.1637  0.0480
22282SOL    HW168287   7.537   6.518  10.581 -0.4762 -0.2039  1.8325
22282SOL    HW268288   7.394   6.565  10.564  0.0336  1.2206  1.3012
22283SOL     OW68289   7.619   7.522   1.668  0.0376  0.1224 -0.2184
22283SOL    HW168290   7.708   7.549   1.690 -0.7907  1.0624  2.3332
22283SOL    HW268291   7.601   7.447   1.725 -1.0068  0.3298 -0.2413
22284SOL     OW68292   5.057   6.471   1.134  0.2962 -0.4833 -0.1793
22284SOL    HW168293   5.086   6.383   1.112 -1.6308 -1.2177  0.0615
22284SOL    HW268294   4.983   6.459   1.194 -0.1968  1.2733 -0.3623
22285SOL     OW68295   6.321   4.229   0.322 -0.1244  0.3806 -1.4030
22285SOL    HW168296   6.340   4.304   0.265 -0.1167  0.7014 -0.9846
22285SOL    HW268297   6.400   4.218   0.375 -0.1508  0.1154 -1.4176
22286SOL     OW68298   6.203   1.167   2.731  0.2065 -0.6657  0.2271
22286SOL    HW168299   6.217   1.119   2.650  1.6980 -0.6210  0.4244
22286SOL    HW268300   6.271   1.135   2.790  1.0580  1.4198  0.4790
22287SOL     OW68301   6.603   5.216   0.892 -0.1304 -0.4174  0.2905
22287SOL    HW168302   6.675   5.159   0.865 -0.8130 -0.7900 -0.8281
22287SOL    HW268303   6.596   5.280   0.821 -0.6644 -0.1586  0.5698
22288SOL     OW68304   7.168   7.715   1.753  0.1578 -1.0967  0.0229
22288SOL    HW168305   7.180   7.763   1.671 -2.6172 -1.3851 -0.6624
22288SOL    HW268306   7.253   7.718   1.796  0.5864  2.9530 -0.7657
22289SOL     OW68307   1.425   6.954   3.222  0.3642  0.2584  0.0325
22289SOL    HW168308   1.332   6.948   3.202  0.0570  0.1824  1.3863
22289SOL    HW268309   1.445   6.873   3.269  0.9044  0.6536  0.4954
22290SOL     OW68310   0.387   1.354   1.273 -0.3010 -0.0201  0.1547
22290SOL    HW168311   0.303   1.351   1.319  0.1236  2.7185  1.3238
22290SOL    HW268312   0.364   1.375   1.182 -0.9907 -2.5731 -0.3189
22291SOL     OW68313   5.857   6.442   1.105  0.1106 -0.2067  0.6870
22291SOL    HW168314   5.940   6.397   1.091 -0.8852 -1.2208 -3.2240
22291SOL    HW268315   5.818   6.448   1.017 -3.0177  2.0860  2.0483
22292SOL     OW68316   5.116   7.270   1.641 -0.1111  0.1076  0.1239
22292SOL    HW168317   5.183   7.338   1.650 -0.2046  0.0797  1.2146
22292SOL    HW268318   5.097   7.244   1.731  1.5827 -3.0080 -0.2853
22293SOL     OW68319   6.195   4.745   0.666 -0.2649 -0.3214  0.2324
22293SOL    HW168320   6.291   4.747   0.667 -0.2749  0.5554  0.4639
22293SOL    HW268321   6.173   4.749   0.573 -0.0799 -2.2430  0.0623
22294SOL     OW68322   6.110   7.769   1.394  0.1163  0.1004  0.4513
22294SOL    HW168323   6.063   7.703   1.444 -0.1735  0.8101  1.1514
22294SOL    HW268324   6.060   7.780   1.314 -0.5672  0.3905  0.9089
22295SOL     OW68325   7.665   0.266   1.164  0.2357 -0.1889  0.2140
22295SOL    HW168326   7.621   0.182   1.177  0.7788 -0.1953  2.3719
22295SOL    HW268327   7.598   0.332   1.184  0.5941 -0.1797  1.4915
22296SOL     OW68328   5.723   6.303   1.850  0.3349  0.3507  0.4308
22296SOL    HW168329   5.741   6.227   1.795  0.1911  1.6371 -1.4902
22296SOL    HW268330   5.673   6.268   1.924 -1.4189 -1.1903 -1.3488
22297SOL     OW68331   7.030   5.657   1.867 -0.2958 -0.1194  0.4382
22297SOL    HW168332   6.942   5.652   1.906 -0.1662  3.2802  1.4190
22297SOL    HW268333   7.089   5.633   1.938 -0.3304 -0.5112  0.3378
22298SOL     OW68334   6.560   7.036   0.765 -0.2414  0.1639  0.1143
22298SOL    HW168335   6.595   6.987   0.691  0.8637  1.1642 -0.0647
22298SOL    HW268336   6.582   7.127   0.745 -2.3284  0.7760  0.3750
22299SOL     OW68337   6.641   1.619   0.927  0.1609  0.6081  0.1013
22299SOL    HW168338   6.685   1.683   0.872 -0.4311  1.0493  0.1329
22299SOL    HW268339   6.601   1.670   0.997 -1.5507  0.3977 -0.6665
22300SOL     OW68340   0.326   6.773  11.600  0.1008 -0.4066  0.0345
22300SOL    HW168341   0.246   6.762  11.549 -0.2529  1.0958  0.2253
22300SOL    HW268342   0.357   6.684  11.616 -1.6107 -1.0158  0.0895
22301SOL     OW68343   6.980   7.556  12.054 -0.3137 -0.0566  0.3884
22301SOL    HW168344   6.931   7.500  12.114  0.8142 -1.0873  0.3922
22301SOL    HW268345   7.072   7.535  12.071  0.0927  0.9534 -0.4350
22302SOL     OW68346   3.531   6.094   2.439  0.6497  0.2404 -0.4023
22302SOL    HW168347   3.538   6.188   2.454  0.7441 -0.0262  1.4495
22302SOL    HW268348   3.593   6.055   2.501 -0.3213 -1.0970 -0.2204
22303SOL     OW68349   7.902   7.055   3.978  0.0102 -0.2295 -0.6641
22303SOL    HW168350   7.846   7.104   4.039 -0.1648  0.7723 -1.5803
22303SOL    HW268351   7.889   6.963   4.001  1.1809  0.1449  1.8449
22304SOL     OW68352   6.925   6.467   1.496 -0.1856  0.4389 -0.1142
22304SOL    HW168353   6.847   6.517   1.473 -0.1028  1.3069  1.3600
22304SOL    HW268354   6.894   6.400   1.557  0.2102  0.8445  0.5511
22305SOL     OW68355   6.340   0.067   3.508  0.7985  0.0871 -0.3647
22305SOL    HW168356   6.360   0.079   3.415  3.3338 -1.5715 -0.1317
22305SOL    HW268357   6.289  -0.013   3.512  0.2571  0.4278 -0.3480
22306SOL     OW68358   4.450   7.668  12.357  0.2982  0.2262  0.2054
22306SOL    HW168359   4.365   7.625  12.352  0.4483  0.0226 -1.1334
22306SOL    HW268360   4.433   7.757  12.326  1.0719 -0.6887 -3.2964
22307SOL     OW68361   7.228   7.042   1.173  0.0616  0.1775  0.1578
22307SOL    HW168362   7.151   7.082   1.132 -0.3182  0.1229  0.7982
22307SOL    HW268363   7.198   7.015   1.259  0.1506 -2.0058 -0.4332
22308SOL     OW68364   6.395   7.005   2.032  0.4600  0.1730  0.3421
22308SOL    HW168365   6.370   7.039   1.946 -0.4383 -0.6454  0.2694
22308SOL    HW268366   6.422   6.915   2.015 -2.0206 -0.8191  1.2038
22309SOL     OW68367   6.040   5.852   0.585  0.3267  0.1983 -0.1874
22309SOL    HW168368   5.946   5.844   0.600  0.5470 -0.5517  0.9427
22309SOL    HW268369   6.051   5.839   0.491 -0.9670  3.1649 -0.8513
22310SOL     OW68370   4.763   0.338  11.666  0.5506 -0.6339  0.1001
22310SOL    HW168371   4.755   0.274  11.596  2.2719 -0.0326 -0.6894
22310SOL    HW268372   4.834   0.396  11.638 -0.4713  1.1925  1.1250
22311SOL     OW68373   7.010   6.312   2.708  0.4712 -0.0226 -0.1969
22311SOL    HW168374   6.942   6.259   2.750  1.6949  0.0147  1.9352
22311SOL    HW268375   7.039   6.260   2.633 -3.4357  0.9407 -2.6981
22312SOL     OW68376   5.804   6.576   3.476  0.3030  0.0840 -0.0221
22312SOL    HW168377   5.799   6.524   3.395  1.2178  0.6783 -0.4827
22312SOL    HW268378   5.868   6.530   3.530 -0.3656 -0.3560  0.4147
22313SOL     OW68379   5.038   5.936   1.018  0.1137  0.2602 -0.3929
22313SOL    HW168380   4.950   5.899   1.007  1.1723 -2.2776 -1.3257
22313SOL    HW268381   5.063   5.911   1.107  0.6123 -0.9043 -0.8298
22314SOL     OW68382   6.579   5.439   1.065 -0.4954  0.2163 -0.1485
22314SOL    HW168383   6.613   5.375   1.004 -0.5707 -0.0621  0.0973
22314SOL    HW268384   6.656   5.482   1.101 -0.4709  0.7546 -0.8333
22315SOL     OW68385   5.640   6.697   2.310 -0.3401 -0.4614 -0.1390
22315SOL    HW168386   5.663   6.695   2.402 -3.3775 -1.6580  0.7209
22315SOL    HW268387   5.678   6.616   2.274  1.1779  0.1977 -0.0908
22316SOL     OW68388   6.066   7.037   1.405  0.2514 -0.0151  0.0090
22316SOL    HW168389   6.087   7.125   1.436  0.2651 -0.3106  0.8600
22316SOL    HW268390   5.990   7.049   1.347  1.0289  0.7099 -0.8961
22317SOL     OW68391   7.701   7.634   1.250 -0.2179 -1.0694 -0.0255
22317SOL    HW168392   7.699   7.572   1.323 -0.8708  0.3763  1.2389
22317SOL    HW268393   7.611   7.664   1.241  0.4878  1.7574  1.2874
22318SOL     OW68394   3.582   7.088   2.930 -0.3193 -0.0023 -0.2441
22318SOL    HW168395   3.513   7.025   2.952 -0.6653 -0.3450 -2.1736
22318SOL    HW268396   3.547   7.173   2.958 -1.0446 -0.3087 -0.1981
22319SOL     OW68397   7.620   6.516   0.422  0.1882  0.3011 -0.2496
22319SOL    HW168398   7.680   6.546   0.490  0.6684 -3.1799  1.0283
22319SOL    HW268399   7.533   6.520   0.463  0.3750 -0.9912  0.2801
22320SOL     OW68400   5.698   5.337   0.853  0.3893 -0.3042 -0.4362
22320SOL    HW168401   5.775   5.383   0.887  0.2651 -0.2622 -0.2052
22320SOL    HW268402   5.729   5.250   0.830  0.1976 -0.8214  1.1130
22321SOL     OW68403   7.966   5.515   0.017 -0.9640 -0.0681  0.0975
22321SOL    HW168404   7.908   5.526   0.092 -0.7915 -1.1896  0.4161
22321SOL    HW268405   7.909   5.483  -0.053 -0.4517 -3.3629  1.0353
22322SOL     OW68406   5.472   6.761   0.887 -0.5366 -0.0902 -0.0131
22322SOL    HW168407   5.516   6.840   0.922  0.1051 -0.0818 -0.8091
22322SOL    HW268408   5.410   6.795   0.823 -0.7760 -0.1906  0.1653
22323SOL     OW68409   4.718   4.410   1.315  0.2753 -0.1802 -0.0199
22323SOL    HW168410   4.639   4.434   1.267  0.4907  0.1616 -0.2063
22323SOL    HW268411   4.745   4.491   1.359  1.3980  0.1260 -1.2111
22324SOL     OW68412   5.892   7.148   2.259 -0.2280  0.1214 -0.3109
22324SOL    HW168413   5.809   7.102   2.247 -0.1785 -0.0678  0.0361
22324SOL    HW268414   5.934   7.102   2.332 -0.6622  1.3768  0.7633
22325SOL     OW68415   6.713   7.099   1.006 -0.6249 -0.2782 -0.0964
22325SOL    HW168416   6.644   7.151   1.046 -0.7522 -1.4704  1.3543
22325SOL    HW268417   6.675   7.065   0.925 -0.9943  0.7498 -0.3617
22326SOL     OW68418   6.377   5.936   1.406  0.3651  0.2396 -0.0621
22326SOL    HW168419   6.406   5.848   1.433 -0.7401  0.2909  1.4326
22326SOL    HW268420   6.301   5.920   1.350  0.5454  0.2240 -0.3018
22327SOL     OW68421   6.349   7.601   2.665 -0.2404  0.5609 -0.0235
22327SOL    HW168422   6.421   7.607   2.603 -0.7635  1.4240 -0.5690
22327SOL    HW268423   6.382   7.646   2.743  0.2009 -0.0040  0.1228
22328SOL     OW68424   5.017   6.281   2.148  0.0457 -0.3710  0.3288
22328SOL    HW168425   5.028   6.348   2.081 -0.4605 -0.2589  0.3572
22328SOL    HW268426   5.061   6.317   2.225  0.5057 -0.4402  0.1031
22329SOL     OW68427   4.760   6.822   2.073 -0.5729  0.0957  0.0119
22329SOL    HW168428   4.832   6.886   2.066  1.5518 -2.2814 -1.7517
22329SOL    HW268429   4.772   6.783   2.160  0.4876 -0.4684 -0.3720
22330SOL     OW68430   4.322   6.296   2.481 -0.1302 -0.3083  0.3986
22330SOL    HW168431   4.373   6.217   2.462  0.0162 -0.3761  1.0356
22330SOL    HW268432   4.387   6.365   2.494 -0.2835  0.5806 -2.6960
22331SOL     OW68433   6.651   6.463   1.529 -0.1909  0.7675  0.0154
22331SOL    HW168434   6.634   6.374   1.498  0.0162  0.3137  1.1504
22331SOL    HW268435   6.632   6.459   1.623  1.7537  1.3918  0.4751
22332SOL     OW68436   6.371   5.001   0.893  0.1595 -0.3172  0.8057
22332SOL    HW168437   6.313   5.072   0.922 -0.1830 -0.1409 -0.2450
22332SOL    HW268438   6.448   5.046   0.860  0.0853 -0.4465  0.4514
22333SOL     OW68439   6.691   6.412   0.818 -0.4069  0.6234 -0.1621
22333SOL    HW168440   6.726   6.488   0.771 -1.0574  0.3643 -1.1067
22333SOL    HW268441   6.623   6.377   0.759  0.7310 -1.4402 -0.3421
22334SOL     OW68442   5.469   2.294   2.455 -0.0986 -0.3773  0.1217
22334SOL    HW168443   5.473   2.389   2.446  0.7638 -0.4961 -0.9612
22334SOL    HW268444   5.459   2.279   2.549  1.8719  0.7477  0.5782
22335SOL     OW68445   6.371   7.403   2.036  0.0735  0.5334 -0.2357
22335SOL    HW168446   6.311   7.332   2.060 -1.4519  1.7319 -0.3882
22335SOL    HW268447   6.316   7.469   1.994  1.9298  0.4214 -3.1841
22336SOL     OW68448   7.424   7.678   1.853  0.1989 -0.1089  0.2013
22336SOL    HW168449   7.498   7.640   1.804 -0.6681 -1.4000 -0.1569
22336SOL    HW268450   7.448   7.667   1.945  0.3198 -0.8098  0.0915
22337SOL     OW68451   5.580   5.332  11.970  0.1124  0.1521  0.3680
22337SOL    HW168452   5.550   5.317  11.880  0.7157  0.8580  0.0456
22337SOL    HW268453   5.507   5.379  12.011 -0.1125 -0.0546  0.2115
22338SOL     OW68454   5.630   6.651   2.584 -0.6148  0.3012  0.6296
22338SOL    HW168455   5.666   6.707   2.653 -1.4956 -1.1751  2.3681
22338SOL    HW268456   5.678   6.569   2.592 -0.8737  0.0296 -0.4073
22339SOL     OW68457   6.534   7.436   3.394 -0.2640 -0.2670  0.4410
22339SOL    HW168458   6.536   7.467   3.303  0.2255 -0.3545  0.4183
22339SOL    HW268459   6.481   7.357   3.391 -0.3468 -0.2071  0.2538
22340SOL     OW68460   5.312   6.364   1.834 -0.2209 -0.1658  0.1081
22340SOL    HW168461   5.304   6.285   1.889  0.2842 -1.4342 -1.5721
22340SOL    HW268462   5.230   6.366   1.785 -0.1900  0.3224  0.0773
22341SOL     OW68463   7.405   0.733   0.819  0.3261  0.2805  0.0210
22341SOL    HW168464   7.334   0.738   0.755  0.1450  0.7254  0.2495
22341SOL    HW268465   7.417   0.640   0.835  0.7284  0.1373 -1.0435
22342SOL     OW68466   6.059   7.909   0.885 -0.4464 -0.0824  0.4043
22342SOL    HW168467   6.060   7.827   0.835  1.5274 -0.8329  1.5979
22342SOL    HW268468   6.122   7.896   0.955  1.6147  3.2373 -0.6033
22343SOL     OW68469   7.261   6.007   2.076 -0.0787  0.3423 -0.2943
22343SOL    HW168470   7.265   6.064   2.153 -0.7313 -0.8129  0.6352
22343SOL    HW268471   7.239   5.921   2.112 -0.1207 -0.2767 -1.7599
22344SOL     OW68472   5.883   0.786   3.075  0.2141  0.1199 -0.2191
22344SOL    HW168473   5.848   0.707   3.116  2.1235 -0.7639 -0.1578
22344SOL    HW268474   5.865   0.856   3.138  0.4701 -0.6829  0.7781
22345SOL     OW68475   4.994   3.631  11.175  0.6683 -0.5704 -0.0538
22345SOL    HW168476   5.053   3.600  11.106  2.4094 -0.2684  1.2167
22345SOL    HW268477   5.046   3.695  11.224  0.2999 -2.3277  2.8644
22346SOL     OW68478   5.133   3.044  12.367  0.0149 -0.0345  0.1161
22346SOL    HW168479   5.151   3.058  12.460  0.2704  0.1302  0.0446
22346SOL    HW268480   5.100   3.129  12.336 -0.6717 -0.2698  0.1958
22347SOL     OW68481   7.945   7.563   0.002  0.2918 -0.2509  0.2765
22347SOL    HW168482   7.995   7.572  -0.079 -0.9467 -1.3174 -0.6372
22347SOL    HW268483   7.939   7.469   0.017 -1.3095 -0.1572  0.4319
22348SOL     OW68484   4.145   7.525   2.931  0.4867  0.2821  0.1927
22348SOL    HW168485   4.222   7.468   2.937  0.8343  0.7251 -0.0491
22348SOL    HW268486   4.159   7.577   2.853 -0.1763  0.2067  0.0180
22349SOL     OW68487   5.997   7.426   0.880  0.2567 -0.3757 -0.9449
22349SOL    HW168488   5.944   7.356   0.841 -0.8961 -0.3266  0.4536
22349SOL    HW268489   5.963   7.434   0.970  1.8887  0.4448 -0.3698
22350SOL     OW68490   6.525   0.179   1.889  0.1681  0.1070  0.0326
22350SOL    HW168491   6.605   0.146   1.929  0.2769 -0.3136 -0.5311
22350SOL    HW268492   6.473   0.101   1.870 -0.7425  0.4053  1.1379
22351SOL     OW68493   6.498   5.909   0.855 -0.0768  0.6289 -0.2690
22351SOL    HW168494   6.402   5.911   0.845  0.0383  0.1731 -1.6449
22351SOL    HW268495   6.513   5.859   0.935 -0.9883  0.6128 -0.0974
22352SOL     OW68496   7.503   0.308   2.232  0.7315 -0.2300  0.4420
22352SOL    HW168497   7.500   0.296   2.137  0.9064 -1.5607  0.5889
22352SOL    HW268498   7.526   0.400   2.244  0.9903 -0.1164 -0.8058
22353SOL     OW68499   6.699   6.777   2.836 -0.9131  0.1917  0.3464
22353SOL    HW168500   6.748   6.738   2.908 -1.7392 -0.2985  0.6544
22353SOL    HW268501   6.726   6.727   2.759  0.1967  0.9123  0.2451
22354SOL     OW68502   5.658   3.094   1.095 -0.9987 -0.4517  0.0732
22354SOL    HW168503   5.714   3.058   1.163 -3.2183  1.5898  3.2915
22354SOL    HW268504   5.571   3.058   1.114 -2.0416  1.6063 -0.4301
22355SOL     OW68505   6.135   5.938  12.259 -0.0833 -0.1290  0.8822
22355SOL    HW168506   6.065   5.978  12.207  1.9546  0.9246 -1.2662
22355SOL    HW268507   6.095   5.861  12.298 -2.2224 -0.0395 -0.9244
22356SOL     OW68508   5.342   6.557   0.381 -0.2344  0.6220 -0.1127
22356SOL    HW168509   5.417   6.509   0.417  0.5163  0.7892 -1.4165
22356SOL    HW268510   5.376   6.644   0.362 -0.8865  0.8456 -0.2592
22357SOL     OW68511   5.874   5.669   2.349  0.0354  0.0278 -0.2028
22357SOL    HW168512   5.894   5.713   2.432  2.3280  0.0394 -0.6893
22357SOL    HW268513   5.807   5.605   2.371 -0.8374  1.3754  1.2422
22358SOL     OW68514   7.504   6.843   0.817 -0.1991 -0.1975 -0.0138
22358SOL    HW168515   7.443   6.916   0.829 -1.3192 -0.7062 -2.1156
22358SOL    HW268516   7.465   6.771   0.866 -0.1986  0.0229  0.3170
22359SOL     OW68517   4.710   7.491   2.349  0.4692 -0.0686  0.2645
22359SOL    HW168518   4.756   7.519   2.428  0.2314 -1.9744  1.1242
22359SOL    HW268519   4.758   7.534   2.278  1.5630  0.5686  1.3408
22360SOL     OW68520   5.676   6.427   1.325  0.0038 -0.5303  0.3714
22360SOL    HW168521   5.744   6.422   1.258  0.2994  1.5528  0.4667
22360SOL    HW268522   5.724   6.442   1.407 -0.5309  2.0237  0.2984
22361SOL     OW68523   7.315   6.746   1.529  0.6259 -0.0729  0.4633
22361SOL    HW168524   7.308   6.838   1.505 -1.6924 -0.3084  0.0398
22361SOL    HW268525   7.408   6.733   1.546  0.9882  2.3650  0.6663
22362SOL     OW68526   5.292   4.401  12.264 -0.7625 -0.2854  0.2767
22362SOL    HW168527   5.258   4.488  12.243 -1.0527 -0.3844  0.3262
22362SOL    HW268528   5.362   4.417  12.328 -0.7667 -0.0842  0.2314
22363SOL     OW68529   3.988   6.550  12.374 -0.0711  0.0351 -0.0644
22363SOL    HW168530   4.023   6.548  12.285  0.6746  0.4848  0.2181
22363SOL    HW268531   3.896   6.525  12.363 -0.4405  1.6950 -1.1710
22364SOL     OW68532   0.374   6.059   2.289  0.0753 -0.1847 -0.1732
22364SOL    HW168533   0.296   6.082   2.340 -0.1575 -0.8831 -0.1983
22364SOL    HW268534   0.411   6.143   2.261 -0.1782  0.1776  0.5741
22365SOL     OW68535   5.842   6.265  11.924  0.8509  0.3277 -0.1195
22365SOL    HW168536   5.796   6.204  11.867 -0.9637  0.9987  0.5302
22365SOL    HW268537   5.845   6.347  11.875  0.6018  0.5076  0.1593
22366SOL     OW68538   4.672   6.092   1.204 -0.8087 -0.3665 -0.3084
22366SOL    HW168539   4.587   6.053   1.222  0.0209 -2.2829 -0.2883
22366SOL    HW268540   4.730   6.055   1.270 -0.2970  2.4158  0.9158
22367SOL     OW68541   7.118   5.787   2.130  0.7943 -0.0409 -0.1849
22367SOL    HW168542   7.118   5.708   2.184 -0.2922  0.3415  0.3931
22367SOL    HW268543   7.027   5.798   2.104  1.0367  0.7044 -0.7467
22368SOL     OW68544   5.663   7.232   1.694  0.0645 -0.2674  0.0343
22368SOL    HW168545   5.660   7.140   1.668 -0.8946 -0.3508  0.3989
22368SOL    HW268546   5.740   7.238   1.751 -0.5204 -1.0981  0.9353
22369SOL     OW68547   4.814   7.240   2.455 -0.3609  0.3857  0.2294
22369SOL    HW168548   4.814   7.329   2.420 -0.2005  0.4404  0.3672
22369SOL    HW268549   4.905   7.224   2.480 -0.4339  0.2736  0.4286
22370SOL     OW68550   6.654   7.277   0.666 -0.4347  0.5129  0.1011
22370SOL    HW168551   6.715   7.347   0.691  0.3349 -0.3199  0.6128
22370SOL    HW268552   6.637   7.293   0.573  1.4425  0.1435 -0.3480
22371SOL     OW68553   6.146   5.070   0.661  0.0506 -0.1962  0.5333
22371SOL    HW168554   6.130   4.982   0.626 -0.3312  0.7032 -1.7035
22371SOL    HW268555   6.208   5.056   0.733  0.8523 -2.1849 -0.4583
22372SOL     OW68556   0.332   7.293   0.409 -0.2843  0.1422  0.3056
22372SOL    HW168557   0.402   7.228   0.399  0.7784  0.9847  1.8838
22372SOL    HW268558   0.318   7.299   0.504  0.3443  2.8874  0.3000
22373SOL     OW68559   5.662   6.125   2.779 -0.1334 -0.1319  0.1005
22373SOL    HW168560   5.603   6.182   2.828 -1.7823 -0.6199 -1.1972
22373SOL    HW268561   5.687   6.057   2.841 -0.0944  0.6565  0.9678
22374SOL     OW68562   6.051   6.312   3.128 -0.2508 -0.4664 -0.5839
22374SOL    HW168563   6.052   6.239   3.189  1.5339 -0.0667 -0.0825
22374SOL    HW268564   6.007   6.277   3.050  1.7575 -2.5610 -0.8993
22375SOL     OW68565   6.324   7.602   0.568  0.0893 -0.1158 -0.4672
22375SOL    HW168566   6.323   7.529   0.630 -0.1806  0.3402  0.0778
22375SOL    HW268567   6.415   7.606   0.538 -0.0653 -1.1844 -1.1316
22376SOL     OW68568   0.052   6.402   0.469 -0.5143 -0.1917 -0.1936
22376SOL    HW168569   0.009   6.359   0.543 -1.0374  0.5278 -0.0678
22376SOL    HW268570   0.111   6.336   0.434 -0.5559 -0.6772  0.6188
22377SOL     OW68571   6.657   7.468  10.977  0.1251 -0.3972 -0.4706
22377SOL    HW168572   6.691   7.400  11.035 -1.6276 -1.1208 -0.2233
22377SOL    HW268573   6.606   7.420  10.911 -1.7104  0.6605  0.0966
22378SOL     OW68574   5.778   7.375   0.438 -0.0541  0.3512  0.4440
22378SOL    HW168575   5.815   7.394   0.352  0.2081  1.1229  0.7219
22378SOL    HW268576   5.825   7.297   0.468 -1.6547 -1.2848 -1.0273
22379SOL     OW68577   7.004   0.251   1.595 -0.1342  0.7440  0.6697
22379SOL    HW168578   6.949   0.329   1.589 -0.8731  0.1519 -0.5966
22379SOL    HW268579   6.942   0.178   1.596  0.4803  0.1555  3.0180
22380SOL     OW68580   7.334   6.785   1.860  0.9763 -0.1846 -0.2306
22380SOL    HW168581   7.347   6.818   1.949  1.4814 -1.3043  0.1215
22380SOL    HW268582   7.252   6.736   1.865  1.0257 -0.2805 -0.3797
22381SOL     OW68583   6.621   6.637   0.553 -0.0614  0.7287 -0.2519
22381SOL    HW168584   6.565   6.703   0.594  1.0863  0.2676  2.2252
22381SOL    HW268585   6.706   6.681   0.543 -0.3697  0.9307 -2.5604
22382SOL     OW68586   5.582   0.497   1.655 -0.2339 -0.6540  0.2549
22382SOL    HW168587   5.524   0.553   1.707  1.4825  1.4668  0.0244
22382SOL    HW268588   5.552   0.508   1.565 -0.2083 -0.5294  0.2623
22383SOL     OW68589   7.382   5.590   0.384  0.1189 -0.0227 -0.3649
22383SOL    HW168590   7.379   5.537   0.464  0.0329  1.2894  0.5476
22383SOL    HW268591   7.470   5.628   0.384  0.2991 -0.4200 -1.1854
22384SOL     OW68592   5.617   7.348  12.481 -0.6335 -0.3911  0.1969
22384SOL    HW168593   5.600   7.324  12.572 -0.8886 -1.3770 -0.1050
22384SOL    HW268594   5.612   7.444  12.481 -0.5357 -0.3708  1.2350
22385SOL     OW68595   6.113   7.797   0.568 -0.4902  0.0470 -0.0488
22385SOL    HW168596   6.162   7.720   0.596 -1.5979 -0.3402  0.9192
22385SOL    HW268597   6.069   7.770   0.487 -0.7515 -0.2942  0.2060
22386SOL     OW68598   5.046   0.770   1.629  0.9163  0.5617 -0.4524
22386SOL    HW168599   4.969   0.712   1.624  1.3908 -0.2589  1.1994
22386SOL    HW268600   5.093   0.741   1.707  2.4159  1.6800 -0.9006
22387SOL     OW68601   4.181   6.937   2.085  0.5865  0.2659 -0.4051
22387SOL    HW168602   4.150   7.025   2.103  0.6177  0.1437  0.2894
22387SOL    HW268603   4.131   6.909   2.008 -0.9179  0.1459  0.5717
22388SOL     OW68604   0.212   7.622   1.108  0.0251 -1.0399 -0.3866
22388SOL    HW168605   0.166   7.538   1.115  0.1235 -1.1648 -1.1225
22388SOL    HW268606   0.143   7.686   1.095  0.0590 -1.3493 -2.5201
22389SOL     OW68607   6.622   7.585   1.604  0.3122  0.1062  0.4625
22389SOL    HW168608   6.703   7.630   1.582  0.2608 -0.0116  0.0256
22389SOL    HW268609   6.558   7.654   1.618  0.2520  0.1689 -0.1310
22390SOL     OW68610   7.147   5.838   1.676 -0.2884  0.1525  0.3635
22390SOL    HW168611   7.085   5.792   1.732 -2.0117  1.1270 -0.6852
22390SOL    HW268612   7.154   5.926   1.714  0.7440 -0.0485  0.6714
22391SOL     OW68613   6.149   0.680   1.226 -0.0604 -0.1853 -0.5997
22391SOL    HW168614   6.056   0.705   1.230 -0.0980 -0.1919 -1.3059
22391SOL    HW268615   6.188   0.744   1.165  0.0901 -1.0998 -1.4835
22392SOL     OW68616   4.615   1.086   1.956 -0.3391 -0.3345 -0.5280
22392SOL    HW168617   4.587   1.151   2.021 -3.3473 -2.3404  0.4045
22392SOL    HW268618   4.658   1.018   2.007 -0.4700 -0.7578 -0.9729
22393SOL     OW68619   5.437   6.631   1.993 -0.2096 -0.0219  0.3567
22393SOL    HW168620   5.457   6.716   2.030 -0.3215  0.4998 -0.7442
22393SOL    HW268621   5.446   6.643   1.898 -0.7780 -1.0804  0.1487
22394SOL     OW68622   5.854   6.487   0.789  0.0428  0.0687 -0.1710
22394SOL    HW168623   5.934   6.436   0.782  0.6574  1.0528 -0.4651
22394SOL    HW268624   5.872   6.567   0.740  0.1852  1.9013  2.6384
22395SOL     OW68625   7.816   5.558   0.258  0.2095  0.2517  0.6975
22395SOL    HW168626   7.780   5.476   0.291 -1.4497  0.3717 -0.6820
22395SOL    HW268627   7.775   5.626   0.311  0.5809  0.2516  0.9847
22396SOL     OW68628   6.522   5.137   1.163 -0.4801  0.5978 -0.6050
22396SOL    HW168629   6.575   5.058   1.156 -0.4103  0.4931  0.9511
22396SOL    HW268630   6.538   5.184   1.080  1.7625  0.4030 -0.3352
22397SOL     OW68631   6.198   7.525  11.991 -0.1816  0.2054 -0.6731
22397SOL    HW168632   6.210   7.435  12.021  2.2095  1.1775  1.6459
22397SOL    HW268633   6.114   7.523  11.944 -2.6427 -2.2958  3.2348
22398SOL     OW68634   4.814   6.072  10.833 -0.0217  0.0805  0.5637
22398SOL    HW168635   4.878   6.055  10.764  1.6325  1.5449  1.6450
22398SOL    HW268636   4.757   6.139  10.797 -1.1212 -1.3372 -0.4628
22399SOL     OW68637   0.004   4.733   0.613 -0.5943 -0.4028  0.2391
22399SOL    HW168638  -0.073   4.788   0.597  0.0795  0.6479  0.4548
22399SOL    HW268639   0.078   4.795   0.613  0.3987 -1.5160 -1.1135
22400SOL     OW68640   7.742   7.443   1.419  0.1493  0.0787  0.2342
22400SOL    HW168641   7.815   7.412   1.472  0.3253 -1.2405 -0.7297
22400SOL    HW268642   7.665   7.431   1.475  0.2862 -1.6280  0.1256
22401SOL     OW68643   7.457   7.683  11.774 -0.3161  0.0553  0.1292
22401SOL    HW168644   7.465   7.611  11.711  1.4745 -0.0714  0.4677
22401SOL    HW268645   7.401   7.747  11.730 -1.3800 -1.2281 -0.4518
22402SOL     OW68646   5.572   6.478   0.799  0.2254  0.7947  0.1945
22402SOL    HW168647   5.553   6.555   0.746  0.7540  0.3751 -0.6386
22402SOL    HW268648   5.664   6.458   0.780  0.0849 -0.0566  0.3711
22403SOL     OW68649   5.425   5.831   2.862  0.3308 -0.2770 -0.3942
22403SOL    HW168650   5.390   5.917   2.843  0.3033 -0.1508  0.1925
22403SOL    HW268651   5.348   5.776   2.877  0.3113  0.4050  2.6559
22404SOL     OW68652   5.405   5.094   2.099 -0.0590 -0.0292 -0.2164
22404SOL    HW168653   5.314   5.097   2.071 -1.3701 -1.1390  3.3872
22404SOL    HW268654   5.434   5.005   2.078 -0.4859 -0.3196  0.3956
22405SOL     OW68655   5.835   7.566   2.292  0.4192  0.5628 -0.3281
22405SOL    HW168656   5.880   7.593   2.372  1.4941  0.1314 -0.7654
22405SOL    HW268657   5.744   7.552   2.319  0.9546 -0.5428  1.0474
22406SOL     OW68658   5.200   5.481   2.996 -0.0091 -0.4442 -0.3086
22406SOL    HW168659   5.152   5.440   3.068  1.0951  0.7970  1.2046
22406SOL    HW268660   5.152   5.561   2.976 -1.3250 -1.6328 -2.2511
22407SOL     OW68661   7.483   0.715   1.098 -0.6278 -0.3697  0.4038
22407SOL    HW168662   7.488   0.722   1.003 -0.2086 -0.2599  0.4336
22407SOL    HW268663   7.566   0.750   1.130 -0.7716 -0.3889  0.8119
22408SOL     OW68664   6.824   7.572   2.534 -0.3146 -0.3481  0.0806
22408SOL    HW168665   6.784   7.490   2.564  0.8782 -0.5602  1.1541
22408SOL    HW268666   6.918   7.558   2.543 -0.0281  0.6398 -1.0894
22409SOL     OW68667   0.911   5.710   0.112  0.0189 -0.4100  0.0120
22409SOL    HW168668   0.871   5.789   0.076 -0.8893 -1.1373 -0.6186
22409SOL    HW268669   0.973   5.742   0.178 -0.1703  0.8275 -0.3914
22410SOL     OW68670   6.491   0.164   2.167 -0.5747  0.7957  0.0586
22410SOL    HW168671   6.454   0.108   2.098 -1.5022  1.2121  0.1943
22410SOL    HW268672   6.578   0.188   2.135  0.3304 -1.6535  0.5337
22411SOL     OW68673   7.582   5.170   4.377 -0.1162  0.2476  0.4812
22411SOL    HW168674   7.666   5.149   4.337  1.1991 -1.8184  3.9486
22411SOL    HW268675   7.604   5.231   4.448 -0.9818 -2.4287  3.2281
22412SOL     OW68676   6.806   5.963   1.955 -0.2714 -0.0693 -0.5195
22412SOL    HW168677   6.714   5.980   1.979 -0.0048  0.0370  0.4517
22412SOL    HW268678   6.810   5.869   1.941 -0.1811 -0.3207  1.0365
22413SOL     OW68679   7.064   6.696   4.095  0.2665  0.0053 -0.0049
22413SOL    HW168680   7.012   6.630   4.048  1.2577 -0.7887 -0.0176
22413SOL    HW268681   7.077   6.766   4.031  1.3400 -0.9289 -0.8423
22414SOL     OW68682   5.559   6.362   5.245 -0.0123 -0.1880  0.2010
22414SOL    HW168683   5.464   6.367   5.248  0.0567  1.5801  0.3746
22414SOL    HW268684   5.583   6.409   5.165  0.7462 -0.0034  0.5292
22415SOL     OW68685   6.823   6.928   4.469 -0.3549 -0.1433  0.9348
22415SOL    HW168686   6.880   6.865   4.426 -2.1625 -1.2738  0.0494
22415SOL    HW268687   6.856   6.933   4.559  0.2356 -1.8762  0.8472
22416SOL     OW68688   5.484   6.112   3.387 -0.2409  0.1336 -0.3762
22416SOL    HW168689   5.516   6.144   3.471  1.3341  2.3504 -1.7172
22416SOL    HW268690   5.404   6.063   3.408 -0.2308  1.1522  2.3181
22417SOL     OW68691   6.568   7.255   4.008  0.2159  0.0173 -0.1178
22417SOL    HW168692   6.614   7.272   4.090  1.4302 -0.7381 -0.6162
22417SOL    HW268693   6.592   7.165   3.985 -0.8232 -0.0866 -0.8496
22418SOL     OW68694   2.666   0.643   2.285 -0.3146 -0.0659 -0.6723
22418SOL    HW168695   2.612   0.722   2.279  0.4880  0.5057 -0.5755
22418SOL    HW268696   2.622   0.588   2.349 -1.1665  0.0671 -1.1274
22419SOL     OW68697   4.273   7.836   2.792  0.0397 -0.2606 -0.3518
22419SOL    HW168698   4.301   7.752   2.756  0.0140 -0.2834 -0.3188
22419SOL    HW268699   4.344   7.860   2.852  0.3286  0.0244 -0.7994
22420SOL     OW68700   5.050   0.055   3.788 -0.8385  0.1802 -0.1631
22420SOL    HW168701   5.118   0.096   3.735 -0.8302  0.0391 -0.2624
22420SOL    HW268702   5.052  -0.037   3.762  0.6219 -0.3590  1.5785
22421SOL     OW68703   6.223   7.423   2.507 -0.8375  0.1128  0.4301
22421SOL    HW168704   6.274   7.477   2.568 -1.2493  2.3355 -1.0825
22421SOL    HW268705   6.289   7.379   2.453 -0.4939 -0.9275  1.6492
22422SOL     OW68706   5.895   7.550   4.261  0.3313 -0.0051 -0.1640
22422SOL    HW168707   5.839   7.473   4.255 -0.6143  0.6941 -0.6275
22422SOL    HW268708   5.894   7.574   4.354  0.4076 -0.3905 -0.0642
22423SOL     OW68709   5.288   7.075   2.757  0.5423 -0.3101 -0.1500
22423SOL    HW168710   5.327   7.008   2.700  1.2746 -1.2361  1.3694
22423SOL    HW268711   5.193   7.064   2.745  0.6753 -0.0966 -1.5841
22424SOL     OW68712   7.040   0.235   4.009  0.3208  0.8841 -0.7020
22424SOL    HW168713   7.078   0.188   3.934  0.5441  1.6874 -1.1023
22424SOL    HW268714   7.074   0.189   4.086 -0.7189 -0.5920 -1.0804
22425SOL     OW68715   5.595   7.242   3.809  0.5201 -0.0327 -0.2112
22425SOL    HW168716   5.556   7.194   3.736 -0.6445 -0.2541  0.5245
22425SOL    HW268717   5.681   7.268   3.777 -0.8257  1.9746 -2.5328
22426SOL     OW68718   6.747   7.830   3.335 -0.5161 -0.4335  0.0366
22426SOL    HW168719   6.746   7.924   3.351 -0.2273 -0.5133  0.5434
22426SOL    HW268720   6.774   7.792   3.419  1.0195 -0.8682 -0.6139
22427SOL     OW68721   7.470   5.410   1.394 -0.1004  0.0107 -0.0596
22427SOL    HW168722   7.509   5.497   1.386 -2.1611  1.1472  1.3029
22427SOL    HW268723   7.420   5.398   1.313  1.0106 -0.3973 -0.7093
22428SOL     OW68724   6.087   0.267   3.408  0.1735  0.1351  0.4069
22428SOL    HW168725   6.018   0.332   3.423  0.1090 -0.0765  1.0337
22428SOL    HW268726   6.166   0.319   3.393  0.1050  0.3625  0.8163
22429SOL     OW68727   5.468   0.005   4.241  0.1129  0.0943 -0.1835
22429SOL    HW168728   5.451   0.072   4.308 -0.3571 -0.4289  0.2313
22429SOL    HW268729   5.477   0.055   4.160  1.7922  0.8502  0.4088
22430SOL     OW68730   5.746   6.128   1.634  0.9087  0.0146 -0.3535
22430SOL    HW168731   5.676   6.093   1.579  0.3785 -0.4134  0.5645
22430SOL    HW268732   5.763   6.059   1.698 -0.1726  1.3837  1.5190
22431SOL     OW68733   7.783   4.961   2.488 -0.2652 -0.2661 -0.0654
22431SOL    HW168734   7.815   5.048   2.510  0.3698 -0.1749 -1.2284
22431SOL    HW268735   7.811   4.905   2.560  0.8358  0.1867 -0.1279
22432SOL     OW68736   4.026   6.441   1.342  0.4167  0.4276  0.0343
22432SOL    HW168737   3.969   6.389   1.285  0.0414  0.0331  0.7653
22432SOL    HW268738   4.064   6.378   1.402  1.4467  0.7316 -0.2890
22433SOL     OW68739   5.028   5.224   3.421 -0.0070  0.0678  0.1020
22433SOL    HW168740   5.061   5.141   3.456  0.1642  0.6710  1.4376
22433SOL    HW268741   4.933   5.210   3.413  0.0063 -0.2358  0.4154
22434SOL     OW68742   7.782   7.180   1.000  0.4789  0.0850 -0.2258
22434SOL    HW168743   7.721   7.185   0.926  1.2990  1.0448 -0.8544
22434SOL    HW268744   7.750   7.246   1.062 -2.4498 -3.1357  2.1049
22435SOL     OW68745   6.598   0.782   3.668  0.0576 -0.3126  0.9108
22435SOL    HW168746   6.667   0.848   3.674  0.5266 -0.6296 -0.6674
22435SOL    HW268747   6.522   0.828   3.634  0.7177 -0.7638 -1.3049
22436SOL     OW68748   6.960   5.187   5.199 -0.1296  0.2802 -0.2760
22436SOL    HW168749   6.940   5.225   5.285  2.8927 -0.1694  0.7740
22436SOL    HW268750   6.947   5.258   5.137  1.7373  1.9941  1.1545
22437SOL     OW68751   6.497   6.187   1.687  0.1275 -0.8404 -0.1004
22437SOL    HW168752   6.494   6.190   1.591 -2.3773 -1.6357 -0.1122
22437SOL    HW268753   6.508   6.094   1.707 -2.4766 -1.1392  0.3136
22438SOL     OW68754   7.609   7.290   1.835  0.5344 -0.4709 -0.3018
22438SOL    HW168755   7.687   7.234   1.846  0.5188 -1.1707 -3.1422
22438SOL    HW268756   7.566   7.287   1.921  2.5453 -1.7200  0.7517
22439SOL     OW68757   5.587   6.144   3.660  0.2285 -0.3280  0.2276
22439SOL    HW168758   5.624   6.233   3.662 -0.3907 -0.0705  0.4641
22439SOL    HW268759   5.632   6.098   3.731 -2.4894  1.0663  3.1130
22440SOL     OW68760   5.200   4.935   4.022  0.3916 -0.0709  0.5210
22440SOL    HW168761   5.193   4.944   3.927 -0.7235  0.7433  0.6694
22440SOL    HW268762   5.129   4.988   4.057  1.7141  0.8819  1.8756
22441SOL     OW68763   7.535   6.693   1.693 -0.0327  0.1982 -0.0015
22441SOL    HW168764   7.465   6.747   1.729  2.4089  1.9341  2.5723
22441SOL    HW268765   7.602   6.756   1.666  1.1810 -1.4321 -0.9804
22442SOL     OW68766   4.731   5.481   2.077  0.5311  0.1370  0.6773
22442SOL    HW168767   4.825   5.478   2.090  0.4000 -0.3503  1.6096
22442SOL    HW268768   4.702   5.390   2.086  0.3981 -0.4153 -3.3707
22443SOL     OW68769   7.097   7.356   2.420 -0.4361  0.3884  0.0177
22443SOL    HW168770   7.016   7.307   2.437 -0.2104 -0.7517 -1.9385
22443SOL    HW268771   7.067   7.443   2.395 -1.0716  0.0604 -0.3988
22444SOL     OW68772   6.303   7.025   3.689  0.1628  0.3779 -0.1757
22444SOL    HW168773   6.314   7.101   3.747 -1.1105  0.6677 -0.2798
22444SOL    HW268774   6.313   7.061   3.601 -2.1205  0.8034 -0.3136
22445SOL     OW68775   6.265   6.146   2.986 -0.0593  0.2636  0.0714
22445SOL    HW168776   6.215   6.098   3.053 -4.0861  0.4408 -2.4420
22445SOL    HW268777   6.287   6.229   3.027  1.0054 -1.0282  2.3003
22446SOL     OW68778   6.702   5.496   2.570  0.0945 -0.2964 -0.0180
22446SOL    HW168779   6.659   5.410   2.563 -0.3600  0.0395 -1.8050
22446SOL    HW268780   6.721   5.505   2.663 -1.1602 -1.6985  0.4219
22447SOL     OW68781   4.710   5.212   2.122  0.4087 -0.3496  0.1471
22447SOL    HW168782   4.646   5.167   2.177  0.0866  1.5708  1.4421
22447SOL    HW268783   4.788   5.157   2.127  0.1932 -0.5633  2.0750
22448SOL     OW68784   4.748   5.964   4.298 -0.0355 -1.1281 -0.0543
22448SOL    HW168785   4.808   5.912   4.244  0.1804  0.0727 -0.9963
22448SOL    HW268786   4.662   5.924   4.283  0.2985 -1.9739  0.2066
22449SOL     OW68787   7.150   5.861   0.966 -0.3709 -0.3615  0.3660
22449SOL    HW168788   7.092   5.846   1.041 -0.8806 -0.3108 -0.0159
22449SOL    HW268789   7.127   5.792   0.904 -0.8736  0.3894 -0.2933
22450SOL     OW68790   7.311   6.188   2.824 -0.0852  0.3163 -0.2881
22450SOL    HW168791   7.242   6.231   2.773 -1.4186  0.6402  1.6417
22450SOL    HW268792   7.285   6.096   2.827  0.4921  0.1284 -0.9469
22451SOL     OW68793   7.222   6.419   1.560 -0.1105 -0.2121 -0.5671
22451SOL    HW168794   7.150   6.481   1.553 -0.7988 -0.7990  0.8059
22451SOL    HW268795   7.212   6.361   1.485 -2.1738 -1.3477  0.4784
22452SOL     OW68796   5.889   6.512   1.813 -0.1444  0.3526 -0.2138
22452SOL    HW168797   5.804   6.471   1.831  0.3914 -0.4057  0.7125
22452SOL    HW268798   5.870   6.581   1.749 -1.6050  0.7801  0.6258
22453SOL     OW68799   4.713   1.627   3.197  0.1557  0.7575 -0.0252
22453SOL    HW168800   4.712   1.669   3.111 -2.1035 -0.3880 -0.6409
22453SOL    HW268801   4.655   1.681   3.251 -0.1889  0.2495  0.1178
22454SOL     OW68802   4.662   7.725   4.124 -0.8363 -0.0954  0.0370
22454SOL    HW168803   4.662   7.815   4.159 -1.8839  0.2535 -0.7957
22454SOL    HW268804   4.614   7.732   4.042 -1.3845 -1.5182  0.2091
22455SOL     OW68805   5.805   6.865   1.394 -0.1753  0.1020 -0.5056
22455SOL    HW168806   5.726   6.823   1.360 -0.4984  0.8047 -0.6265
22455SOL    HW268807   5.850   6.897   1.316  0.4395 -0.6495 -0.4706
22456SOL     OW68808   0.099   7.317   5.116  0.3131 -0.8386  0.1580
22456SOL    HW168809   0.089   7.390   5.054 -0.1161  0.5816  1.8107
22456SOL    HW268810   0.142   7.248   5.066 -0.9444 -0.1468 -2.0017
22457SOL     OW68811   6.550   7.033   0.192  0.1413  0.2496 -0.6296
22457SOL    HW168812   6.483   6.988   0.243 -1.2539 -0.9075 -3.3179
22457SOL    HW268813   6.616   6.966   0.176 -0.3734  0.0350 -1.9323
22458SOL     OW68814   6.250   7.068   2.620  0.0985  0.8086  0.0080
22458SOL    HW168815   6.314   7.116   2.673  1.4364  0.4914 -1.2290
22458SOL    HW268816   6.303   7.027   2.552 -1.1254 -1.6542  0.4558
22459SOL     OW68817   6.859   7.450   3.543  0.1203  0.0563 -0.4933
22459SOL    HW168818   6.881   7.405   3.462  0.1144 -0.8385 -0.0091
22459SOL    HW268819   6.823   7.382   3.600  0.9977  0.4813  0.6018
22460SOL     OW68820   6.020   6.216   1.960 -0.1034  1.3276 -0.3817
22460SOL    HW168821   6.030   6.126   1.930 -0.4225  1.5130 -1.0665
22460SOL    HW268822   5.926   6.233   1.951 -0.0147  1.7872 -0.4237
22461SOL     OW68823   6.532   5.598   5.050 -0.9631 -0.1753  0.0073
22461SOL    HW168824   6.454   5.643   5.082  0.0066  1.4748  0.1682
22461SOL    HW268825   6.521   5.596   4.955 -1.5616 -0.7054  0.0767
22462SOL     OW68826   7.110   7.732   2.910  0.3101 -0.6446  0.0273
22462SOL    HW168827   7.058   7.744   2.989 -0.2178 -1.4522 -0.1942
22462SOL    HW268828   7.052   7.688   2.849  1.0372 -0.9449 -0.4596
22463SOL     OW68829   5.203   7.353   2.658 -0.3095  0.2929 -0.1518
22463SOL    HW168830   5.183   7.316   2.572  1.0919  0.8741 -0.7536
22463SOL    HW268831   5.130   7.412   2.676 -1.1197 -0.5886 -0.4736
22464SOL     OW68832   0.095   6.263   2.987  0.1222  0.0061 -0.5301
22464SOL    HW168833   0.087   6.177   3.028  0.8288 -0.1479 -0.6988
22464SOL    HW268834   0.123   6.321   3.059  0.1280 -0.0076 -0.5211
22465SOL     OW68835   5.527   7.350   2.804 -0.7301  0.0337 -0.2585
22465SOL    HW168836   5.584   7.326   2.731 -2.2667 -0.6239 -1.2978
22465SOL    HW268837   5.577   7.325   2.882  0.1466 -1.0933 -1.1377
22466SOL     OW68838   7.139   1.358   4.966 -0.2788  0.4338  0.0404
22466SOL    HW168839   7.221   1.359   5.015 -0.0783  1.1913 -0.2926
22466SOL    HW268840   7.071   1.343   5.032  0.0388  0.8618  0.4727
22467SOL     OW68841   5.956   6.737   3.044 -0.5766  0.2850  0.2167
22467SOL    HW168842   5.940   6.664   2.983 -1.6366  0.7352 -0.0600
22467SOL    HW268843   5.995   6.805   2.989 -0.2025  0.1782  0.3437
22468SOL     OW68844   6.120   6.419   4.722  0.5236 -0.0465 -0.5495
22468SOL    HW168845   6.061   6.390   4.791  0.0868  0.2523 -0.7908
22468SOL    HW268846   6.064   6.429   4.645  0.9775 -0.2349 -0.9125
22469SOL     OW68847   7.465   0.491   0.838  0.4309  0.4255  0.2365
22469SOL    HW168848   7.552   0.477   0.875  0.3894 -1.1290 -0.1779
22469SOL    HW268849   7.442   0.407   0.800 -2.3224 -0.0087  2.5394
22470SOL     OW68850   7.663   6.575   5.428  0.4742  0.2110  0.2148
22470SOL    HW168851   7.746   6.621   5.431  1.7416 -1.9626  2.2751
22470SOL    HW268852   7.615   6.606   5.505  0.9029 -1.0160  1.0160
22471SOL     OW68853   5.914   7.228   3.178  0.3182 -0.2273 -0.3904
22471SOL    HW168854   5.963   7.156   3.218  0.0951  0.2181  0.7346
22471SOL    HW268855   5.849   7.252   3.245  0.4533  1.0751 -0.7038
22472SOL     OW68856   7.026   6.432   5.732 -0.7047 -0.1320 -0.4135
22472SOL    HW168857   6.985   6.472   5.656 -0.4479  3.0487  0.9539
22472SOL    HW268858   6.959   6.435   5.801  0.0177 -0.0789  0.3094
22473SOL     OW68859   5.991   1.251   2.492 -0.0868  0.6064  0.3682
22473SOL    HW168860   5.961   1.162   2.470 -2.3047  1.6144 -0.9880
22473SOL    HW268861   5.959   1.265   2.581 -2.6055  1.1052 -0.5179
22474SOL     OW68862   6.424   6.630   1.675  0.2651 -0.1530  0.0205
22474SOL    HW168863   6.355   6.686   1.713  0.5862 -0.2820  0.8224
22474SOL    HW268864   6.379   6.549   1.653 -0.2749  0.5115 -1.4481
22475SOL     OW68865   5.990   5.846   2.183 -0.6420  0.3873  0.3509
22475SOL    HW168866   5.946   5.778   2.235  0.9339  0.8026  2.3368
22475SOL    HW268867   5.931   5.921   2.187 -1.9138 -0.4836 -1.0006
22476SOL     OW68868   0.493   5.628   1.029  0.0579 -0.1077  0.0144
22476SOL    HW168869   0.546   5.639   1.108  0.6052  3.5482 -0.6828
22476SOL    HW268870   0.406   5.658   1.055  0.2756  1.2555 -0.7315
22477SOL     OW68871   5.539   5.275   2.715 -0.3238 -0.2602 -0.2415
22477SOL    HW168872   5.559   5.189   2.680  0.7594  0.1402 -0.6493
22477SOL    HW268873   5.448   5.269   2.745  0.0850 -1.8642  0.7778
22478SOL     OW68874   5.878   0.250   2.945  0.0324 -0.1347 -0.0896
22478SOL    HW168875   5.963   0.282   2.974 -0.1960 -0.3863  0.8655
22478SOL    HW268876   5.826   0.241   3.025 -1.4564  1.5683 -0.7974
22479SOL     OW68877   6.880   6.609   4.886 -0.2191 -0.1758  0.0512
22479SOL    HW168878   6.904   6.630   4.977 -0.7525 -2.3771  0.7564
22479SOL    HW268879   6.785   6.598   4.889 -0.0706 -1.8111 -0.3921
22480SOL     OW68880   5.275   7.135   0.208 -0.0303 -0.2897  0.0407
22480SOL    HW168881   5.193   7.183   0.222  0.9439  1.1687  0.9402
22480SOL    HW268882   5.280   7.124   0.113 -0.7097  0.6069 -0.1133
22481SOL     OW68883   5.400   7.176   2.071 -0.0330 -0.4136 -0.4571
22481SOL    HW168884   5.493   7.159   2.085  0.0969 -1.3748 -2.1544
22481SOL    HW268885   5.395   7.214   1.983 -0.9927  2.6281  0.7887
22482SOL     OW68886   7.041   0.365   2.570  0.1679  0.4737 -0.0367
22482SOL    HW168887   7.064   0.413   2.649  2.4242 -1.3235  0.4988
22482SOL    HW268888   6.981   0.297   2.600  1.2625 -0.4009  0.2510
22483SOL     OW68889   6.255   7.917   1.055  0.3007  0.7644 -0.1329
22483SOL    HW168890   6.327   7.952   1.003  0.0069 -1.2342 -2.0132
22483SOL    HW268891   6.289   7.913   1.144  1.4057  2.7385 -0.4103
22484SOL     OW68892   5.767   4.900   4.123  0.3083  1.2199  0.4521
22484SOL    HW168893   5.735   4.946   4.201 -0.9159  2.0110 -0.4770
22484SOL    HW268894   5.796   4.815   4.156 -2.1464  0.6996  1.5108
22485SOL     OW68895   6.569   4.861   2.484  0.1588 -0.3377  0.1565
22485SOL    HW168896   6.543   4.904   2.403 -0.9432  1.0415  1.1867
22485SOL    HW268897   6.526   4.776   2.482 -3.5470  1.2937  1.1419
22486SOL     OW68898   5.671   6.969   1.625  0.3430  0.2251 -0.3914
22486SOL    HW168899   5.718   6.935   1.549  1.2646  0.0616  0.2355
22486SOL    HW268900   5.579   6.964   1.600  0.6132 -0.0654 -1.3944
22487SOL     OW68901   6.702   5.344   1.775  0.2764 -0.0729  0.0646
22487SOL    HW168902   6.661   5.369   1.859  0.2779 -1.5332  0.5214
22487SOL    HW268903   6.734   5.256   1.790  1.2722  0.0718 -1.1502
22488SOL     OW68904   6.082   7.009   3.249  0.1557  0.0207 -0.1232
22488SOL    HW168905   6.163   7.022   3.200  1.7570  0.4087  2.4371
22488SOL    HW268906   6.090   6.922   3.287  0.1460  0.6488  1.3997
22489SOL     OW68907   7.173   5.456   2.994 -0.4031  0.7427  0.3289
22489SOL    HW168908   7.141   5.502   3.072  2.0718 -0.0887  1.9381
22489SOL    HW268909   7.266   5.476   2.991  0.0360 -1.2544 -0.9990
22490SOL     OW68910   6.509   5.910   1.741 -0.4295  0.1957 -0.6050
22490SOL    HW168911   6.456   5.831   1.737 -0.0457 -0.0937 -0.1266
22490SOL    HW268912   6.511   5.933   1.834 -0.1560  0.5067 -0.6848
22491SOL     OW68913   6.943   0.155   2.764 -0.3621  0.0957  0.0419
22491SOL    HW168914   6.863   0.197   2.733  0.8175  2.1243 -0.3887
22491SOL    HW268915   6.958   0.193   2.851 -0.3367 -0.9481  0.5084
22492SOL     OW68916   6.813   5.538   1.609 -0.3508  0.0480 -0.3669
22492SOL    HW168917   6.767   5.475   1.664  1.4724  0.8350  2.2593
22492SOL    HW268918   6.899   5.499   1.594  0.1475  1.0757 -0.2834
22493SOL     OW68919   4.649   7.227   3.536  0.0831 -0.0200  0.1876
22493SOL    HW168920   4.718   7.220   3.469  0.6374 -0.1304  0.7656
22493SOL    HW268921   4.689   7.192   3.615 -1.1330 -1.5546  0.1890
22494SOL     OW68922   6.776   4.764   1.251  0.1265  0.3287 -0.0152
22494SOL    HW168923   6.731   4.683   1.277 -0.2572  0.3409 -0.6335
22494SOL    HW268924   6.786   4.813   1.333 -0.7338  0.2022  0.1783
22495SOL     OW68925   6.960   5.517   3.504  0.1535  0.2765  0.1641
22495SOL    HW168926   6.952   5.504   3.598 -1.8578  1.6932  0.2700
22495SOL    HW268927   6.928   5.436   3.465 -0.0362  0.0924  0.7036
22496SOL     OW68928   6.411   6.413   1.957 -0.2442 -0.3945 -0.1439
22496SOL    HW168929   6.390   6.400   2.050  0.1245 -1.2213 -0.1662
22496SOL    HW268930   6.326   6.430   1.915 -0.6195 -1.5352  0.1071
22497SOL     OW68931   7.361   6.962   4.908  0.3366 -0.5940 -0.4265
22497SOL    HW168932   7.399   7.048   4.894 -1.1358 -0.0659 -1.3152
22497SOL    HW268933   7.269   6.972   4.886 -0.3975 -1.7930  1.8198
22498SOL     OW68934   6.314   5.163   4.547  0.1465  0.4953  0.5925
22498SOL    HW168935   6.329   5.089   4.607  0.5496 -0.2346 -0.3772
22498SOL    HW268936   6.234   5.204   4.579  1.2134  1.1283  2.6022
22499SOL     OW68937   7.838   5.882   4.468  0.1389 -0.3931  0.2165
22499SOL    HW168938   7.793   5.850   4.546  2.2062 -1.1128  1.1713
22499SOL    HW268939   7.880   5.805   4.431  0.5523  0.2433 -0.6769
22500SOL     OW68940   6.914   4.488   1.961 -0.2151  0.2157  0.6651
22500SOL    HW168941   6.935   4.401   1.994  1.3601  0.0928 -0.5580
22500SOL    HW268942   6.850   4.522   2.024  1.2011 -0.7325  2.7620
22501SOL     OW68943   7.238   5.097   5.071  0.0323  0.1262 -0.3840
22501SOL    HW168944   7.296   5.172   5.073 -0.7956  0.7918 -0.7822
22501SOL    HW268945   7.162   5.124   5.124 -1.5279  0.6656 -2.7320
22502SOL     OW68946   6.448   0.415   2.276 -0.2582  0.1602  0.2240
22502SOL    HW168947   6.426   0.323   2.258 -1.2640  0.6499 -1.2277
22502SOL    HW268948   6.442   0.458   2.191  1.2697  1.3863  0.6823
22503SOL     OW68949   5.901   7.254   1.863  0.1171  0.7712 -0.9521
22503SOL    HW168950   5.881   7.315   1.934  1.6922  1.4222 -1.0279
22503SOL    HW268951   5.954   7.186   1.904  0.1269  0.5764 -1.2888
22504SOL     OW68952   7.126   7.102   5.353 -0.4712 -0.5373  0.3233
22504SOL    HW168953   7.216   7.072   5.366 -0.2899 -0.5112 -0.7609
22504SOL    HW268954   7.096   7.127   5.440  1.0543  0.7836  0.5252
22505SOL     OW68955   5.666   7.530   1.957  0.0314 -0.1986  0.3456
22505SOL    HW168956   5.749   7.538   2.003  0.3932 -1.4720 -0.0364
22505SOL    HW268957   5.636   7.441   1.977 -0.7995 -0.0562 -0.2208
22506SOL     OW68958   4.488   7.290   2.309 -0.3517 -0.1623 -0.2175
22506SOL    HW168959   4.471   7.305   2.216  0.0565  0.8375 -0.1328
22506SOL    HW268960   4.555   7.353   2.332 -0.7727 -0.0948  0.8690
22507SOL     OW68961   5.034   5.701   2.962 -0.1843  0.1577 -0.0538
22507SOL    HW168962   4.966   5.723   2.899 -0.1378  0.6789  0.0698
22507SOL    HW268963   4.997   5.726   3.047 -0.9963 -2.2325  0.3836
22508SOL     OW68964   7.996   7.918   2.572 -0.9876  0.3143  0.5629
22508SOL    HW168965   7.932   7.985   2.595 -0.5364  0.6375  0.9034
22508SOL    HW268966   8.003   7.863   2.650 -0.6565  0.4438  0.6287
22509SOL     OW68967   5.641   0.991   2.349 -0.1770  0.0207  0.5449
22509SOL    HW168968   5.551   0.969   2.371 -0.5094 -1.8833 -2.1641
22509SOL    HW268969   5.637   1.079   2.311 -0.7004  0.3736  1.4030
22510SOL     OW68970   7.528   7.933   3.349 -0.3250 -0.2479  0.4804
22510SOL    HW168971   7.561   8.016   3.314 -0.8729  0.0544  0.6790
22510SOL    HW268972   7.447   7.917   3.301  0.2805 -1.1808 -0.2725
22511SOL     OW68973   4.826   0.286   1.668 -0.5862 -0.0496  0.2521
22511SOL    HW168974   4.837   0.215   1.732 -1.2066  0.8950  1.4407
22511SOL    HW268975   4.758   0.255   1.609  0.3090 -1.1259 -0.2538
22512SOL     OW68976   7.917   6.835   2.294 -0.1008  0.0083 -0.1447
22512SOL    HW168977   7.830   6.852   2.258  0.6071  0.1277 -1.8660
22512SOL    HW268978   7.966   6.916   2.280  0.8954 -0.7241 -1.0923
22513SOL     OW68979   0.083   5.276   4.065  0.2371  0.0585 -0.6117
22513SOL    HW168980   0.100   5.190   4.027  2.0965  0.5598 -0.9964
22513SOL    HW268981   0.141   5.281   4.141 -1.4327  0.1645  0.7157
22514SOL     OW68982   7.844   4.657   4.268  0.0708  0.9972  0.3514
22514SOL    HW168983   7.929   4.613   4.269  0.1114  1.0729  0.2876
22514SOL    HW268984   7.845   4.713   4.346 -2.0429 -2.9782  3.5985
22515SOL     OW68985   7.303   5.923   3.652 -0.0767 -0.3689  0.2151
22515SOL    HW168986   7.360   5.991   3.616  0.3652 -0.6502  0.3744
22515SOL    HW268987   7.287   5.864   3.579  1.4281 -1.3501  0.6188
22516SOL     OW68988   6.548   5.371   2.998 -0.4346  0.5004 -0.3658
22516SOL    HW168989   6.517   5.283   2.976  1.1489 -0.4102  0.8182
22516SOL    HW268990   6.601   5.398   2.924  2.6595 -1.4286  0.9554
22517SOL     OW68991   7.236   7.439   4.121 -0.1369 -0.1815 -0.6647
22517SOL    HW168992   7.231   7.411   4.212 -0.3976 -1.8164 -1.1550
22517SOL    HW268993   7.292   7.374   4.078 -0.8878 -0.0635 -1.8822
22518SOL     OW68994   6.501   7.806   1.650  0.2095  0.3617  0.2426
22518SOL    HW168995   6.430   7.862   1.617 -0.0351  0.5916  1.1180
22518SOL    HW268996   6.470   7.776   1.735  1.4307  0.9945  0.9353
22519SOL     OW68997   7.851   7.142   2.746  0.0097 -0.0788 -0.1795
22519SOL    HW168998   7.865   7.053   2.778  2.5811  0.3854  0.2135
22519SOL    HW268999   7.819   7.131   2.657  1.1530 -1.4305 -0.4605
22520SOL     OW69000   5.186   4.828   2.131  0.0912  0.6984  0.3282
22520SOL    HW169001   5.275   4.794   2.137 -0.0077  0.5469  1.0516
22520SOL    HW269002   5.134   4.771   2.187 -0.5712  0.4534 -0.5177
22521SOL     OW69003   6.086   4.453   4.029  0.1910  0.2311 -0.1052
22521SOL    HW169004   6.096   4.544   4.056 -0.5187  0.9163 -1.9516
22521SOL    HW269005   6.124   4.451   3.941 -1.6053 -0.7607 -0.9056
22522SOL     OW69006   1.016   7.288   3.781 -0.8028  0.2060 -0.0534
22522SOL    HW169007   0.981   7.264   3.695  0.7154  0.4025 -0.7490
22522SOL    HW269008   1.061   7.210   3.812  2.4704  1.3441 -1.4663
22523SOL     OW69009   5.759   5.878   3.567 -0.1627 -0.0585 -0.4458
22523SOL    HW169010   5.690   5.939   3.540  1.8219  3.0454  0.9616
22523SOL    HW269011   5.713   5.808   3.613 -2.3735  2.3556  1.2626
22524SOL     OW69012   0.903   5.481   0.984 -0.3805  0.2582 -0.7402
22524SOL    HW169013   0.816   5.441   0.978 -1.1917  1.8809 -0.2781
22524SOL    HW269014   0.907   5.515   1.074  0.4985  0.7145 -0.9448
22525SOL     OW69015   5.584   6.402   2.837  0.0749 -0.0704 -0.1216
22525SOL    HW169016   5.670   6.401   2.879  0.4664 -2.1316 -0.8860
22525SOL    HW269017   5.602   6.429   2.747 -0.1229 -0.2094 -0.2016
22526SOL     OW69018   7.336   7.995   3.128 -0.5380 -0.2421 -0.1313
22526SOL    HW169019   7.345   8.025   3.038 -0.1822  0.8022  0.2331
22526SOL    HW269020   7.262   8.044   3.163 -0.0875  0.0721  0.4115
22527SOL     OW69021   6.480   6.915   2.921 -0.3678  0.0458 -0.3788
22527SOL    HW169022   6.451   6.880   3.006 -1.3360 -0.9631 -1.0975
22527SOL    HW269023   6.554   6.860   2.897 -0.0752  0.3506 -0.1840
22528SOL     OW69024   4.935   4.802   3.671  0.1680  0.8616 -0.0656
22528SOL    HW169025   4.912   4.725   3.723  3.1158 -0.7134 -0.8829
22528SOL    HW269026   4.884   4.793   3.591  1.2329 -0.8792 -0.5955
22529SOL     OW69027   6.877   3.065   0.894 -0.1997  0.1823  0.1376
22529SOL    HW169028   6.887   3.050   0.800  0.8889  0.7636  0.1370
22529SOL    HW269029   6.920   2.990   0.935  1.6073  1.1449  0.1360
22530SOL     OW69030   5.260   6.635   1.119  0.0341  0.5587  0.3990
22530SOL    HW169031   5.249   6.729   1.129 -1.5563  0.5385 -0.7024
22530SOL    HW269032   5.171   6.600   1.117  0.5864 -1.0769  1.4645
22531SOL     OW69033   5.514   6.472   3.505  0.2832 -0.1256  0.0667
22531SOL    HW169034   5.527   6.551   3.452  0.3354 -1.3823 -1.8641
22531SOL    HW269035   5.600   6.431   3.509 -0.0017 -0.7360  0.0007
22532SOL     OW69036   6.294   5.908   2.346  0.2953  0.1703  0.3158
22532SOL    HW169037   6.270   5.915   2.254 -0.1510  0.6624  0.4638
22532SOL    HW269038   6.361   5.975   2.359 -0.0734  0.5111  0.4829
22533SOL     OW69039   6.245   6.798   4.100  0.4710 -0.4243 -0.4272
22533SOL    HW169040   6.317   6.799   4.037 -0.4955  1.1682 -1.5966
22533SOL    HW269041   6.228   6.891   4.118 -1.7243 -0.6967 -0.7545
22534SOL     OW69042   4.792   6.996   4.019  0.2066 -0.5238 -0.2318
22534SOL    HW169043   4.771   6.996   4.113 -0.6194 -1.8617 -0.3853
22534SOL    HW269044   4.727   7.053   3.979  0.2012 -0.4089 -0.0604
22535SOL     OW69045   6.655   3.652   4.619  0.4251  0.4690  0.1789
22535SOL    HW169046   6.591   3.709   4.663  0.5607  0.0006  0.9923
22535SOL    HW269047   6.609   3.569   4.607  0.1312  0.8161 -1.2655
22536SOL     OW69048   4.685   7.005   2.430 -0.3301  0.3199 -0.2607
22536SOL    HW169049   4.634   6.995   2.349 -1.8488  1.1960  0.5529
22536SOL    HW269050   4.728   7.089   2.420 -1.1304  0.7899  0.1457
22537SOL     OW69051   6.233   6.313   1.394 -0.6127 -0.2928 -0.3051
22537SOL    HW169052   6.168   6.245   1.375 -1.1109 -0.5537  1.9969
22537SOL    HW269053   6.224   6.329   1.488  0.6060  1.8382 -0.4871
22538SOL     OW69054   6.378   7.938   2.556 -0.1139 -0.0154  0.8286
22538SOL    HW169055   6.432   7.937   2.476  0.9590  1.2556  1.4900
22538SOL    HW269056   6.338   7.851   2.559  0.1432 -0.2370 -0.8678
22539SOL     OW69057   6.989   7.162   5.577 -0.0180  0.0953 -0.1166
22539SOL    HW169058   6.911   7.119   5.611  0.4221 -0.4174  0.2763
22539SOL    HW269059   7.036   7.191   5.656 -1.1768  2.9701 -0.3633
22540SOL     OW69060   4.325   6.607   1.989 -0.1227 -0.1536  0.0772
22540SOL    HW169061   4.415   6.581   1.967 -0.3562 -1.0465  0.1586
22540SOL    HW269062   4.270   6.555   1.931 -0.6211 -0.1528  0.5398
22541SOL     OW69063   5.438   6.487   2.423 -0.3695  0.8273  0.6411
22541SOL    HW169064   5.486   6.525   2.348 -0.5353  0.1177  0.1670
22541SOL    HW269065   5.507   6.453   2.480 -0.1770  2.3659  1.3936
22542SOL     OW69066   7.973   5.689   1.666  0.0538 -0.5618 -0.6341
22542SOL    HW169067   7.974   5.750   1.740 -0.6320 -0.2273 -0.8896
22542SOL    HW269068   7.893   5.637   1.679  1.4037 -2.4952  0.4270
22543SOL     OW69069   5.590   6.735   3.410  0.0187  0.0327 -0.1405
22543SOL    HW169070   5.579   6.823   3.446  1.2219  0.6970 -1.2906
22543SOL    HW269071   5.652   6.693   3.470 -2.6683 -1.0925  2.0364
22544SOL     OW69072   6.641   6.058   3.503 -0.9595 -0.8035 -0.0871
22544SOL    HW169073   6.607   6.146   3.488 -1.5291 -0.6751  1.7080
22544SOL    HW269074   6.721   6.072   3.553 -1.1832 -1.2997  0.4205
22545SOL     OW69075   6.403   7.292   2.368 -0.1914 -0.2370  0.4664
22545SOL    HW169076   6.493   7.288   2.336 -0.4641 -0.4781 -0.2711
22545SOL    HW269077   6.349   7.262   2.295 -0.8512 -0.4015  1.0061
22546SOL     OW69078   5.540   5.710   3.174  0.0394  0.0591 -0.3231
22546SOL    HW169079   5.493   5.734   3.094  0.0065  0.4423 -0.1911
22546SOL    HW269080   5.582   5.626   3.153 -2.3529 -1.3755  0.2247
22547SOL     OW69081   6.457   7.798   3.349 -0.2271  0.2240  0.3420
22547SOL    HW169082   6.547   7.792   3.317 -0.4248 -0.7739 -0.0721
22547SOL    HW269083   6.461   7.761   3.438 -0.3876 -0.7738 -0.0456
22548SOL     OW69084   4.091   5.848   1.194  0.6225  0.0724  0.1449
22548SOL    HW169085   4.063   5.808   1.276 -1.7193  0.7084 -0.2725
22548SOL    HW269086   4.155   5.787   1.158 -0.1073 -1.4327  1.2799
22549SOL     OW69087   4.794   7.407   3.116  0.5526 -0.3245 -0.0208
22549SOL    HW169088   4.823   7.437   3.202 -0.2565  0.8996 -0.1518
22549SOL    HW269089   4.716   7.460   3.097 -0.2816 -1.7670 -0.7670
22550SOL     OW69090   6.141   7.385   3.533 -0.2075  0.0821  0.1785
22550SOL    HW169091   6.130   7.439   3.454  0.0716 -0.0456  0.0524
22550SOL    HW269092   6.199   7.437   3.589 -0.9092  0.4576  0.5675
22551SOL     OW69093   6.575   6.920   4.316 -0.1529 -0.1075 -0.2131
22551SOL    HW169094   6.655   6.909   4.368 -0.2961 -0.0522  0.0225
22551SOL    HW269095   6.535   6.833   4.316  0.2146 -0.2843 -0.8483
22552SOL     OW69096   7.115   0.233   2.119  0.1339  0.1341 -0.2447
22552SOL    HW169097   7.186   0.176   2.090 -0.6662 -0.4248 -1.1458
22552SOL    HW269098   7.046   0.221   2.054  0.6622  3.6939 -1.6777
22553SOL     OW69099   5.747   6.847   2.759 -0.1659 -0.0830  0.0551
22553SOL    HW169100   5.682   6.905   2.719 -0.4469  0.1764  0.8740
22553SOL    HW269101   5.825   6.858   2.705 -0.1536  1.2196  0.3161
22554SOL     OW69102   6.171   6.347   3.466  0.1137 -0.3183  0.4924
22554SOL    HW169103   6.216   6.263   3.460 -0.7667 -0.7806  0.1994
22554SOL    HW269104   6.082   6.329   3.436  0.1517  0.9109 -0.4447
22555SOL     OW69105   6.550   7.437   3.804  0.4039  0.2168 -0.2610
22555SOL    HW169106   6.578   7.381   3.876  0.0227  0.3765  0.0142
22555SOL    HW269107   6.466   7.400   3.776  1.0298 -0.4589 -1.2954
22556SOL     OW69108   7.560   4.586   1.910  0.3188  0.6112  0.5420
22556SOL    HW169109   7.630   4.617   1.966  1.8070 -0.9393 -0.3754
22556SOL    HW269110   7.502   4.537   1.969  0.9916  0.3598  1.0031
22557SOL     OW69111   6.165   6.717   2.106 -0.1748 -0.2483  0.5059
22557SOL    HW169112   6.219   6.758   2.039 -0.6275 -1.5207 -0.6830
22557SOL    HW269113   6.222   6.712   2.183  1.0635 -0.6180 -0.4030
22558SOL     OW69114   5.446   7.512   4.764  0.6225 -0.5541 -0.2471
22558SOL    HW169115   5.452   7.451   4.690 -0.1393  0.9013 -1.5833
22558SOL    HW269116   5.406   7.591   4.726 -2.3328 -0.6561  2.2554
22559SOL     OW69117   7.893   0.137   2.733  0.2282  0.1018 -0.4167
22559SOL    HW169118   7.842   0.201   2.783 -0.2698 -1.2209  0.8530
22559SOL    HW269119   7.963   0.110   2.793  0.8953  0.0073 -1.2175
22560SOL     OW69120   4.815   6.748   3.572  0.0606  0.7708 -0.0722
22560SOL    HW169121   4.880   6.681   3.595 -0.0378  0.3890 -0.8919
22560SOL    HW269122   4.788   6.785   3.656 -2.3162 -2.4670  0.7682
22561SOL     OW69123   6.196   7.598   1.991 -0.1991  0.4400  0.3960
22561SOL    HW169124   6.130   7.657   1.955 -0.6529  0.1291  0.7003
22561SOL    HW269125   6.168   7.583   2.081 -1.1902 -1.7651 -0.2220
22562SOL     OW69126   7.255   0.204   5.544 -0.0581 -0.0855  0.0211
22562SOL    HW169127   7.253   0.292   5.581  0.2296 -0.2453  0.4234
22562SOL    HW269128   7.167   0.190   5.510 -0.1258  0.3282  0.0246
22563SOL     OW69129   1.557   5.926   1.838 -0.3596  0.0843 -0.3174
22563SOL    HW169130   1.494   5.992   1.868  0.8386  0.9605  0.3492
22563SOL    HW269131   1.510   5.843   1.845 -2.0436  0.8853 -1.5629
22564SOL     OW69132   5.848   6.069   2.311 -0.1720 -0.0108  0.2093
22564SOL    HW169133   5.873   6.093   2.400  0.6143  1.7948 -0.4549
22564SOL    HW269134   5.752   6.065   2.314 -0.2960  2.1657  0.6815
22565SOL     OW69135   7.330   6.893   2.104  0.0861  0.1507  0.3567
22565SOL    HW169136   7.267   6.954   2.141 -1.9397 -1.4849 -0.1811
22565SOL    HW269137   7.333   6.821   2.167  1.8285  0.3729  0.5982
22566SOL     OW69138   6.112   0.016   3.227 -0.6310  0.2641 -0.0271
22566SOL    HW169139   6.159   0.036   3.146 -2.2511 -0.6973 -1.2515
22566SOL    HW269140   6.094   0.102   3.266  0.2376  0.7339 -0.6327
22567SOL     OW69141   5.559   0.176   1.600 -0.4069 -0.6990  0.0880
22567SOL    HW169142   5.621   0.162   1.672  0.6744  1.2705 -0.3861
22567SOL    HW269143   5.579   0.264   1.569 -2.8693 -0.3604 -0.6947
22568SOL     OW69144   6.435   7.173   2.831 -0.3959  0.0139  0.6413
22568SOL    HW169145   6.476   7.224   2.901  1.9851 -0.1514 -0.5259
22568SOL    HW269146   6.448   7.082   2.857  2.6691 -0.1462 -0.9912
22569SOL     OW69147   7.849   5.430   4.399 -0.5872 -0.0470 -0.3040
22569SOL    HW169148   7.762   5.420   4.438 -0.5534  1.1925  0.1531
22569SOL    HW269149   7.833   5.437   4.305 -1.1025  1.1914 -0.1423
22570SOL     OW69150   6.617   6.506   4.899 -0.2963 -0.1466  0.0833
22570SOL    HW169151   6.604   6.460   4.982  0.1264  0.9774  0.7961
22570SOL    HW269152   6.534   6.496   4.853 -0.7462 -0.2777  0.8997
22571SOL     OW69153   6.434   5.438   0.146  0.3234  0.1183 -0.1911
22571SOL    HW169154   6.422   5.493   0.068  0.6698  0.0788 -0.2720
22571SOL    HW269155   6.350   5.394   0.157  0.8840 -1.4086 -1.7242
22572SOL     OW69156   7.317   6.595   3.506  0.1586 -0.2610 -0.1883
22572SOL    HW169157   7.232   6.611   3.547  0.0259  1.5487 -1.0601
22572SOL    HW269158   7.323   6.662   3.438  1.6232 -1.3414 -1.1673
22573SOL     OW69159   5.581   6.161   2.351  0.5863  0.2993  0.3123
22573SOL    HW169160   5.518   6.222   2.313  0.3084 -0.5137 -0.5635
22573SOL    HW269161   5.536   6.126   2.428 -0.0562 -0.2556 -0.2904
22574SOL     OW69162   7.314   5.258   1.695  0.4369 -0.3257 -0.1799
22574SOL    HW169163   7.351   5.175   1.724  0.1093  0.0517  1.4337
22574SOL    HW269164   7.328   5.259   1.600  1.1620 -1.8470 -0.1202
22575SOL     OW69165   5.647   7.020   3.289 -0.3838 -0.0579 -0.3310
22575SOL    HW169166   5.721   7.009   3.229  0.5072 -1.6502  0.9483
22575SOL    HW269167   5.582   6.957   3.259 -0.6414  0.3512 -0.6307
22576SOL     OW69168   6.126   6.908   2.848 -0.0127 -0.2375 -0.6503
22576SOL    HW169169   6.211   6.866   2.858  0.2787  0.5170  0.1064
22576SOL    HW269170   6.140   6.974   2.779  0.0107 -0.1226 -0.5353
22577SOL     OW69171   7.573   5.938   5.327 -0.1363  0.4806 -0.3932
22577SOL    HW169172   7.552   5.967   5.416  1.0158  0.4099 -0.0798
22577SOL    HW269173   7.633   6.005   5.294 -1.0046  0.8103 -1.3401
22578SOL     OW69174   5.708   5.879   0.506  0.1936  0.2534 -0.0278
22578SOL    HW169175   5.671   5.874   0.418 -1.3631 -1.1314  0.6507
22578SOL    HW269176   5.702   5.789   0.540  0.3073  0.8457  1.6760
22579SOL     OW69177   5.230   6.346   5.103 -0.0969  0.1766 -0.0972
22579SOL    HW169178   5.262   6.435   5.119 -2.0338  0.9693 -0.3886
22579SOL    HW269179   5.137   6.350   5.122 -0.3647 -1.6258 -0.8166
22580SOL     OW69180   2.768   5.534   0.309 -0.0418  0.2525 -0.2181
22580SOL    HW169181   2.759   5.600   0.240 -0.3791 -0.0566 -0.4752
22580SOL    HW269182   2.757   5.450   0.263 -0.6443  0.0615  0.2759
22581SOL     OW69183   5.273   0.123   2.806 -0.2389 -0.1826  0.3501
22581SOL    HW169184   5.309   0.042   2.771 -0.4944 -0.4996  0.8055
22581SOL    HW269185   5.187   0.098   2.841 -0.8747  0.5489 -0.6577
22582SOL     OW69186   6.156   6.459   1.899 -0.1370  0.4397  0.4538
22582SOL    HW169187   6.104   6.525   1.853 -0.7928 -1.3146 -1.4815
22582SOL    HW269188   6.092   6.411   1.951 -0.0622 -0.0901  0.0706
22583SOL     OW69189   5.554   7.869   1.878 -0.0427  0.4000  0.2452
22583SOL    HW169190   5.619   7.902   1.816 -0.5808  0.5228 -0.2619
22583SOL    HW269191   5.471   7.909   1.850 -0.3274  0.3132  0.9287
22584SOL     OW69192   6.488   5.397   3.291 -0.5133  0.2390 -0.0568
22584SOL    HW169193   6.508   5.417   3.200 -0.5579 -1.1442 -0.3851
22584SOL    HW269194   6.484   5.483   3.334  1.1874  0.8257 -0.9864
22585SOL     OW69195   0.704   7.069   3.071 -0.9345 -0.1244 -0.0056
22585SOL    HW169196   0.631   7.051   3.131 -0.2587 -2.4642  0.2241
22585SOL    HW269197   0.663   7.079   2.985 -1.4989 -3.5887 -0.2794
22586SOL     OW69198   5.479   7.286   4.988  0.1422  0.5679  0.0355
22586SOL    HW169199   5.408   7.349   5.000 -0.0190  0.5133 -0.6186
22586SOL    HW269200   5.558   7.340   4.986  0.1715  0.5948  1.1677
22587SOL     OW69201   6.619   7.266   1.636  0.5021  0.0149 -0.1386
22587SOL    HW169202   6.648   7.179   1.608 -1.9456 -0.8947 -0.0591
22587SOL    HW269203   6.631   7.265   1.731 -0.2829 -0.5689 -0.0355
22588SOL     OW69204   5.192   6.846   3.007  0.0146  0.2804 -0.4836
22588SOL    HW169205   5.229   6.807   2.927 -1.8348 -1.2219 -0.6631
22588SOL    HW269206   5.112   6.889   2.978 -0.5598 -0.0870  0.4978
22589SOL     OW69207   7.168   0.131   1.407  0.6075  0.0124  0.9787
22589SOL    HW169208   7.247   0.185   1.408 -0.2958  1.6363 -2.1532
22589SOL    HW269209   7.111   0.170   1.473  0.5028  2.1675 -0.2982
22590SOL     OW69210   6.982   5.111   3.631  0.0736  0.0779  0.3836
22590SOL    HW169211   6.938   5.195   3.646 -3.1071 -1.2669 -0.5614
22590SOL    HW269212   6.944   5.053   3.697  1.0472 -1.0421 -0.0095
22591SOL     OW69213   7.335   6.675   3.970 -0.7183  0.0686  0.3975
22591SOL    HW169214   7.305   6.587   3.993  0.7110 -0.5444  0.0651
22591SOL    HW269215   7.268   6.709   3.911 -0.1010 -1.8331 -1.5707
22592SOL     OW69216   5.360   0.086  11.314  0.1639 -0.0111 -0.6267
22592SOL    HW169217   5.420   0.158  11.334  1.5556 -0.9974 -1.0609
22592SOL    HW269218   5.357   0.034  11.393 -1.4082  0.8495 -0.0669
22593SOL     OW69219   5.994   6.153   1.308 -0.0105 -0.1225 -0.0035
22593SOL    HW169220   5.931   6.213   1.349 -0.0396  0.3542 -0.7337
22593SOL    HW269221   5.969   6.067   1.341  0.1191  0.2714  1.1716
22594SOL     OW69222   5.986   0.766   3.646 -0.4046  0.4375  0.0034
22594SOL    HW169223   5.927   0.817   3.701  0.2108 -0.7510  1.8275
22594SOL    HW269224   6.017   0.695   3.702  1.2301 -0.1125 -1.5011
22595SOL     OW69225   5.062   0.309   1.383  0.1458  0.1612  0.2636
22595SOL    HW169226   4.980   0.293   1.337  1.6833 -1.3297 -2.2335
22595SOL    HW269227   5.089   0.223   1.415  0.0748  0.8712  2.4276
22596SOL     OW69228   7.424   7.229   4.824 -0.9028  0.7020 -0.0558
22596SOL    HW169229   7.483   7.296   4.858  2.5721 -2.7442  1.5249
22596SOL    HW269230   7.436   7.233   4.729  2.4481 -0.0996  0.1919
22597SOL     OW69231   5.788   6.433   3.246  0.5815 -0.1082  0.0436
22597SOL    HW169232   5.835   6.377   3.185  1.0783 -0.0372  0.3525
22597SOL    HW269233   5.698   6.434   3.214  0.6062 -0.9379 -0.0694
22598SOL     OW69234   4.656   6.592   2.732 -0.1749 -0.0321  0.4065
22598SOL    HW169235   4.722   6.568   2.667  3.5298  2.9180  2.6815
22598SOL    HW269236   4.620   6.675   2.699 -0.3333  0.0384  0.7542
22599SOL     OW69237   5.819   6.560   4.121  0.2427  0.0652  0.6658
22599SOL    HW169238   5.880   6.617   4.168  0.7574  0.9055 -0.9468
22599SOL    HW269239   5.750   6.619   4.091 -0.0528 -0.4423  0.3360
22600SOL     OW69240   7.504   0.841   2.294 -0.3907  0.2318 -0.2517
22600SOL    HW169241   7.430   0.892   2.328 -0.1398 -0.5471  1.6054
22600SOL    HW269242   7.578   0.869   2.348 -0.3481 -2.3881  1.2078
22601SOL     OW69243   6.733   5.695   1.866  0.5674 -0.0173  0.5140
22601SOL    HW169244   6.691   5.615   1.898  0.7261  0.3467  1.6967
22601SOL    HW269245   6.766   5.672   1.780 -1.7493 -0.4327 -0.3445
22602SOL     OW69246   4.728   0.029   3.629 -0.0234 -0.3192 -0.0206
22602SOL    HW169247   4.660  -0.034   3.605 -0.2013  0.6381 -2.2762
22602SOL    HW269248   4.689   0.081   3.698 -0.0583 -2.3065  1.5360
22603SOL     OW69249   3.789   6.038   2.556  0.2293  0.1799 -0.2977
22603SOL    HW169250   3.844   5.984   2.613  0.1932  2.4364  2.0461
22603SOL    HW269251   3.840   6.049   2.476  2.7274  1.2330  1.3302
22604SOL     OW69252   6.413   0.204   2.797 -0.4314 -0.0488 -0.2120
22604SOL    HW169253   6.337   0.213   2.739 -0.1303  0.4313 -0.5358
22604SOL    HW269254   6.477   0.154   2.746 -0.3975 -0.1585 -0.0633
22605SOL     OW69255   6.882   6.630   2.964 -0.3144  0.3580 -0.0978
22605SOL    HW169256   6.914   6.627   3.054 -0.1671  0.2409 -0.1556
22605SOL    HW269257   6.955   6.598   2.911 -0.2223  0.9055 -0.3050
22606SOL     OW69258   5.795   5.975   0.914 -1.4541  0.1236 -0.5278
22606SOL    HW169259   5.854   6.035   0.869 -1.0932  0.6029  0.5437
22606SOL    HW269260   5.767   6.024   0.992 -1.7652 -0.8119 -0.0437
22607SOL     OW69261   7.339   0.877   0.509 -0.3080  0.1049  0.3374
22607SOL    HW169262   7.338   0.960   0.558 -1.6329  0.1412  0.2906
22607SOL    HW269263   7.427   0.843   0.522 -0.5546  0.1759  2.6734
22608SOL     OW69264   5.825   6.353   2.954  1.0351 -0.2622 -0.0680
22608SOL    HW169265   5.858   6.270   2.920  0.0314  0.3345 -2.8407
22608SOL    HW269266   5.884   6.419   2.917  0.5133  0.3839  0.2337
22609SOL     OW69267   6.589   6.306   3.423  0.2977 -0.7131  0.3813
22609SOL    HW169268   6.529   6.357   3.369  2.3771  0.6369 -0.8348
22609SOL    HW269269   6.579   6.343   3.511 -0.1587 -0.0484  0.0601
22610SOL     OW69270   6.123   6.298   2.771 -0.3639  0.1650 -0.1443
22610SOL    HW169271   6.161   6.227   2.822  1.6600  1.2360 -0.0577
22610SOL    HW269272   6.135   6.272   2.680  1.7848  0.9927 -0.1600
22611SOL     OW69273   6.926   6.839   2.584  1.0019 -0.4710  0.1765
22611SOL    HW169274   6.884   6.755   2.598  0.2730 -0.2364 -0.5221
22611SOL    HW269275   6.856   6.896   2.553  2.0069 -0.3177 -1.9402
22612SOL     OW69276   4.768   5.979   3.443 -0.0360 -0.2034 -0.1098
22612SOL    HW169277   4.701   6.044   3.461 -0.2801 -0.7919  1.3088
22612SOL    HW269278   4.719   5.898   3.424  0.2653 -0.1225 -1.3200
22613SOL     OW69279   4.592   0.193   0.794 -0.1918  0.4353 -0.0817
22613SOL    HW169280   4.564   0.196   0.703 -1.3613  0.2049  0.2527
22613SOL    HW269281   4.531   0.250   0.840 -0.2162 -0.2067  0.7047
22614SOL     OW69282   5.968   6.333   4.924 -0.3139  0.1440  0.6229
22614SOL    HW169283   5.935   6.360   5.010  1.9917 -1.3562  2.1090
22614SOL    HW269284   5.950   6.239   4.921  0.2856  0.0469 -0.2067
22615SOL     OW69285   7.151   7.379   7.614 -0.5441 -0.0646 -0.5361
22615SOL    HW169286   7.247   7.381   7.618 -0.5018  0.7079 -1.3862
22615SOL    HW269287   7.123   7.371   7.705  0.3340 -1.9504 -0.3923
22616SOL     OW69288   4.039   5.808   4.554 -0.1737  0.5449 -0.2840
22616SOL    HW169289   4.101   5.848   4.615  1.5467  3.1300 -3.4062
22616SOL    HW269290   3.976   5.878   4.534 -0.8850 -0.3314 -1.2102
22617SOL     OW69291   7.993   7.402   4.385  0.4995 -0.1908  0.1376
22617SOL    HW169292   8.027   7.405   4.474 -0.3130  0.7459  0.4340
22617SOL    HW269293   8.071   7.399   4.329  1.0946  1.6061  0.8022
22618SOL     OW69294   0.294   7.968   4.895 -0.1623 -0.4647 -0.2504
22618SOL    HW169295   0.216   8.018   4.921  0.7454  0.0798  1.5580
22618SOL    HW269296   0.363   7.999   4.953  1.2661 -1.4244 -1.3695
22619SOL     OW69297   7.420   6.410   5.092 -0.3444  0.3005  0.2702
22619SOL    HW169298   7.352   6.396   5.158 -0.3608  0.4562  0.2873
22619SOL    HW269299   7.444   6.322   5.063  0.5367  0.1530  1.3822
22620SOL     OW69300   7.647   5.638   5.889  0.3560  0.1511  0.3618
22620SOL    HW169301   7.627   5.633   5.982  2.2924  1.5254  0.9274
22620SOL    HW269302   7.741   5.618   5.884  0.6883  1.7770 -1.0507
22621SOL     OW69303   7.127   6.006   3.890 -0.2670 -0.0376  0.5268
22621SOL    HW169304   7.129   6.079   3.951 -0.8265 -0.0182  0.5317
22621SOL    HW269305   7.190   6.029   3.822 -0.2069  0.2986  0.6941
22622SOL     OW69306   6.241   6.574   5.049  0.0756  0.0772  0.0932
22622SOL    HW169307   6.197   6.580   5.134 -1.1480  0.0335 -0.5069
22622SOL    HW269308   6.249   6.480   5.033  0.0477  0.0840  0.0390
22623SOL     OW69309   7.020   5.838   5.487  0.5483  0.3903  0.1406
22623SOL    HW169310   6.937   5.794   5.501  1.1203 -0.8859 -0.2550
22623SOL    HW269311   7.025   5.905   5.555 -0.6107  0.2286  0.3984
22624SOL     OW69312   0.052   7.231   5.460 -0.2676 -1.5701 -0.0406
22624SOL    HW169313   0.054   7.157   5.522 -0.4130  0.3445  2.4195
22624SOL    HW269314   0.133   7.222   5.410  1.6021 -1.4869  2.7197
22625SOL     OW69315   4.818   7.124   5.189 -0.2644 -0.0045 -0.1487
22625SOL    HW169316   4.829   7.219   5.190  2.6437 -0.1516  3.1751
22625SOL    HW269317   4.762   7.105   5.265  1.2234 -0.9968  0.7532
22626SOL     OW69318   7.155   7.038   3.903  0.3301 -0.2954  0.1478
22626SOL    HW169319   7.158   7.098   3.828  0.1761 -0.3455  0.1004
22626SOL    HW269320   7.176   7.092   3.979  0.4235 -0.2307  0.0753
22627SOL     OW69321   5.216   6.185   6.017 -0.0418  0.0901 -0.0984
22627SOL    HW169322   5.288   6.168   6.077 -0.6806 -0.2326  0.5963
22627SOL    HW269323   5.139   6.193   6.073 -0.5520  0.4179 -0.8221
22628SOL     OW69324   7.296   5.735   4.822  0.0741 -0.2211 -0.2625
22628SOL    HW169325   7.201   5.743   4.819 -0.0812 -1.6222  0.0769
22628SOL    HW269326   7.326   5.767   4.736 -0.5526  1.6034  0.1577
22629SOL     OW69327   6.007   7.328   6.043 -0.3975 -0.0356  0.1977
22629SOL    HW169328   5.946   7.303   6.112 -0.0568 -0.1758  0.4496
22629SOL    HW269329   5.978   7.280   5.966 -0.9854  0.3828  0.1510
22630SOL     OW69330   7.856   6.906   6.227 -0.1648  0.8047  0.1083
22630SOL    HW169331   7.771   6.878   6.194  0.4111  1.2823 -1.8804
22630SOL    HW269332   7.867   6.994   6.191  1.2548  0.6690  0.1761
22631SOL     OW69333   0.432   0.330   5.074  0.2654  0.3689 -0.3356
22631SOL    HW169334   0.453   0.240   5.047 -1.6804 -0.7574  1.6361
22631SOL    HW269335   0.389   0.321   5.158 -0.5320  3.1488 -0.3368
22632SOL     OW69336   4.210   7.407   4.194  0.2960  0.4506  0.4313
22632SOL    HW169337   4.267   7.413   4.117 -0.0839 -1.0934 -0.0067
22632SOL    HW269338   4.269   7.423   4.268  0.8413  1.0994 -0.1274
22633SOL     OW69339   6.690   7.392   6.223  0.3371  0.2850  0.4449
22633SOL    HW169340   6.707   7.321   6.286 -1.3870 -1.6497 -1.1077
22633SOL    HW269341   6.775   7.409   6.183  0.9809 -0.2003  1.5482
22634SOL     OW69342   7.221   6.216   3.655  0.2392 -0.3371 -0.2497
22634SOL    HW169343   7.127   6.234   3.660  0.5989  1.5669  0.3506
22634SOL    HW269344   7.263   6.289   3.701  2.0681 -0.5382 -1.4596
22635SOL     OW69345   1.310   6.462   6.092 -0.1882 -0.1064  0.0374
22635SOL    HW169346   1.369   6.499   6.158 -0.6960  0.7770  0.0034
22635SOL    HW269347   1.368   6.410   6.036  0.6266  1.0068 -0.1889
22636SOL     OW69348   4.939   6.944   5.013 -0.8463  0.2943  0.0103
22636SOL    HW169349   4.919   6.977   5.101 -4.1797 -0.2460 -0.4095
22636SOL    HW269350   4.977   7.018   4.967 -3.2831  2.0364  0.6224
22637SOL     OW69351   1.440   7.383   3.889  0.6549 -0.4022  0.0671
22637SOL    HW169352   1.471   7.347   3.972 -0.0629  0.9785  0.9775
22637SOL    HW269353   1.483   7.468   3.882  1.4205 -0.8802 -1.4525
22638SOL     OW69354   5.144   6.136   4.125  0.1193 -0.1009 -0.3671
22638SOL    HW169355   5.095   6.147   4.207  1.1964 -0.5628  0.3661
22638SOL    HW269356   5.097   6.066   4.079  0.9306 -1.6627  1.0443
22639SOL     OW69357   6.497   7.502   4.427 -0.0843  0.0626  0.0674
22639SOL    HW169358   6.410   7.523   4.392 -0.0579 -0.0995 -0.0946
22639SOL    HW269359   6.481   7.428   4.486  0.3181 -1.7258 -1.9475
22640SOL     OW69360   6.713   7.742   5.384 -0.2430 -0.4077 -0.0889
22640SOL    HW169361   6.693   7.649   5.377 -1.2745 -0.0634 -2.6395
22640SOL    HW269362   6.806   7.748   5.365  0.0854 -0.9986  1.2358
22641SOL     OW69363   7.013   6.168   5.986  0.3764  0.7128 -0.4271
22641SOL    HW169364   7.087   6.229   5.980  0.5498  0.6325  0.7103
22641SOL    HW269365   7.033   6.099   5.923  1.4516  0.5139  0.1151
22642SOL     OW69366   6.695   5.893   5.865  0.3686 -0.2787  0.0674
22642SOL    HW169367   6.678   5.958   5.933 -1.7043  0.1223 -0.7578
22642SOL    HW269368   6.692   5.942   5.783 -0.9007 -1.3195 -0.5530
22643SOL     OW69369   7.202   5.687   6.867 -0.5254 -0.4733 -0.5271
22643SOL    HW169370   7.185   5.763   6.811  0.1803  1.8309  2.1138
22643SOL    HW269371   7.136   5.694   6.937 -0.8405 -2.7115 -0.5311
22644SOL     OW69372   5.465   5.794   5.668 -0.0902  0.3299  0.2118
22644SOL    HW169373   5.526   5.867   5.657 -0.9153  0.8212 -1.3094
22644SOL    HW269374   5.438   5.771   5.579 -0.6678 -1.1421  0.7335
22645SOL     OW69375   5.198   1.683   6.793  0.1245  0.7655  0.4274
22645SOL    HW169376   5.137   1.641   6.853 -1.0930  0.5737 -0.8884
22645SOL    HW269377   5.142   1.736   6.736  1.3119  1.5005 -0.0884
22646SOL     OW69378   7.763   7.319   3.440  0.4123 -0.3360 -0.6095
22646SOL    HW169379   7.760   7.229   3.408  2.9243  0.3830 -3.2476
22646SOL    HW269380   7.807   7.313   3.525  0.9923 -1.5687 -0.9780
22647SOL     OW69381   5.498   7.988   6.156 -0.5678 -0.6228  0.4015
22647SOL    HW169382   5.549   7.919   6.114 -0.3518 -0.5097  0.4755
22647SOL    HW269383   5.555   8.021   6.225 -0.0149  0.7513 -0.6761
22648SOL     OW69384   7.571   6.422   5.995 -0.3632  0.2428 -0.2986
22648SOL    HW169385   7.626   6.427   5.916 -1.3276  1.6982 -0.9200
22648SOL    HW269386   7.523   6.340   5.986  0.0050  0.0862 -0.9092
22649SOL     OW69387   0.251   6.866   3.751  0.1891 -0.0861  0.1232
22649SOL    HW169388   0.164   6.902   3.730 -0.2521 -0.5705  1.0487
22649SOL    HW269389   0.273   6.810   3.677 -0.0763  0.4146 -0.3384
22650SOL     OW69390   6.487   1.341   3.610  0.2070  0.0652 -0.0724
22650SOL    HW169391   6.449   1.293   3.536 -0.7173  2.5699 -1.3471
22650SOL    HW269392   6.573   1.369   3.578 -0.2339  1.2365 -0.2951
22651SOL     OW69393   6.351   6.510   4.806  0.0627  0.1143 -0.3535
22651SOL    HW169394   6.318   6.558   4.882 -1.0933  3.1681 -2.5939
22651SOL    HW269395   6.277   6.453   4.781  0.7257 -1.5106  1.1319
22652SOL     OW69396   7.993   5.706   4.729  0.5174  0.1219 -0.0274
22652SOL    HW169397   7.971   5.629   4.676  0.8751  0.1917 -0.2787
22652SOL    HW269398   8.045   5.671   4.802 -0.0951  0.0070  0.3668
22653SOL     OW69399   0.105   7.207   3.052  0.5414 -0.0765 -0.5216
22653SOL    HW169400   0.011   7.218   3.033  0.5336 -1.0043 -1.0640
22653SOL    HW269401   0.116   7.112   3.060  1.5032  0.0111 -0.7882
22654SOL     OW69402   5.862   6.700   5.823  0.9651 -0.0361 -0.4161
22654SOL    HW169403   5.833   6.624   5.873  0.8932 -0.0625 -0.4988
22654SOL    HW269404   5.891   6.664   5.740 -1.9925  0.3151 -1.7255
22655SOL     OW69405   5.894   5.434   5.615 -0.1848 -0.6478 -0.2430
22655SOL    HW169406   5.849   5.463   5.694  0.8437  1.0277 -0.2261
22655SOL    HW269407   5.907   5.513   5.564  0.8161 -1.4120 -1.2360
22656SOL     OW69408   5.360   5.581   7.109 -0.5677  0.3496  0.7261
22656SOL    HW169409   5.293   5.524   7.147 -0.9880  0.7308  0.5744
22656SOL    HW269410   5.339   5.668   7.144 -1.2033  0.7904 -0.6726
22657SOL     OW69411   7.717   5.833   6.297 -0.3578 -0.4005  0.3676
22657SOL    HW169412   7.643   5.864   6.350 -0.6718 -0.0554 -0.2607
22657SOL    HW269413   7.733   5.904   6.235  0.6159 -0.3986  0.6048
22658SOL     OW69414   7.030   6.360   6.660 -0.1253  0.5112  0.1994
22658SOL    HW169415   6.935   6.350   6.652 -0.4295  0.1114  3.3326
22658SOL    HW269416   7.066   6.291   6.604 -1.6731  0.2392 -0.5200
22659SOL     OW69417   6.192   7.332   2.777  0.1333  0.2568  0.3019
22659SOL    HW169418   6.278   7.290   2.770 -1.4725 -3.0163 -1.5200
22659SOL    HW269419   6.146   7.306   2.698 -2.2406  2.8514  0.6895
22660SOL     OW69420   4.691   7.653   5.736 -0.1871 -0.5525  0.7269
22660SOL    HW169421   4.699   7.744   5.765 -0.7060 -0.5307  0.8042
22660SOL    HW269422   4.685   7.603   5.817  1.3600 -0.7891  0.7226
22661SOL     OW69423   6.150   7.842   5.068  0.3830 -0.0956  0.4535
22661SOL    HW169424   6.216   7.910   5.056  0.8107 -0.4892  0.5591
22661SOL    HW269425   6.074   7.889   5.102  0.4935  0.4105  0.0248
22662SOL     OW69426   6.830   7.510   5.904 -0.2511  0.2664  0.2948
22662SOL    HW169427   6.896   7.549   5.962 -0.6930  0.6600  0.5432
22662SOL    HW269428   6.768   7.581   5.888 -0.8582 -0.2303  0.4348
22663SOL     OW69429   7.145   6.663   4.760 -0.5199  0.3711  0.5135
22663SOL    HW169430   7.206   6.600   4.799  1.6117  1.4631 -0.8307
22663SOL    HW269431   7.064   6.652   4.809  0.4776 -1.7953  1.8187
22664SOL     OW69432   5.682   6.367   7.169 -0.3212 -0.2772 -0.2727
22664SOL    HW169433   5.693   6.374   7.074  0.0491 -1.1992 -0.3018
22664SOL    HW269434   5.594   6.403   7.185 -0.5149 -0.4159 -0.9973
22665SOL     OW69435   7.524   5.290   3.434 -0.2255 -0.3265 -0.1659
22665SOL    HW169436   7.493   5.295   3.343 -0.6824  1.0269  0.0359
22665SOL    HW269437   7.460   5.235   3.478 -0.4115 -0.3887 -0.5087
22666SOL     OW69438   6.496   0.244   5.773 -0.1818 -0.0248  0.1651
22666SOL    HW169439   6.444   0.204   5.703 -0.1806  0.1943  0.0380
22666SOL    HW269440   6.464   0.333   5.779  0.7626  0.3763 -0.5067
22667SOL     OW69441   7.535   6.637   4.741 -0.2792  0.1913 -0.2623
22667SOL    HW169442   7.462   6.578   4.761  0.8226 -0.5113  2.1512
22667SOL    HW269443   7.551   6.626   4.648 -2.4901 -0.4970 -0.6175
22668SOL     OW69444   6.549   6.423   6.069  0.1978  0.4617  0.4905
22668SOL    HW169445   6.633   6.469   6.074  0.7155 -0.1663 -1.3746
22668SOL    HW269446   6.548   6.387   5.980 -2.1451  0.6107  0.4175
22669SOL     OW69447   6.225   7.190   4.521 -0.5104  0.2295  0.3058
22669SOL    HW169448   6.316   7.197   4.492 -0.7335  1.0609 -0.2201
22669SOL    HW269449   6.201   7.099   4.502  0.0990  0.1052  0.1089
22670SOL     OW69450   5.334   6.313   3.236 -0.0065  0.2639  0.3703
22670SOL    HW169451   5.384   6.274   3.307  1.2886  0.8775 -0.1701
22670SOL    HW269452   5.400   6.353   3.179 -0.7821 -1.8526 -2.2320
22671SOL     OW69453   5.916   7.654   6.109  0.7080 -0.1252 -0.5951
22671SOL    HW169454   5.950   7.670   6.021 -0.7241  1.2142 -0.9688
22671SOL    HW269455   5.951   7.727   6.161 -1.7571  1.5327 -1.0893
22672SOL     OW69456   7.929   0.040   5.261 -0.5916 -0.5187  0.4874
22672SOL    HW169457   7.843   0.082   5.261 -0.9127 -1.1534 -0.1101
22672SOL    HW269458   7.950   0.028   5.169  1.6165  2.5421  0.4599
22673SOL     OW69459   5.245   7.457   5.060 -0.3191  0.2854 -0.0758
22673SOL    HW169460   5.171   7.423   5.109 -0.6477 -1.2850 -1.5648
22673SOL    HW269461   5.209   7.531   5.010 -1.0268 -0.7002 -1.0760
22674SOL     OW69462   6.960   6.667   3.384  0.0720 -0.1450 -0.1888
22674SOL    HW169463   6.888   6.635   3.439  1.6583 -0.4399  1.8547
22674SOL    HW269464   6.973   6.598   3.319 -0.9482 -0.4525 -0.0944
22675SOL     OW69465   5.690   7.352   4.207  0.6833  0.9615  0.2665
22675SOL    HW169466   5.697   7.258   4.223  2.6287  0.9128 -0.6138
22675SOL    HW269467   5.625   7.382   4.270 -1.3835 -1.2425 -0.6847
22676SOL     OW69468   7.509   6.711   3.227 -0.3442 -0.0480  0.2380
22676SOL    HW169469   7.526   6.720   3.133  2.5259  3.7277  0.8805
22676SOL    HW269470   7.541   6.624   3.249 -0.6148 -0.8234 -2.1299
22677SOL     OW69471   5.205   7.754   5.635 -0.4865  0.6172  0.1535
22677SOL    HW169472   5.214   7.837   5.588 -3.0526  1.1010  0.3581
22677SOL    HW269473   5.183   7.779   5.724 -3.4181 -0.1694 -0.2547
22678SOL     OW69474   5.877   7.154   5.819  0.2162  0.2304  0.5775
22678SOL    HW169475   5.830   7.104   5.752  0.4843 -0.3451  0.8111
22678SOL    HW269476   5.831   7.132   5.901 -1.8598  3.0158  0.3050
22679SOL     OW69477   6.822   5.543   5.151 -0.5684  0.4887  0.2025
22679SOL    HW169478   6.793   5.628   5.119  0.0424 -0.2961 -2.7044
22679SOL    HW269479   6.742   5.502   5.185 -1.7609  0.6751 -2.1753
22680SOL     OW69480   7.002   4.354   5.298  0.0884 -0.2894  0.0574
22680SOL    HW169481   7.054   4.425   5.335 -0.5828  0.6386 -0.7039
22680SOL    HW269482   6.919   4.396   5.274 -0.5039 -1.4390  0.0145
22681SOL     OW69483   7.816   6.588   4.646 -0.5160  0.0296  0.8060
22681SOL    HW169484   7.756   6.547   4.584 -0.9293  0.9426  0.5862
22681SOL    HW269485   7.773   6.577   4.731  0.1541 -1.4149  0.9899
22682SOL     OW69486   7.703   4.244   6.194  0.2310 -0.0493  0.0584
22682SOL    HW169487   7.773   4.304   6.169  0.2128 -1.0179 -2.6146
22682SOL    HW269488   7.721   4.164   6.145 -0.2077 -2.0079  2.8792
22683SOL     OW69489   6.452   7.078   5.000  0.2015 -0.0701 -0.8120
22683SOL    HW169490   6.522   7.135   5.034  0.1532 -0.4302 -0.0853
22683SOL    HW269491   6.403   7.134   4.940  1.3497  0.0815 -1.6542
22684SOL     OW69492   6.812   6.652   5.778 -0.3981  0.0229  0.2452
22684SOL    HW169493   6.874   6.712   5.737 -0.6559 -1.1110 -1.9895
22684SOL    HW269494   6.729   6.700   5.779 -0.8394 -0.5371 -2.4474
22685SOL     OW69495   1.169   6.603   5.865  0.6607 -0.7677  0.4945
22685SOL    HW169496   1.168   6.542   5.938 -1.4930 -1.3156  0.0837
22685SOL    HW269497   1.151   6.688   5.905  1.0215 -0.8199  0.7699
22686SOL     OW69498   0.518   6.448   5.035 -0.3718  0.0017  0.2840
22686SOL    HW169499   0.601   6.413   5.067 -0.1120  0.2690 -0.1063
22686SOL    HW269500   0.454   6.419   5.101 -0.0372 -0.5317  0.3841
22687SOL     OW69501   7.302   6.336   3.883 -0.0174 -0.2424 -0.7768
22687SOL    HW169502   7.257   6.300   3.959  0.7806  1.0871  0.3869
22687SOL    HW269503   7.393   6.347   3.912  0.6018 -0.8477 -2.3406
22688SOL     OW69504   6.366   1.949   2.067 -0.0312 -0.0415  0.3998
22688SOL    HW169505   6.396   2.000   1.992 -0.5414  0.8025  0.7536
22688SOL    HW269506   6.447   1.930   2.116  0.0154  2.1626  1.3057
22689SOL     OW69507   4.925   5.458   4.380 -0.3075  0.0031 -0.0168
22689SOL    HW169508   4.995   5.486   4.321  0.4866  0.5298  1.1380
22689SOL    HW269509   4.844   5.491   4.339 -0.0331 -1.4443 -1.8792
22690SOL     OW69510   7.325   5.511   3.854 -0.2690 -0.1597 -0.4213
22690SOL    HW169511   7.406   5.498   3.805  0.9621  0.9335  1.2110
22690SOL    HW269512   7.283   5.586   3.812  1.3796  1.5507  0.8265
22691SOL     OW69513   0.138   6.344   4.934  0.1006 -0.5514 -0.0938
22691SOL    HW169514   0.056   6.335   4.980  0.8007 -0.0653  1.3001
22691SOL    HW269515   0.182   6.260   4.945 -0.7541 -1.3349 -2.0577
22692SOL     OW69516   6.651   7.238   5.157 -0.1460  0.2815 -0.5641
22692SOL    HW169517   6.611   7.206   5.237 -0.3947 -0.2462 -0.8969
22692SOL    HW269518   6.745   7.225   5.170 -0.2529 -0.7438 -0.7617
22693SOL     OW69519   5.874   6.345   5.243  0.0318 -0.0363  0.4770
22693SOL    HW169520   5.781   6.363   5.225 -0.1943 -1.0903  0.5278
22693SOL    HW269521   5.877   6.329   5.338  0.2246 -0.2391  0.4370
22694SOL     OW69522   6.617   7.098   3.587  0.1474  0.0495  0.0905
22694SOL    HW169523   6.522   7.112   3.597  0.1943  0.3277  0.1462
22694SOL    HW269524   6.642   7.152   3.512  0.5043  1.0444  0.9088
22695SOL     OW69525   7.752   5.826   4.739  0.3262  0.9035  0.3723
22695SOL    HW169526   7.842   5.797   4.752 -0.4272 -0.9357  1.8721
22695SOL    HW269527   7.744   5.906   4.790  1.5602  2.0789 -1.2029
22696SOL     OW69528   7.108   5.199   5.577  0.4507 -1.2880  0.3011
22696SOL    HW169529   7.167   5.274   5.584  2.2054 -2.6458  0.4638
22696SOL    HW269530   7.051   5.221   5.503 -0.4725  1.0904  1.5846
22697SOL     OW69531   0.472   6.930   7.014  0.4203 -0.1555 -0.5811
22697SOL    HW169532   0.463   7.021   6.987  0.4810 -0.3208 -1.1622
22697SOL    HW269533   0.383   6.896   7.013  0.3379  0.0295  0.1148
22698SOL     OW69534   5.851   5.191   4.457 -0.0323  0.2087  0.4854
22698SOL    HW169535   5.928   5.148   4.495  0.5151  1.8586  1.3458
22698SOL    HW269536   5.813   5.241   4.529 -2.1759 -0.8495  0.1825
22699SOL     OW69537   5.954   4.195   3.526  0.2917 -0.2867 -0.3093
22699SOL    HW169538   5.986   4.174   3.614  1.0498 -1.1090 -0.7692
22699SOL    HW269539   5.942   4.110   3.484 -0.7166  0.0806 -0.7838
22700SOL     OW69540   6.486   7.147   3.259  0.2446 -0.8958  0.7350
22700SOL    HW169541   6.463   7.053   3.257  0.1424 -0.8601 -0.8420
22700SOL    HW269542   6.580   7.148   3.273  0.6643 -1.3660 -1.5458
22701SOL     OW69543   7.415   6.243   4.258  0.1999  0.4838 -0.1653
22701SOL    HW169544   7.333   6.248   4.307 -0.1093 -0.1526 -0.6037
22701SOL    HW269545   7.424   6.151   4.236  1.5222  0.3898  0.6797
22702SOL     OW69546   7.919   5.437   4.663  0.1616  0.3206  0.7429
22702SOL    HW169547   7.871   5.362   4.697  1.6175 -0.4783  1.1391
22702SOL    HW269548   7.888   5.446   4.573 -0.1422 -0.6847  0.7262
22703SOL     OW69549   6.629   5.575   3.683  0.0666  0.3267  0.1569
22703SOL    HW169550   6.577   5.515   3.735 -0.2023  1.5916  1.3989
22703SOL    HW269551   6.594   5.566   3.594 -0.6627 -0.5623  0.5175
22704SOL     OW69552   5.611   7.024   2.597  0.3394 -0.4892  0.4928
22704SOL    HW169553   5.584   7.054   2.510  0.1611 -0.7754  0.4469
22704SOL    HW269554   5.649   7.101   2.639  2.6538 -0.8759 -0.7266
22705SOL     OW69555   6.534   6.236   4.612 -0.3754 -0.2206  0.1739
22705SOL    HW169556   6.576   6.178   4.676 -1.2743  0.1414  1.1183
22705SOL    HW269557   6.441   6.232   4.634 -0.6303  0.3550 -0.7599
22706SOL     OW69558   6.722   6.214   4.419  0.8019  0.0551  0.2692
22706SOL    HW169559   6.730   6.294   4.366 -0.1180  0.8329  1.2684
22706SOL    HW269560   6.655   6.235   4.484  0.0314 -1.7838  0.1235
22707SOL     OW69561   0.019   6.852   4.191  0.1313 -0.5704 -0.3008
22707SOL    HW169562   0.048   6.940   4.216  0.4148 -1.0894  1.3578
22707SOL    HW269563   0.099   6.808   4.163 -0.0530 -0.2378 -1.3837
22708SOL     OW69564   0.259   6.587   2.867 -0.1583  0.6470  0.5304
22708SOL    HW169565   0.291   6.669   2.904 -0.3093  1.2808 -0.6701
22708SOL    HW269566   0.265   6.524   2.938  1.9265  1.1945  0.9045
22709SOL     OW69567   6.451   6.053   5.744  0.2442 -0.2723  0.2433
22709SOL    HW169568   6.529   6.022   5.698  0.1554  1.3289 -1.0762
22709SOL    HW269569   6.470   6.145   5.763 -1.6480  0.3948 -0.8920
22710SOL     OW69570   6.152   6.929   4.491 -0.1749 -0.3759 -0.4589
22710SOL    HW169571   6.156   6.867   4.564 -1.3139  0.5218  0.4228
22710SOL    HW269572   6.062   6.923   4.459 -0.5866  1.4028  0.2208
22711SOL     OW69573   0.010   7.703   2.736  0.1966 -0.6359  0.1881
22711SOL    HW169574  -0.064   7.653   2.703  0.6108 -0.7791 -0.5503
22711SOL    HW269575   0.086   7.649   2.716  0.8190  0.9292 -2.0925
22712SOL     OW69576   6.549   3.774   5.440  0.0649  0.7032 -0.2933
22712SOL    HW169577   6.463   3.757   5.403 -0.1891 -0.1108  0.6308
22712SOL    HW269578   6.603   3.800   5.365 -0.8153  0.5973 -0.9758
22713SOL     OW69579   7.766   6.741   4.266  0.2934 -0.1623 -0.2796
22713SOL    HW169580   7.724   6.744   4.181 -1.6657  2.0872  0.6330
22713SOL    HW269581   7.844   6.796   4.256  0.5833 -0.6764 -0.8564
22714SOL     OW69582   4.910   6.009   6.694  0.3451  0.5469 -0.5097
22714SOL    HW169583   4.876   5.921   6.681 -1.0129  0.6259  1.8950
22714SOL    HW269584   4.997   5.996   6.732 -0.2851  0.1716  0.8730
22715SOL     OW69585   7.214   6.546   5.905 -0.1208 -0.1282  0.1071
22715SOL    HW169586   7.152   6.608   5.945 -0.3823  0.0908 -0.6073
22715SOL    HW269587   7.162   6.500   5.840  0.6523  0.6545 -1.1019
22716SOL     OW69588   6.686   5.707   4.446 -0.2469  0.5287 -0.1023
22716SOL    HW169589   6.668   5.663   4.362  1.8909 -1.9970  0.6407
22716SOL    HW269590   6.660   5.798   4.431 -1.5677 -0.1875 -2.9177
22717SOL     OW69591   0.116   7.583   7.111 -0.0257 -0.5543  0.1444
22717SOL    HW169592   0.028   7.547   7.095 -0.4074 -0.0447  1.0335
22717SOL    HW269593   0.144   7.542   7.193  1.2156 -1.8636 -0.8848
22718SOL     OW69594   6.971   0.140   5.561  0.0662 -0.1954 -0.4147
22718SOL    HW169595   6.895   0.176   5.606 -0.6134 -0.8652 -0.9859
22718SOL    HW269596   6.936   0.102   5.481  0.9319 -0.9654 -0.4547
22719SOL     OW69597   7.664   7.354   5.479  0.3061  0.6839 -0.2137
22719SOL    HW169598   7.616   7.281   5.520  0.4054 -0.3703 -1.8624
22719SOL    HW269599   7.616   7.432   5.505 -0.8225 -0.1278  0.2157
22720SOL     OW69600   5.197   0.311   3.049 -0.9970 -0.5685 -0.0931
22720SOL    HW169601   5.182   0.246   3.117 -1.2217 -0.7603 -0.3239
22720SOL    HW269602   5.248   0.264   2.982 -1.3499 -0.5708 -0.3612
22721SOL     OW69603   6.833   7.830   4.581 -0.2362  0.1161 -0.2186
22721SOL    HW169604   6.770   7.847   4.652 -1.1563 -0.5050 -0.8645
22721SOL    HW269605   6.779   7.808   4.506  0.6287  2.7736 -1.7379
22722SOL     OW69606   1.436   7.344   4.184  0.0233  0.7890  0.3343
22722SOL    HW169607   1.508   7.363   4.244  0.6104  1.0953 -0.4497
22722SOL    HW269608   1.360   7.388   4.223  0.7506  2.4099  0.0216
22723SOL     OW69609   7.256   6.280   5.668  0.2356 -1.1171 -0.0350
22723SOL    HW169610   7.309   6.333   5.608  0.6604 -1.8514 -0.3192
22723SOL    HW269611   7.181   6.336   5.688 -0.6903 -1.3722 -2.4256
22724SOL     OW69612   5.068   7.240   6.868 -0.1681 -0.3566 -0.1192
22724SOL    HW169613   5.026   7.302   6.808 -0.2685  0.2142  0.5372
22724SOL    HW269614   5.108   7.175   6.810 -1.0448 -0.3268 -0.7799
22725SOL     OW69615   1.143   6.285   5.826  0.0431  0.0431  0.4336
22725SOL    HW169616   1.090   6.264   5.903  1.2333  1.9346  1.8304
22725SOL    HW269617   1.230   6.250   5.845  0.3754  0.5979 -0.0236
22726SOL     OW69618   6.549   6.140   5.462  0.2076 -0.1244  0.6816
22726SOL    HW169619   6.514   6.220   5.502  1.2144  0.4621  0.4294
22726SOL    HW269620   6.508   6.137   5.375 -1.1437 -0.8186  1.3118
22727SOL     OW69621   4.915   6.626   5.894  0.2345  0.8111 -0.0545
22727SOL    HW169622   4.923   6.681   5.972 -2.5932  0.4460  0.6181
22727SOL    HW269623   4.898   6.538   5.927 -0.7988  0.6111 -1.0310
22728SOL     OW69624   6.102   7.208   3.983 -0.5645 -0.0521  0.3154
22728SOL    HW169625   6.066   7.144   3.922  1.7555 -0.8057 -0.3956
22728SOL    HW269626   6.098   7.165   4.068 -0.3640 -0.5794  0.0656
22729SOL     OW69627   7.355   6.032   4.626  0.3094  0.0778  0.1759
22729SOL    HW169628   7.385   5.941   4.631  0.6208  0.2006  0.6900
22729SOL    HW269629   7.274   6.033   4.677 -0.3313 -0.1593 -0.8331
22730SOL     OW69630   6.500   7.578   3.125  0.5833  0.0977  0.5089
22730SOL    HW169631   6.430   7.641   3.111  0.2936 -0.2237  0.4804
22730SOL    HW269632   6.580   7.626   3.106  0.2992  0.1135 -0.7378
22731SOL     OW69633   7.680   7.069   3.109 -0.7561 -0.3585 -0.6281
22731SOL    HW169634   7.743   7.141   3.106 -0.5728 -0.5166 -0.5541
22731SOL    HW269635   7.594   7.112   3.110 -0.6349 -0.1246  0.1463
22732SOL     OW69636   6.188   7.063   4.198  0.0086  0.0768  0.8398
22732SOL    HW169637   6.134   7.033   4.272  0.1152 -0.7893  0.5702
22732SOL    HW269638   6.269   7.094   4.239 -0.4981  0.9423  1.2052
22733SOL     OW69639   4.615   7.084   4.964  0.4511  0.1979 -0.1618
22733SOL    HW169640   4.680   7.066   5.033  1.2203  0.1966 -0.8667
22733SOL    HW269641   4.542   7.026   4.985  1.6765 -1.6569 -0.7037
22734SOL     OW69642   1.338   7.658   7.384 -0.2313  0.1533 -0.1101
22734SOL    HW169643   1.375   7.571   7.371  0.3947  0.3802  0.1297
22734SOL    HW269644   1.257   7.657   7.334 -1.1793 -1.1892  1.3587
22735SOL     OW69645   5.160   7.189   5.750 -0.1981  0.0063 -0.0005
22735SOL    HW169646   5.256   7.187   5.748 -0.1445  0.1703  1.4262
22735SOL    HW269647   5.138   7.280   5.731 -0.0341  0.1124  0.3034
22736SOL     OW69648   5.523   7.285   0.526  0.2277  0.5753 -0.1650
22736SOL    HW169649   5.609   7.322   0.505  0.8050 -0.6363 -0.0273
22736SOL    HW269650   5.541   7.220   0.593 -1.1741  2.2176  1.9265
22737SOL     OW69651   7.070   4.990   4.512 -0.3068  0.3752  0.2116
22737SOL    HW169652   7.111   5.021   4.431  1.0449  0.4892  0.9001
22737SOL    HW269653   7.057   5.070   4.564  1.0372  0.0821  1.0494
22738SOL     OW69654   5.759   5.176   5.610  0.1829 -0.2035  0.2322
22738SOL    HW169655   5.685   5.237   5.601  0.5115  0.4346  1.6562
22738SOL    HW269656   5.834   5.232   5.631  0.9170 -0.9236 -0.4084
22739SOL     OW69657   7.503   6.743   6.758  0.5971 -0.2864  0.3828
22739SOL    HW169658   7.438   6.674   6.750 -0.0890  0.5753 -2.8908
22739SOL    HW269659   7.458   6.812   6.808 -0.2940 -0.4967 -0.1071
22740SOL     OW69660   4.867   6.045   5.113 -0.2351  0.1158  0.0674
22740SOL    HW169661   4.943   6.006   5.069 -0.3996  1.2744 -1.3123
22740SOL    HW269662   4.851   5.987   5.188  1.8272 -0.3274  0.2479
22741SOL     OW69663   6.011   5.363   4.981  1.2632  0.4393  0.3454
22741SOL    HW169664   6.013   5.276   4.943 -0.2373  0.5871 -0.1156
22741SOL    HW269665   5.990   5.349   5.073  1.0144  0.3207  0.2692
22742SOL     OW69666   7.399   5.586   4.480  0.2573 -0.1492 -0.3486
22742SOL    HW169667   7.405   5.585   4.385 -0.5257  0.2658 -0.4091
22742SOL    HW269668   7.331   5.650   4.499  0.5266 -0.0992  0.5001
22743SOL     OW69669   7.568   6.945   4.345  0.0071  0.1725 -0.0931
22743SOL    HW169670   7.518   6.959   4.425  0.1953 -0.1921  0.0884
22743SOL    HW269671   7.634   6.880   4.368  0.0608  0.0599 -0.5462
22744SOL     OW69672   6.352   5.125   5.511 -0.1762 -0.3375  0.3594
22744SOL    HW169673   6.320   5.090   5.428 -0.5600 -0.1419  0.4238
22744SOL    HW269674   6.277   5.170   5.549 -0.7099 -2.3674  1.8996
22745SOL     OW69675   6.611   6.994   4.619 -0.0467 -0.0852 -0.5670
22745SOL    HW169676   6.685   6.964   4.566 -0.5085 -1.3191 -0.5395
22745SOL    HW269677   6.562   6.914   4.639 -1.7983  0.7809 -1.2072
22746SOL     OW69678   5.619   5.596   6.577 -0.3186 -0.1998 -0.2554
22746SOL    HW169679   5.566   5.559   6.648  1.3946 -0.4415  0.9517
22746SOL    HW269680   5.561   5.594   6.501 -1.8612 -0.9293  0.8765
22747SOL     OW69681   0.739   5.808   5.272  0.1266  0.1653  0.2204
22747SOL    HW169682   0.747   5.781   5.363 -0.8053  1.8036  0.8266
22747SOL    HW269683   0.800   5.882   5.263  0.7606 -0.4422 -0.7088
22748SOL     OW69684   3.293   5.346   3.156  0.0231  0.3891 -0.6240
22748SOL    HW169685   3.299   5.254   3.181 -0.4314  0.3449 -0.6787
22748SOL    HW269686   3.384   5.378   3.159 -0.1346  0.8812  2.9628
22749SOL     OW69687   4.366   6.675   5.912 -0.2819 -0.2295  0.2244
22749SOL    HW169688   4.436   6.614   5.889 -0.4126 -0.5172  0.5850
22749SOL    HW269689   4.326   6.697   5.828  0.1321 -0.1916  0.0316
22750SOL     OW69690   5.292   0.559   6.489  0.6609  0.4522 -0.0151
22750SOL    HW169691   5.290   0.563   6.585 -1.5029  0.0453  0.0065
22750SOL    HW269692   5.268   0.469   6.468  0.8976  0.5917 -0.9400
22751SOL     OW69693   6.780   6.997   5.759 -0.1010  0.2773  0.1059
22751SOL    HW169694   6.844   6.931   5.732 -1.4519 -0.4970 -1.3781
22751SOL    HW269695   6.815   7.032   5.840  0.7561 -2.1491  0.8737
22752SOL     OW69696   5.243   5.097   4.375 -0.2192  0.3566  0.0005
22752SOL    HW169697   5.301   5.049   4.315 -2.4322 -1.0875 -1.1297
22752SOL    HW269698   5.260   5.059   4.461  0.1220 -0.3996 -0.3964
22753SOL     OW69699   0.513   6.997   6.618  0.0431  0.2125  0.2867
22753SOL    HW169700   0.604   6.998   6.589  0.0227  1.6626  0.1868
22753SOL    HW269701   0.478   6.914   6.584  1.1817 -0.1240 -0.1117
22754SOL     OW69702   0.321   6.166   5.489  0.1131  0.1231 -0.0075
22754SOL    HW169703   0.399   6.206   5.528  0.1997 -0.4431  0.3951
22754SOL    HW269704   0.251   6.182   5.552 -0.1551  0.8227 -0.4675
22755SOL     OW69705   5.138   6.725   4.696  0.0895  0.0075 -0.9346
22755SOL    HW169706   5.058   6.674   4.712  1.6998 -2.3841  0.2117
22755SOL    HW269707   5.113   6.789   4.630 -2.2935 -1.8966 -2.0540
22756SOL     OW69708   7.444   5.314   5.069  0.4238 -0.4792 -0.3772
22756SOL    HW169709   7.419   5.357   5.151  1.7641  0.9157 -0.6534
22756SOL    HW269710   7.385   5.352   5.003 -0.4688 -1.4006 -0.1475
22757SOL     OW69711   6.753   7.490   6.500 -0.8665 -0.3180  0.2728
22757SOL    HW169712   6.724   7.466   6.588 -1.5996 -0.5877 -0.0346
22757SOL    HW269713   6.782   7.408   6.460  1.4697  0.1022  0.9625
22758SOL     OW69714   0.734   5.756   4.383 -0.0430 -0.2854 -0.4773
22758SOL    HW169715   0.664   5.691   4.378  0.2105 -0.5150 -1.2784
22758SOL    HW269716   0.707   5.816   4.452 -1.0104 -0.3995 -0.7449
22759SOL     OW69717   7.205   7.282   6.578 -0.3290  0.1690 -0.0262
22759SOL    HW169718   7.184   7.328   6.497 -0.1368  2.1197  0.9648
22759SOL    HW269719   7.188   7.346   6.647 -0.0707 -1.2843  1.4560
22760SOL     OW69720   6.170   7.037   5.461 -0.0305  0.0377 -0.2053
22760SOL    HW169721   6.196   7.002   5.376  0.2091  0.9090 -0.5058
22760SOL    HW269722   6.160   7.131   5.446 -0.6296  0.1113  0.5782
22761SOL     OW69723   6.778   5.746   5.542  0.7426 -0.0415 -0.0803
22761SOL    HW169724   6.735   5.802   5.606 -1.1342  1.4740 -2.5137
22761SOL    HW269725   6.711   5.682   5.517  1.8943 -1.5108  0.4132
22762SOL     OW69726   7.019   7.864   6.841  0.7552  0.5251  0.4242
22762SOL    HW169727   7.054   7.825   6.920 -1.5993 -1.0566  0.7891
22762SOL    HW269728   7.030   7.958   6.854  1.6903  0.2362  1.9744
22763SOL     OW69729   6.843   5.759   2.810 -0.0059  0.1504 -0.1984
22763SOL    HW169730   6.874   5.840   2.850  0.3889  0.2420 -0.6708
22763SOL    HW269731   6.923   5.711   2.789 -0.1378  0.5378 -1.7423
22764SOL     OW69732   7.124   0.706   4.510 -0.1404 -0.1019 -0.0672
22764SOL    HW169733   7.139   0.613   4.494  2.5147  0.0752  0.8871
22764SOL    HW269734   7.055   0.730   4.448 -1.3022 -2.7736  0.0310
22765SOL     OW69735   6.308   5.712   5.178  0.2960 -0.2307 -0.0915
22765SOL    HW169736   6.314   5.775   5.249  0.6855  0.0692 -0.3881
22765SOL    HW269737   6.273   5.762   5.104 -0.3908 -0.6097 -0.0318
22766SOL     OW69738   6.508   6.836   5.456  0.5832  0.1616 -0.0027
22766SOL    HW169739   6.548   6.896   5.519 -0.2815  1.2187 -0.4254
22766SOL    HW269740   6.430   6.804   5.500  1.6955 -1.6821  0.7135
22767SOL     OW69741   6.717   7.053   7.032  0.1949 -0.0302 -0.1968
22767SOL    HW169742   6.623   7.039   7.027  0.2241 -0.4907  0.3128
22767SOL    HW269743   6.752   6.967   7.056  0.6753  0.2867  0.2755
22768SOL     OW69744   0.286   6.319   4.282  0.6044  0.5853  0.7228
22768SOL    HW169745   0.356   6.277   4.232  1.1043  1.7723  0.3966
22768SOL    HW269746   0.211   6.260   4.273  1.4662 -0.5679  0.8508
22769SOL     OW69747   6.609   0.447   6.073  0.1194 -0.5526 -0.5593
22769SOL    HW169748   6.587   0.419   5.984 -2.7698  0.3981 -0.2762
22769SOL    HW269749   6.539   0.509   6.096  0.6735 -0.8737  2.4106
22770SOL     OW69750   6.728   6.191   5.969  0.0916 -0.7557  0.0020
22770SOL    HW169751   6.691   6.268   5.926  1.1163 -1.1406 -1.6494
22770SOL    HW269752   6.820   6.214   5.984  0.1848 -1.3245  0.3242
22771SOL     OW69753   6.329   6.302   4.346  0.5569  0.0734 -0.1756
22771SOL    HW169754   6.375   6.353   4.412 -0.6379 -0.0246  0.7709
22771SOL    HW269755   6.237   6.305   4.373  0.0433  0.0098 -1.8324
22772SOL     OW69756   4.478   0.488   3.458  0.1774 -0.2780 -0.1350
22772SOL    HW169757   4.414   0.519   3.522  0.0247  0.1003 -0.4692
22772SOL    HW269758   4.528   0.421   3.505  0.4072  0.3610  0.5463
22773SOL     OW69759   5.999   7.034   3.817 -0.4129  0.1304 -0.0131
22773SOL    HW169760   5.953   7.040   3.734 -1.1128  0.9090  0.4134
22773SOL    HW269761   6.045   6.950   3.814 -1.5152 -0.4606 -0.6232
22774SOL     OW69762   7.101   6.207   4.955  0.9512 -0.2246 -0.3413
22774SOL    HW169763   7.157   6.173   5.025 -0.8464 -1.4903  0.5686
22774SOL    HW269764   7.039   6.264   5.000  0.0192 -0.7415 -0.9618
22775SOL     OW69765   6.005   5.566   4.817 -0.3431 -0.4330 -0.0827
22775SOL    HW169766   5.915   5.590   4.799 -0.7921 -2.0384 -0.1672
22775SOL    HW269767   5.999   5.497   4.883  0.8227 -0.4866 -0.0027
22776SOL     OW69768   5.402   7.280   5.922  0.1498  0.2031 -0.3037
22776SOL    HW169769   5.316   7.316   5.941  0.0525  0.6577 -1.5035
22776SOL    HW269770   5.391   7.185   5.932 -1.1746  0.0076 -2.7069
22777SOL     OW69771   7.486   6.276   4.641 -0.3908  0.0902  0.2873
22777SOL    HW169772   7.486   6.302   4.549 -0.1470  1.9543  0.7832
22777SOL    HW269773   7.435   6.195   4.642 -1.5934  0.7676 -1.2914
22778SOL     OW69774   7.151   7.822   7.558  0.6634 -0.7871  0.3763
22778SOL    HW169775   7.105   7.856   7.481  0.3588 -0.1129  0.8414
22778SOL    HW269776   7.165   7.899   7.613  0.4626 -1.3270  1.2016
22779SOL     OW69777   7.040   7.203   4.122 -0.1759 -0.0885 -0.0288
22779SOL    HW169778   7.057   7.295   4.102 -1.8860  0.8064  2.2135
22779SOL    HW269779   7.116   7.176   4.174  0.3189  0.0319 -0.6690
22780SOL     OW69780   5.477   7.124   3.621 -0.0170 -0.5424  0.4493
22780SOL    HW169781   5.416   7.060   3.659 -0.7428 -0.9912 -1.3866
22780SOL    HW269782   5.554   7.073   3.597  0.5165 -0.2257  1.4139
22781SOL     OW69783   5.183   1.079   7.312  0.0197  0.7195  0.5685
22781SOL    HW169784   5.135   1.119   7.240  0.5231  1.0613  0.4200
22781SOL    HW269785   5.206   1.152   7.369  0.1452  0.5228  0.7721
22782SOL     OW69786   7.743   7.399   4.552 -0.1081 -0.4886 -0.0753
22782SOL    HW169787   7.779   7.357   4.630  0.2407  0.4812  0.3020
22782SOL    HW269788   7.819   7.434   4.505 -0.3316 -0.9105 -0.7627
22783SOL     OW69789   6.733   0.737   5.083  0.2003  0.2676 -0.2709
22783SOL    HW169790   6.667   0.670   5.095  0.7604 -0.6025 -1.7578
22783SOL    HW269791   6.754   0.767   5.171 -1.7489  0.1724  0.2532
22784SOL     OW69792   7.533   5.903   5.067  0.3625 -0.0327  0.0076
22784SOL    HW169793   7.521   5.907   5.162 -0.8976  0.2667 -0.1382
22784SOL    HW269794   7.501   5.816   5.043 -3.1141  1.2078 -0.5372
22785SOL     OW69795   0.231   6.516   5.489  0.0192  0.4173  0.2197
22785SOL    HW169796   0.147   6.522   5.442 -0.3500 -1.5005  0.5512
22785SOL    HW269797   0.206   6.521   5.581  0.3524  0.5385  0.3030
22786SOL     OW69798   6.876   6.484   4.562  0.2700  0.1775 -0.7492
22786SOL    HW169799   6.823   6.461   4.485 -0.0801  0.5331 -0.6206
22786SOL    HW269800   6.811   6.506   4.629  0.5542 -1.2910  0.0242
22787SOL     OW69801   5.055   1.191   4.138  0.1927 -0.4024  0.0137
22787SOL    HW169802   5.109   1.260   4.176 -0.7222  1.4685 -1.8275
22787SOL    HW269803   4.966   1.212   4.166  0.0549 -1.8236  0.7429
22788SOL     OW69804   5.579   7.683   6.078  0.4704 -0.3739  0.7983
22788SOL    HW169805   5.624   7.731   6.147  1.4613 -0.9675  0.5986
22788SOL    HW269806   5.629   7.601   6.070 -1.4601 -1.6830  1.4813
22789SOL     OW69807   5.997   3.662   5.833 -0.5150 -0.2199  0.4453
22789SOL    HW169808   5.917   3.630   5.790 -1.1822  1.5155  0.3307
22789SOL    HW269809   5.984   3.756   5.841  1.2197 -0.0049  1.1091
22790SOL     OW69810   7.102   5.633   2.814  0.2075  0.4173  0.2119
22790SOL    HW169811   7.160   5.629   2.738 -0.3180  2.0802 -0.3224
22790SOL    HW269812   7.131   5.561   2.870 -0.0150 -1.4788 -1.9854
22791SOL     OW69813   0.455   7.231   3.508  0.2024  0.4119  0.1285
22791SOL    HW169814   0.360   7.238   3.496 -0.0813 -0.4878  1.5362
22791SOL    HW269815   0.492   7.252   3.422 -1.2638  0.8304 -0.4318
22792SOL     OW69816   6.865   5.745   3.733 -0.3647 -0.5700 -0.1811
22792SOL    HW169817   6.783   5.706   3.703 -0.8964  0.8044 -0.5510
22792SOL    HW269818   6.840   5.798   3.809  0.2090 -0.3130 -0.1673
22793SOL     OW69819   0.089   0.026   5.477 -0.1278 -0.1249 -0.1372
22793SOL    HW169820   0.027   0.019   5.405  0.8669  2.5587 -1.4010
22793SOL    HW269821   0.048   0.089   5.537 -0.2732 -1.2110  0.9374
22794SOL     OW69822   7.185   6.992   4.383  0.3172  0.1315 -0.0783
22794SOL    HW169823   7.220   6.937   4.313  0.3103 -1.8580  1.3730
22794SOL    HW269824   7.154   6.929   4.449 -1.8084  1.8659  0.7000
22795SOL     OW69825   5.921   7.952   5.139  0.2517 -0.4264  0.0846
22795SOL    HW169826   5.879   8.036   5.118 -0.0413 -0.5323  0.2387
22795SOL    HW269827   5.853   7.902   5.183  0.8711 -0.1761  1.3638
22796SOL     OW69828   6.925   6.534   5.518  0.1715  0.6886  0.4945
22796SOL    HW169829   6.861   6.491   5.461  0.2022  0.0341  0.9471
22796SOL    HW269830   6.928   6.625   5.487 -1.1118  0.7724  0.5937
22797SOL     OW69831   0.059   0.491   5.894  0.5080  0.0335  0.2708
22797SOL    HW169832   0.143   0.477   5.849  0.0531 -1.3331 -0.2150
22797SOL    HW269833   0.041   0.406   5.935 -0.9034  0.1454 -0.0901
22798SOL     OW69834   5.528   7.884   5.515 -0.5115  0.1676 -0.2264
22798SOL    HW169835   5.474   7.961   5.496 -0.7815 -0.0538 -0.3813
22798SOL    HW269836   5.563   7.900   5.602  2.4793  2.2028 -1.6528
22799SOL     OW69837   7.235   0.041   7.027 -0.5284 -0.3285 -0.3946
22799SOL    HW169838   7.170   0.080   6.969 -1.6168 -0.5996  0.5979
22799SOL    HW269839   7.212   0.073   7.114  1.6099  0.8078 -0.1652
22800SOL     OW69840   5.954   3.321   4.385 -0.1090 -0.0772  0.5672
22800SOL    HW169841   6.021   3.318   4.453  0.3204 -1.4511  0.1114
22800SOL    HW269842   5.876   3.355   4.430  0.1861 -0.8961  1.7446
22801SOL     OW69843   6.420   7.156   4.312  0.1694  0.2584  0.1071
22801SOL    HW169844   6.458   7.211   4.243 -1.7527  0.9140 -0.5102
22801SOL    HW269845   6.485   7.088   4.327  0.4997 -0.1851 -2.7105
22802SOL     OW69846   0.049   5.203   4.361 -0.4982  0.2700 -0.1688
22802SOL    HW169847  -0.002   5.279   4.389 -1.6113 -1.2293  2.1464
22802SOL    HW269848  -0.015   5.132   4.355  1.1970 -1.7636  3.1300
22803SOL     OW69849   6.875   6.102   6.838 -0.0595  0.0272 -0.5301
22803SOL    HW169850   6.881   6.126   6.746  1.5108 -1.0471 -0.7446
22803SOL    HW269851   6.847   6.183   6.882 -1.3865  0.4053 -1.9724
22804SOL     OW69852   6.217   6.166   4.804 -0.0620 -0.4380 -0.0025
22804SOL    HW169853   6.135   6.118   4.817  0.0433 -0.4160  0.7879
22804SOL    HW269854   6.194   6.239   4.747 -0.5306 -0.6178 -0.0429
22805SOL     OW69855   0.249   5.431   3.904 -0.7579  0.3118  0.2641
22805SOL    HW169856   0.190   5.406   3.976 -2.3555  0.2377 -1.0188
22805SOL    HW269857   0.316   5.362   3.903 -1.5232 -0.4623  0.7982
22806SOL     OW69858   5.640   7.516   4.988  0.6674  0.1010  0.3367
22806SOL    HW169859   5.557   7.518   4.940 -0.4192  0.6771  2.1436
22806SOL    HW269860   5.706   7.538   4.922 -0.5148 -0.9837 -1.2799
22807SOL     OW69861   5.531   7.047   3.983 -0.5232 -0.0221  0.0477
22807SOL    HW169862   5.541   7.121   3.923  0.2248 -0.3857 -0.2888
22807SOL    HW269863   5.438   7.049   4.008 -0.9984 -0.2279 -1.5867
22808SOL     OW69864   1.196   7.841   4.639  0.1840  0.1352  0.2408
22808SOL    HW169865   1.219   7.863   4.730 -0.9332  2.8302 -0.0349
22808SOL    HW269866   1.104   7.814   4.644  0.3226 -0.3743  0.0014
22809SOL     OW69867   5.257   6.598   5.235  0.0333 -0.2447  0.1275
22809SOL    HW169868   5.217   6.602   5.323  0.4742  0.3007  0.3141
22809SOL    HW269869   5.195   6.644   5.179 -0.6100 -1.2421  0.0002
22810SOL     OW69870   6.589   5.945   4.425 -0.0191  0.0557  0.8412
22810SOL    HW169871   6.621   6.031   4.399 -0.1629 -0.1444 -0.0143
22810SOL    HW269872   6.500   5.961   4.456 -0.4886  0.0571 -0.4544
22811SOL     OW69873   6.505   6.573   6.916  0.3459 -0.0443 -0.0354
22811SOL    HW169874   6.560   6.605   6.987 -0.2195  1.2051 -0.1374
22811SOL    HW269875   6.543   6.489   6.892  1.4541  0.2255  0.7250
22812SOL     OW69876   1.543   6.768   3.453 -0.0569 -0.1720 -0.2990
22812SOL    HW169877   1.580   6.704   3.514 -1.8877 -0.3100  0.7555
22812SOL    HW269878   1.450   6.746   3.449 -0.3062  0.9984 -1.7428
22813SOL     OW69879   6.892   6.025   4.978  0.1399 -0.5598  0.3901
22813SOL    HW169880   6.977   6.065   4.960 -0.0804 -0.6555 -0.9444
22813SOL    HW269881   6.872   6.053   5.068  0.7108  1.0207  0.0724
22814SOL     OW69882   7.444   0.124   5.092 -0.1466  0.0838 -0.6201
22814SOL    HW169883   7.503   0.110   5.017 -0.8328  0.7202 -1.3029
22814SOL    HW269884   7.379   0.186   5.059 -0.1116  0.8541  0.7136
22815SOL     OW69885   7.970   6.488   5.610  0.2143  0.1801 -0.1458
22815SOL    HW169886   8.020   6.411   5.638  0.1426 -0.2282 -1.0929
22815SOL    HW269887   7.993   6.499   5.517  0.0032  1.1335 -0.0918
22816SOL     OW69888   5.895   5.245   6.022  0.4987  0.0956 -0.4025
22816SOL    HW169889   5.827   5.195   5.977  0.8053 -0.3947 -0.3280
22816SOL    HW269890   5.968   5.248   5.960  1.1148 -1.0215  0.2334
22817SOL     OW69891   0.447   5.049   5.751 -0.2295  0.2222  0.2620
22817SOL    HW169892   0.451   5.141   5.727  0.0945 -0.4054 -2.3934
22817SOL    HW269893   0.514   5.038   5.819  0.3546  1.7535 -0.0431
22818SOL     OW69894   5.653   5.597   4.364  0.3177 -0.0342  0.2900
22818SOL    HW169895   5.721   5.590   4.296  0.6722 -0.0526  0.6448
22818SOL    HW269896   5.579   5.639   4.319  0.4800 -0.2160 -0.1599
22819SOL     OW69897   0.557   4.790   3.444 -0.1730 -0.1441 -0.1691
22819SOL    HW169898   0.606   4.798   3.363 -0.8942 -1.5002 -0.7564
22819SOL    HW269899   0.577   4.703   3.477 -0.8204 -0.0594  0.4874
22820SOL     OW69900   7.174   6.318   4.689 -0.3836 -0.2078  0.3805
22820SOL    HW169901   7.209   6.393   4.736 -2.0880  0.2316  1.0301
22820SOL    HW269902   7.157   6.253   4.757  1.2270 -1.2897 -0.1918
22821SOL     OW69903   6.966   6.144   4.575 -0.1221  0.1965  0.1432
22821SOL    HW169904   6.979   6.239   4.571 -0.7092  0.3223  0.9011
22821SOL    HW269905   6.872   6.132   4.558  0.1280 -0.3332 -0.9401
22822SOL     OW69906   0.622   5.389   4.129  0.0631  0.2481  0.1666
22822SOL    HW169907   0.638   5.323   4.061  0.9295  1.6980 -1.0982
22822SOL    HW269908   0.531   5.413   4.118 -0.1838 -0.5110  0.4546
22823SOL     OW69909   0.141   4.444   3.975 -0.0140  0.4361  0.4649
22823SOL    HW169910   0.107   4.533   3.988 -2.8708 -0.2930 -1.2926
22823SOL    HW269911   0.164   4.439   3.882  0.9812 -0.4429  0.7263
22824SOL     OW69912   6.285   6.440   4.099 -0.6796  0.5269  0.3447
22824SOL    HW169913   6.318   6.394   4.177 -0.0141  0.5197  0.0652
22824SOL    HW269914   6.190   6.427   4.102 -0.4556 -1.7229 -0.2372
22825SOL     OW69915   4.711   7.492   4.239 -0.1819 -0.8221 -0.1410
22825SOL    HW169916   4.751   7.441   4.169  0.7781  1.3585 -1.2962
22825SOL    HW269917   4.692   7.577   4.199 -3.6732 -0.8497  1.0876
22826SOL     OW69918   3.997   6.778   6.094 -0.5344  0.3353 -0.8716
22826SOL    HW169919   4.050   6.711   6.050  1.0965  0.0799  1.3380
22826SOL    HW269920   3.971   6.737   6.176 -0.7625  1.9046 -0.1331
22827SOL     OW69921   5.059   4.495   7.302  0.1066 -0.0377  0.2174
22827SOL    HW169922   5.072   4.570   7.244  0.4503 -0.0863  0.2309
22827SOL    HW269923   5.031   4.424   7.244  0.1170  0.0076  0.1574
22828SOL     OW69924   6.675   6.105   4.799 -0.1842 -0.4047  0.4394
22828SOL    HW169925   6.654   6.166   4.869  2.5346  0.9568  0.1936
22828SOL    HW269926   6.752   6.058   4.830 -1.7821 -3.3604  0.3224
22829SOL     OW69927   6.149   2.048   7.024 -0.1575 -0.3952  0.7330
22829SOL    HW169928   6.175   2.025   7.113 -0.2076 -0.5777  0.7007
22829SOL    HW269929   6.217   2.110   6.995  0.2201 -0.8310  0.6671
22830SOL     OW69930   6.545   6.352   5.134 -0.1833 -0.3605 -0.4837
22830SOL    HW169931   6.576   6.262   5.144 -1.4068 -0.6225  1.3701
22830SOL    HW269932   6.455   6.343   5.103  0.3461  0.3107 -2.3413
22831SOL     OW69933   6.167   6.994   6.349 -0.1509  0.1967  0.4532
22831SOL    HW169934   6.146   6.904   6.372 -0.8983  0.2723  0.0842
22831SOL    HW269935   6.263   6.995   6.342 -0.2018 -0.9956 -1.1963
22832SOL     OW69936   6.443   6.835   7.567 -0.0391 -0.7766 -0.9118
22832SOL    HW169937   6.358   6.791   7.572 -0.8356  0.7765  0.1820
22832SOL    HW269938   6.470   6.845   7.659  0.4600  0.3327 -1.1673
22833SOL     OW69939   7.319   6.568   6.718 -0.4886 -0.1101 -0.2625
22833SOL    HW169940   7.352   6.482   6.693 -1.1937 -0.9950  1.6546
22833SOL    HW269941   7.243   6.549   6.774 -2.4994  1.7776 -2.1187
22834SOL     OW69942   7.356   6.370   6.258  0.2578 -0.0671 -0.0829
22834SOL    HW169943   7.329   6.399   6.345  0.1759 -0.6717  0.0923
22834SOL    HW269944   7.451   6.359   6.264  0.4019  0.9138 -0.3707
22835SOL     OW69945   7.083   6.643   6.553 -0.8095  0.5268 -0.1945
22835SOL    HW169946   7.082   6.711   6.620  0.3177  1.8361 -1.4629
22835SOL    HW269947   7.165   6.595   6.569 -0.9591  0.2979 -0.1121
22836SOL     OW69948   7.880   5.798   8.400  0.0155 -0.2293  0.3150
22836SOL    HW169949   7.844   5.886   8.414  0.0729 -0.1858  0.1895
22836SOL    HW269950   7.970   5.814   8.370 -0.2130 -0.3161 -0.4228
22837SOL     OW69951   4.857   5.568   5.962  0.3014  0.1788 -0.0822
22837SOL    HW169952   4.800   5.523   5.899  0.8901  0.2900 -0.7039
22837SOL    HW269953   4.800   5.587   6.037 -0.2351 -0.5866 -0.2839
22838SOL     OW69954   1.584   7.427   7.946  0.1180  0.0983  0.6609
22838SOL    HW169955   1.621   7.480   7.875  0.4859 -0.8624  0.1168
22838SOL    HW269956   1.640   7.445   8.021  0.3645  0.3174  0.4272
22839SOL     OW69957   4.367   7.209   6.477  1.0084  0.0577 -0.1610
22839SOL    HW169958   4.316   7.159   6.412 -0.8038  0.7142  0.6822
22839SOL    HW269959   4.452   7.164   6.480 -0.0419 -2.1170 -0.4604
22840SOL     OW69960   6.948   6.598   6.159  0.0403  0.3588 -0.6634
22840SOL    HW169961   7.038   6.581   6.184  0.0351  1.0518 -0.1118
22840SOL    HW269962   6.903   6.617   6.242 -0.1279  2.0820 -1.1083
22841SOL     OW69963   6.628   7.501   7.262  0.2000  0.3907  0.2312
22841SOL    HW169964   6.547   7.474   7.219  0.6358 -1.8587  0.6955
22841SOL    HW269965   6.691   7.433   7.239  0.8583 -0.1067  3.1519
22842SOL     OW69966   5.467   6.933   7.479  0.2848  0.0119  0.5088
22842SOL    HW169967   5.440   6.968   7.394  0.8600 -1.3191 -0.2508
22842SOL    HW269968   5.393   6.953   7.537  0.0059  1.1993 -0.2229
22843SOL     OW69969   6.741   5.772   8.079  0.4480 -0.5931  0.6600
22843SOL    HW169970   6.772   5.777   7.989  0.5939  0.3348  0.7593
22843SOL    HW269971   6.734   5.678   8.096 -0.6609 -0.8042 -0.6899
22844SOL     OW69972   0.050   6.552   7.139 -0.1933 -0.1286  0.4532
22844SOL    HW169973   0.084   6.486   7.199  2.3732  1.8056  1.3036
22844SOL    HW269974  -0.029   6.585   7.182 -0.4172 -1.2838  0.9567
22845SOL     OW69975   6.935   5.642   9.967  0.1808 -0.4431 -0.2240
22845SOL    HW169976   6.879   5.719   9.956 -0.7707 -0.9320  0.9585
22845SOL    HW269977   6.922   5.591   9.887  1.4192  0.9478 -1.3784
22846SOL     OW69978   6.115   6.245   6.623 -0.6735 -0.2197  0.2063
22846SOL    HW169979   6.081   6.282   6.541  0.6414  1.6701  0.4417
22846SOL    HW269980   6.183   6.184   6.595 -0.3715  0.2654 -0.1566
22847SOL     OW69981   7.838   7.260   6.707 -0.0849 -0.0602  0.1911
22847SOL    HW169982   7.892   7.189   6.673 -0.2524 -0.4468  0.7247
22847SOL    HW269983   7.896   7.336   6.710  0.7939 -0.7620  1.9161
22848SOL     OW69984   4.518   7.009   6.337 -0.0645 -0.2123 -0.2380
22848SOL    HW169985   4.597   6.998   6.283  0.9746  1.0139  0.9602
22848SOL    HW269986   4.467   6.930   6.320  0.3024  0.0144 -2.8305
22849SOL     OW69987   0.901   0.083   4.556  0.1833 -0.5223 -0.1568
22849SOL    HW169988   0.948   0.092   4.473 -0.7311 -1.9369 -0.8680
22849SOL    HW269989   0.899  -0.012   4.572 -3.6532 -0.7431 -0.9592
22850SOL     OW69990   5.126   0.396   7.310  0.2393  0.2392 -0.5148
22850SOL    HW169991   5.196   0.462   7.299  0.9897 -0.7998 -2.4141
22850SOL    HW269992   5.047   0.440   7.278  0.6962  0.2936 -1.5976
22851SOL     OW69993   0.474   6.272   6.824  0.2203 -0.0349 -0.2417
22851SOL    HW169994   0.489   6.348   6.881 -0.6986 -1.9293  2.7554
22851SOL    HW269995   0.379   6.270   6.813  0.1569 -1.1017  0.3309
22852SOL     OW69996   7.826   6.970   4.597 -0.4930 -0.3145 -0.5080
22852SOL    HW169997   7.879   6.891   4.582  0.0614 -0.1977  0.7525
22852SOL    HW269998   7.844   7.025   4.520  1.8804  0.0607  0.2413
22853SOL     OW69999   6.451   6.179   8.384 -0.3264 -0.1468 -0.2161
22853SOL    HW170000   6.532   6.201   8.339  0.7280 -1.1927  1.1145
22853SOL    HW270001   6.476   6.166   8.475 -1.7608 -1.7963 -0.0078
22854SOL     OW70002   5.453   1.513   5.515 -0.3325 -0.4991 -0.5985
22854SOL    HW170003   5.362   1.485   5.520 -0.0005 -1.4361  1.4805
22854SOL    HW270004   5.503   1.438   5.546  1.1216  0.1191 -1.3720
22855SOL     OW70005   7.615   6.390   6.525 -0.4584 -0.8224  0.2068
22855SOL    HW170006   7.651   6.379   6.437 -1.1008  0.0745 -0.1985
22855SOL    HW270007   7.665   6.463   6.562 -1.1188 -0.2632  0.0313
22856SOL     OW70008   5.789   4.534   5.814 -0.0162 -0.3536 -0.1957
22856SOL    HW170009   5.747   4.491   5.888  0.2611 -0.6350 -0.2010
22856SOL    HW270010   5.717   4.558   5.756 -0.1977 -0.5026 -0.0312
22857SOL     OW70011   6.389   7.408   7.167 -0.8878 -0.3858  0.4231
22857SOL    HW170012   6.314   7.416   7.107 -1.5615 -0.0228  1.2805
22857SOL    HW270013   6.360   7.346   7.233 -0.9034  0.6387  1.4162
22858SOL     OW70014   0.156   6.562   4.776 -0.0736  0.0692 -0.1844
22858SOL    HW170015   0.079   6.600   4.817  0.0944 -0.2059  0.3982
22858SOL    HW270016   0.184   6.494   4.837  0.3949 -0.1008 -0.5851
22859SOL     OW70017   7.472   6.306   8.289 -0.2301 -0.2483  0.6121
22859SOL    HW170018   7.419   6.307   8.210 -0.4261 -2.1922  0.6667
22859SOL    HW270019   7.554   6.264   8.263 -0.6479 -1.7519  1.6003
22860SOL     OW70020   5.562   4.764   8.715  0.0681 -0.0432  0.4682
22860SOL    HW170021   5.483   4.784   8.664  1.2795  1.2199 -1.0101
22860SOL    HW270022   5.603   4.849   8.731  2.2228 -0.7718 -0.6866
22861SOL     OW70023   6.709   6.580   6.719 -0.5586 -0.1809 -0.6247
22861SOL    HW170024   6.734   6.490   6.700 -1.1660 -0.7868  1.2139
22861SOL    HW270025   6.760   6.603   6.797 -1.9434  0.2949  0.1836
22862SOL     OW70026   7.919   6.131   5.515  0.3343  0.0681 -0.4622
22862SOL    HW170027   7.981   6.189   5.559  0.1703  0.4426 -0.7193
22862SOL    HW270028   7.905   6.059   5.576  1.2744 -0.1830 -0.5353
22863SOL     OW70029   7.006   6.023   4.286  0.2863  0.2941 -0.4352
22863SOL    HW170030   7.006   6.043   4.380  1.0611  0.2757 -0.4209
22863SOL    HW270031   6.997   5.928   4.282 -0.1135  0.3303 -0.3907
22864SOL     OW70032   0.267   6.366   5.255  0.0742  0.2627  0.3008
22864SOL    HW170033   0.262   6.401   5.344  0.3820 -0.2838  0.5454
22864SOL    HW270034   0.176   6.350   5.230 -0.4938  4.8589 -1.3689
22865SOL     OW70035   0.399   6.028   4.159  0.0644  0.5869  0.0960
22865SOL    HW170036   0.385   6.009   4.252 -0.9649 -1.1902 -0.3762
22865SOL    HW270037   0.391   5.944   4.116 -0.5073  1.5265 -1.7378
22866SOL     OW70038   7.523   0.321   7.539 -0.1207 -0.2365 -0.1463
22866SOL    HW170039   7.438   0.362   7.524  0.4396  1.4652  0.9529
22866SOL    HW270040   7.508   0.259   7.610 -0.2301  1.0084  0.9595
22867SOL     OW70041   0.408   7.495   7.151  0.0533  0.1434 -0.0921
22867SOL    HW170042   0.350   7.555   7.103 -1.3103 -0.7319  0.4262
22867SOL    HW270043   0.459   7.452   7.083 -0.2331  0.5868 -0.5960
22868SOL     OW70044   6.498   4.932   8.612 -0.5901  0.1013  0.6160
22868SOL    HW170045   6.412   4.910   8.647 -0.7429 -0.7612 -0.2701
22868SOL    HW270046   6.556   4.865   8.648 -0.0349  1.3425  2.1557
22869SOL     OW70047   6.659   5.035   5.288 -0.1361  0.1809  0.6408
22869SOL    HW170048   6.672   5.056   5.195 -1.1786  1.6454  0.7913
22869SOL    HW270049   6.732   4.977   5.310  0.0231 -0.3459 -1.1326
22870SOL     OW70050   5.285   6.123   6.776  0.1065 -0.2048  0.1108
22870SOL    HW170051   5.361   6.080   6.736  0.2334 -0.9392  1.0866
22870SOL    HW270052   5.322   6.193   6.830 -0.0005  0.2067 -0.3433
22871SOL     OW70053   4.321   1.270   7.434 -0.0893 -0.5774 -0.4703
22871SOL    HW170054   4.396   1.263   7.493 -1.1268 -3.0276  0.6797
22871SOL    HW270055   4.340   1.207   7.364 -0.3498 -0.0288 -1.0405
22872SOL     OW70056   4.941   0.147   7.961  0.0443  0.0389 -0.0531
22872SOL    HW170057   5.029   0.127   7.994  1.1105  2.0115 -1.4302
22872SOL    HW270058   4.934   0.095   7.880 -0.0673 -0.1169  0.0561
22873SOL     OW70059   6.988   4.886   5.889 -0.5415 -0.3012 -0.1701
22873SOL    HW170060   6.941   4.950   5.836  0.8741  0.3654 -0.6697
22873SOL    HW270061   7.005   4.813   5.830  3.0076  1.3428 -1.5072
22874SOL     OW70062   0.304   6.676   8.662  0.4265  0.3783  0.5425
22874SOL    HW170063   0.324   6.749   8.603 -0.9393 -0.2698 -0.7833
22874SOL    HW270064   0.265   6.609   8.606  2.1133 -1.6352  1.6179
22875SOL     OW70065   7.395   7.785   6.512 -0.6743  0.3068  0.3324
22875SOL    HW170066   7.357   7.871   6.492 -0.0084  0.3048 -1.0138
22875SOL    HW270067   7.450   7.801   6.589 -0.6242  1.0566  0.1489
22876SOL     OW70068   5.599   6.113   7.289  0.1477  0.3535  0.1294
22876SOL    HW170069   5.613   6.198   7.249 -0.1269  0.2683 -0.1506
22876SOL    HW270070   5.657   6.112   7.365  0.7701  0.4666 -0.3355
22877SOL     OW70071   5.504   1.189   6.758 -0.2925 -0.4690  0.0661
22877SOL    HW170072   5.466   1.199   6.671  0.3113  0.8375 -0.0735
22877SOL    HW270073   5.551   1.271   6.774  0.5662 -1.1324  1.1536
22878SOL     OW70074   4.959   6.269   9.184 -0.1209 -0.1760  0.0462
22878SOL    HW170075   4.866   6.277   9.202  0.1955 -0.5628  2.1045
22878SOL    HW270076   4.990   6.358   9.169 -0.7949 -0.0537 -0.6834
22879SOL     OW70077   2.830   6.976   4.487 -0.4264  0.5217 -0.2199
22879SOL    HW170078   2.889   7.044   4.454 -1.2353  0.9447 -0.8398
22879SOL    HW270079   2.828   6.910   4.418  1.3422 -0.7936  0.9076
22880SOL     OW70080   0.923   6.906   7.282  0.3571 -0.0192  0.0822
22880SOL    HW170081   0.949   6.818   7.312 -1.8990 -0.8985 -0.3804
22880SOL    HW270082   0.844   6.891   7.231 -0.2435  2.3441  0.2407
22881SOL     OW70083   5.942   6.409   7.316  0.2260  0.2695 -0.0180
22881SOL    HW170084   5.968   6.459   7.238  0.7024  0.1466  0.0622
22881SOL    HW270085   5.853   6.379   7.296  0.1362  0.7025 -0.2863
22882SOL     OW70086   6.246   7.570   8.261 -0.1196  0.3910 -0.0330
22882SOL    HW170087   6.181   7.521   8.211 -1.1459  0.9546  0.7153
22882SOL    HW270088   6.294   7.503   8.310 -1.8369  0.1322  1.3613
22883SOL     OW70089   5.882   6.885   7.825 -0.1215  0.1058 -0.0428
22883SOL    HW170090   5.838   6.881   7.740  0.6218  0.6490 -0.4551
22883SOL    HW270091   5.862   6.972   7.858  0.1435  0.1350  0.0402
22884SOL     OW70092   5.351   5.453   6.865  0.2728  0.6294  0.0440
22884SOL    HW170093   5.349   5.466   6.960 -0.9666 -1.0130  0.2821
22884SOL    HW270094   5.403   5.374   6.852 -0.5916  0.1309 -0.5276
22885SOL     OW70095   7.364   4.906   7.277 -0.6486 -0.4730 -0.3682
22885SOL    HW170096   7.295   4.951   7.228 -1.7168 -0.7551  0.8297
22885SOL    HW270097   7.318   4.863   7.349  0.6478 -1.6006 -0.1803
22886SOL     OW70098   7.207   7.611   4.855 -0.3820  0.3360 -0.3336
22886SOL    HW170099   7.223   7.620   4.761  0.7999 -0.7265 -0.2633
22886SOL    HW270100   7.288   7.643   4.896 -0.0060 -1.2282  0.2234
22887SOL     OW70101   4.936   5.399   5.084 -0.2247  0.1302 -0.0478
22887SOL    HW170102   4.885   5.479   5.099  1.3457  1.2579 -0.4586
22887SOL    HW270103   4.882   5.329   5.122 -2.4509  1.1102 -1.2113
22888SOL     OW70104   5.757   6.417   6.908 -0.0417  0.4163 -0.6943
22888SOL    HW170105   5.774   6.477   6.836 -0.6326 -0.0318 -1.2129
22888SOL    HW270106   5.813   6.342   6.890  0.3186  0.5872 -0.3147
22889SOL     OW70107   3.889   1.365   6.685  0.1304 -0.1142 -0.3993
22889SOL    HW170108   3.798   1.389   6.700 -0.2425 -1.6733  0.0161
22889SOL    HW270109   3.903   1.380   6.591 -0.2943  0.9162 -0.3032
22890SOL     OW70110   7.691   7.270   5.847  0.7125  0.1834 -0.7760
22890SOL    HW170111   7.762   7.260   5.783 -0.4298 -2.6343 -1.7685
22890SOL    HW270112   7.616   7.297   5.795  0.1481 -0.6524 -0.4261
22891SOL     OW70113   5.458   6.312   6.915  0.6195 -0.0574 -0.1181
22891SOL    HW170114   5.438   6.406   6.911  0.5598  0.0927  2.3883
22891SOL    HW270115   5.551   6.307   6.893  0.9316  0.7614  0.9291
22892SOL     OW70116   6.491   7.035   7.393  0.3384 -0.0978 -0.0871
22892SOL    HW170117   6.408   7.079   7.373  1.3804  1.8630 -0.3284
22892SOL    HW270118   6.470   6.977   7.466 -1.3129  0.0955 -0.3576
22893SOL     OW70119   7.934   6.810   6.955  0.3128  0.8563 -0.1233
22893SOL    HW170120   7.896   6.723   6.958 -3.6412  2.3792  2.5098
22893SOL    HW270121   7.911   6.844   6.869  0.4880 -0.0941 -0.5580
22894SOL     OW70122   6.178   7.676   7.224  0.4847 -0.2426  0.2148
22894SOL    HW170123   6.118   7.734   7.178  0.9089  0.3495  0.3839
22894SOL    HW270124   6.265   7.699   7.190  0.5287 -1.9281 -0.9237
22895SOL     OW70125   5.844   0.083   6.756  0.5602 -0.7110  0.0068
22895SOL    HW170126   5.906   0.104   6.686  1.2102 -0.1581  0.7243
22895SOL    HW270127   5.806   0.167   6.779 -1.6169 -1.2162 -1.4334
22896SOL     OW70128   5.391   5.202   5.372  0.1637 -0.5115  0.0254
22896SOL    HW170129   5.380   5.112   5.340 -1.1643 -0.6152  0.6999
22896SOL    HW270130   5.319   5.214   5.434  0.2742  1.0619 -0.1220
22897SOL     OW70131   5.101   6.726   5.031  0.4495  0.3231 -0.4272
22897SOL    HW170132   5.041   6.667   4.985 -1.4326  1.0990  0.8836
22897SOL    HW270133   5.062   6.813   5.021  1.3669  0.8589  0.4429
22898SOL     OW70134   3.105   5.367   8.015  0.1350 -0.1018  0.4316
22898SOL    HW170135   3.111   5.412   8.099  2.0119 -0.5063  0.5500
22898SOL    HW270136   3.165   5.293   8.023 -0.4585 -0.7708 -0.9004
22899SOL     OW70137   5.996   5.908   4.614 -0.2997 -0.1746 -0.3877
22899SOL    HW170138   5.911   5.868   4.596 -1.0609  0.6398  1.2211
22899SOL    HW270139   5.980   5.966   4.689  1.9498 -0.9827  0.8115
22900SOL     OW70140   1.526   5.702   6.208  0.6019 -0.2212 -0.4294
22900SOL    HW170141   1.610   5.743   6.227  1.2786 -0.8015 -1.9663
22900SOL    HW270142   1.538   5.610   6.229  0.7177 -0.4965 -1.6010
22901SOL     OW70143   4.446   6.411   6.544  0.4900  0.3685  0.1292
22901SOL    HW170144   4.423   6.369   6.460  1.0837  0.7284 -0.2238
22901SOL    HW270145   4.459   6.503   6.522 -0.6625  0.7241  0.8792
22902SOL     OW70146   4.604   5.725   5.720  0.7058  0.2917 -0.0661
22902SOL    HW170147   4.561   5.664   5.660  0.4829 -1.0340  1.3613
22902SOL    HW270148   4.539   5.743   5.787  1.4902  0.3986  0.6831
22903SOL     OW70149   5.107   5.783   7.751  0.0921 -0.3902 -0.6235
22903SOL    HW170150   5.091   5.721   7.679  1.0603 -0.9124 -0.3987
22903SOL    HW270151   5.066   5.864   7.721 -0.3683 -0.8677 -1.3382
22904SOL     OW70152   5.650   6.029   4.849 -0.0937 -0.0264 -0.3593
22904SOL    HW170153   5.631   6.032   4.942 -1.4023 -0.9305 -0.5633
22904SOL    HW270154   5.598   6.099   4.811 -0.1616 -0.1506 -0.4980
22905SOL     OW70155   6.842   5.076   7.907 -0.1375  0.1224  0.5031
22905SOL    HW170156   6.888   5.160   7.898  0.1380  0.1294  1.7387
22905SOL    HW270157   6.749   5.099   7.899 -0.0480  0.4855  0.4611
22906SOL     OW70158   0.609   7.344   7.392  0.1831 -0.6456 -0.7329
22906SOL    HW170159   0.514   7.350   7.404  0.0274 -1.9701 -1.1830
22906SOL    HW270160   0.639   7.290   7.465  0.5690 -0.3924 -0.7034
22907SOL     OW70161   7.632   4.590   6.663  0.4807 -0.1748 -0.1317
22907SOL    HW170162   7.682   4.523   6.615 -0.2341 -0.9492  0.1805
22907SOL    HW270163   7.577   4.631   6.596 -1.3152 -1.9804  0.1210
22908SOL     OW70164   7.836   5.524   7.279 -0.1783 -0.1386 -0.6814
22908SOL    HW170165   7.791   5.458   7.332  0.3345 -0.6345 -0.8606
22908SOL    HW270166   7.847   5.598   7.338 -1.5909  0.1478 -0.7494
22909SOL     OW70167   6.180   6.026   5.776 -0.2140 -0.3261  0.3440
22909SOL    HW170168   6.273   6.047   5.774  0.0159 -1.2637 -1.1516
22909SOL    HW270169   6.165   5.990   5.863  0.3916  1.5335  1.2514
22910SOL     OW70170   0.232   6.049   4.434  0.5926  0.0420 -0.3069
22910SOL    HW170171   0.161   6.096   4.390  0.9481 -0.4898 -1.4906
22910SOL    HW270172   0.290   6.117   4.467  0.4358  0.4547 -0.8766
22911SOL     OW70173   7.676   6.350   7.321 -0.1281 -0.3583 -0.1960
22911SOL    HW170174   7.612   6.342   7.392 -0.6392 -0.5716 -0.6696
22911SOL    HW270175   7.626   6.331   7.241  0.0475  1.5139 -0.7906
22912SOL     OW70176   7.171   6.549   7.297  0.7563 -0.1416  0.4561
22912SOL    HW170177   7.111   6.531   7.368  1.5901 -3.2938  0.5295
22912SOL    HW270178   7.256   6.564   7.340  0.4476  2.5045  0.2701
22913SOL     OW70179   7.058   5.605   6.294 -0.0050  0.2639  0.3228
22913SOL    HW170180   7.068   5.678   6.234  0.9950  1.1995  1.5647
22913SOL    HW270181   6.993   5.636   6.358  1.0604  0.4414  1.3512
22914SOL     OW70182   7.838   7.057   7.036  0.0424  1.0055  0.5013
22914SOL    HW170183   7.861   6.971   7.000 -1.1238  1.6735 -2.0727
22914SOL    HW270184   7.747   7.047   7.064  0.3009  1.0769  1.3878
22915SOL     OW70185   5.720   6.908   4.654  1.0604 -0.2700 -0.3428
22915SOL    HW170186   5.760   6.979   4.704  0.6634 -0.5676  0.3995
22915SOL    HW270187   5.690   6.846   4.719 -3.3854  1.3242 -0.5654
22916SOL     OW70188   2.058   6.371   4.717 -0.2652 -0.0733  0.4859
22916SOL    HW170189   2.121   6.301   4.735  1.0690  0.8516 -0.4870
22916SOL    HW270190   2.064   6.429   4.792  0.5095  0.3239  0.1324
22917SOL     OW70191   0.762   6.691   3.972  0.0150 -0.1911  0.2843
22917SOL    HW170192   0.803   6.649   4.047 -0.5362 -0.6418  0.3402
22917SOL    HW270193   0.732   6.776   4.006  1.3701  0.3800  0.0985
22918SOL     OW70194   4.476   6.078   4.776  0.3659  0.2197 -0.1860
22918SOL    HW170195   4.549   6.070   4.837  1.0445  0.6584 -0.9367
22918SOL    HW270196   4.500   6.022   4.702 -0.9044 -1.1061  0.3497
22919SOL     OW70197   5.821   7.694   8.263  0.4181 -0.1775 -0.9047
22919SOL    HW170198   5.873   7.659   8.191  0.9338  0.5836 -0.9062
22919SOL    HW270199   5.849   7.785   8.272  0.2139 -0.1994  0.1178
22920SOL     OW70200   7.848   7.577   7.420  0.1087 -0.2123  0.0448
22920SOL    HW170201   7.893   7.651   7.461 -0.0513 -0.5816  0.9129
22920SOL    HW270202   7.759   7.608   7.404  0.0885 -0.1635  0.2515
22921SOL     OW70203   7.336   6.058   6.135 -1.1167 -0.0505  0.2881
22921SOL    HW170204   7.285   5.977   6.127  0.3896 -0.9365 -0.8337
22921SOL    HW270205   7.301   6.115   6.067 -0.8843 -0.5105 -0.2261
22922SOL     OW70206   0.794   7.307   5.921 -0.2108  0.1463 -0.4453
22922SOL    HW170207   0.860   7.355   5.972  0.4241 -0.5057 -0.6281
22922SOL    HW270208   0.718   7.303   5.978  0.3766 -0.2777  0.3331
22923SOL     OW70209   7.757   0.543   8.556 -0.1022  0.0574  0.0256
22923SOL    HW170210   7.785   0.544   8.464 -2.1602 -0.7949 -0.6854
22923SOL    HW270211   7.741   0.635   8.578  3.8763  0.7297  0.7922
22924SOL     OW70212   5.338   5.200   7.756 -0.3630 -0.0533  0.2881
22924SOL    HW170213   5.293   5.120   7.731 -1.4844  0.2044  1.4185
22924SOL    HW270214   5.364   5.239   7.673 -1.7665 -0.4773 -0.3831
22925SOL     OW70215   6.990   6.820   6.779 -0.1762  0.0119  0.3201
22925SOL    HW170216   7.065   6.877   6.764 -0.4714  0.4152  0.3756
22925SOL    HW270217   7.028   6.740   6.815  0.2352  0.1796  0.2630
22926SOL     OW70218   7.206   4.758   6.001 -0.9403 -0.5511 -0.4758
22926SOL    HW170219   7.146   4.818   5.957  0.5258  0.2461 -1.4868
22926SOL    HW270220   7.198   4.677   5.951 -0.7633 -0.2697 -0.9772
22927SOL     OW70221   4.698   5.159   7.644  0.3747 -0.9891  0.6449
22927SOL    HW170222   4.764   5.123   7.586  3.1081  0.8258  2.3694
22927SOL    HW270223   4.698   5.253   7.625  1.2966 -0.3397  3.3432
22928SOL     OW70224   7.968   5.106   4.933 -0.1481  0.0527 -0.2149
22928SOL    HW170225   8.035   5.090   4.999  1.2622 -0.5493 -1.7222
22928SOL    HW270226   7.904   5.162   4.977  0.9529  0.0345  1.5063
22929SOL     OW70227   5.578   7.923   8.358  0.0039  0.2725  0.2709
22929SOL    HW170228   5.508   7.944   8.420 -1.7871 -0.8644 -1.2349
22929SOL    HW270229   5.597   7.831   8.374 -1.7395 -0.5747 -1.8774
22930SOL     OW70230   5.482   7.424   6.975  0.5016  0.2815 -0.3512
22930SOL    HW170231   5.461   7.332   6.963  1.0406  0.2974 -1.5345
22930SOL    HW270232   5.577   7.429   6.967  0.4590  0.9705 -0.5380
22931SOL     OW70233   5.271   3.714   6.633 -0.0125 -0.5560  0.0284
22931SOL    HW170234   5.349   3.714   6.689 -0.0616 -1.2671  0.1031
22931SOL    HW270235   5.210   3.654   6.676 -1.6537  1.9118  1.3557
22932SOL     OW70236   7.697   7.035   7.429  0.1793 -0.3469 -0.1854
22932SOL    HW170237   7.695   7.126   7.397 -0.3976  0.7672  2.7095
22932SOL    HW270238   7.663   7.041   7.518  1.6753 -3.2103  0.6655
22933SOL     OW70239   7.549   5.336   5.915  0.0342  0.6530 -0.3705
22933SOL    HW170240   7.495   5.332   5.836 -0.4538  0.8538 -0.0519
22933SOL    HW270241   7.571   5.428   5.924  1.3234  0.4394 -1.0823
22934SOL     OW70242   0.417   6.713   6.101 -0.2688  0.1354 -0.0245
22934SOL    HW170243   0.383   6.799   6.075  1.9670  1.0641 -0.1004
22934SOL    HW270244   0.345   6.673   6.149 -1.2434  2.2138  0.3931
22935SOL     OW70245   7.086   5.572   8.038 -0.6222  0.2194 -0.2305
22935SOL    HW170246   7.130   5.552   8.121 -1.3407  1.6680  0.5341
22935SOL    HW270247   6.995   5.590   8.063 -1.1403 -0.4994 -1.5014
22936SOL     OW70248   6.505   6.949   6.691 -0.1018  0.0766  0.3222
22936SOL    HW170249   6.494   6.897   6.611  0.7976  0.3982 -0.0203
22936SOL    HW270250   6.599   6.965   6.697 -0.3309  1.4709  0.5355
22937SOL     OW70251   0.013   6.542   7.500 -0.1313 -0.6303  0.2330
22937SOL    HW170252  -0.035   6.565   7.421 -0.7410 -1.5754  0.3165
22937SOL    HW270253   0.093   6.500   7.469  0.1666  0.0089  0.1130
22938SOL     OW70254   6.074   7.944   7.444  0.3574  0.2020  0.2338
22938SOL    HW170255   6.052   7.947   7.537  0.0804  0.2219  0.1705
22938SOL    HW270256   5.990   7.926   7.400  0.5305 -0.0657  0.0073
22939SOL     OW70257   4.089   5.406   7.889 -0.1780  0.0826  0.0265
22939SOL    HW170258   4.010   5.402   7.835  0.5513 -0.2821 -1.0362
22939SOL    HW270259   4.148   5.342   7.850  0.5008  0.0569  1.0610
22940SOL     OW70260   6.589   7.155   5.629 -0.3955  0.0192 -0.6073
22940SOL    HW170261   6.671   7.112   5.654  1.9405  3.3927 -1.7554
22940SOL    HW270262   6.562   7.203   5.708 -0.1487  0.4902 -0.8078
22941SOL     OW70263   5.299   7.663   7.593 -0.3362  0.0805  0.0401
22941SOL    HW170264   5.340   7.708   7.519  2.3873 -3.4471 -0.8302
22941SOL    HW270265   5.216   7.630   7.558  1.1396 -1.9891 -1.7561
22942SOL     OW70266   1.659   6.208   5.200  0.7684  0.1365 -0.0548
22942SOL    HW170267   1.677   6.177   5.288 -0.3883  0.8410  0.4511
22942SOL    HW270268   1.745   6.232   5.165  1.1711  0.4631  1.1154
22943SOL     OW70269   5.018   6.017   7.640 -0.2589 -0.4058 -0.3325
22943SOL    HW170270   4.938   5.986   7.598  0.5864 -1.2309 -1.4145
22943SOL    HW270271   5.024   6.109   7.616 -0.4877 -0.5360 -0.8971
22944SOL     OW70272   6.532   0.182   7.818 -0.6752 -0.2457  0.1154
22944SOL    HW170273   6.491   0.157   7.735  0.1748 -1.0080 -0.0833
22944SOL    HW270274   6.513   0.109   7.877 -0.7003 -0.0128  0.3989
22945SOL     OW70275   5.255   6.613   6.425  0.4470  0.5614 -0.2920
22945SOL    HW170276   5.167   6.633   6.455  0.5586 -0.6629  0.9385
22945SOL    HW270277   5.247   6.604   6.330 -0.9710 -0.5631 -0.0978
22946SOL     OW70278   7.538   6.803   7.692  0.3537  0.3479 -0.4422
22946SOL    HW170279   7.622   6.831   7.727 -0.2284 -0.3153  1.6436
22946SOL    HW270280   7.553   6.714   7.660  0.6903  0.6479 -1.1420
22947SOL     OW70281   5.138   4.683   8.440 -0.3542  0.0399  0.1369
22947SOL    HW170282   5.085   4.646   8.370  0.7105 -1.0392 -0.1305
22947SOL    HW270283   5.088   4.668   8.520 -0.1013 -1.7163 -0.0094
22948SOL     OW70284   7.134   4.833   6.951 -0.2100  0.1990 -0.1121
22948SOL    HW170285   7.129   4.754   6.897  1.1542 -0.6124  0.8878
22948SOL    HW270286   7.096   4.807   7.035  0.9786  0.3487  0.4866
22949SOL     OW70287   5.641   5.434   6.953 -0.6533 -0.5981 -0.0770
22949SOL    HW170288   5.670   5.382   6.878  2.0555 -0.5845  0.8435
22949SOL    HW270289   5.622   5.520   6.916  0.2573 -0.7064 -0.8373
22950SOL     OW70290   6.004   7.385   6.661  0.5619  0.0209  0.1893
22950SOL    HW170291   6.009   7.437   6.580 -0.1573  0.9327  0.7053
22950SOL    HW270292   5.979   7.297   6.632 -0.8853  0.6210 -0.5058
22951SOL     OW70293   0.960   7.009   6.283 -0.0818  0.0832  0.0101
22951SOL    HW170294   0.877   7.024   6.237 -0.2821 -0.1953  0.2724
22951SOL    HW270295   1.027   7.020   6.216 -0.1438  2.7102  0.2716
22952SOL     OW70296   7.112   6.121   6.542 -0.1701  0.1186 -0.4143
22952SOL    HW170297   7.194   6.087   6.580 -0.7540 -2.1120 -1.0219
22952SOL    HW270298   7.135   6.142   6.452  0.2478  1.6939  0.0217
22953SOL     OW70299   0.352   5.395   3.619  0.2889 -0.1532 -0.4267
22953SOL    HW170300   0.433   5.442   3.598  0.2741  0.2614  0.4040
22953SOL    HW270301   0.323   5.432   3.702  0.5682 -2.0042  0.5548
22954SOL     OW70302   5.830   7.017   5.217 -0.0770  0.0527  0.5489
22954SOL    HW170303   5.755   6.993   5.163  0.2912  0.1452 -0.0193
22954SOL    HW270304   5.880   7.079   5.162  0.1923  0.3122  1.0790
22955SOL     OW70305   5.422   7.010   5.899 -1.1070  0.1144  1.1268
22955SOL    HW170306   5.490   7.011   5.832 -0.4301  2.1184  1.7534
22955SOL    HW270307   5.443   6.935   5.954 -0.9359 -0.8093 -0.1731
22956SOL     OW70308   5.766   7.249   7.210 -0.1463 -0.2012 -0.1602
22956SOL    HW170309   5.806   7.164   7.229 -0.0854 -0.1739 -0.1685
22956SOL    HW270310   5.741   7.283   7.296  1.3735  0.5430  0.0269
22957SOL     OW70311   5.460   4.601   7.804 -0.1959  0.2932 -0.2883
22957SOL    HW170312   5.368   4.616   7.783 -0.6658 -0.8845  0.8097
22957SOL    HW270313   5.466   4.616   7.898  0.7098  0.2342 -0.3321
22958SOL     OW70314   7.515   5.531   7.259  0.3749 -0.1354 -0.6652
22958SOL    HW170315   7.582   5.478   7.215  0.0184 -1.9306  0.8496
22958SOL    HW270316   7.432   5.502   7.221  0.2943  1.1209 -1.5513
22959SOL     OW70317   5.005   5.329   5.860  0.6825  0.0830  0.7130
22959SOL    HW170318   4.928   5.272   5.854  0.2710  0.4493  2.1880
22959SOL    HW270319   4.968   5.417   5.871  1.2133  0.0537  3.5617
22960SOL     OW70320   4.763   6.931   7.113 -0.2491 -0.2727  0.0984
22960SOL    HW170321   4.833   6.913   7.051  0.0130  0.4112  0.1836
22960SOL    HW270322   4.707   6.853   7.110 -0.6186  0.0197 -1.5139
22961SOL     OW70323   7.907   7.394   5.718  0.5715 -0.2742  0.0218
22961SOL    HW170324   7.882   7.464   5.658 -2.2443  0.5869  2.0035
22961SOL    HW270325   7.916   7.437   5.803 -1.3743 -2.2477  1.3382
22962SOL     OW70326   7.365   0.500   8.206  0.4289 -0.1118 -0.2927
22962SOL    HW170327   7.320   0.585   8.209  0.7743  0.0663 -0.0491
22962SOL    HW270328   7.414   0.496   8.289  2.7398  0.7445 -1.5087
22963SOL     OW70329   7.625   6.562   7.616  0.9131 -0.1874 -0.5415
22963SOL    HW170330   7.592   6.475   7.595  1.9815 -0.3047 -1.8311
22963SOL    HW270331   7.706   6.545   7.664  0.1667  0.1106  0.8778
22964SOL     OW70332   6.009   5.856   7.024  0.1728 -0.2499  0.0523
22964SOL    HW170333   5.985   5.785   6.965 -0.3640 -0.0273 -0.0103
22964SOL    HW270334   5.926   5.882   7.065  0.4482 -0.0234  0.4763
22965SOL     OW70335   4.482   5.499   7.877 -0.6553 -0.1941  0.3964
22965SOL    HW170336   4.448   5.588   7.884  2.8984  1.5279 -1.6595
22965SOL    HW270337   4.435   5.462   7.802  0.4780  1.4779 -1.2530
22966SOL     OW70338   0.776   0.654   6.772 -0.7931  0.3372  0.0844
22966SOL    HW170339   0.755   0.678   6.682  0.1341 -0.0463 -0.2469
22966SOL    HW270340   0.870   0.633   6.770 -0.8823 -0.1975  1.0198
22967SOL     OW70341   6.408   5.808   5.599 -0.6009  0.0860 -0.1598
22967SOL    HW170342   6.408   5.839   5.690 -1.4032  0.4056 -0.2605
22967SOL    HW270343   6.400   5.713   5.606 -1.5212  0.1773  0.0905
22968SOL     OW70344   7.448   7.407   7.019 -0.1081  0.3355  0.2646
22968SOL    HW170345   7.427   7.500   7.032  1.5137  0.9112 -0.8369
22968SOL    HW270346   7.439   7.368   7.106 -0.5224  1.5888  0.8113
22969SOL     OW70347   7.489   0.554   7.005 -0.0205 -0.1350 -0.2586
22969SOL    HW170348   7.433   0.631   6.994  1.9387  1.3768 -0.1231
22969SOL    HW270349   7.553   0.580   7.071  0.0396 -2.2989  0.6029
22970SOL     OW70350   6.987   5.551   7.554  0.7190  0.1144 -0.0720
22970SOL    HW170351   6.974   5.627   7.499  0.4306 -0.2503 -0.5143
22970SOL    HW270352   7.025   5.585   7.635  0.4103  0.7425 -0.1933
22971SOL     OW70353   6.209   7.867   6.802  0.0027 -0.5423 -0.0410
22971SOL    HW170354   6.267   7.868   6.725 -0.1571 -2.2781 -0.2304
22971SOL    HW270355   6.168   7.781   6.800 -1.7842  0.2344  0.7120
22972SOL     OW70356   5.037   6.325   5.655 -0.4498 -0.4192 -0.1196
22972SOL    HW170357   5.077   6.250   5.699  0.1197 -1.9010 -2.8995
22972SOL    HW270358   5.034   6.300   5.562 -3.2223  1.7110 -0.7655
22973SOL     OW70359   5.406   7.138   7.284 -0.4360 -0.2560 -0.7128
22973SOL    HW170360   5.478   7.149   7.345 -1.1282 -1.5226  0.3810
22973SOL    HW270361   5.345   7.208   7.306  0.0055  0.2187 -0.9845
22974SOL     OW70362   5.272   5.755   6.212  0.4591 -0.0525  0.1669
22974SOL    HW170363   5.177   5.762   6.206  0.5792  0.6071 -1.9773
22974SOL    HW270364   5.297   5.820   6.278 -0.5698 -0.2403  0.7581
22975SOL     OW70365   0.156   6.093   8.122 -0.0989 -0.7606  0.2512
22975SOL    HW170366   0.237   6.132   8.155 -0.0115 -0.0680 -0.7443
22975SOL    HW270367   0.178   6.063   8.034 -1.1264  0.1715 -0.3506
22976SOL     OW70368   0.192   7.980   8.206  0.6236 -0.4756 -0.0165
22976SOL    HW170369   0.152   8.041   8.268  0.8212 -1.5874  1.2337
22976SOL    HW270370   0.131   7.906   8.202  0.1200 -0.0277 -1.9234
22977SOL     OW70371   7.128   7.476   7.891  0.0221  0.0536  0.0855
22977SOL    HW170372   7.173   7.557   7.865  1.2924 -0.3205  1.0618
22977SOL    HW270373   7.122   7.481   7.986  0.8028 -1.3550  0.2247
22978SOL     OW70374   7.748   6.629   6.853 -0.2491  0.8112  0.4426
22978SOL    HW170375   7.682   6.696   6.835 -0.9030  0.0186 -0.1467
22978SOL    HW270376   7.700   6.555   6.888  0.2693  0.1134 -0.2646
22979SOL     OW70377   6.873   7.993   6.652  0.1663  0.5739 -0.3111
22979SOL    HW170378   6.907   7.919   6.703  1.2386  0.7583 -0.7370
22979SOL    HW270379   6.922   8.069   6.684 -2.1228  1.4555  1.3453
22980SOL     OW70380   7.616   5.837   6.705  0.2736 -0.2523  0.1682
22980SOL    HW170381   7.617   5.773   6.776  0.8755 -0.2495  0.1618
22980SOL    HW270382   7.673   5.907   6.735 -2.5766  1.7142  1.4756
22981SOL     OW70383   0.718   7.220   6.449 -0.3852  0.5671 -0.6307
22981SOL    HW170384   0.702   7.144   6.394 -0.5501 -0.1962  0.4408
22981SOL    HW270385   0.632   7.241   6.486 -0.0480  0.1800  0.4317
22982SOL     OW70386   6.021   0.654   9.184 -0.4259 -0.3161  0.0200
22982SOL    HW170387   6.071   0.644   9.103 -0.0740 -1.1881  0.3315
22982SOL    HW270388   5.987   0.743   9.180  0.6716  0.1046 -0.4815
22983SOL     OW70389   5.775   6.333   7.536  0.2336 -0.2257  0.2436
22983SOL    HW170390   5.806   6.291   7.616  0.1390  0.4793  0.6616
22983SOL    HW270391   5.845   6.320   7.473 -0.1458 -1.7482  0.0890
22984SOL     OW70392   5.757   0.051   6.453  0.2078 -0.4113 -0.1407
22984SOL    HW170393   5.730  -0.024   6.401  1.1204 -0.8650  0.0159
22984SOL    HW270394   5.845   0.028   6.485  0.6239  0.8406 -0.3248
22985SOL     OW70395   5.971   7.096   7.070 -0.1297  0.5153  0.3048
22985SOL    HW170396   5.958   7.191   7.069 -0.3952  0.5155  1.9331
22985SOL    HW270397   6.042   7.082   7.133  0.8133 -0.2978 -0.8793
22986SOL     OW70398   7.118   6.652   7.715  0.4826  0.7505 -0.0419
22986SOL    HW170399   7.076   6.680   7.796 -0.6983  0.3117 -0.4778
22986SOL    HW270400   7.124   6.731   7.662 -0.1399  0.7509 -0.1181
22987SOL     OW70401   7.893   5.480   7.596 -0.1448 -0.4833  0.0162
22987SOL    HW170402   7.955   5.426   7.547  0.9399  0.2580  0.5216
22987SOL    HW270403   7.808   5.439   7.581  0.6936 -2.7219  0.8608
22988SOL     OW70404   6.476   5.508   4.786 -0.1934 -0.0546 -0.3419
22988SOL    HW170405   6.420   5.573   4.744 -0.5083 -0.0515  0.0820
22988SOL    HW270406   6.460   5.428   4.737  0.2998  0.2110 -0.9543
22989SOL     OW70407   0.340   5.008   6.294 -0.2278 -0.2468 -0.5657
22989SOL    HW170408   0.297   4.943   6.350  0.7042  0.4924  1.0760
22989SOL    HW270409   0.281   5.018   6.219 -1.0759 -1.9231 -0.1634
22990SOL     OW70410   0.430   7.382   6.834 -0.1339 -0.0902 -0.4991
22990SOL    HW170411   0.393   7.458   6.787  1.2018  0.3790 -0.8452
22990SOL    HW270412   0.520   7.407   6.852  0.2476 -1.4954 -0.3439
22991SOL     OW70413   7.446   7.176   8.400 -0.3720 -0.1774  0.2432
22991SOL    HW170414   7.526   7.130   8.425  0.1313 -0.4135 -1.6463
22991SOL    HW270415   7.375   7.122   8.436  0.2475 -1.6367 -0.6336
22992SOL     OW70416   0.765   7.643   5.867 -0.0198  0.4731  0.2152
22992SOL    HW170417   0.768   7.586   5.944 -0.7550 -0.9010 -0.7349
22992SOL    HW270418   0.716   7.593   5.802  0.9322  1.4247 -1.2961
22993SOL     OW70419   4.588   7.623   7.294  0.1439 -0.6418 -0.5968
22993SOL    HW170420   4.633   7.539   7.289 -1.5777 -1.7404  0.8618
22993SOL    HW270421   4.506   7.603   7.340  0.4321  2.1307  1.4201
22994SOL     OW70422   6.772   7.458   7.778 -0.0758  0.1881 -0.4029
22994SOL    HW170423   6.850   7.405   7.795  0.8331  1.1102 -1.5616
22994SOL    HW270424   6.699   7.396   7.784  0.6660 -0.5902  1.2514
22995SOL     OW70425   6.741   6.381   5.661  0.2003 -0.3702 -0.2819
22995SOL    HW170426   6.783   6.467   5.661  0.4875 -0.5050  0.4571
22995SOL    HW270427   6.810   6.321   5.631 -0.4178 -0.1632 -2.2322
22996SOL     OW70428   5.144   4.844   5.192  0.6112 -0.1568  0.2159
22996SOL    HW170429   5.086   4.888   5.129  0.0901  1.6324  1.8460
22996SOL    HW270430   5.105   4.757   5.204 -1.3018  0.7001  0.6274
22997SOL     OW70431   5.430   5.881   6.988 -0.0866 -0.0239  0.1507
22997SOL    HW170432   5.398   5.967   7.014  0.9185  0.6804 -0.8312
22997SOL    HW270433   5.486   5.853   7.060  1.3474  1.1706 -0.4195
22998SOL     OW70434   7.248   5.050   8.546 -0.4601 -0.2150 -0.5297
22998SOL    HW170435   7.340   5.073   8.547 -1.0958  2.6722 -0.8714
22998SOL    HW270436   7.244   4.967   8.594  2.1380  0.2248  0.6274
22999SOL     OW70437   7.025   6.059   6.250 -0.0762 -0.0015 -0.5518
22999SOL    HW170438   7.047   6.108   6.171  1.8131  0.2518  0.0917
22999SOL    HW270439   6.965   5.990   6.220  2.0629 -1.1017 -2.5801
23000SOL     OW70440   0.061   6.934   7.666  0.1649  0.2131  0.5641
23000SOL    HW170441   0.057   7.029   7.659 -0.4384  0.2310  1.0709
23000SOL    HW270442   0.017   6.902   7.587  0.3562  0.3607  0.4008
23001SOL     OW70443   5.819   6.176   7.868 -0.5234 -0.3427 -0.0757
23001SOL    HW170444   5.805   6.266   7.898 -2.2333 -0.3729 -0.6890
23001SOL    HW270445   5.908   6.176   7.834 -1.0623  1.6261 -1.6918
23002SOL     OW70446   4.802   5.246   6.849 -0.7528 -0.2266 -0.6210
23002SOL    HW170447   4.802   5.206   6.763  0.7125 -1.1393 -0.2322
23002SOL    HW270448   4.882   5.299   6.851 -1.7972  1.4247 -0.5239
23003SOL     OW70449   7.612   7.182   7.684  0.6157  0.5587 -0.0120
23003SOL    HW170450   7.636   7.193   7.776  0.7987  0.2936 -0.0252
23003SOL    HW270451   7.652   7.256   7.639 -3.0789  3.2827  0.6991
23004SOL     OW70452   7.029   5.798   5.877  0.3412  0.1654  0.6444
23004SOL    HW170453   7.046   5.892   5.880 -0.4484  0.3106  0.9484
23004SOL    HW270454   6.933   5.792   5.877  0.3879 -0.6429  0.8093
23005SOL     OW70455   7.092   3.068   5.582  0.2601 -0.2235 -0.0684
23005SOL    HW170456   7.001   3.078   5.609  0.3286  1.7495 -0.4696
23005SOL    HW270457   7.143   3.090   5.660  0.4317 -0.9583  0.0439
23006SOL     OW70458   5.744   7.412   8.958 -1.1018  0.1925  0.6669
23006SOL    HW170459   5.838   7.406   8.973 -0.6077  0.8003 -1.6995
23006SOL    HW270460   5.712   7.322   8.970  0.2750 -0.5949 -1.1330
23007SOL     OW70461   0.178   5.846   5.533 -0.4563  0.2368  0.5945
23007SOL    HW170462   0.129   5.881   5.608  0.0816  1.1453  0.5344
23007SOL    HW270463   0.246   5.791   5.572 -0.8273 -0.1452  0.7189
23008SOL     OW70464   6.970   7.260   7.883  0.8168  0.0049  0.2825
23008SOL    HW170465   7.013   7.345   7.896 -0.5720  0.8161 -0.2414
23008SOL    HW270466   7.003   7.205   7.954  1.3142  1.1566  0.9658
23009SOL     OW70467   7.349   0.877   7.371  0.3817  0.4478  0.0325
23009SOL    HW170468   7.426   0.878   7.315  0.5446  1.8614  0.2407
23009SOL    HW270469   7.370   0.939   7.441 -0.1655 -0.6195  1.1769
23010SOL     OW70470   4.285   1.014   7.841  0.2973 -0.2429  0.4332
23010SOL    HW170471   4.337   1.079   7.888  0.8264  0.4501 -1.0482
23010SOL    HW270472   4.215   0.990   7.902 -0.0230  1.8631  0.9565
23011SOL     OW70473   7.505   6.834   8.478  0.5948  0.2069  0.2479
23011SOL    HW170474   7.492   6.821   8.384  0.6581 -3.0343  0.5959
23011SOL    HW270475   7.422   6.870   8.508  1.4146  3.9588 -1.3078
23012SOL     OW70476   7.541   7.068   6.647 -0.1692 -0.0558  0.0671
23012SOL    HW170477   7.555   7.143   6.704 -2.0842  0.7792 -0.4960
23012SOL    HW270478   7.621   7.062   6.594 -0.4073  2.2691 -0.6368
23013SOL     OW70479   6.315   6.127   6.438  0.0429  1.0568 -0.1045
23013SOL    HW170480   6.384   6.165   6.384  1.0684 -0.8430 -0.2216
23013SOL    HW270481   6.346   6.039   6.458 -1.1589  1.0531  2.0514
23014SOL     OW70482   0.929   4.867   7.978 -0.4174  0.0775 -0.4007
23014SOL    HW170483   0.963   4.783   7.948  1.7029  1.1920 -1.3797
23014SOL    HW270484   0.841   4.872   7.941  0.6005 -0.3814 -3.0931
23015SOL     OW70485   5.594   5.824   7.807  0.0668 -0.7661  0.1597
23015SOL    HW170486   5.599   5.733   7.837 -1.1580 -0.0526  2.8035
23015SOL    HW270487   5.504   5.851   7.829  0.2995  0.9835 -0.9051
23016SOL     OW70488   4.994   6.972   6.968 -0.3074 -0.1900  0.1162
23016SOL    HW170489   5.080   6.974   7.009  0.4337 -0.8324 -1.3117
23016SOL    HW270490   4.981   7.061   6.935  0.3363 -0.3524 -0.6250
23017SOL     OW70491   0.070   6.983   7.215 -0.4879  1.0397  0.2657
23017SOL    HW170492   0.121   7.054   7.255 -0.2586  0.5568  0.8419
23017SOL    HW270493   0.018   7.027   7.148  0.9860  1.4929 -0.6325
23018SOL     OW70494   4.424   0.088   7.246  0.1117  0.4364  0.0821
23018SOL    HW170495   4.482   0.024   7.289  0.2191  0.5651  0.1290
23018SOL    HW270496   4.455   0.173   7.278  0.6356  0.5828 -0.7813
23019SOL     OW70497   0.577   6.174   5.330 -0.6016 -0.2503 -0.5749
23019SOL    HW170498   0.622   6.100   5.370  1.4308  1.5556  0.7111
23019SOL    HW270499   0.491   6.175   5.371  0.1260 -0.6614  1.0580
23020SOL     OW70500   7.471   7.116   6.156  0.2627 -0.6828  0.4561
23020SOL    HW170501   7.382   7.132   6.125  0.4293 -0.1754  0.2333
23020SOL    HW270502   7.473   7.152   6.244  0.6182  0.5202 -0.0198
23021SOL     OW70503   0.167   7.614   6.851 -0.1690 -0.4511 -0.1171
23021SOL    HW170504   0.156   7.709   6.847 -1.9944 -0.6394 -0.4730
23021SOL    HW270505   0.140   7.591   6.940 -0.3479 -0.7053 -0.2362
23022SOL     OW70506   6.035   6.857   6.021  0.3095 -1.0118  0.0261
23022SOL    HW170507   5.977   6.833   5.949  0.1930  1.4973 -0.8314
23022SOL    HW270508   6.025   6.787   6.085  0.4047 -3.3487 -2.3452
23023SOL     OW70509   7.585   6.362   7.998  0.2333 -0.4027 -0.1632
23023SOL    HW170510   7.569   6.275   7.960 -1.7626 -0.1007 -0.1393
23023SOL    HW270511   7.498   6.402   8.003  0.8549  0.8446  1.6921
23024SOL     OW70512   0.451   7.244   6.585  0.2044 -0.2831  0.3021
23024SOL    HW170513   0.474   7.153   6.603 -2.7925 -0.8324  2.0714
23024SOL    HW270514   0.455   7.287   6.670  0.5826  0.9843 -0.3394
23025SOL     OW70515   5.485   5.954   6.673 -0.6907  0.5261  0.1389
23025SOL    HW170516   5.515   5.918   6.757 -0.3938 -0.2388 -0.2888
23025SOL    HW270517   5.563   5.960   6.619 -1.1237 -0.6040 -0.6644
23026SOL     OW70518   5.765   5.471   6.132  0.1337  0.0471 -0.0196
23026SOL    HW170519   5.802   5.388   6.100 -0.6330 -0.3853  0.1912
23026SOL    HW270520   5.688   5.445   6.184 -1.7059  1.0060 -2.1021
23027SOL     OW70521   0.086   7.385   7.706 -0.2255  0.6961  0.2776
23027SOL    HW170522   0.040   7.469   7.707 -2.4942 -0.4335  2.4596
23027SOL    HW270523   0.075   7.351   7.794  1.9379 -1.2506 -0.1171
23028SOL     OW70524   6.484   7.640   8.612 -0.4902 -0.5393  0.2591
23028SOL    HW170525   6.459   7.690   8.691  1.3358 -0.1002  0.5950
23028SOL    HW270526   6.500   7.707   8.546 -2.2610 -0.9203 -0.6072
23029SOL     OW70527   6.517   6.219   6.630  0.5061  0.6627  0.0568
23029SOL    HW170528   6.426   6.211   6.603  0.6406  1.0002 -0.4942
23029SOL    HW270529   6.512   6.230   6.725 -0.0719  1.5005 -0.0659
23030SOL     OW70530   6.047   6.736   6.653 -0.1414 -0.4559  0.5820
23030SOL    HW170531   6.067   6.722   6.561 -0.2407 -0.5897  0.5817
23030SOL    HW270532   6.075   6.826   6.670 -0.6193 -0.2427  0.2828
23031SOL     OW70533   0.229   6.627   6.311  0.3727 -0.3928  0.0643
23031SOL    HW170534   0.165   6.589   6.250  0.0495  0.3552 -0.0669
23031SOL    HW270535   0.252   6.554   6.369 -0.9966 -0.5430  0.4557
23032SOL     OW70536   7.471   7.796   8.064 -0.2229  0.0933 -0.1968
23032SOL    HW170537   7.402   7.754   8.115  0.5346 -0.3319  0.5089
23032SOL    HW270538   7.452   7.889   8.070  1.1503  0.3220  2.9930
23033SOL     OW70539   6.408   5.736   6.055 -0.3758 -0.2171 -0.6934
23033SOL    HW170540   6.454   5.695   5.982  0.4696  0.0213 -0.3088
23033SOL    HW270541   6.398   5.666   6.120  0.2266 -0.0677 -0.4266
23034SOL     OW70542   0.266   7.061   6.771  0.4626  0.5770  0.2303
23034SOL    HW170543   0.246   6.971   6.745 -1.5421  0.9448  0.3624
23034SOL    HW270544   0.318   7.095   6.698 -0.4487 -0.0887 -0.7664
23035SOL     OW70545   7.409   4.370   6.619 -0.2707 -0.1792 -0.2000
23035SOL    HW170546   7.498   4.370   6.582 -0.0048 -1.3988  0.3967
23035SOL    HW270547   7.364   4.440   6.571  0.4289 -0.8620 -1.9535
23036SOL     OW70548   6.454   7.827   7.112 -0.0124 -0.4641 -0.0801
23036SOL    HW170549   6.429   7.903   7.060  2.2492 -0.9410 -1.9824
23036SOL    HW270550   6.516   7.779   7.058 -0.2428 -2.9315  1.6488
23037SOL     OW70551   1.111   7.242   6.689  0.3740 -0.1484  0.7313
23037SOL    HW170552   1.190   7.290   6.664 -0.3519  0.1205 -1.2129
23037SOL    HW270553   1.108   7.168   6.628 -0.8124 -0.2258  0.8674
23038SOL     OW70554   3.759   5.324   7.473 -0.4341  0.1351 -0.8573
23038SOL    HW170555   3.710   5.406   7.468 -0.9988  0.1173  2.1233
23038SOL    HW270556   3.836   5.338   7.418 -0.2327  2.9069 -0.0205
23039SOL     OW70557   7.987   6.454   6.892 -0.5939  0.2118 -0.3905
23039SOL    HW170558   8.024   6.495   6.970  1.1546  1.9576 -2.0256
23039SOL    HW270559   7.981   6.524   6.828 -0.2397 -1.4894 -2.4065
23040SOL     OW70560   6.326   5.027  10.708 -0.2182 -0.2185  0.7184
23040SOL    HW170561   6.287   4.964  10.767 -0.5778  0.0563  0.7764
23040SOL    HW270562   6.253   5.059  10.654 -0.0006 -0.0291  0.5314
23041SOL     OW70563   0.305   0.146   8.582  0.1437  0.3231  0.7691
23041SOL    HW170564   0.298   0.230   8.627  0.0362  0.5261  0.3869
23041SOL    HW270565   0.317   0.082   8.651  2.3186  0.8777  0.9802
23042SOL     OW70566   1.050   6.164  10.178  0.0480  0.3252 -0.3491
23042SOL    HW170567   1.082   6.132  10.094  0.1888 -0.8705  0.1279
23042SOL    HW270568   0.956   6.178  10.165 -0.4817 -2.3518 -0.0628
23043SOL     OW70569   5.810   7.822   6.750 -0.1004 -0.1614  0.1948
23043SOL    HW170570   5.718   7.830   6.727  0.0394 -0.3368 -0.4439
23043SOL    HW270571   5.838   7.912   6.769 -0.3351 -0.0740  0.1224
23044SOL     OW70572   7.169   5.652   8.391  0.1514 -0.0196 -0.1870
23044SOL    HW170573   7.230   5.724   8.373  0.8592 -0.4837  0.2953
23044SOL    HW270574   7.225   5.577   8.409 -0.5739 -0.5345 -0.0362
23045SOL     OW70575   0.255   0.864   8.621  0.3637 -0.4256  0.2020
23045SOL    HW170576   0.339   0.886   8.662  0.0693  3.0285 -0.7191
23045SOL    HW270577   0.191   0.920   8.666 -1.3563 -2.3527  0.2895
23046SOL     OW70578   6.322   7.437  11.019  0.6630  0.3048 -0.2801
23046SOL    HW170579   6.392   7.402  10.964  0.4320  2.3055 -1.9601
23046SOL    HW270580   6.243   7.393  10.988  0.8032 -0.1151 -0.0651
23047SOL     OW70581   6.201   6.657   8.780 -0.1812 -0.2135 -0.1473
23047SOL    HW170582   6.149   6.580   8.757  2.6842 -2.3020 -0.0764
23047SOL    HW270583   6.219   6.647   8.873 -1.5433  1.7978  0.4168
23048SOL     OW70584   6.712   6.649   7.085 -0.3213 -0.1119  0.5309
23048SOL    HW170585   6.803   6.629   7.108 -0.4869 -0.9179  0.5317
23048SOL    HW270586   6.671   6.674   7.167 -0.1713 -0.0259  0.5799
23049SOL     OW70587   6.962   6.293   8.569 -0.4158 -0.3113 -0.9341
23049SOL    HW170588   6.904   6.220   8.588  1.0063 -1.5617 -1.1689
23049SOL    HW270589   6.975   6.336   8.654 -0.4647 -0.9499 -0.6009
23050SOL     OW70590   7.286   6.388   8.087  0.2964 -0.0112  0.5059
23050SOL    HW170591   7.216   6.436   8.132  1.6403  2.6512 -0.0434
23050SOL    HW270592   7.267   6.401   7.994  0.0831 -1.5741  0.3041
23051SOL     OW70593   7.349   6.127   9.341 -0.3025  0.5355  0.1946
23051SOL    HW170594   7.277   6.111   9.402 -0.5238  0.2560 -0.1357
23051SOL    HW270595   7.358   6.045   9.293  0.4217  0.4784  0.4199
23052SOL     OW70596   7.494   5.516   6.645 -0.1698  0.0783 -0.5877
23052SOL    HW170597   7.408   5.536   6.608 -0.9432 -1.4986  0.2587
23052SOL    HW270598   7.480   5.437   6.698  1.3188  1.0261  1.3664
23053SOL     OW70599   6.285   0.514   8.997  0.6311 -0.2909 -0.2290
23053SOL    HW170600   6.260   0.429   8.962 -0.0851 -0.4160  0.5471
23053SOL    HW270601   6.211   0.572   8.974 -0.4463 -0.6567  2.0707
23054SOL     OW70602   7.757   6.679   8.810  0.3634  0.1051  0.4117
23054SOL    HW170603   7.771   6.771   8.788 -0.6000  0.3266  0.6661
23054SOL    HW270604   7.844   6.641   8.808  0.7477  0.9624  0.0315
23055SOL     OW70605   0.206   0.213   8.336  0.2952  0.1735 -0.1828
23055SOL    HW170606   0.152   0.288   8.361 -0.2141 -0.4872  0.7738
23055SOL    HW270607   0.248   0.186   8.418  0.2477 -0.7523 -0.4500
23056SOL     OW70608   5.272   6.404   9.923  0.0163  0.0181  0.1205
23056SOL    HW170609   5.183   6.396   9.958  0.5464  1.8912  2.1656
23056SOL    HW270610   5.326   6.354   9.983  0.4492 -0.4051 -0.6168
23057SOL     OW70611   6.889   0.178   9.152  0.2676  0.0174 -0.9144
23057SOL    HW170612   6.984   0.187   9.149  0.3152  0.5191  0.8112
23057SOL    HW270613   6.873   0.084   9.143  0.9823 -0.1550 -0.4416
23058SOL     OW70614   7.083   6.768   5.992  0.4972  0.0544 -0.1557
23058SOL    HW170615   7.062   6.718   6.070  0.3924 -0.6048 -0.5983
23058SOL    HW270616   7.022   6.841   5.993 -0.3442 -0.6380 -0.2756
23059SOL     OW70617   6.307   5.910   8.600 -0.3436 -0.7748  0.1519
23059SOL    HW170618   6.273   5.843   8.540  0.2850  0.1563 -1.3057
23059SOL    HW270619   6.229   5.960   8.626 -0.9124 -2.3757  1.7358
23060SOL     OW70620   5.374   6.426   8.254  0.6809  0.4321  0.9617
23060SOL    HW170621   5.448   6.369   8.278  0.6754 -0.2415 -0.4961
23060SOL    HW270622   5.303   6.365   8.234  0.8261  0.8793 -1.1346
23061SOL     OW70623   1.542   0.547   7.258 -0.1966  0.0419 -0.5332
23061SOL    HW170624   1.636   0.562   7.256  0.0570 -1.4943 -1.6755
23061SOL    HW270625   1.508   0.619   7.310  1.5492  0.9087 -0.5114
23062SOL     OW70626   7.538   7.147   5.621 -0.5386 -0.1934  0.6205
23062SOL    HW170627   7.596   7.082   5.660 -0.8350 -0.5447  0.4920
23062SOL    HW270628   7.465   7.095   5.586  0.2615 -0.0479 -1.4382
23063SOL     OW70629   7.958   5.359  10.101  0.7653  0.1816  0.3184
23063SOL    HW170630   7.991   5.409  10.175  3.1175 -0.0356 -0.4898
23063SOL    HW270631   8.018   5.285  10.093 -0.4307 -0.7219 -0.7811
23064SOL     OW70632   7.957   6.091   7.809  0.3292 -0.3658  0.2268
23064SOL    HW170633   7.947   6.175   7.855  1.2308 -1.2238  2.0779
23064SOL    HW270634   8.039   6.100   7.761 -0.6369  0.5500 -1.3430
23065SOL     OW70635   7.111   6.753   9.379  0.2163  0.3118 -0.1465
23065SOL    HW170636   7.201   6.765   9.408 -0.9362  1.5067  3.5625
23065SOL    HW270637   7.068   6.707   9.452 -2.4217  0.9033 -1.2103
23066SOL     OW70638   7.547   5.726   7.667  0.4002  0.1866 -0.0849
23066SOL    HW170639   7.607   5.800   7.676  0.4323  0.1134  0.3123
23066SOL    HW270640   7.485   5.737   7.739 -0.9722  1.1001 -1.3573
23067SOL     OW70641   7.991   0.151   8.604  0.4432  0.1728  0.1528
23067SOL    HW170642   8.071   0.148   8.657  0.2554 -1.3845  0.3904
23067SOL    HW270643   7.990   0.240   8.567  1.9422  0.4247  0.6488
23068SOL     OW70644   6.606   4.985   6.842 -0.2414 -0.4754 -0.9952
23068SOL    HW170645   6.689   4.994   6.889 -1.0876 -0.1656  0.5126
23068SOL    HW270646   6.630   4.945   6.758  1.3630 -0.8664 -0.3878
23069SOL     OW70647   7.265   0.090   8.525  0.3183 -0.6422  0.8067
23069SOL    HW170648   7.339   0.046   8.482 -1.2074 -2.7544  0.1376
23069SOL    HW270649   7.230   0.148   8.457  0.2675 -1.0270  0.4965
23070SOL     OW70650   0.803   6.383   7.351 -0.1714 -0.3909  0.5604
23070SOL    HW170651   0.796   6.365   7.445 -0.1583  1.2746  0.9191
23070SOL    HW270652   0.845   6.306   7.314 -0.0358 -1.0065  1.9536
23071SOL     OW70653   6.826   7.046   9.465 -0.0436 -0.2013 -0.3759
23071SOL    HW170654   6.833   6.958   9.503 -3.1859 -1.7215 -2.8031
23071SOL    HW270655   6.894   7.049   9.398  0.0187 -0.8884 -0.3515
23072SOL     OW70656   4.888   4.489   9.311 -0.4268  0.9628 -0.4855
23072SOL    HW170657   4.863   4.441   9.232  2.0559 -0.9307 -0.2423
23072SOL    HW270658   4.811   4.484   9.368 -1.1539 -0.4138 -1.5410
23073SOL     OW70659   7.493   0.690   8.776 -0.0156  0.4771  0.0416
23073SOL    HW170660   7.461   0.763   8.724  0.7370  0.4662 -0.4539
23073SOL    HW270661   7.414   0.652   8.815 -0.5564  0.6925 -0.8133
23074SOL     OW70662   1.391   7.047   7.801  0.3301  0.2002 -0.1772
23074SOL    HW170663   1.335   7.005   7.736  0.8152 -0.5846 -0.1119
23074SOL    HW270664   1.469   6.991   7.803 -0.0622 -0.3372  1.7585
23075SOL     OW70665   5.952   7.391   7.605 -0.4912 -0.0981 -0.4987
23075SOL    HW170666   5.983   7.433   7.524  0.4388 -1.2497 -0.7698
23075SOL    HW270667   5.974   7.299   7.594 -1.4624 -0.4799  0.5680
23076SOL     OW70668   7.712   6.189   8.201 -0.2446 -0.3350  0.2227
23076SOL    HW170669   7.791   6.167   8.249 -0.9828  2.3358  2.9772
23076SOL    HW270670   7.737   6.262   8.144 -0.3062 -0.7736 -0.3757
23077SOL     OW70671   7.841   0.367   7.900 -0.7054 -0.2679 -0.5420
23077SOL    HW170672   7.804   0.293   7.851 -2.2793 -0.9192  1.4826
23077SOL    HW270673   7.917   0.332   7.944  1.3363  0.5723 -3.1352
23078SOL     OW70674   6.419   6.153   9.610 -0.6558 -0.2224 -0.4339
23078SOL    HW170675   6.344   6.213   9.607 -0.6036 -0.0912  0.6400
23078SOL    HW270676   6.446   6.144   9.518 -0.4950  1.6272 -0.6187
23079SOL     OW70677   6.979   5.455  10.743  0.1888 -0.0074  0.0738
23079SOL    HW170678   6.949   5.536  10.701  0.2853  0.0622  0.1384
23079SOL    HW270679   6.915   5.438  10.812  1.1025  0.9520  1.1982
23080SOL     OW70680   0.158   0.076   8.918  0.4925 -0.2292  0.1140
23080SOL    HW170681   0.188   0.161   8.884  1.0052 -0.6879 -0.6101
23080SOL    HW270682   0.169   0.083   9.013 -0.5377  0.9195  0.1658
23081SOL     OW70683   5.257   6.065  10.023 -0.2587 -0.1519 -0.1488
23081SOL    HW170684   5.331   6.124  10.037 -0.5307 -0.1462  1.3838
23081SOL    HW270685   5.279   5.986  10.072 -1.4475  0.0263  0.7216
23082SOL     OW70686   6.247   7.476   9.745 -0.2162 -0.2581 -0.2613
23082SOL    HW170687   6.312   7.419   9.785  0.9930  0.6042 -0.9401
23082SOL    HW270688   6.206   7.422   9.678 -0.2066 -0.8100  0.1754
23083SOL     OW70689   5.230   7.142   8.603 -0.6233  0.5463 -0.5470
23083SOL    HW170690   5.319   7.119   8.630  0.5634  4.2032 -0.8459
23083SOL    HW270691   5.183   7.153   8.686 -0.1747  0.7641 -0.3161
23084SOL     OW70692   6.705   7.603   8.887  0.6727 -0.2968  0.1356
23084SOL    HW170693   6.712   7.521   8.936 -2.4278 -1.4730 -1.1719
23084SOL    HW270694   6.644   7.657   8.937 -0.1724 -0.2973 -0.8645
23085SOL     OW70695   5.844   4.399   8.541 -0.4282  0.0378  0.4385
23085SOL    HW170696   5.841   4.304   8.531 -0.1875  0.1985 -1.4197
23085SOL    HW270697   5.906   4.429   8.474  0.8659  1.3841  2.1224
23086SOL     OW70698   0.851   6.969  10.900 -0.8450 -0.1372  1.0148
23086SOL    HW170699   0.864   7.038  10.965 -0.5775 -0.3780  1.2223
23086SOL    HW270700   0.792   6.907  10.943  0.4313 -1.0078  1.5945
23087SOL     OW70701   5.000   5.447   9.409  0.3014 -0.3440  0.0503
23087SOL    HW170702   4.982   5.452   9.503 -0.1510  2.0725 -0.0896
23087SOL    HW270703   4.921   5.481   9.368  0.6033 -1.1147 -1.2160
23088SOL     OW70704   5.576   4.729   9.213  0.7081 -0.2803  0.4239
23088SOL    HW170705   5.498   4.774   9.183  0.6878  0.8914  2.0793
23088SOL    HW270706   5.626   4.711   9.134 -0.7239 -0.1113 -0.5577
23089SOL     OW70707   7.314   6.201  10.550 -0.0394 -0.0038 -0.0050
23089SOL    HW170708   7.242   6.182  10.610  0.4746 -2.7257 -0.1411
23089SOL    HW270709   7.287   6.282  10.506 -2.6318 -0.4725  0.5425
23090SOL     OW70710   7.164   7.556  11.077 -0.8333  0.5118 -0.3953
23090SOL    HW170711   7.105   7.481  11.086  0.3120 -0.3898 -0.2708
23090SOL    HW270712   7.247   7.519  11.047  0.5970  1.3228  2.1797
23091SOL     OW70713   7.404   6.784   9.827  0.2645  0.0366 -0.4236
23091SOL    HW170714   7.419   6.824   9.913  0.8377  2.9883 -1.7617
23091SOL    HW270715   7.490   6.755   9.798  0.4002  0.7236 -0.7309
23092SOL     OW70716   6.815   7.669   8.246 -0.2892 -0.3232  0.4775
23092SOL    HW170717   6.871   7.642   8.319  2.3049  0.3248 -1.1552
23092SOL    HW270718   6.876   7.691   8.176 -2.6805 -1.6291 -2.1958
23093SOL     OW70719   6.247   5.858   7.296 -0.2720  0.1054  0.5486
23093SOL    HW170720   6.174   5.796   7.298  0.8868 -1.4085 -0.9371
23093SOL    HW270721   6.236   5.904   7.213  0.7252 -0.5356  0.0348
23094SOL     OW70722   6.344   0.518   9.286 -0.2231  0.6498  0.8234
23094SOL    HW170723   6.268   0.491   9.338  0.5345 -0.5851  1.3185
23094SOL    HW270724   6.315   0.511   9.195 -1.1959  1.7414  1.0165
23095SOL     OW70725   5.116   6.615   8.800  0.5021  0.1173 -0.0490
23095SOL    HW170726   5.089   6.684   8.740 -1.0593  0.1392  0.6114
23095SOL    HW270727   5.115   6.656   8.886 -3.1352 -1.2223  0.7565
23096SOL     OW70728   0.716   7.577   6.537  0.1221  0.3423  0.0147
23096SOL    HW170729   0.764   7.661   6.533 -0.1165  0.4438 -0.7872
23096SOL    HW270730   0.785   7.512   6.549  0.3322  0.6255  0.4049
23097SOL     OW70731   7.234   0.750   8.151  0.0442 -0.1620 -0.0895
23097SOL    HW170732   7.193   0.793   8.225  1.7119  0.9064  0.2679
23097SOL    HW270733   7.299   0.813   8.120  1.7821 -1.9534 -0.2714
23098SOL     OW70734   5.823   7.674   9.082  0.2004 -0.0636  0.4458
23098SOL    HW170735   5.916   7.696   9.093 -0.2038  2.6931 -0.9256
23098SOL    HW270736   5.824   7.596   9.026  1.7368  1.9168 -2.5553
23099SOL     OW70737   5.633   7.196   9.632  0.4658 -0.1325 -0.3338
23099SOL    HW170738   5.538   7.191   9.624  0.3004  0.8070  0.7534
23099SOL    HW270739   5.662   7.106   9.645 -0.5293 -0.2206  1.5655
23100SOL     OW70740   0.028   7.487   8.077 -0.0078  0.1797 -0.1149
23100SOL    HW170741   0.067   7.512   8.161 -0.4021  0.9389 -0.1543
23100SOL    HW270742   0.093   7.513   8.012  0.6458 -1.1116 -0.0187
23101SOL     OW70743   6.995   7.852   8.851  0.1254 -0.0459 -0.2658
23101SOL    HW170744   7.018   7.806   8.932 -0.6656 -1.5481 -0.8757
23101SOL    HW270745   7.055   7.927   8.849  0.6818 -0.4075  1.3096
23102SOL     OW70746   6.518   0.444   8.381 -0.2956 -0.3970  0.2901
23102SOL    HW170747   6.549   0.359   8.414  3.3355  0.5675 -0.2635
23102SOL    HW270748   6.510   0.432   8.287  0.6556 -0.0447  0.1546
23103SOL     OW70749   7.786   7.635   5.712 -1.0471  0.0283  0.3479
23103SOL    HW170750   7.718   7.637   5.780 -2.3949 -0.3471 -0.9360
23103SOL    HW270751   7.785   7.723   5.675 -1.7950 -0.3424 -0.5542
23104SOL     OW70752   0.725   6.809   7.133  0.2004 -0.6421  1.0967
23104SOL    HW170753   0.630   6.810   7.121  0.3313  0.1698 -0.1987
23104SOL    HW270754   0.753   6.723   7.101 -0.0287 -0.5754  0.7087
23105SOL     OW70755   5.904   6.606   7.085 -0.4724  0.1795  0.4088
23105SOL    HW170756   5.872   6.527   7.041 -0.3254 -0.1579  0.9057
23105SOL    HW270757   5.990   6.621   7.046 -0.3683 -0.0813  0.5372
23106SOL     OW70758   4.465   6.658   9.956 -0.5072 -0.2881  0.2788
23106SOL    HW170759   4.428   6.593  10.016  1.5291 -0.6094  1.3080
23106SOL    HW270760   4.498   6.606   9.882 -1.5292 -0.0753 -0.3369
23107SOL     OW70761   7.291   6.109   8.406  0.3722  0.4550  0.5370
23107SOL    HW170762   7.207   6.116   8.361  0.1354 -1.5755  0.5708
23107SOL    HW270763   7.349   6.170   8.360 -0.7457  0.8557 -0.3674
23108SOL     OW70764   6.249   5.706   9.344  0.5791  0.2171 -0.2110
23108SOL    HW170765   6.296   5.735   9.267 -0.3766 -2.1566 -1.8158
23108SOL    HW270766   6.296   5.628   9.374  0.7102  0.8739  1.3970
23109SOL     OW70767   6.940   7.615   8.489  0.1051 -0.0568  0.0594
23109SOL    HW170768   6.887   7.655   8.558 -0.1972  2.4417 -1.5055
23109SOL    HW270769   7.030   7.618   8.523 -0.2485 -0.7656  1.1355
23110SOL     OW70770   7.086   0.343   8.094 -0.4598 -0.1622  0.2543
23110SOL    HW170771   7.056   0.374   8.179  0.1998 -0.0134  0.4430
23110SOL    HW270772   7.121   0.421   8.051  0.8740 -0.5465  0.5857
23111SOL     OW70773   5.622   5.959   8.443 -0.2441  0.3881  0.0318
23111SOL    HW170774   5.553   5.892   8.447  0.1577 -0.1028 -1.0248
23111SOL    HW270775   5.660   5.949   8.356  3.6764 -1.8393  1.7677
23112SOL     OW70776   7.851   6.340   7.916  0.4171  0.1073 -0.0607
23112SOL    HW170777   7.758   6.350   7.934  0.7717  2.8046  0.7968
23112SOL    HW270778   7.869   6.405   7.847  1.8731  0.6214  0.7600
23113SOL     OW70779   6.704   4.805   8.374 -0.1804  0.1128 -0.0467
23113SOL    HW170780   6.646   4.800   8.451  1.0610 -1.0264  0.8731
23113SOL    HW270781   6.749   4.888   8.384  1.8930 -1.1316  1.9926
23114SOL     OW70782   5.973   6.985   9.501  0.6576 -0.3031 -0.5477
23114SOL    HW170783   5.977   7.076   9.471  1.0949 -0.7976 -2.1190
23114SOL    HW270784   5.962   6.991   9.596  1.2086  1.3891 -0.5543
23115SOL     OW70785   6.415   7.234   9.195  0.3799  0.0344 -0.3180
23115SOL    HW170786   6.418   7.291   9.272 -0.3472 -2.4694  1.7270
23115SOL    HW270787   6.504   7.201   9.186  0.4884  0.4083 -0.6174
23116SOL     OW70788   6.505   7.765   9.404 -0.1358 -0.3345  0.0535
23116SOL    HW170789   6.540   7.851   9.425  1.9146 -1.1971  0.4173
23116SOL    HW270790   6.466   7.735   9.486  0.9032 -0.5230  0.4968
23117SOL     OW70791   5.994   5.944   8.311 -0.2062 -0.5571 -0.4063
23117SOL    HW170792   5.986   6.030   8.351 -0.6391 -0.8114  0.0627
23117SOL    HW270793   5.904   5.914   8.298 -0.0968 -1.7384  1.2123
23118SOL     OW70794   6.111   7.571   9.978 -0.0847 -0.2116  0.4731
23118SOL    HW170795   6.175   7.551   9.910 -1.6647 -2.4916 -0.4840
23118SOL    HW270796   6.082   7.660   9.958  1.9000  0.4326  0.2604
23119SOL     OW70797   6.464   5.526   7.202 -0.0542  0.8117  0.3081
23119SOL    HW170798   6.377   5.545   7.167 -0.5067 -0.8228  0.4859
23119SOL    HW270799   6.479   5.434   7.183  1.8468  1.1546 -0.1192
23120SOL     OW70800   5.126   5.284  11.216  0.2189 -0.3501 -0.4447
23120SOL    HW170801   5.133   5.232  11.296 -0.5251 -0.3046 -0.3438
23120SOL    HW270802   5.190   5.354  11.228 -1.3775  0.9484  1.1113
23121SOL     OW70803   4.942   5.822   7.994  0.4876 -0.5202  0.3442
23121SOL    HW170804   4.963   5.809   7.902  1.2753  0.2133  0.4101
23121SOL    HW270805   4.852   5.792   8.003 -0.3222  1.3024 -1.1158
23122SOL     OW70806   6.968   4.962   8.141 -0.0618  0.2095  0.1502
23122SOL    HW170807   6.954   4.868   8.148  1.1968  0.0167  0.3405
23122SOL    HW270808   6.956   4.982   8.048  1.7593 -0.5461 -0.3044
23123SOL     OW70809   6.678   4.333   8.559  0.3438 -0.1652 -0.3793
23123SOL    HW170810   6.669   4.325   8.654 -0.6081  2.0250 -0.2306
23123SOL    HW270811   6.761   4.379   8.547  0.1439  0.1511 -0.5658
23124SOL     OW70812   1.664   0.330   7.793  0.2857 -0.2765 -1.0168
23124SOL    HW170813   1.730   0.273   7.833  0.1105 -0.0810 -0.4264
23124SOL    HW270814   1.580   0.288   7.816  0.1852 -0.2195 -1.2792
23125SOL     OW70815   6.837   5.788   8.400 -0.0013 -0.2169 -0.4595
23125SOL    HW170816   6.752   5.795   8.444  0.3333 -1.4820  0.4518
23125SOL    HW270817   6.830   5.709   8.347  0.1322  0.4590 -1.5082
23126SOL     OW70818   7.960   6.736   7.899 -0.4613  0.3010  0.4990
23126SOL    HW170819   7.947   6.774   7.986 -0.4004  0.9548  0.2300
23126SOL    HW270820   8.042   6.773   7.868 -0.1299 -0.4708  0.4414
23127SOL     OW70821   5.060   0.681   7.810 -0.2573  0.1138  0.1617
23127SOL    HW170822   5.092   0.709   7.896  0.2916 -0.7920  0.2638
23127SOL    HW270823   5.119   0.725   7.748 -0.5231  0.6022  0.2513
23128SOL     OW70824   0.186   6.595   9.221 -0.2190  0.0837 -0.3714
23128SOL    HW170825   0.223   6.517   9.263 -1.3568 -0.9054 -1.1585
23128SOL    HW270826   0.093   6.593   9.245 -0.2044  1.3751 -0.1554
23129SOL     OW70827   7.925   6.045   8.629  0.1191  0.0795  0.6186
23129SOL    HW170828   7.911   6.122   8.685 -1.4959  0.7671 -0.6404
23129SOL    HW270829   7.860   6.054   8.560  2.6216 -0.2016 -1.9410
23130SOL     OW70830   7.839   5.069   8.700  0.5088 -0.6988  0.5270
23130SOL    HW170831   7.784   4.994   8.721 -0.6925  0.2527  0.8955
23130SOL    HW270832   7.861   5.108   8.784  1.2725 -0.7232  0.3486
23131SOL     OW70833   0.109   0.548   9.185  0.1044  0.0663 -0.0256
23131SOL    HW170834   0.020   0.517   9.169  0.3476 -0.4366 -0.4415
23131SOL    HW270835   0.131   0.599   9.107 -0.4527  1.6938  0.8403
23132SOL     OW70836   6.614   0.310  10.736 -0.2535 -0.3790 -0.0822
23132SOL    HW170837   6.578   0.298  10.823 -0.6289 -0.1691 -0.2091
23132SOL    HW270838   6.636   0.222  10.706  1.4332 -0.3352  0.8769
23133SOL     OW70839   5.356   4.946   9.134 -0.1720  0.3372 -0.6963
23133SOL    HW170840   5.298   4.946   9.058 -1.2077 -0.3770  0.0694
23133SOL    HW270841   5.371   5.039   9.153 -0.6157  0.5189 -1.2358
23134SOL     OW70842   0.455   6.861   7.823  0.3442  0.3932  0.3004
23134SOL    HW170843   0.469   6.882   7.915  2.0281 -1.0818  0.4366
23134SOL    HW270844   0.363   6.837   7.816 -0.1177  1.7588  1.3099
23135SOL     OW70845   1.587   6.477   9.697  0.7500 -0.0358  0.0468
23135SOL    HW170846   1.560   6.392   9.732 -1.0573  0.3494 -0.3022
23135SOL    HW270847   1.630   6.457   9.614  0.4067 -0.6031  0.0026
23136SOL     OW70848   5.404   6.300   9.079 -0.1126  0.0633 -0.2463
23136SOL    HW170849   5.416   6.322   8.987  0.8557 -1.2213 -0.4576
23136SOL    HW270850   5.493   6.296   9.115 -0.1020 -3.3158 -0.2593
23137SOL     OW70851   6.166   6.658  10.915 -0.0582 -0.5233 -0.5882
23137SOL    HW170852   6.173   6.565  10.938 -2.0494 -0.5589  0.0665
23137SOL    HW270853   6.184   6.661  10.821  1.9289 -1.2738 -0.2833
23138SOL     OW70854   4.136   7.087   6.418  0.2503  0.2033  0.2151
23138SOL    HW170855   4.191   7.010   6.404 -0.5307 -0.3934  0.3580
23138SOL    HW270856   4.048   7.052   6.433 -0.2626  1.1502 -0.4529
23139SOL     OW70857   6.550   0.162   8.494 -0.1644 -0.1101 -0.0569
23139SOL    HW170858   6.629   0.140   8.543  0.7649  0.3875 -1.2868
23139SOL    HW270859   6.544   0.094   8.427  0.0916  0.7161 -0.9320
23140SOL     OW70860   7.108   5.685   9.653  0.0623  0.1364 -0.2150
23140SOL    HW170861   7.182   5.682   9.714 -0.2737  0.7217  0.2311
23140SOL    HW270862   7.036   5.644   9.699  0.4391 -1.6707 -1.1568
23141SOL     OW70863   6.453   7.251   8.911 -0.3091  0.3550  0.1919
23141SOL    HW170864   6.484   7.291   8.992 -0.2923 -0.1712  0.4499
23141SOL    HW270865   6.412   7.323   8.862 -0.2357  0.6908  0.6243
23142SOL     OW70866   7.476   5.278   8.716 -0.1635  0.3411  0.4901
23142SOL    HW170867   7.416   5.227   8.770  0.5182 -0.1983  0.7433
23142SOL    HW270868   7.510   5.216   8.652  2.1897 -0.0754  2.0171
23143SOL     OW70869   6.284   4.648  10.675 -0.2340 -0.2657  0.0612
23143SOL    HW170870   6.276   4.728  10.726 -1.1057  0.2675 -0.8776
23143SOL    HW270871   6.254   4.578  10.733 -1.8361  0.4080  0.0696
23144SOL     OW70872   6.555   1.289   8.158 -0.0165  0.1320 -0.0019
23144SOL    HW170873   6.627   1.325   8.106  0.1974  0.3852  0.4601
23144SOL    HW270874   6.501   1.366   8.180  1.7735  0.6808  3.1233
23145SOL     OW70875   5.937   6.340   9.756  0.5744 -0.0897  0.1625
23145SOL    HW170876   6.009   6.303   9.806  0.9901  0.7255  0.1806
23145SOL    HW270877   5.964   6.330   9.664  1.2241  1.2157  0.1998
23146SOL     OW70878   7.455   7.428   7.985 -0.2045 -0.1285 -0.0009
23146SOL    HW170879   7.425   7.419   7.894 -1.0302 -0.9266  0.3329
23146SOL    HW270880   7.486   7.340   8.008 -0.6566 -0.1027  0.7148
23147SOL     OW70881   5.979   6.200   8.389  0.2597  0.6506 -0.1041
23147SOL    HW170882   5.998   6.219   8.297  1.1295  1.1732  0.1729
23147SOL    HW270883   5.927   6.275   8.418 -0.0801  0.4489 -0.1810
23148SOL     OW70884   5.527   6.497  10.566 -0.0485  0.5967  0.3610
23148SOL    HW170885   5.433   6.496  10.584 -0.4559 -1.0395 -1.4844
23148SOL    HW270886   5.549   6.405  10.551  1.1257  1.2345 -2.4275
23149SOL     OW70887   7.367   0.074   8.065 -0.5492 -0.5540  0.1750
23149SOL    HW170888   7.279   0.058   8.030 -0.1419 -0.1772 -1.0642
23149SOL    HW270889   7.394   0.157   8.024  0.9598 -1.4151 -0.6402
23150SOL     OW70890   5.768   3.617   0.107 -0.8013  0.1257  0.3959
23150SOL    HW170891   5.859   3.643   0.123 -1.2883  1.9696  0.3639
23150SOL    HW270892   5.764   3.603   0.013  0.2208 -3.3493  0.7238
23151SOL     OW70893   6.111   6.995  10.028 -0.1442 -0.2515 -0.5217
23151SOL    HW170894   6.082   6.907  10.053  0.9824 -0.3675  0.4889
23151SOL    HW270895   6.074   7.051  10.096 -1.3817  0.1580 -1.5102
23152SOL     OW70896   6.329   5.178   8.323 -0.2588  0.0491 -0.5882
23152SOL    HW170897   6.343   5.257   8.270  0.6135  0.1669 -0.1911
23152SOL    HW270898   6.326   5.107   8.260 -1.9719  0.4851 -1.0401
23153SOL     OW70899   7.601   6.617   9.759  1.1570  0.9411  0.2451
23153SOL    HW170900   7.612   6.558   9.684  0.0865  0.1464  0.6852
23153SOL    HW270901   7.688   6.622   9.799  1.6522  1.0772 -0.8228
23154SOL     OW70902   6.040   7.646   6.779  0.1936 -0.2414 -0.2518
23154SOL    HW170903   5.944   7.652   6.770  0.3876  2.5446 -1.6118
23154SOL    HW270904   6.059   7.554   6.762 -2.1155 -0.5042 -2.0958
23155SOL     OW70905   5.947   6.743   9.825 -0.1684 -0.4441 -0.2857
23155SOL    HW170906   6.001   6.668   9.852  0.5723  0.7314  1.7534
23155SOL    HW270907   5.859   6.707   9.817  0.1489 -1.5452  0.7547
23156SOL     OW70908   5.170   6.806   8.592  0.7160 -0.3113  0.4797
23156SOL    HW170909   5.235   6.837   8.655  0.1789 -0.2470  1.0117
23156SOL    HW270910   5.216   6.740   8.541  2.4285  2.4766 -1.8341
23157SOL     OW70911   6.844   6.967   6.299  0.1657 -0.0024 -0.4946
23157SOL    HW170912   6.922   7.008   6.337 -0.4080 -0.0064  0.7168
23157SOL    HW270913   6.854   6.874   6.318 -0.4132  0.0680  0.2000
23158SOL     OW70914   7.863   0.061   8.994 -0.4051 -1.0618 -0.0818
23158SOL    HW170915   7.835   0.100   9.077 -1.2427  1.3891 -1.3920
23158SOL    HW270916   7.958   0.064   8.997 -0.4201  0.9273  0.0389
23159SOL     OW70917   5.668   5.092  10.011  0.1764  0.1008 -0.5273
23159SOL    HW170918   5.586   5.126   9.975  0.8193 -1.0190 -3.3133
23159SOL    HW270919   5.733   5.110   9.943  1.7426 -1.2539  0.5251
23160SOL     OW70920   7.341   6.831   9.564  0.2913 -0.0381  0.4119
23160SOL    HW170921   7.353   6.831   9.659  0.0016 -0.7947  0.4520
23160SOL    HW270922   7.409   6.773   9.531  0.7625  0.6750  0.0981
23161SOL     OW70923   5.605   7.286   8.276 -0.2004 -0.3629 -0.6223
23161SOL    HW170924   5.673   7.221   8.258 -0.4268 -1.2683  1.5196
23161SOL    HW270925   5.523   7.236   8.273 -0.5495  0.2105 -0.7651
23162SOL     OW70926   6.410   7.379   8.375 -0.6425 -0.5288 -0.2633
23162SOL    HW170927   6.478   7.423   8.426 -0.2121  0.2006 -1.4141
23162SOL    HW270928   6.457   7.315   8.322 -0.5903  0.9378 -2.1160
23163SOL     OW70929   7.824   0.515   8.988 -0.4412 -0.0273  0.3672
23163SOL    HW170930   7.893   0.495   8.925  1.7262 -1.5186  3.0051
23163SOL    HW270931   7.792   0.602   8.963  1.3374  0.0573 -1.8548
23164SOL     OW70932   6.715   6.882   9.085  0.3120 -0.3392  0.9944
23164SOL    HW170933   6.706   6.811   9.149 -1.3143 -0.8314  0.2755
23164SOL    HW270934   6.768   6.843   9.015  0.3586 -0.4744  1.1021
23165SOL     OW70935   7.769   5.735   5.467 -0.2611 -0.4488  0.4121
23165SOL    HW170936   7.720   5.657   5.440  1.1888 -0.9947 -0.7800
23165SOL    HW270937   7.717   5.809   5.435 -2.2631 -0.8123  2.5737
23166SOL     OW70938   7.891   5.758   6.522 -0.0902 -0.5305 -0.1583
23166SOL    HW170939   7.819   5.785   6.464 -1.0223  0.2694  1.2867
23166SOL    HW270940   7.849   5.701   6.586  0.0718  1.5492  1.9261
23167SOL     OW70941   7.232   6.906   7.430 -0.4954 -0.0627 -0.3284
23167SOL    HW170942   7.316   6.925   7.471 -1.0636  1.0470  0.3845
23167SOL    HW270943   7.212   6.816   7.456 -0.4759  0.3523  1.2469
23168SOL     OW70944   5.458   6.911   6.770  0.0023  0.2692  0.4198
23168SOL    HW170945   5.548   6.895   6.740 -0.6179  1.1244 -2.1331
23168SOL    HW270946   5.464   6.993   6.820  0.9186 -0.7299  2.0503
23169SOL     OW70947   5.222   4.033   8.905  0.3916 -0.5666  0.5908
23169SOL    HW170948   5.166   3.967   8.865  0.3882 -0.0777 -0.2538
23169SOL    HW270949   5.185   4.117   8.875  0.3407 -0.1800  1.7126
23170SOL     OW70950   6.374   6.830   8.433 -0.5214  0.2646  0.4155
23170SOL    HW170951   6.446   6.846   8.494  1.6373 -2.5238 -1.0976
23170SOL    HW270952   6.359   6.914   8.390  1.2837  1.1334  1.3700
23171SOL     OW70953   6.338   5.372   9.983 -0.6036 -0.3657  0.1275
23171SOL    HW170954   6.414   5.429   9.976 -2.2613  1.7710 -2.2691
23171SOL    HW270955   6.372   5.291  10.022  2.0187  1.8782  2.9483
23172SOL     OW70956   5.656   6.186   8.206  0.0806  0.3049 -0.3184
23172SOL    HW170957   5.704   6.106   8.230 -0.9093 -0.6341 -1.3347
23172SOL    HW270958   5.643   6.231   8.289 -2.7875 -2.5637  1.0348
23173SOL     OW70959   6.556   6.510   7.469  0.0119 -0.1520 -0.1024
23173SOL    HW170960   6.488   6.457   7.510  0.6651 -0.8332  0.1221
23173SOL    HW270961   6.624   6.518   7.536  1.4707 -1.9731 -1.2752
23174SOL     OW70962   6.396   0.323   9.567 -0.6455 -1.1167  0.3647
23174SOL    HW170963   6.435   0.281   9.645  0.4424 -0.2767  0.2916
23174SOL    HW270964   6.459   0.306   9.497  0.5959  1.7870  0.6243
23175SOL     OW70965   0.106   6.792   9.732  0.1436 -0.1633 -0.4799
23175SOL    HW170966   0.025   6.832   9.701  0.8000  0.3100 -1.6458
23175SOL    HW270967   0.126   6.837   9.814 -1.0404 -0.6688  0.1168
23176SOL     OW70968   6.841   5.507  10.196  0.2026 -0.4691 -0.3217
23176SOL    HW170969   6.873   5.533  10.109  2.1109 -0.6282  0.2940
23176SOL    HW270970   6.877   5.420  10.210 -1.4938 -1.1599 -0.0287
23177SOL     OW70971   4.478   4.879   9.291  0.4555 -0.2403  0.7029
23177SOL    HW170972   4.552   4.922   9.248  1.3153 -1.2264  1.1517
23177SOL    HW270973   4.504   4.788   9.299 -0.5267 -0.4786  1.4923
23178SOL     OW70974   0.210   6.918   9.944  0.2671  0.6195  0.1010
23178SOL    HW170975   0.272   6.969   9.892 -1.2801  2.7801  0.2096
23178SOL    HW270976   0.226   6.944  10.034  1.0098 -0.9159  0.4357
23179SOL     OW70977   5.308   6.258   9.364 -0.1890 -0.1209  0.2305
23179SOL    HW170978   5.225   6.258   9.316 -0.3787 -3.6244  0.3190
23179SOL    HW270979   5.375   6.258   9.296 -0.2947  0.6284  0.1180
23180SOL     OW70980   7.305   5.278   9.470  0.5118  0.4101  0.2538
23180SOL    HW170981   7.271   5.238   9.390 -1.3933 -3.4878  2.6920
23180SOL    HW270982   7.399   5.260   9.468  0.6265  1.0574 -1.4031
23181SOL     OW70983   7.705   1.474   8.784 -0.2278 -0.4746  0.8484
23181SOL    HW170984   7.738   1.423   8.710  0.5950  1.5306 -0.2189
23181SOL    HW270985   7.759   1.445   8.858  1.3613 -0.0014 -0.0785
23182SOL     OW70986   7.223   6.463   8.382 -0.4927 -0.1224  0.1620
23182SOL    HW170987   7.155   6.401   8.353 -0.1646 -0.1886 -0.4955
23182SOL    HW270988   7.303   6.411   8.382 -0.6247 -0.4152  2.2571
23183SOL     OW70989   6.581   6.772   9.577  0.1711  0.0699  0.1346
23183SOL    HW170990   6.604   6.864   9.561 -1.9948  1.0575  2.1103
23183SOL    HW270991   6.573   6.766   9.672 -1.3595 -1.7376 -0.0706
23184SOL     OW70992   5.596   6.763   7.087 -1.1322 -0.0950 -0.2767
23184SOL    HW170993   5.668   6.724   7.038 -1.1895 -0.2971 -0.1995
23184SOL    HW270994   5.620   6.856   7.095  0.4425 -0.6246  2.0818
23185SOL     OW70995   4.800   7.786   9.856  0.5492 -0.3257  0.7461
23185SOL    HW170996   4.758   7.710   9.817  0.2217  0.4338 -0.4222
23185SOL    HW270997   4.806   7.850   9.785  1.9931  0.2748  1.3612
23186SOL     OW70998   0.345   7.288   7.485 -0.3505 -0.4501 -0.1790
23186SOL    HW170999   0.359   7.194   7.496  0.9344 -0.4058 -1.1957
23186SOL    HW271000   0.297   7.295   7.402  0.8282 -0.1445 -0.8491
23187SOL     OW71001   6.477   4.584   8.491 -0.2703 -0.6298 -0.1474
23187SOL    HW171002   6.512   4.528   8.422 -1.4090 -0.3163 -1.0107
23187SOL    HW271003   6.472   4.527   8.567  1.3827 -0.8764 -0.1813
23188SOL     OW71004   6.495   5.796  10.338  0.0324 -0.4064  0.2842
23188SOL    HW171005   6.401   5.813  10.328 -0.1061 -1.3915 -0.2079
23188SOL    HW271006   6.534   5.819  10.254  0.3293  0.4930  0.6493
23189SOL     OW71007   6.196   6.392  10.987  0.5360 -0.0181  0.9750
23189SOL    HW171008   6.136   6.356  11.053  1.2404 -2.7159  0.2765
23189SOL    HW271009   6.283   6.362  11.015  1.0145  0.1075 -0.3390
23190SOL     OW71010   6.403   6.675   8.208 -0.2146  0.2005  0.1412
23190SOL    HW171011   6.441   6.595   8.244 -2.4754 -1.8210 -1.6584
23190SOL    HW271012   6.374   6.724   8.285  1.0091 -0.8030  1.2783
23191SOL     OW71013   5.447   6.164  11.929  0.1752  0.2887 -0.2745
23191SOL    HW171014   5.389   6.183  11.856  1.3043 -0.0577 -1.2963
23191SOL    HW271015   5.468   6.249  11.966 -1.1857  0.4039  0.3115
23192SOL     OW71016   7.423   7.006   7.581 -0.0287 -0.0238 -0.0559
23192SOL    HW171017   7.478   6.934   7.612  1.8940  1.1602 -0.5102
23192SOL    HW271018   7.474   7.085   7.601 -1.0478  1.0706 -1.5465
23193SOL     OW71019   6.805   7.848   7.114  0.3474  0.3226  0.4231
23193SOL    HW171020   6.744   7.891   7.174 -0.2397 -0.2352  0.2370
23193SOL    HW271021   6.876   7.816   7.171 -0.0188  0.1219  0.7733
23194SOL     OW71022   5.319   7.648   9.832 -0.0543 -0.0263 -0.4825
23194SOL    HW171023   5.263   7.673   9.905 -0.5860  0.6634 -1.1200
23194SOL    HW271024   5.351   7.730   9.796 -0.4532 -0.3102 -1.5310
23195SOL     OW71025   7.060   6.557   6.847  0.0690  1.0289 -0.3300
23195SOL    HW171026   7.043   6.491   6.779 -3.6070  1.3461  0.1102
23195SOL    HW271027   7.045   6.512   6.929  0.6061  1.6613  0.1293
23196SOL     OW71028   6.479   6.364  11.035 -0.2319 -0.6506 -0.4909
23196SOL    HW171029   6.476   6.409  11.120 -0.1780  0.1528 -0.9049
23196SOL    HW271030   6.567   6.328  11.029  0.2451  0.5361 -0.8220
23197SOL     OW71031   6.427   5.811   8.820 -0.0571  0.1137 -0.2811
23197SOL    HW171032   6.386   5.838   8.738 -3.1887 -2.2261  0.3038
23197SOL    HW271033   6.500   5.756   8.794 -1.2884 -0.9746 -1.5733
23198SOL     OW71034   0.504   7.733   8.436 -0.0885  0.6570 -0.7272
23198SOL    HW171035   0.426   7.692   8.399 -0.2524 -0.3522  0.6545
23198SOL    HW271036   0.482   7.748   8.528  1.5286 -0.1592 -0.1719
23199SOL     OW71037   2.025   6.342   8.635  0.1423 -0.2301  0.1944
23199SOL    HW171038   1.997   6.422   8.590 -0.0024 -0.6926 -0.5551
23199SOL    HW271039   2.032   6.368   8.727  1.4360  1.0062 -0.2093
23200SOL     OW71040   7.652   6.582   8.555  0.4882 -0.0955 -0.1450
23200SOL    HW171041   7.693   6.650   8.609 -1.6085 -0.1105  1.5724
23200SOL    HW271042   7.584   6.627   8.506  0.4848 -0.5904 -0.6082
23201SOL     OW71043   6.702   1.701   9.023  0.4104 -0.1907 -0.0687
23201SOL    HW171044   6.698   1.618   9.071 -1.4385  0.9656  1.9885
23201SOL    HW271045   6.656   1.684   8.941 -0.6659 -1.0416  0.6747
23202SOL     OW71046   7.386   6.692   7.073  0.6941 -0.3503 -0.2728
23202SOL    HW171047   7.356   6.783   7.080  0.9333 -0.2130 -0.9078
23202SOL    HW271048   7.338   6.645   7.141 -0.9441 -0.1385 -1.2213
23203SOL     OW71049   6.982   7.234   8.605  0.2879 -0.7624 -0.4483
23203SOL    HW171050   6.964   7.172   8.675  0.5831  0.6655  0.9358
23203SOL    HW271051   7.076   7.252   8.612 -0.3184  2.4158  1.4889
23204SOL     OW71052   7.882   0.612   9.515 -0.2830  0.0898  0.3622
23204SOL    HW171053   7.906   0.629   9.606 -2.8849  0.5493  1.0490
23204SOL    HW271054   7.850   0.696   9.483  1.3532  0.1352 -1.2924
23205SOL     OW71055   6.002   7.569  10.716 -0.1262  0.1696  0.1579
23205SOL    HW171056   5.984   7.606  10.629 -1.4799 -0.7443  0.0280
23205SOL    HW271057   6.079   7.514  10.702  0.1822  0.6952 -0.2708
23206SOL     OW71058   0.261   1.248   8.448 -0.2308  0.3706 -0.0979
23206SOL    HW171059   0.306   1.168   8.422 -1.1983 -0.8807  1.8448
23206SOL    HW271060   0.297   1.315   8.391  0.9126 -1.3603 -1.5191
23207SOL     OW71061   6.759   6.586   8.618  0.6521  0.2396 -0.0707
23207SOL    HW171062   6.853   6.576   8.635  0.2166 -2.8099  1.1455
23207SOL    HW271063   6.718   6.519   8.673 -2.0915  0.0199 -2.2224
23208SOL     OW71064   6.278   5.612   6.855 -0.1955  0.1486  0.2591
23208SOL    HW171065   6.351   5.567   6.813  0.4289 -0.7612  2.2193
23208SOL    HW271066   6.249   5.677   6.790  1.0485 -0.8103 -1.3196
23209SOL     OW71067   6.347   7.509   9.071 -0.1019 -0.4380  0.0757
23209SOL    HW171068   6.280   7.545   9.129  0.4370  1.1777 -0.2779
23209SOL    HW271069   6.302   7.438   9.025 -1.2559 -0.1001  0.6390
23210SOL     OW71070   6.743   5.868   8.900  0.0876  0.0452 -0.0349
23210SOL    HW171071   6.825   5.917   8.894 -0.1777  0.3340 -1.9430
23210SOL    HW271072   6.676   5.934   8.912 -0.0047 -0.0784  0.1306
23211SOL     OW71073   6.639   7.853   7.939  0.1946 -0.0052  0.1310
23211SOL    HW171074   6.698   7.852   7.863 -0.3109  0.0807 -0.2707
23211SOL    HW271075   6.625   7.761   7.959  0.6363 -0.0236  0.3662
23212SOL     OW71076   3.495   5.757  10.972  0.3517 -0.6785 -0.2471
23212SOL    HW171077   3.431   5.787  11.036  0.6104  0.2902 -0.4202
23212SOL    HW271078   3.544   5.836  10.948 -0.2483 -0.8423 -2.2160
23213SOL     OW71079   6.469   5.700  10.049 -0.1244  0.0501  0.1805
23213SOL    HW171080   6.518   5.623  10.023 -0.3075 -0.0156  0.0255
23213SOL    HW271081   6.493   5.767   9.986  0.3697  0.2484  0.5766
23214SOL     OW71082   5.467   6.256  10.040  0.2283  0.0719 -0.5130
23214SOL    HW171083   5.553   6.237  10.004 -0.5868 -0.6791 -2.2020
23214SOL    HW271084   5.484   6.289  10.128  2.3420  1.9341 -1.5255
23215SOL     OW71085   1.006   6.796   8.634 -0.0205 -0.6927  0.3222
23215SOL    HW171086   1.062   6.807   8.556  0.5787  1.3950  0.9796
23215SOL    HW271087   0.919   6.824   8.605  0.6248  2.2232  0.8492
23216SOL     OW71088   5.459   5.928   8.964  0.5123 -0.2379 -0.0463
23216SOL    HW171089   5.406   5.922   9.044 -1.2769 -1.7213 -1.2491
23216SOL    HW271090   5.455   6.020   8.940 -0.8113 -0.1487  0.3945
23217SOL     OW71091   6.571   1.203   7.184  0.3103  0.1794  0.0202
23217SOL    HW171092   6.628   1.225   7.111 -1.8362 -0.8873 -2.1213
23217SOL    HW271093   6.588   1.111   7.201  1.1131  0.5286  1.2149
23218SOL     OW71094   6.125   6.181   9.905  0.4375  0.2753 -0.9075
23218SOL    HW171095   6.083   6.140   9.981  1.2597  1.1443  0.0437
23218SOL    HW271096   6.153   6.107   9.851 -2.0234 -0.3455 -1.4645
23219SOL     OW71097   5.686   6.666   9.760  0.0727  0.5544  0.0947
23219SOL    HW171098   5.605   6.663   9.811  0.7794  1.3998  1.3375
23219SOL    HW271099   5.695   6.577   9.724 -0.3655 -0.1500  1.6227
23220SOL     OW71100   5.293   7.006   8.978  0.3596 -0.0520 -0.5517
23220SOL    HW171101   5.327   7.002   8.889  0.0899  1.7648 -0.7602
23220SOL    HW271102   5.367   7.034   9.031  0.5130 -1.0987 -0.1729
23221SOL     OW71103   6.170   6.258   9.536 -0.0106 -0.0233  0.2177
23221SOL    HW171104   6.106   6.187   9.529  1.5293 -1.3810 -0.7823
23221SOL    HW271105   6.125   6.334   9.499 -0.6230 -1.2700 -1.7980
23222SOL     OW71106   5.588   7.715   9.502 -0.4249 -0.1105 -0.1336
23222SOL    HW171107   5.604   7.697   9.409  0.6129 -1.9563  0.3427
23222SOL    HW271108   5.535   7.641   9.532 -0.5498  0.3409  0.8029
23223SOL     OW71109   7.312   6.481   9.446 -0.7487 -0.3787  0.1525
23223SOL    HW171110   7.256   6.435   9.383  2.2027 -2.5143 -1.1751
23223SOL    HW271111   7.350   6.411   9.499  0.5658  0.9631  1.0421
23224SOL     OW71112   6.351   7.155   6.894 -0.4061  0.3407 -0.2601
23224SOL    HW171113   6.369   7.081   6.837  0.7127  0.1010  0.3823
23224SOL    HW271114   6.408   7.142   6.970 -0.9449  1.3144  0.3358
23225SOL     OW71115   7.724   7.163   6.093  0.0489  0.2969 -0.0532
23225SOL    HW171116   7.635   7.137   6.117 -0.3550  1.1288 -0.5989
23225SOL    HW271117   7.714   7.203   6.006  0.7268  1.7118  0.5075
23226SOL     OW71118   0.605   6.671  10.637  0.3245 -0.0659 -0.5655
23226SOL    HW171119   0.534   6.734  10.647  0.7186  0.1206  1.2418
23226SOL    HW271120   0.648   6.697  10.555  0.4590  2.0006  0.1019
23227SOL     OW71121   5.723   6.227   9.957 -0.4355 -0.0266  0.2787
23227SOL    HW171122   5.775   6.254  10.033 -0.5289  2.0567 -0.3203
23227SOL    HW271123   5.764   6.274   9.883 -0.6091 -1.6605 -0.9002
23228SOL     OW71124   5.368   7.697   7.086  0.0875  0.0933 -0.3103
23228SOL    HW171125   5.358   7.628   7.020 -1.0655 -0.2235  0.1714
23228SOL    HW271126   5.356   7.778   7.037 -0.4945 -0.1261 -0.5390
23229SOL     OW71127   5.551   7.985   9.918 -0.8633  0.1790  0.1729
23229SOL    HW171128   5.584   7.912   9.970 -2.9286  0.6876  2.4131
23229SOL    HW271129   5.510   7.944   9.842  1.3574 -0.6700 -0.6394
23230SOL     OW71130   5.705   7.137   8.943 -0.5847  0.6724  0.1403
23230SOL    HW171131   5.668   7.168   8.860 -2.1023  0.3860  0.6972
23230SOL    HW271132   5.766   7.068   8.917  1.5086  2.7764 -0.9739
23231SOL     OW71133   5.933   7.269   6.292  0.2731 -0.1078  0.1174
23231SOL    HW171134   5.976   7.350   6.316  1.9036 -0.5052 -1.2824
23231SOL    HW271135   5.969   7.203   6.351  0.6556 -0.2053 -0.2180
23232SOL     OW71136   7.800   7.629   9.090  0.1620  0.0548 -0.1297
23232SOL    HW171137   7.855   7.662   9.162 -1.1099 -0.3449  1.0704
23232SOL    HW271138   7.737   7.698   9.074 -0.4180 -0.4136  0.0931
23233SOL     OW71139   6.765   0.123   8.627  0.4244 -0.2310 -0.6191
23233SOL    HW171140   6.756   0.099   8.720  0.4387  0.9058 -0.3197
23233SOL    HW271141   6.856   0.104   8.606  0.9294  1.2751  0.1201
23234SOL     OW71142   5.565   5.850   8.712 -0.1132 -0.0598 -0.3848
23234SOL    HW171143   5.475   5.824   8.732 -0.2890  1.2043  0.5920
23234SOL    HW271144   5.603   5.874   8.796  0.0897  2.5360 -1.1163
23235SOL     OW71145   6.047   7.838  10.393  0.6399 -0.3823  1.0050
23235SOL    HW171146   6.042   7.840  10.489  2.0317  2.4454  1.1331
23235SOL    HW271147   6.034   7.929  10.367 -3.1050 -1.4742 -1.8423
23236SOL     OW71148   6.064   6.504   7.767 -0.1442  0.2042  0.4063
23236SOL    HW171149   6.068   6.409   7.754  0.5515  0.3122 -0.2231
23236SOL    HW271150   5.971   6.522   7.780 -0.2567 -0.5909  0.7930
23237SOL     OW71151   6.453   7.621   7.896  0.2616 -0.8775  0.4769
23237SOL    HW171152   6.446   7.659   7.809 -0.8363 -1.2998  0.3712
23237SOL    HW271153   6.414   7.534   7.889  1.7662 -1.6439  0.9768
23238SOL     OW71154   0.868   2.114   7.582  0.2180  0.0065 -0.0901
23238SOL    HW171155   0.814   2.038   7.602 -0.5797  0.8233  0.9276
23238SOL    HW271156   0.857   2.127   7.488  1.0135 -1.6040 -0.4489
23239SOL     OW71157   5.697   6.937   5.719 -0.4731 -0.5484  0.3611
23239SOL    HW171158   5.665   6.898   5.638  0.4049 -1.9289  0.6563
23239SOL    HW271159   5.758   6.873   5.755  2.0379  1.5891  0.2367
23240SOL     OW71160   5.499   7.278  10.308 -0.2423  0.1322  0.5176
23240SOL    HW171161   5.504   7.183  10.321 -0.0424  0.1975  0.9383
23240SOL    HW271162   5.486   7.289  10.214  0.8889 -0.2840  0.2960
23241SOL     OW71163   5.727   5.903   8.197 -1.2495 -0.0557  0.4322
23241SOL    HW171164   5.765   5.924   8.111 -0.3688 -1.6994  0.3736
23241SOL    HW271165   5.663   5.834   8.178 -1.2818 -0.2030  1.0539
23242SOL     OW71166   7.134   3.520   9.138 -0.6286 -0.3099 -0.4466
23242SOL    HW171167   7.130   3.577   9.061  2.0691  1.4823  0.6201
23242SOL    HW271168   7.064   3.552   9.195  0.3051  1.4566 -0.2277
23243SOL     OW71169   7.624   5.412   8.906 -0.1945 -0.3189  0.0560
23243SOL    HW171170   7.572   5.356   8.848 -0.7528 -0.3254  0.5551
23243SOL    HW271171   7.602   5.383   8.994  1.3658 -0.9419  0.2776
23244SOL     OW71172   5.902   5.767   7.687  0.4651  0.5423 -0.1117
23244SOL    HW171173   5.912   5.679   7.652 -0.4376  0.3692  0.0618
23244SOL    HW271174   5.953   5.767   7.768  2.6800  0.9805 -1.4192
23245SOL     OW71175   5.247   6.870   9.515  0.2024  0.7096 -0.0078
23245SOL    HW171176   5.222   6.778   9.508  0.2192  0.8241 -3.1830
23245SOL    HW271177   5.342   6.868   9.522  0.1951  0.4637  0.0246
23246SOL     OW71178   5.135   5.363   8.708 -0.5358 -0.1991 -0.9245
23246SOL    HW171179   5.215   5.407   8.738 -0.9720 -0.1294  0.1677
23246SOL    HW271180   5.161   5.272   8.695 -0.7482 -0.6643  1.5095
23247SOL     OW71181   7.953   5.340   9.116  0.1411  0.5627 -0.0415
23247SOL    HW171182   7.879   5.400   9.126  0.8680  1.7941 -1.6986
23247SOL    HW271183   8.018   5.371   9.179  0.0198  0.7002  0.0167
23248SOL     OW71184   4.410   5.762   7.895 -0.3590  0.2309 -0.6026
23248SOL    HW171185   4.471   5.783   7.824  1.1568  3.2382  1.4020
23248SOL    HW271186   4.353   5.839   7.901 -0.6527 -0.0952  1.2125
23249SOL     OW71187   0.194   0.713   8.086 -0.2001  0.7672  0.4892
23249SOL    HW171188   0.230   0.737   8.001 -1.8136  0.2048 -0.3961
23249SOL    HW271189   0.237   0.631   8.108 -1.0311 -0.0176 -0.6634
23250SOL     OW71190   7.691   6.440  10.831 -0.3703 -0.3340 -0.2302
23250SOL    HW171191   7.610   6.471  10.872 -0.4065  1.2559 -1.3617
23250SOL    HW271192   7.661   6.386  10.757 -0.3552 -1.0708  0.2961
23251SOL     OW71193   6.368   4.310  11.192  0.0142 -0.0339 -0.1839
23251SOL    HW171194   6.358   4.362  11.272 -1.5480  0.3706 -0.6059
23251SOL    HW271195   6.447   4.259  11.206  0.8558  1.4785  0.8009
23252SOL     OW71196   7.147   0.329   8.924 -0.5773 -0.2114  0.0110
23252SOL    HW171197   7.069   0.379   8.901 -2.2709 -1.4544  2.6092
23252SOL    HW271198   7.211   0.352   8.856 -3.3612  0.3471 -2.6533
23253SOL     OW71199   5.832   5.772  11.461 -0.7557 -0.6564  0.3083
23253SOL    HW171200   5.915   5.784  11.417 -0.3182 -0.4109  1.1802
23253SOL    HW271201   5.779   5.720  11.400  0.2833 -1.4330  0.0483
23254SOL     OW71202   6.762   1.334   8.844 -0.2173 -0.4136 -0.0570
23254SOL    HW171203   6.687   1.304   8.794 -1.2656  0.5285  0.8902
23254SOL    HW271204   6.836   1.285   8.809 -1.3547 -1.7579 -0.6471
23255SOL     OW71205   6.575   6.517   9.698  0.4124 -0.0602 -0.1345
23255SOL    HW171206   6.514   6.466   9.752  0.2843 -0.8220 -0.9835
23255SOL    HW271207   6.527   6.599   9.680 -0.1960 -0.4772 -0.4440
23256SOL     OW71208   7.389   6.044   8.936 -0.5478 -0.2840  0.5732
23256SOL    HW171209   7.314   6.079   8.887  0.5609  0.0094 -1.0103
23256SOL    HW271210   7.393   5.952   8.911 -0.2862 -0.2561  0.5064
23257SOL     OW71211   7.120   6.714  10.073  0.4544 -0.0543 -0.1728
23257SOL    HW171212   7.091   6.684  10.159 -1.5401 -1.5293 -1.2609
23257SOL    HW271213   7.083   6.650  10.012 -1.1681  2.7507 -2.4016
23258SOL     OW71214   5.670   4.906   0.227  0.0606 -0.5901  0.1702
23258SOL    HW171215   5.743   4.845   0.220  0.7924  0.4581 -2.2494
23258SOL    HW271216   5.684   4.951   0.310  0.7159 -2.1699  0.9519
23259SOL     OW71217   6.939   7.054   8.350 -0.0666  0.2226 -0.6313
23259SOL    HW171218   6.865   7.113   8.366  0.7459  0.9606  0.5879
23259SOL    HW271219   6.942   7.044   8.255 -0.9093  1.2612 -0.7845
23260SOL     OW71220   5.157   6.605   0.003  0.2301  0.6720  0.6162
23260SOL    HW171221   5.165   6.628  -0.089  1.3681  0.3103  0.6069
23260SOL    HW271222   5.197   6.518   0.010 -0.3655  0.4395  1.3498
23261SOL     OW71223   4.839   7.423  12.051 -0.4094 -0.2126  0.0039
23261SOL    HW171224   4.764   7.482  12.056 -1.5443 -1.6406  0.3897
23261SOL    HW271225   4.878   7.442  11.966 -1.1053  0.6541 -0.1435
23262SOL     OW71226   6.444   5.701  10.597 -0.6151 -0.2640 -0.4430
23262SOL    HW171227   6.495   5.725  10.519 -0.0874 -1.9062 -0.6485
23262SOL    HW271228   6.359   5.673  10.562  0.0169 -2.1326 -0.5930
23263SOL     OW71229   6.147   7.051  10.627  0.0389  0.2440  0.1841
23263SOL    HW171230   6.178   6.987  10.692  0.4386 -1.6434 -1.7405
23263SOL    HW271231   6.134   6.999  10.548 -1.0098  2.3539 -1.0975
23264SOL     OW71232   0.177   6.845  10.470 -0.3271  0.2256  0.3533
23264SOL    HW171233   0.110   6.777  10.468  0.6186 -0.7081 -1.4767
23264SOL    HW271234   0.148   6.905  10.539 -1.2156 -1.9809  2.0195
23265SOL     OW71235   0.252   7.186   9.507 -0.5555  0.4526  0.2030
23265SOL    HW171236   0.315   7.131   9.462 -0.9226  0.5727 -0.4643
23265SOL    HW271237   0.167   7.165   9.467 -1.2493 -0.9281  2.1979
23266SOL     OW71238   6.760   7.930  11.868  0.2166 -0.3027 -0.2826
23266SOL    HW171239   6.715   7.956  11.788 -0.9239 -1.0454  0.0864
23266SOL    HW271240   6.780   8.012  11.912  2.7341  0.2482 -2.2698
23267SOL     OW71241   6.090   5.691   8.904  0.0712 -0.5419 -0.1531
23267SOL    HW171242   6.171   5.641   8.896  0.8789  0.6117  0.3794
23267SOL    HW271243   6.120   5.781   8.920 -1.3144  0.1197 -1.1308
23268SOL     OW71244   6.624   0.393   8.715  0.2658  0.1705  0.4743
23268SOL    HW171245   6.616   0.304   8.682  0.9989  0.0294  0.6745
23268SOL    HW271246   6.670   0.384   8.799 -0.5248  0.6407  0.9760
23269SOL     OW71247   6.806   0.832  11.541 -0.5163 -0.1083  0.4172
23269SOL    HW171248   6.793   0.917  11.499 -1.5786  0.0230  0.9612
23269SOL    HW271249   6.794   0.850  11.634 -1.3075 -0.9584  0.4863
23270SOL     OW71250   6.339   5.975  11.165 -0.0735  0.4259 -0.4259
23270SOL    HW171251   6.382   5.892  11.141  1.1079  0.7958  0.3437
23270SOL    HW271252   6.342   6.027  11.084 -0.7926 -0.2586 -0.9055
23271SOL     OW71253   7.353   5.510  10.493 -0.1952  0.3268  0.2912
23271SOL    HW171254   7.265   5.533  10.464 -0.6439  0.9837  2.0472
23271SOL    HW271255   7.349   5.513  10.589  1.3825 -1.0109  0.4573
23272SOL     OW71256   3.817   0.603  10.283 -0.1059  0.5274  0.7516
23272SOL    HW171257   3.762   0.526  10.296  0.2153  0.2609  0.5508
23272SOL    HW271258   3.813   0.619  10.189  1.7345 -0.6921  0.4252
23273SOL     OW71259   6.894   6.837   9.642  0.1257 -0.7850 -0.4580
23273SOL    HW171260   6.887   6.742   9.635 -0.7377 -0.7243 -0.4431
23273SOL    HW271261   6.887   6.855   9.736  1.9274 -0.8198 -0.2809
23274SOL     OW71262   7.130   1.579   8.579  0.2294 -0.0885  0.3301
23274SOL    HW171263   7.225   1.578   8.590  0.3203  1.8303 -0.0456
23274SOL    HW271264   7.116   1.551   8.489  0.2518 -2.5337  0.9986
23275SOL     OW71265   7.839   4.062   9.236 -0.2655 -0.1683 -0.2438
23275SOL    HW171266   7.918   4.016   9.208 -1.3484 -0.9012 -2.3361
23275SOL    HW271267   7.834   4.138   9.177 -0.7778  0.2283  0.2995
23276SOL     OW71268   6.256   7.234   0.042  0.5003  0.0338  0.1920
23276SOL    HW171269   6.326   7.169   0.047  1.1655  0.4329 -2.4304
23276SOL    HW271270   6.303   7.318   0.034 -0.2900  0.3941 -0.7526
23277SOL     OW71271   6.277   6.937  10.833  0.4793  0.4841 -0.3849
23277SOL    HW171272   6.235   7.006  10.885 -0.9243  0.5081 -1.5016
23277SOL    HW271273   6.294   6.867  10.897 -1.1598  0.5265  0.1486
23278SOL     OW71274   5.517   0.371  10.437 -0.4752 -0.5947  0.5188
23278SOL    HW171275   5.449   0.342  10.377 -1.1683  1.6059  0.1519
23278SOL    HW271276   5.599   0.350  10.392 -0.9242 -1.4242  0.0579
23279SOL     OW71277   6.920   1.204  10.864  0.1353  0.8545 -0.2335
23279SOL    HW171278   6.912   1.160  10.779 -0.9143  1.1785 -0.3164
23279SOL    HW271279   6.944   1.135  10.925 -1.1616  0.1977 -0.4230
23280SOL     OW71280   5.667   5.499   7.794  0.2777 -0.0441 -0.4710
23280SOL    HW171281   5.589   5.456   7.827  0.3672 -0.3342 -0.6294
23280SOL    HW271282   5.657   5.497   7.698  0.2012  0.4424 -0.4748
23281SOL     OW71283   6.985   6.107  11.320  1.0125 -0.0906  0.3132
23281SOL    HW171284   6.939   6.072  11.245  0.0006  1.3882  0.1975
23281SOL    HW271285   7.030   6.185  11.287 -0.6618  1.4752  1.4625
23282SOL     OW71286   7.941   6.923  10.040 -0.2016 -0.1067 -0.0153
23282SOL    HW171287   8.034   6.946  10.044 -0.5544  1.2310  1.3763
23282SOL    HW271288   7.935   6.842  10.091  0.1510 -0.0263  0.1605
23283SOL     OW71289   6.887   1.110  12.016  0.2866  0.1279  0.4366
23283SOL    HW171290   6.877   1.205  12.005 -0.9799  0.1086  1.2865
23283SOL    HW271291   6.799   1.078  12.037  0.2535 -1.5476 -1.8524
23284SOL     OW71292   4.832   7.452   0.407  0.0272 -0.0692  0.3358
23284SOL    HW171293   4.854   7.477   0.497 -0.5622  1.8657 -0.0024
23284SOL    HW271294   4.748   7.407   0.415 -1.3944  2.4349  0.5733
23285SOL     OW71295   6.252   6.814   9.084  0.1228 -0.0716  0.1656
23285SOL    HW171296   6.193   6.878   9.045  0.0432  0.0173  0.4328
23285SOL    HW271297   6.334   6.823   9.035  0.0571  0.1158  0.0933
23286SOL     OW71298   7.529   7.621   9.308  0.7558 -0.3582  0.2242
23286SOL    HW171299   7.461   7.558   9.333 -0.6317  0.8397 -0.3829
23286SOL    HW271300   7.534   7.615   9.213  0.7038  0.3558  0.1711
23287SOL     OW71301   6.100   6.312   8.163 -0.3456  0.0562  0.0736
23287SOL    HW171302   6.142   6.244   8.110 -1.3059 -0.7982  0.3825
23287SOL    HW271303   6.045   6.360   8.102  0.5036  0.7309 -0.1908
23288SOL     OW71304   7.827   6.910   9.666  0.5200  0.9054 -0.1097
23288SOL    HW171305   7.786   6.906   9.752 -0.8798  1.7441 -0.7030
23288SOL    HW271306   7.852   7.002   9.655  0.8985  0.7617 -0.5049
23289SOL     OW71307   6.895   7.121  10.294 -0.2389  0.2196  0.3100
23289SOL    HW171308   6.989   7.125  10.308 -0.2984 -0.7452  1.1090
23289SOL    HW271309   6.871   7.031  10.315 -1.3439  0.4592  0.1560
23290SOL     OW71310   6.937   6.425   8.832  0.7625  0.0583 -0.0456
23290SOL    HW171311   7.023   6.439   8.872  0.2041  2.2829  0.5007
23290SOL    HW271312   6.875   6.425   8.905  0.1353  0.0236 -0.5643
23291SOL     OW71313   7.786   5.774  11.631  0.2025 -0.4102 -0.5858
23291SOL    HW171314   7.859   5.742  11.577  0.4348  1.9187 -1.7880
23291SOL    HW271315   7.710   5.727  11.597  0.6837 -0.6017 -1.4498
23292SOL     OW71316   4.478   7.454  10.746 -0.4483  0.3320  0.4104
23292SOL    HW171317   4.538   7.390  10.708  0.2774  0.0214  2.0127
23292SOL    HW271318   4.418   7.475  10.674  1.0205  0.0056 -0.9888
23293SOL     OW71319   7.005   6.114  10.052  0.1137  0.8580 -0.2136
23293SOL    HW171320   7.011   6.173  10.127  1.4794  0.3439  0.1122
23293SOL    HW271321   7.015   6.026  10.090 -0.4836  0.4993 -0.8545
23294SOL     OW71322   6.638   0.241   9.926 -0.3636  0.5882 -0.2637
23294SOL    HW171323   6.577   0.179   9.887 -0.3135  0.5453 -0.2738
23294SOL    HW271324   6.656   0.205  10.013  0.2500  0.1909 -0.5496
23295SOL     OW71325   6.534   5.878   9.832  0.7754  0.0418 -0.1365
23295SOL    HW171326   6.477   5.950   9.859 -0.6769 -1.6480  1.6140
23295SOL    HW271327   6.515   5.866   9.739 -0.6094  0.5254  0.0621
23296SOL     OW71328   3.611   7.722  11.648 -0.5098 -0.5290  0.0983
23296SOL    HW171329   3.580   7.740  11.559  1.0992  0.1613 -0.3453
23296SOL    HW271330   3.706   7.732  11.644 -0.3584 -0.8825  1.8131
23297SOL     OW71331   6.572   6.752   9.887 -0.1477  0.4216 -0.0158
23297SOL    HW171332   6.619   6.827   9.923 -0.5720 -0.0472  1.6404
23297SOL    HW271333   6.558   6.695   9.963 -0.7351 -0.8446 -1.0393
23298SOL     OW71334   7.436   6.698  11.794 -0.0867  0.3290 -0.2996
23298SOL    HW171335   7.368   6.637  11.821 -1.8229  1.8773 -0.9684
23298SOL    HW271336   7.476   6.657  11.717 -0.3015 -0.5801  0.0661
23299SOL     OW71337   7.051   5.901   8.511  0.0684 -0.4334  0.0988
23299SOL    HW171338   7.118   5.888   8.444  0.4907 -0.8172  0.5857
23299SOL    HW271339   6.971   5.864   8.473  0.3045 -0.6554 -0.1855
23300SOL     OW71340   7.324   4.694  10.073 -0.0304  0.0571 -0.7269
23300SOL    HW171341   7.398   4.714  10.016  0.6992  2.9993  1.0437
23300SOL    HW271342   7.264   4.767  10.062 -1.5846 -1.0935 -0.3340
23301SOL     OW71343   5.765   6.681   9.090 -0.5146 -0.1080  0.9904
23301SOL    HW171344   5.856   6.653   9.080 -0.7355 -1.2390  1.9629
23301SOL    HW271345   5.762   6.728   9.173 -0.6075  0.9121  0.4261
23302SOL     OW71346   6.686   7.496   8.502  0.0792 -0.5212  0.9587
23302SOL    HW171347   6.632   7.566   8.539  0.5168  1.0183 -1.1684
23302SOL    HW271348   6.775   7.531   8.504  0.4969 -1.5578  1.0390
23303SOL     OW71349   7.984   7.134  10.354  0.0682 -0.7352 -0.5308
23303SOL    HW171350   8.058   7.079  10.329 -0.1903  0.0088 -3.3472
23303SOL    HW271351   8.023   7.218  10.380  0.2813 -0.9868 -0.0279
23304SOL     OW71352   6.997   6.846  11.766  0.5997  0.1149  0.0990
23304SOL    HW171353   7.030   6.924  11.810  1.2247 -0.5520  0.8658
23304SOL    HW271354   7.029   6.854  11.676 -0.1055  1.1642 -0.0718
23305SOL     OW71355   6.392   5.137  10.106  0.1152  0.4852  0.7486
23305SOL    HW171356   6.301   5.140  10.074  0.7149 -0.3609 -1.1493
23305SOL    HW271357   6.397   5.055  10.155  0.2375 -0.2607 -0.4728
23306SOL     OW71358   7.295   4.677  10.470 -0.0170  0.4372  0.0925
23306SOL    HW171359   7.387   4.654  10.481  0.6652  2.7815 -0.2677
23306SOL    HW271360   7.295   4.771  10.455 -2.2635  0.1426 -2.4504
23307SOL     OW71361   4.372   6.895   0.231  0.3187 -0.0530  0.4342
23307SOL    HW171362   4.373   6.989   0.214  0.9928  0.0287  0.8967
23307SOL    HW271363   4.288   6.865   0.196  1.3876  0.1690 -2.6097
23308SOL     OW71364   7.214   6.058   7.985 -0.5139  0.5515  0.1982
23308SOL    HW171365   7.172   6.029   7.904 -1.7306  0.7539  0.7377
23308SOL    HW271366   7.153   6.122   8.021  0.0803  0.5562  1.2058
23309SOL     OW71367   5.103   5.944  11.947  0.1924 -0.3728 -0.0139
23309SOL    HW171368   5.042   5.870  11.952  0.7493 -0.7857  0.9056
23309SOL    HW271369   5.048   6.020  11.963 -0.1140 -0.7383  0.7542
23310SOL     OW71370   7.066   0.153   8.324 -0.3307  0.1358  0.3196
23310SOL    HW171371   7.052   0.079   8.383  1.0036 -0.4823 -0.0897
23310SOL    HW271372   7.080   0.113   8.238 -1.6084  0.9871 -0.3320
23311SOL     OW71373   6.721   6.672  11.408  0.3823 -0.4429 -0.1282
23311SOL    HW171374   6.816   6.666  11.406  0.5441  1.4141 -1.7552
23311SOL    HW271375   6.702   6.762  11.381 -1.8115 -0.1865  1.9340
23312SOL     OW71376   5.978   4.895   9.106 -0.2072  0.1019  0.2516
23312SOL    HW171377   5.958   4.810   9.066  0.4246  0.7309 -1.4560
23312SOL    HW271378   6.070   4.910   9.085 -0.3773  1.3279  0.3427
23313SOL     OW71379   5.710   0.558  10.675  0.2366  0.5152  0.9053
23313SOL    HW171380   5.655   0.596  10.607  0.0515 -1.2050  0.0409
23313SOL    HW271381   5.799   0.586  10.653  0.0237  1.0706  0.7405
23314SOL     OW71382   6.155   0.726   9.936  0.2550  0.2831 -0.6141
23314SOL    HW171383   6.095   0.748  10.007  0.7570  3.0581 -0.9374
23314SOL    HW271384   6.110   0.755   9.857  1.7104  1.9050 -0.9048
23315SOL     OW71385   6.625   6.954  10.376  0.4839  0.5953  0.0836
23315SOL    HW171386   6.677   6.890  10.326 -0.2818  0.0370 -0.0086
23315SOL    HW271387   6.620   7.030  10.318  1.6644  0.8703  0.3188
23316SOL     OW71388   7.285   6.604  12.123 -0.4953  0.0587  0.3323
23316SOL    HW171389   7.240   6.586  12.041 -1.2679  0.5373  0.6425
23316SOL    HW271390   7.232   6.672  12.166  1.2846  1.7482  0.0323
23317SOL     OW71391   5.175   5.107   8.619  0.1313 -0.2535  0.3584
23317SOL    HW171392   5.211   5.035   8.568  1.4894 -0.4342  1.4965
23317SOL    HW271393   5.081   5.105   8.602  0.2393 -1.8492 -0.1735
23318SOL     OW71394   5.676   4.705  12.055  0.5859  0.0894 -0.3890
23318SOL    HW171395   5.668   4.648  11.978  0.3962 -0.1595 -0.1846
23318SOL    HW271396   5.652   4.792  12.023 -0.0845 -0.1217 -0.4692
23319SOL     OW71397   7.375   6.966  10.708  0.4021 -0.6008  0.2242
23319SOL    HW171398   7.388   6.998  10.797  1.1770  0.3567 -0.2191
23319SOL    HW271399   7.344   6.875  10.719 -0.0163 -0.3233  1.4584
23320SOL     OW71400   7.523   5.426  10.132  0.2737 -0.1046  0.2858
23320SOL    HW171401   7.491   5.341  10.104  0.4010 -0.4858  1.2420
23320SOL    HW271402   7.616   5.412  10.151  0.3983  0.3531  0.0301
23321SOL     OW71403   7.128   0.882   8.364  0.6367 -0.2525  0.0296
23321SOL    HW171404   7.095   0.888   8.454  0.4266 -1.9158  0.0914
23321SOL    HW271405   7.078   0.948   8.316  0.1163  0.0418  0.9495
23322SOL     OW71406   5.876   5.326   9.334 -0.1301 -0.0333 -0.0956
23322SOL    HW171407   5.862   5.361   9.246 -0.6153 -0.3006 -0.1267
23322SOL    HW271408   5.966   5.293   9.332  0.4709  1.5180  0.0433
23323SOL     OW71409   4.364   5.722  10.154 -0.0802  0.6918  0.1681
23323SOL    HW171410   4.333   5.811  10.137 -0.7507  0.4288 -0.0139
23323SOL    HW271411   4.448   5.734  10.199  1.2215  1.4098 -2.2745
23324SOL     OW71412   7.447   7.293  10.724  0.0425  0.4442  0.0451
23324SOL    HW171413   7.516   7.266  10.663 -0.1088  0.3538 -0.0868
23324SOL    HW271414   7.397   7.213  10.741 -0.9002  0.7920 -0.9792
23325SOL     OW71415   6.463   4.582   9.345 -0.5587  0.3627 -0.3220
23325SOL    HW171416   6.505   4.510   9.392  0.6388  1.8255  0.9497
23325SOL    HW271417   6.413   4.628   9.412  3.2971  4.0852  0.4088
23326SOL     OW71418   7.139   6.151   9.605 -0.5318 -0.4002 -0.4833
23326SOL    HW171419   7.149   6.203   9.685 -2.3566  1.0016 -1.0995
23326SOL    HW271420   7.163   6.062   9.631  1.0542  0.4119  1.0324
23327SOL     OW71421   6.446   6.275  11.723  0.4647  0.0735  0.3839
23327SOL    HW171422   6.470   6.245  11.811 -0.3169  0.5486  0.7630
23327SOL    HW271423   6.467   6.201  11.666 -1.0098 -1.0727  1.2552
23328SOL     OW71424   0.255   6.302  10.026 -0.1269 -0.6327 -0.6019
23328SOL    HW171425   0.242   6.229  10.086 -2.7634  0.5121  0.3734
23328SOL    HW271426   0.189   6.290   9.958 -0.3675  0.6235 -0.6202
23329SOL     OW71427   6.031   5.109  10.979 -1.1291 -0.0513  0.0682
23329SOL    HW171428   5.984   5.026  10.988  1.2698 -1.4603  0.5039
23329SOL    HW271429   6.017   5.135  10.888 -2.6205 -0.4582  0.1614
23330SOL     OW71430   6.752   0.273   7.588 -0.0995 -1.1796 -0.4103
23330SOL    HW171431   6.705   0.332   7.529  2.0753 -0.0609 -1.1591
23330SOL    HW271432   6.804   0.332   7.644  0.1708 -2.3254  0.5915
23331SOL     OW71433   7.105   5.614  10.363 -0.3814 -0.1439 -0.2768
23331SOL    HW171434   7.122   5.673  10.289  0.4958 -0.8664 -0.6820
23331SOL    HW271435   7.043   5.662  10.418  0.3136  1.1636 -0.5746
23332SOL     OW71436   5.830   5.892  11.976 -0.1941 -0.1101  0.1442
23332SOL    HW171437   5.789   5.921  11.895  3.1314 -0.0693 -1.7175
23332SOL    HW271438   5.782   5.813  12.001 -0.4667 -0.9589 -2.6913
23333SOL     OW71439   0.239   7.139  11.555  0.5982 -0.1338  0.1308
23333SOL    HW171440   0.153   7.162  11.589  1.6475  0.9018  2.2851
23333SOL    HW271441   0.264   7.214  11.500  0.6592  0.1965  0.5991
23334SOL     OW71442   5.917   4.075  10.263 -0.0346  0.2747  0.0764
23334SOL    HW171443   5.839   4.120  10.230  0.5262 -0.3878 -2.4325
23334SOL    HW271444   5.953   4.031  10.186  1.1688 -1.9022  1.7696
23335SOL     OW71445   4.730   4.818   9.013  0.0818 -0.2352 -0.3771
23335SOL    HW171446   4.747   4.813   8.919  0.5843 -1.6231 -0.2329
23335SOL    HW271447   4.645   4.774   9.024  0.4188 -0.8145 -0.0829
23336SOL     OW71448   7.847   6.002   0.227 -0.0476 -0.3562  0.0399
23336SOL    HW171449   7.758   5.967   0.224 -0.2920  0.2278  0.2470
23336SOL    HW271450   7.844   6.079   0.171 -0.0078  0.3856  1.0326
23337SOL     OW71451   7.094   6.879   0.453  0.5123  0.1605 -0.4654
23337SOL    HW171452   7.156   6.824   0.405  0.6141  1.2145 -1.5756
23337SOL    HW271453   7.108   6.967   0.419 -1.9591  0.3556 -1.1871
23338SOL     OW71454   0.709   6.254  11.454  1.0230 -0.2515  0.0332
23338SOL    HW171455   0.749   6.319  11.397 -1.4197 -0.5421 -2.2024
23338SOL    HW271456   0.718   6.171  11.406 -0.3328 -0.6659  0.4332
23339SOL     OW71457   6.074   6.745   9.522  0.3054 -0.4533  0.2778
23339SOL    HW171458   6.146   6.748   9.459 -1.3483 -2.7904 -1.9243
23339SOL    HW271459   6.043   6.836   9.527  0.5539 -0.1608 -2.2646
23340SOL     OW71460   7.292   6.345   8.667  0.1572 -0.7277 -0.1680
23340SOL    HW171461   7.260   6.425   8.626 -0.5911 -0.9624 -0.0614
23340SOL    HW271462   7.387   6.349   8.657  0.1481  0.2775  0.0290
23341SOL     OW71463   6.700   7.108   9.908  0.0861 -0.4893  0.0684
23341SOL    HW171464   6.672   7.111   9.816 -0.1802  0.2215  0.1651
23341SOL    HW271465   6.706   7.200   9.934 -3.1354 -0.6089  1.7659
23342SOL     OW71466   5.707   6.417   9.605 -0.0854 -0.5510  0.2477
23342SOL    HW171467   5.740   6.435   9.517  0.9531 -1.2051  0.4780
23342SOL    HW271468   5.785   6.423   9.661 -1.0550  1.9383  1.4670
23343SOL     OW71469   1.086   7.369  10.128  0.1313  0.2001  0.4556
23343SOL    HW171470   1.139   7.289  10.125 -1.7557 -1.1352  0.4161
23343SOL    HW271471   1.059   7.376  10.219  0.9785  1.3195  0.6411
23344SOL     OW71472   6.485   1.212  11.047 -0.1114  0.0733 -0.8672
23344SOL    HW171473   6.551   1.215  11.115  0.8576 -2.1504 -1.6146
23344SOL    HW271474   6.456   1.121  11.046 -1.8046  0.5767 -1.8557
23345SOL     OW71475   6.383   7.662  11.189 -0.5844  0.4341  0.5687
23345SOL    HW171476   6.431   7.722  11.133  0.9426 -0.9364  0.3368
23345SOL    HW271477   6.378   7.580  11.139  0.8287 -0.8352  2.3656
23346SOL     OW71478   5.855   6.003  11.587 -0.7375  0.4953 -0.5978
23346SOL    HW171479   5.830   5.917  11.552 -1.0452 -0.1561  1.1438
23346SOL    HW271480   5.787   6.024  11.651  1.0347  0.4951  1.4049
23347SOL     OW71481   6.519   4.754   9.711  0.6653  0.2356  0.0147
23347SOL    HW171482   6.519   4.803   9.793 -0.0622  0.4946 -0.1301
23347SOL    HW271483   6.537   4.664   9.737  0.6551  0.3502  0.4330
23348SOL     OW71484   6.235   6.451  11.303 -0.9202  0.3300  0.6554
23348SOL    HW171485   6.208   6.384  11.366 -1.2774  1.0422  1.2734
23348SOL    HW271486   6.330   6.444  11.299 -1.0154 -0.9215 -0.1019
23349SOL     OW71487   6.145   5.067  12.418  0.3633  0.2249  0.2769
23349SOL    HW171488   6.183   4.986  12.385  1.0303  0.0965  1.3193
23349SOL    HW271489   6.060   5.073  12.375  1.4747  0.4671 -2.0633
23350SOL     OW71490   6.774   6.447   9.509 -0.5041 -0.3607 -0.2250
23350SOL    HW171491   6.830   6.521   9.534  0.2780 -1.1085  0.3043
23350SOL    HW271492   6.703   6.448   9.573  0.7624 -1.4488  1.2664
23351SOL     OW71493   5.633   6.374  10.863  0.0936  0.4193  0.0363
23351SOL    HW171494   5.592   6.340  10.783  0.7361  1.0999 -0.6015
23351SOL    HW271495   5.570   6.436  10.898 -0.8921 -1.0350  0.9642
23352SOL     OW71496   0.329   7.004  11.322  0.2285 -0.2812 -0.1010
23352SOL    HW171497   0.282   7.033  11.401 -0.3793 -1.2618 -0.0825
23352SOL    HW271498   0.277   6.931  11.290  0.2065  0.3981 -1.6915
23353SOL     OW71499   6.130   7.399  11.251 -0.6698 -0.2621 -0.3581
23353SOL    HW171500   6.042   7.399  11.213 -0.1423 -1.5183 -1.6636
23353SOL    HW271501   6.188   7.420  11.177  0.0854  1.8583  0.7235
23354SOL     OW71502   6.289   7.476  10.624  0.6702 -0.3852 -0.8488
23354SOL    HW171503   6.255   7.530  10.553 -2.2366  0.6632  1.1372
23354SOL    HW271504   6.238   7.395  10.620 -0.7069  0.3213  0.8762
23355SOL     OW71505   7.143   5.702   8.705 -0.1375  0.1164 -0.1846
23355SOL    HW171506   7.074   5.637   8.714 -0.3688  0.5079  1.1391
23355SOL    HW271507   7.107   5.767   8.644 -1.2793  0.7114  1.0722
23356SOL     OW71508   7.503   6.561  11.461 -0.0335  0.3746  1.0679
23356SOL    HW171509   7.585   6.512  11.457 -0.2885 -0.0246  0.5864
23356SOL    HW271510   7.450   6.515  11.525 -0.7472 -0.7478 -0.2730
23357SOL     OW71511   6.751   6.831  12.035 -0.1531 -0.0220  0.0936
23357SOL    HW171512   6.820   6.882  12.078 -0.4811  1.4940 -1.0551
23357SOL    HW271513   6.687   6.815  12.104  0.0117  1.0907  0.5404
23358SOL     OW71514   6.239   5.600  10.426  0.3242 -0.4767 -0.1127
23358SOL    HW171515   6.311   5.543  10.397  0.8899  0.1861 -0.0398
23358SOL    HW271516   6.174   5.540  10.463  0.2656 -1.2108 -1.3339
23359SOL     OW71517   6.674   6.934  11.277  0.8589  0.1139  0.0023
23359SOL    HW171518   6.647   7.017  11.316  3.2594  0.9436  0.0740
23359SOL    HW271519   6.602   6.910  11.219 -0.7429  1.2251  1.4478
23360SOL     OW71520   5.754   0.484  12.187 -0.1015 -0.2751 -0.3094
23360SOL    HW171521   5.746   0.571  12.150 -2.5202  0.8530  2.4744
23360SOL    HW271522   5.798   0.498  12.271 -0.9893 -1.6422  0.4157
23361SOL     OW71523   0.164   7.467  11.312 -0.0005 -0.5075 -0.6016
23361SOL    HW171524   0.252   7.441  11.338  0.4856  1.2119 -0.4036
23361SOL    HW271525   0.114   7.386  11.312  1.4221 -1.4173 -0.0763
23362SOL     OW71526   2.182   6.176  11.116 -0.6764  0.2341 -0.1676
23362SOL    HW171527   2.165   6.168  11.210 -1.7767  0.9875 -0.2855
23362SOL    HW271528   2.275   6.197  11.110 -0.4344 -0.5276  0.7110
23363SOL     OW71529   3.454   3.163  10.495 -0.6774  0.4428  0.6291
23363SOL    HW171530   3.449   3.258  10.482 -0.8068  0.5996  1.7173
23363SOL    HW271531   3.541   3.149  10.532 -0.5117  0.0776  0.1164
23364SOL     OW71532   7.687   5.886  10.481  0.3451  0.1508 -0.2230
23364SOL    HW171533   7.609   5.834  10.500  0.9969  0.0821  2.7914
23364SOL    HW271534   7.661   5.976  10.502  1.2764  0.0019  1.7710
23365SOL     OW71535   7.120   7.282  10.850  0.1474 -0.8588  0.6518
23365SOL    HW171536   7.048   7.323  10.898  0.0729 -1.2355  0.8720
23365SOL    HW271537   7.196   7.292  10.908  0.1938 -0.7711  0.5752
23366SOL     OW71538   5.829   6.195  10.413  0.1752  0.2385  0.3428
23366SOL    HW171539   5.822   6.107  10.376  1.8135 -0.3827  1.4113
23366SOL    HW271540   5.857   6.181  10.504  0.2204  1.8554  0.6052
23367SOL     OW71541   6.564   6.173   8.626 -0.3291 -0.8839 -0.0791
23367SOL    HW171542   6.567   6.262   8.661  1.6245 -0.5273 -1.0122
23367SOL    HW271543   6.649   6.136   8.646 -1.2955 -2.7743  0.7620
23368SOL     OW71544   5.404   7.516   9.605  0.1377  0.8829  0.5940
23368SOL    HW171545   5.425   7.431   9.644  1.9778  1.0774  0.1155
23368SOL    HW271546   5.354   7.562   9.673 -2.0506 -1.0189  0.3776
23369SOL     OW71547   0.781   5.192   9.823 -0.6670  0.3880 -0.0773
23369SOL    HW171548   0.747   5.138   9.894 -0.0004 -0.8541 -0.6845
23369SOL    HW271549   0.727   5.170   9.748 -0.1387  0.2658 -0.4265
23370SOL     OW71550   5.663   6.207  12.306  0.3695  0.5488 -0.7175
23370SOL    HW171551   5.592   6.144  12.299 -0.0235  0.9424 -0.3226
23370SOL    HW271552   5.739   6.155  12.334 -0.0327  0.3052 -0.0557
23371SOL     OW71553   6.588   5.883  10.871  0.1187  0.3227  0.4301
23371SOL    HW171554   6.561   5.801  10.915  0.4700  0.5807  1.1429
23371SOL    HW271555   6.508   5.936  10.871 -0.0543  0.0674  0.1665
23372SOL     OW71556   0.413   6.338  11.184 -0.3715 -0.4931 -0.0055
23372SOL    HW171557   0.332   6.320  11.138 -1.0334 -1.7680  1.5364
23372SOL    HW271558   0.388   6.341  11.277  1.1439  0.2821  0.4185
23373SOL     OW71559   7.426   0.975  11.457 -0.0024 -0.3388 -0.1624
23373SOL    HW171560   7.334   0.962  11.478 -0.6750  0.2944 -2.3635
23373SOL    HW271561   7.448   0.902  11.399  0.5788  0.0581 -0.4565
23374SOL     OW71562   0.476   7.772  10.843  0.2356  0.0927 -0.7120
23374SOL    HW171563   0.415   7.705  10.873 -0.0247  0.4576 -0.4120
23374SOL    HW271564   0.488   7.754  10.750 -1.7134  1.0631 -1.2088
23375SOL     OW71565   7.158   7.292   9.391 -0.1380 -0.4379 -0.2154
23375SOL    HW171566   7.128   7.205   9.362  1.0909 -0.3486 -1.8917
23375SOL    HW271567   7.078   7.337   9.417 -0.9972 -1.4888 -0.9447
23376SOL     OW71568   4.099   7.241  12.325  0.1918 -0.1994 -0.2776
23376SOL    HW171569   4.125   7.152  12.302 -1.0548 -0.4337 -0.8774
23376SOL    HW271570   4.051   7.272  12.248 -2.4237 -0.2947  1.2115
23377SOL     OW71571   6.647   6.994   8.599  0.6353 -0.0791  0.1509
23377SOL    HW171572   6.674   7.081   8.569  2.0185 -0.0967  1.2574
23377SOL    HW271573   6.565   7.010   8.646  1.8413  0.9699  2.0011
23378SOL     OW71574   3.651   5.897   8.430  0.0754 -0.1416  0.1000
23378SOL    HW171575   3.567   5.864   8.397 -0.6333  2.2278 -0.6968
23378SOL    HW271576   3.696   5.820   8.463 -1.7491 -1.7333 -0.9293
23379SOL     OW71577   7.089   6.583  10.662 -0.6705  0.5224 -0.0090
23379SOL    HW171578   7.014   6.566  10.605 -0.3617 -1.4992  0.1355
23379SOL    HW271579   7.111   6.675  10.646 -0.2012 -0.0931 -3.6349
23380SOL     OW71580   7.360   6.086  11.627  0.0436 -0.2503 -0.1242
23380SOL    HW171581   7.410   6.023  11.678 -0.5656 -0.2228  0.5379
23380SOL    HW271582   7.276   6.043  11.611 -0.3097  0.3008  0.1739
23381SOL     OW71583   6.874   5.855  10.858  0.6495  0.1095 -0.2541
23381SOL    HW171584   6.800   5.881  10.803  1.9696 -0.8371 -2.6012
23381SOL    HW271585   6.854   5.766  10.885  1.0355 -0.2566 -1.1398
23382SOL     OW71586   0.022   6.455   9.449  0.5497 -0.5536 -0.1951
23382SOL    HW171587   0.032   6.368   9.488  0.5303 -0.5350 -0.1488
23382SOL    HW271588   0.095   6.506   9.483  1.3663 -0.9414 -1.2845
23383SOL     OW71589   4.424   6.179  10.971  0.0417  0.3791 -0.0401
23383SOL    HW171590   4.333   6.170  11.001 -0.0997  0.5989 -0.3987
23383SOL    HW271591   4.476   6.146  11.044 -0.3520 -0.4862 -0.1427
23384SOL     OW71592   4.364   4.636   9.010  0.2238  0.4245  0.7105
23384SOL    HW171593   4.309   4.711   9.032  1.4426  1.3049  0.8701
23384SOL    HW271594   4.396   4.655   8.921  0.2260 -0.1002  0.5962
23385SOL     OW71595   7.102   0.816   8.662 -0.3868  0.1029 -0.1359
23385SOL    HW171596   7.007   0.825   8.654 -0.2870  1.7254  0.2101
23385SOL    HW271597   7.115   0.783   8.751 -0.6787 -1.9979 -0.8086
23386SOL     OW71598   6.457   5.645  11.027  0.1747 -0.7084  0.2026
23386SOL    HW171599   6.464   5.601  11.112 -1.9050 -1.6440 -0.0432
23386SOL    HW271600   6.423   5.577  10.968 -1.1241  0.6597 -0.6935
23387SOL     OW71601   5.048   7.316  10.871 -0.0804  0.0697 -0.0177
23387SOL    HW171602   5.042   7.348  10.781  1.8682  0.5374 -0.0143
23387SOL    HW271603   5.109   7.376  10.914 -2.6972  1.3030  2.3156
23388SOL     OW71604   5.315   6.252  11.703 -0.1013 -0.0358 -0.3657
23388SOL    HW171605   5.289   6.208  11.622 -0.4016  0.0305 -0.3074
23388SOL    HW271606   5.389   6.307  11.677  0.7759 -1.1450 -0.2839
23389SOL     OW71607   4.660   6.742  12.159 -0.2849 -0.4673  0.7021
23389SOL    HW171608   4.655   6.660  12.208 -2.2889 -0.5000  0.5562
23389SOL    HW271609   4.641   6.716  12.068 -2.0421  0.2438  0.8256
23390SOL     OW71610   6.449   6.481   1.280  0.0580  0.5166  0.2855
23390SOL    HW171611   6.488   6.525   1.356 -2.8994  2.9403  0.6227
23390SOL    HW271612   6.367   6.444   1.313  0.3751 -1.4945 -1.0339
23391SOL     OW71613   6.799   4.776  11.368 -0.2646 -0.1598 -0.4842
23391SOL    HW171614   6.781   4.711  11.300  1.0185 -0.1374 -0.8629
23391SOL    HW271615   6.894   4.786  11.368 -0.3273  0.6374  0.5832
23392SOL     OW71616   6.338   5.504  11.463  0.4522  0.3638 -0.4637
23392SOL    HW171617   6.278   5.471  11.396  0.8047  0.6460 -0.9224
23392SOL    HW271618   6.282   5.555  11.523  0.1332  0.0901 -0.5268
23393SOL     OW71619   5.894   4.435   0.138 -0.3631 -0.0324  0.4268
23393SOL    HW171620   5.891   4.457   0.045  0.7403 -0.7868  0.1964
23393SOL    HW271621   5.969   4.484   0.172  0.0563 -0.7979  0.6234
23394SOL     OW71622   6.867   6.474  10.869 -0.0009  0.1548  0.8059
23394SOL    HW171623   6.781   6.514  10.855  0.5411  1.2977  0.5394
23394SOL    HW271624   6.914   6.490  10.787  0.3247 -0.8338  0.7948
23395SOL     OW71625   6.239   5.761  10.206  0.0761 -0.3394 -0.1538
23395SOL    HW171626   6.226   5.691  10.270  0.0053 -0.5156 -0.3601
23395SOL    HW271627   6.302   5.724  10.144  1.3689  0.3891  0.6702
23396SOL     OW71628   4.775   4.932   9.342 -0.3589  0.5601  0.3004
23396SOL    HW171629   4.802   4.901   9.256 -0.4248  0.0100  0.4783
23396SOL    HW271630   4.831   4.885   9.404  0.9318  2.2372  0.4871
23397SOL     OW71631   4.734   1.926  11.843  0.2634  0.4030 -0.2426
23397SOL    HW171632   4.692   2.011  11.828 -0.3599  0.5693  2.1553
23397SOL    HW271633   4.746   1.921  11.937 -1.0049 -2.7692 -0.1171
23398SOL     OW71634   7.091   7.599  11.746 -0.5400 -0.7655  0.0873
23398SOL    HW171635   7.040   7.539  11.801  0.6167 -1.7997  0.0806
23398SOL    HW271636   7.162   7.629  11.803  0.4361 -1.5291 -0.6813
23399SOL     OW71637   7.864   7.535   9.389  0.1653  0.5344  0.1413
23399SOL    HW171638   7.839   7.609   9.444  0.0480  0.0538  0.7477
23399SOL    HW271639   7.925   7.572   9.324 -0.6422  1.3419 -0.1730
23400SOL     OW71640   0.621   6.495   9.094  0.0403  0.3513  0.0320
23400SOL    HW171641   0.573   6.574   9.121 -0.3449  0.0713  0.1627
23400SOL    HW271642   0.582   6.425   9.145  1.4564  0.3140  1.1237
23401SOL     OW71643   5.283   6.364  11.406  0.0662  0.0842 -0.1186
23401SOL    HW171644   5.361   6.312  11.423  0.2763  0.1476 -0.8789
23401SOL    HW271645   5.314   6.439  11.355 -0.2531  0.8990  0.8311
23402SOL     OW71646   6.136   5.580  11.051  0.4693 -0.3011 -0.5837
23402SOL    HW171647   6.164   5.528  10.976 -2.3995 -1.9741 -0.6588
23402SOL    HW271648   6.109   5.515  11.116  0.6952  1.1320  1.0049
23403SOL     OW71649   6.301   0.401  11.606 -0.1110 -0.0225  0.0312
23403SOL    HW171650   6.259   0.486  11.620 -0.3030  0.0615 -0.9687
23403SOL    HW271651   6.230   0.346  11.572  0.1543 -0.4145  0.1155
23404SOL     OW71652   0.395   5.388   9.162 -0.8631 -0.4798 -0.0072
23404SOL    HW171653   0.331   5.389   9.091  0.3151  0.6670 -1.1273
23404SOL    HW271654   0.384   5.473   9.206  2.2370  1.4903 -2.5707
23405SOL     OW71655   7.390   7.143   9.917 -0.3737 -0.5316 -0.0256
23405SOL    HW171656   7.436   7.104   9.992 -0.3101 -0.6974 -0.1526
23405SOL    HW271657   7.300   7.112   9.925 -0.7281  0.6204  0.8189
23406SOL     OW71658   6.604   7.186  11.337 -0.1717 -0.2491 -0.5929
23406SOL    HW171659   6.521   7.234  11.326 -0.6229 -0.9820 -0.4464
23406SOL    HW271660   6.662   7.249  11.380 -0.9430 -0.0190  0.1505
23407SOL     OW71661   6.032   6.242  11.144 -0.0436  0.2930  0.0725
23407SOL    HW171662   6.038   6.254  11.238 -0.3159  1.2572 -0.0163
23407SOL    HW271663   6.013   6.149  11.132 -1.8780  0.4854  1.0655
23408SOL     OW71664   5.976   5.370  12.079  0.0910 -0.6540 -0.3486
23408SOL    HW171665   6.045   5.436  12.086  0.2437 -0.8854  0.4154
23408SOL    HW271666   6.004   5.313  12.008  0.2374 -0.2226 -0.6398
23409SOL     OW71667   5.031   7.790  10.650 -0.1937  0.5721  0.1469
23409SOL    HW171668   5.064   7.818  10.736 -0.5700  0.1704  0.4242
23409SOL    HW271669   5.030   7.871  10.598  3.2969  0.3049 -0.5920
23410SOL     OW71670   7.039   0.473   9.309  0.0146 -0.1699 -0.6198
23410SOL    HW171671   7.119   0.514   9.342 -0.7858  1.1043 -0.1520
23410SOL    HW271672   7.006   0.422   9.383  0.6194 -1.0930 -0.9662
23411SOL     OW71673   0.789   7.223  12.230 -0.1424  0.2853 -0.8135
23411SOL    HW171674   0.859   7.288  12.236 -0.1423  0.1928  3.1758
23411SOL    HW271675   0.714   7.264  12.273 -1.2305 -1.1197 -1.2876
23412SOL     OW71676   7.400   4.933  10.925 -0.3279 -0.7121 -0.7505
23412SOL    HW171677   7.463   4.964  10.861  0.1480  2.0089  0.9052
23412SOL    HW271678   7.440   4.951  11.010 -2.6286 -0.3601  0.3511
23413SOL     OW71679   7.581   1.172   8.327  0.0169 -0.1247  0.1314
23413SOL    HW171680   7.674   1.156   8.343  0.0391  0.2369  0.3974
23413SOL    HW271681   7.540   1.085   8.329  0.0830 -0.1527  1.8253
23414SOL     OW71682   7.093   5.898   0.497 -0.1797 -0.6687 -0.7479
23414SOL    HW171683   7.018   5.896   0.557  0.3566 -0.0668 -0.0336
23414SOL    HW271684   7.142   5.975   0.523  0.5901 -0.9492 -1.3326
23415SOL     OW71685   7.247   5.441   8.593 -0.1360 -0.4403 -0.4442
23415SOL    HW171686   7.337   5.424   8.621  0.6537  1.5899 -1.4889
23415SOL    HW271687   7.220   5.518   8.643 -1.3189 -1.0365 -0.1318
23416SOL     OW71688   7.752   0.074   9.406  0.2478 -0.3205  0.2312
23416SOL    HW171689   7.775   0.133   9.478 -1.6936  1.4612 -0.5097
23416SOL    HW271690   7.819   0.092   9.339  1.7150 -1.5623  1.2994
23417SOL     OW71691   7.240   6.400  10.778  0.5906 -0.4112  0.6947
23417SOL    HW171692   7.178   6.328  10.769  1.9770 -1.5895 -0.0160
23417SOL    HW271693   7.197   6.474  10.736 -1.5183 -0.3444  2.8217
23418SOL     OW71694   0.532   6.331  10.025  0.7254 -0.0943  0.1699
23418SOL    HW171695   0.438   6.344  10.022  0.8324  0.6128 -0.4039
23418SOL    HW271696   0.564   6.398  10.085  1.1083  1.3786 -1.5725
23419SOL     OW71697   6.757   5.944   9.619  0.6624  0.2051  0.5638
23419SOL    HW171698   6.802   5.969   9.539 -2.2002 -0.4491 -1.4074
23419SOL    HW271699   6.793   6.002   9.686  0.3322  3.6899 -2.0201
23420SOL     OW71700   7.428   6.083  11.005 -0.0965  0.3042  0.5275
23420SOL    HW171701   7.408   6.159  11.060  0.0727 -1.7183  3.6450
23420SOL    HW271702   7.357   6.021  11.023  0.4925 -0.8157 -0.8452
23421SOL     OW71703   6.835   5.334  10.922  0.1108 -0.8721 -0.0704
23421SOL    HW171704   6.914   5.336  10.975 -0.1286  0.1264  0.2513
23421SOL    HW271705   6.764   5.316  10.984  0.0777 -1.8690 -0.3707
23422SOL     OW71706   1.134   6.605  11.220 -0.5886  0.6172  0.4192
23422SOL    HW171707   1.192   6.672  11.185  1.9273 -1.4500  0.2872
23422SOL    HW271708   1.046   6.634  11.197  0.1822  4.6121  1.7528
23423SOL     OW71709   0.137   7.348  10.459  0.3574  0.0205  0.4542
23423SOL    HW171710   0.230   7.365  10.473  0.9108 -0.1626 -2.3182
23423SOL    HW271711   0.123   7.367  10.366 -2.5010  0.5031  0.8793
23424SOL     OW71712   3.901   0.384  11.631  0.0039 -0.2752  0.0992
23424SOL    HW171713   3.941   0.452  11.576  1.3789  0.5634  2.0213
23424SOL    HW271714   3.816   0.368  11.591  0.4693  1.1151 -1.5834
23425SOL     OW71715   6.197   5.463   9.589  0.4452  0.7119  0.0648
23425SOL    HW171716   6.137   5.390   9.573  0.9258  0.5158 -0.8843
23425SOL    HW271717   6.207   5.464   9.685  0.4928 -0.5108  0.0951
23426SOL     OW71718   7.750   4.251  10.665  0.0130  0.1867  0.0353
23426SOL    HW171719   7.778   4.225  10.753 -2.3764 -2.4990  0.1557
23426SOL    HW271720   7.829   4.244  10.612  1.4864  1.7331  1.8802
23427SOL     OW71721   6.815   7.092  11.880  0.3118 -0.0058  0.5593
23427SOL    HW171722   6.782   7.026  11.942 -1.9330  0.4840 -0.0263
23427SOL    HW271723   6.752   7.091  11.808  2.3858  0.0339 -1.3910
23428SOL     OW71724   4.924   3.439  10.669 -0.5966 -0.1975 -0.5422
23428SOL    HW171725   4.917   3.530  10.698 -1.3811 -0.0779 -1.0851
23428SOL    HW271726   5.002   3.437  10.614 -1.8670  0.6960 -2.4604
23429SOL     OW71727   6.608   0.007   9.528 -0.2525 -0.1377 -0.1230
23429SOL    HW171728   6.663   0.042   9.457 -1.2636  0.5400 -0.5970
23429SOL    HW271729   6.633   0.057   9.605  1.0625 -1.0752  0.1033
23430SOL     OW71730   4.519   5.566   0.363 -0.2735 -0.3737 -0.0988
23430SOL    HW171731   4.560   5.518   0.435 -1.2498 -0.9540  0.0896
23430SOL    HW271732   4.437   5.599   0.399 -0.7071 -0.5394 -0.8929
23431SOL     OW71733   6.463   1.080  11.530  0.4523 -0.3405  0.3379
23431SOL    HW171734   6.406   1.017  11.486  2.8791 -0.1389 -3.6174
23431SOL    HW271735   6.423   1.165  11.512 -0.3573 -0.4118  1.6499
23432SOL     OW71736   7.133   6.199   0.506  0.3317  0.3954  0.5642
23432SOL    HW171737   7.113   6.202   0.413  1.3275  1.1469  0.3660
23432SOL    HW271738   7.052   6.226   0.549 -1.1766 -2.9057  0.1009
23433SOL     OW71739   1.100   0.034  11.485  0.3891  0.2355 -0.4650
23433SOL    HW171740   1.144   0.106  11.440  0.7156  1.3664  1.5352
23433SOL    HW271741   1.134  -0.045  11.443 -0.8271  1.1865 -3.5079
23434SOL     OW71742   5.081   6.498  11.226 -0.1033 -0.2373  0.1948
23434SOL    HW171743   5.135   6.451  11.289  2.3657 -1.4722 -2.5928
23434SOL    HW271744   5.097   6.590  11.245  0.2918 -0.5563  1.5294
23435SOL     OW71745   6.840   6.116   9.819 -0.0890 -0.1111  0.0935
23435SOL    HW171746   6.762   6.138   9.869 -0.4392 -1.3759  0.1453
23435SOL    HW271747   6.913   6.130   9.879 -0.4931 -1.4504  0.9362
23436SOL     OW71748   5.869   6.117   8.998  0.6104 -0.1702 -0.0227
23436SOL    HW171749   5.850   6.035   8.953  1.3317 -0.6421  0.5116
23436SOL    HW271750   5.894   6.091   9.087  3.4805  0.4042 -0.5797
23437SOL     OW71751   6.349   7.260  10.314  0.3879 -0.4049  0.0605
23437SOL    HW171752   6.319   7.335  10.263 -1.0427 -0.6868  0.4375
23437SOL    HW271753   6.421   7.223  10.262  0.0034  0.2313 -0.9675
23438SOL     OW71754   0.278   6.106  10.695 -0.0745  0.1467 -0.8064
23438SOL    HW171755   0.220   6.138  10.764 -0.4192 -0.7803 -0.6642
23438SOL    HW271756   0.366   6.116  10.733 -0.2736 -0.6266 -0.1118
23439SOL     OW71757   6.676   5.263  10.540 -0.3969 -0.7273  0.4017
23439SOL    HW171758   6.772   5.262  10.542 -0.3700  0.4328  0.6011
23439SOL    HW271759   6.650   5.282  10.630 -0.7789 -0.2034  0.1901
23440SOL     OW71760   6.556   7.676   9.138  0.0064 -0.0241 -0.0676
23440SOL    HW171761   6.539   7.695   9.230 -1.2436  0.0770 -0.3040
23440SOL    HW271762   6.493   7.607   9.116  0.7172 -0.4959 -0.6873
23441SOL     OW71763   7.629   6.129   8.827  1.2560  0.7809 -0.6092
23441SOL    HW171764   7.609   6.217   8.792  0.5450  0.7232 -0.3635
23441SOL    HW271765   7.545   6.097   8.859  0.8182 -1.2342 -3.4051
23442SOL     OW71766   0.644   6.827  11.059  0.7136  0.6231 -0.1337
23442SOL    HW171767   0.565   6.881  11.059  0.2823  0.0076 -0.6950
23442SOL    HW271768   0.612   6.738  11.071  1.5259  0.5873  2.5209
23443SOL     OW71769   6.711   5.615  10.407  0.0698  0.7866 -0.0225
23443SOL    HW171770   6.743   5.580  10.324 -3.2155  1.1713 -1.6305
23443SOL    HW271771   6.633   5.665  10.384 -0.5369  1.6297  3.2381
23444SOL     OW71772   7.820   7.556  11.086 -0.0775 -0.1873 -0.1321
23444SOL    HW171773   7.796   7.473  11.045  1.7062 -1.4040  1.1436
23444SOL    HW271774   7.852   7.610  11.014 -0.5256 -0.8742 -0.8578
23445SOL     OW71775   5.055   4.979  11.315  0.0383 -0.5103 -0.1657
23445SOL    HW171776   5.142   5.018  11.305  0.0991 -0.5665  0.1456
23445SOL    HW271777   5.030   4.999  11.405 -0.3942 -0.2458 -0.3422
23446SOL     OW71778   6.131   0.618   8.653 -0.4399 -0.8636  0.4357
23446SOL    HW171779   6.135   0.710   8.627  0.9318 -0.2590  2.5412
23446SOL    HW271780   6.186   0.573   8.589 -1.3285 -0.3141 -0.7761
23447SOL     OW71781   6.190   6.911  11.664 -0.1623  0.4601 -0.4786
23447SOL    HW171782   6.126   6.845  11.636 -0.3493  0.0688  0.7905
23447SOL    HW271783   6.136   6.983  11.698 -0.0163 -0.6211  2.3148
23448SOL     OW71784   6.946   6.238  10.973  0.9133 -0.0112  0.0988
23448SOL    HW171785   7.022   6.264  11.025  1.5901  0.4448 -1.0918
23448SOL    HW271786   6.901   6.321  10.954  2.5941  0.3172 -2.9641
23449SOL     OW71787   4.732   6.269  10.653  0.1481  0.2444 -0.3731
23449SOL    HW171788   4.754   6.346  10.705 -1.3826  1.7145 -1.7996
23449SOL    HW271789   4.672   6.301  10.586 -0.0367 -2.0810 -1.4205
23450SOL     OW71790   7.420   6.313   9.635  0.1265 -0.3495 -0.0505
23450SOL    HW171791   7.515   6.308   9.627 -0.0285 -1.6841 -1.4578
23450SOL    HW271792   7.392   6.222   9.649 -0.8999  0.1128  1.0514
23451SOL     OW71793   5.950   4.261  12.129 -0.3503 -0.2120  0.4229
23451SOL    HW171794   6.029   4.240  12.081 -1.0289 -2.0750  0.0424
23451SOL    HW271795   5.918   4.342  12.088 -0.9257 -1.7321 -2.3722
23452SOL     OW71796   5.288   6.013   8.231  0.0802  0.3225  0.1971
23452SOL    HW171797   5.333   6.057   8.303  0.8351  0.8828 -0.5953
23452SOL    HW271798   5.268   6.083   8.169  1.0168 -0.3837 -0.9417
23453SOL     OW71799   6.592   7.682  10.845  0.0775 -0.4221  0.3876
23453SOL    HW171800   6.620   7.601  10.888  0.9733 -0.9207 -1.0760
23453SOL    HW271801   6.550   7.732  10.915  0.4955 -1.6604  1.5821
23454SOL     OW71802   6.260   6.045   9.348 -0.0558  0.1732 -0.2704
23454SOL    HW171803   6.253   6.131   9.388 -0.1319 -0.1487  0.4268
23454SOL    HW271804   6.354   6.024   9.350 -0.0333  0.2470 -0.4677
23455SOL     OW71805   7.709   6.933   9.906  0.0872 -0.4946  0.3523
23455SOL    HW171806   7.636   6.953   9.965 -0.0907 -2.1912  0.7603
23455SOL    HW271807   7.784   6.924   9.964  0.0001 -1.7398  0.2974
23456SOL     OW71808   6.777   7.405  11.454 -0.5042 -0.5951 -0.0418
23456SOL    HW171809   6.865   7.410  11.493 -0.9364 -0.2801  0.9188
23456SOL    HW271810   6.770   7.485  11.401  0.4612 -1.5028 -1.6489
23457SOL     OW71811   5.852   6.431   8.047  0.0928 -0.0796  0.0575
23457SOL    HW171812   5.758   6.437   8.061  0.0838  0.7983 -0.2810
23457SOL    HW271813   5.884   6.520   8.064  0.8694 -0.3790  0.2262
23458SOL     OW71814   7.731   6.865  12.013 -0.2241  0.6821  0.0739
23458SOL    HW171815   7.781   6.794  12.053  2.0352  0.9449 -2.0515
23458SOL    HW271816   7.675   6.822  11.949  0.8690  0.7278 -0.9456
23459SOL     OW71817   7.182   5.754  10.107 -0.3930 -0.5628  0.1382
23459SOL    HW171818   7.106   5.722  10.059  0.1710 -0.2905 -0.9530
23459SOL    HW271819   7.256   5.738  10.049 -0.0499  2.7098 -0.5555
23460SOL     OW71820   6.125   7.253   9.167 -0.0296  0.0480  0.3612
23460SOL    HW171821   6.091   7.171   9.133 -1.0889 -0.0815  1.6521
23460SOL    HW271822   6.219   7.237   9.180 -0.4176 -1.3565  1.6813
23461SOL     OW71823   6.930   7.431   9.822  0.1265  0.5020  0.3020
23461SOL    HW171824   6.953   7.487   9.747 -1.1473 -0.6192 -0.9718
23461SOL    HW271825   6.878   7.361   9.785 -0.8634  0.0976  2.3242
23462SOL     OW71826   5.420   6.666   9.924  1.2689  0.0544  0.1338
23462SOL    HW171827   5.383   6.749   9.954  0.5915 -0.1321 -0.1603
23462SOL    HW271828   5.346   6.606   9.922  1.6617 -0.4333 -0.1177
23463SOL     OW71829   4.194   3.943  11.608 -0.4120  0.6979 -0.1362
23463SOL    HW171830   4.260   3.877  11.626  0.5349  1.4654 -0.6899
23463SOL    HW271831   4.175   3.934  11.514 -0.9494  0.6171 -0.0240
23464SOL     OW71832   4.704   6.015   0.509  0.4989  0.5067 -0.2286
23464SOL    HW171833   4.748   6.025   0.425 -0.1300  1.3814 -0.4728
23464SOL    HW271834   4.691   6.105   0.540  1.6956  0.1841  1.3312
23465SOL     OW71835   6.320   5.575   0.780  1.3451 -0.2304 -0.2186
23465SOL    HW171836   6.256   5.537   0.719  1.3186 -0.4535 -0.0546
23465SOL    HW271837   6.294   5.540   0.866  0.1116  1.7062  0.2473
23466SOL     OW71838   7.978   1.512   0.650 -0.7829  0.0090  0.8498
23466SOL    HW171839   8.000   1.553   0.567 -0.0362 -3.3803 -0.8099
23466SOL    HW271840   7.882   1.515   0.654 -0.9358 -1.2426 -1.0139
23467SOL     OW71841   6.777   6.418  11.520 -0.1657 -0.2125 -0.0174
23467SOL    HW171842   6.748   6.494  11.469  0.2814  1.2641  1.8370
23467SOL    HW271843   6.696   6.377  11.550 -0.3962  0.4456  0.2690
23468SOL     OW71844   6.148   5.606  12.081 -0.0173  0.2944  0.0905
23468SOL    HW171845   6.235   5.567  12.076  1.4422  3.2751 -0.3612
23468SOL    HW271846   6.159   5.685  12.134 -2.1121  1.4965 -1.0776
23469SOL     OW71847   6.765   6.129   1.425 -0.2041  0.1538  0.5318
23469SOL    HW171848   6.750   6.054   1.482 -0.6203  1.7539  2.6190
23469SOL    HW271849   6.678   6.162   1.404 -0.0761 -0.4771 -1.2525
23470SOL     OW71850   7.541   6.048   0.377  0.1790 -0.3051  0.0096
23470SOL    HW171851   7.502   6.126   0.418 -0.7925 -0.4822 -0.5522
23470SOL    HW271852   7.478   6.022   0.310  1.3502 -0.5264 -1.0312
23471SOL     OW71853   3.933   5.196  10.738 -0.0961 -0.5640  0.7816
23471SOL    HW171854   4.006   5.148  10.777  0.9235  0.8642  0.7189
23471SOL    HW271855   3.863   5.132  10.730  1.1327 -1.9682  0.9093
23472SOL     OW71856   7.687   4.436   0.568  0.5720 -0.0175  0.1666
23472SOL    HW171857   7.759   4.374   0.563 -0.0263 -0.6434 -2.2595
23472SOL    HW271858   7.664   4.453   0.476 -2.1588  0.3680  0.8285
23473SOL     OW71859   6.992   6.609   0.235 -0.3919 -0.4994 -0.7183
23473SOL    HW171860   6.936   6.560   0.176 -1.6337  1.3052 -1.1349
23473SOL    HW271861   6.938   6.625   0.312 -0.5988  1.4410 -1.2008
23474SOL     OW71862   6.894   0.218  11.569 -0.4212  0.1188  0.0285
23474SOL    HW171863   6.959   0.149  11.556 -0.2740  0.2421  0.1066
23474SOL    HW271864   6.880   0.254  11.481 -1.8750 -1.2262 -0.3510
23475SOL     OW71865   5.373   6.469   1.317  0.3468  0.0345  0.4069
23475SOL    HW171866   5.464   6.484   1.291  0.7561 -2.2656  0.2539
23475SOL    HW271867   5.321   6.513   1.249  1.3476  0.4243 -0.1321
23476SOL     OW71868   5.840   5.576  11.668 -0.2771 -0.0157  0.5829
23476SOL    HW171869   5.889   5.612  11.742 -0.6349  0.1731  0.7296
23476SOL    HW271870   5.814   5.652  11.617 -1.3462 -0.0200  1.0844
23477SOL     OW71871   6.361   7.487   0.019  0.1048  0.1706 -0.1798
23477SOL    HW171872   6.299   7.538  -0.033 -0.4294 -1.1171 -0.8469
23477SOL    HW271873   6.394   7.548   0.085 -0.7419  1.2756 -0.7661
23478SOL     OW71874   7.293   6.513  10.155  0.3166 -0.0757 -0.1780
23478SOL    HW171875   7.381   6.534  10.124 -0.0116  1.7924  0.0373
23478SOL    HW271876   7.239   6.511  10.076  0.3904 -0.3861 -0.2228
23479SOL     OW71877   4.880   0.399  12.223  0.3425  0.7163  0.3726
23479SOL    HW171878   4.968   0.422  12.252  0.3293  0.7494  0.3863
23479SOL    HW271879   4.889   0.314  12.182  0.2918  0.4679  0.8621
23480SOL     OW71880   6.352   5.783  12.197  0.7545 -0.3317  0.2981
23480SOL    HW171881   6.446   5.796  12.208  0.7147 -0.1819  0.4662
23480SOL    HW271882   6.320   5.866  12.163  0.5571 -0.1114  1.0134
23481SOL     OW71883   0.025   5.948   0.445  0.4827 -0.0203  0.0653
23481SOL    HW171884   0.115   5.923   0.422  0.6891 -2.4736  2.9310
23481SOL    HW271885  -0.022   5.949   0.362  2.7374 -0.5370 -1.2899
23482SOL     OW71886   4.997   6.787   1.184 -0.1302 -0.3026  0.1003
23482SOL    HW171887   4.921   6.752   1.231  0.4682 -2.2564 -0.2800
23482SOL    HW271888   4.961   6.830   1.107 -0.8992 -0.5082  0.3414
23483SOL     OW71889   7.232   7.073  11.692 -0.2278  0.0314  0.0298
23483SOL    HW171890   7.305   7.048  11.749  0.6802  1.5085 -0.4363
23483SOL    HW271891   7.239   7.013  11.617  2.6815  2.2402 -1.6720
23484SOL     OW71892   6.908   4.942  11.680  0.3426 -0.3843 -0.2975
23484SOL    HW171893   6.822   4.941  11.637 -0.0869 -1.3230  0.5464
23484SOL    HW271894   6.952   5.018  11.643 -1.6773  1.4750  0.8408
23485SOL     OW71895   3.175   5.154  12.298 -0.0999  0.2882 -0.2556
23485SOL    HW171896   3.123   5.174  12.376  0.3604 -0.3435  0.2388
23485SOL    HW271897   3.232   5.230  12.287  0.3084  0.1026  0.4501
23486SOL     OW71898   5.812   0.102  11.390  0.4033  0.3733 -0.2683
23486SOL    HW171899   5.846   0.142  11.310  1.5306  0.7724  0.3906
23486SOL    HW271900   5.764   0.173  11.434 -0.4247  0.0879 -0.7016
23487SOL     OW71901   6.895   6.255   0.255 -0.4288 -0.7385  0.1727
23487SOL    HW171902   6.840   6.271   0.331 -0.9791  0.6582 -0.4899
23487SOL    HW271903   6.871   6.324   0.193  1.5116 -0.5811 -0.4482
23488SOL     OW71904   7.661   0.919   0.562  0.3433  0.2789 -0.2339
23488SOL    HW171905   7.643   0.983   0.493 -0.6537 -0.2706 -0.5125
23488SOL    HW271906   7.735   0.868   0.529  2.3446  2.3535  0.7614
23489SOL     OW71907   5.655   4.965  11.999 -0.4881  0.0832  0.0770
23489SOL    HW171908   5.727   4.979  11.938  0.1802 -2.2162  0.2527
23489SOL    HW271909   5.664   5.036  12.063  1.8644 -0.3208  0.2906
23490SOL     OW71910   7.010   6.425   0.826 -0.0293 -0.1241 -0.4360
23490SOL    HW171911   6.957   6.379   0.891 -2.8454  0.3915 -2.1970
23490SOL    HW271912   7.006   6.368   0.748 -0.6663  1.4043 -1.5664
23491SOL     OW71913   7.995   7.137   0.622  0.1919  0.1451  0.0662
23491SOL    HW171914   8.070   7.193   0.638 -0.0489  0.7782 -0.9107
23491SOL    HW271915   8.013   7.096   0.537 -0.8243  0.7802 -0.4826
23492SOL     OW71916   6.155   5.577   1.202  0.0044 -0.2080 -0.0546
23492SOL    HW171917   6.179   5.572   1.294 -0.3450  2.4542  0.2467
23492SOL    HW271918   6.060   5.591   1.202  0.0510  0.1778 -0.8066
23493SOL     OW71919   7.010   4.940   1.670 -0.3905 -0.3317 -0.0223
23493SOL    HW171920   6.973   4.856   1.645  2.2549 -1.3956 -0.7058
23493SOL    HW271921   7.093   4.919   1.712 -0.4123  1.9024  1.3247
23494SOL     OW71922   5.044   5.831   0.029 -0.0108 -0.2497 -0.2046
23494SOL    HW171923   5.091   5.884   0.093  2.4327 -1.6954 -0.6840
23494SOL    HW271924   5.052   5.741   0.062 -2.2616 -0.6143 -0.4716
23495SOL     OW71925   5.606   7.291  12.225  0.0878  0.0656  0.1013
23495SOL    HW171926   5.556   7.211  12.211 -2.2380  1.3901  0.3383
23495SOL    HW271927   5.609   7.302  12.320  0.2372  0.3542  0.0667
23496SOL     OW71928   7.413   6.545  11.207 -0.4621 -0.6699 -0.4413
23496SOL    HW171929   7.343   6.603  11.236  0.5776  0.7787 -0.6919
23496SOL    HW271930   7.487   6.567  11.264  0.5601 -0.2714 -1.8429
23497SOL     OW71931   5.935   6.696   0.627 -0.0114  0.0194  0.2524
23497SOL    HW171932   5.933   6.781   0.584  1.7771  0.1985  0.4375
23497SOL    HW271933   5.898   6.636   0.562 -0.1803  0.7492 -0.3373
23498SOL     OW71934   7.150   0.614  10.775  0.6108  0.0335  0.1631
23498SOL    HW171935   7.124   0.613  10.867 -0.2191  0.2433 -0.0641
23498SOL    HW271936   7.206   0.537  10.765 -1.0340 -1.2494  0.3540
23499SOL     OW71937   6.785   7.111  10.763 -0.2157  0.2232 -0.2111
23499SOL    HW171938   6.766   7.142  10.851  1.2686 -0.4401  0.3689
23499SOL    HW271939   6.709   7.060  10.738 -0.2969 -0.2874  1.0334
23500SOL     OW71940   7.359   6.541   0.515  0.6722  0.6170 -0.2757
23500SOL    HW171941   7.310   6.542   0.597 -0.4273 -1.3653 -0.8376
23500SOL    HW271942   7.313   6.605   0.459  0.0896  0.3948 -0.0557
23501SOL     OW71943   4.353   0.218  12.098 -0.3109 -0.2685 -0.3601
23501SOL    HW171944   4.314   0.294  12.140  0.6709  0.5868 -0.9329
23501SOL    HW271945   4.443   0.245  12.080 -0.0271 -1.4714 -0.8283
23502SOL     OW71946   6.424   4.785   1.056  0.0547  0.3507  0.5703
23502SOL    HW171947   6.387   4.862   1.013 -0.3512  0.9452  1.9248
23502SOL    HW271948   6.518   4.805   1.063  0.0297  0.5075  0.4682
23503SOL     OW71949   6.007   7.113  11.667 -0.2327 -0.2517  0.1736
23503SOL    HW171950   5.959   7.136  11.747 -0.0382 -0.0412  0.2314
23503SOL    HW271951   6.039   7.197  11.633  0.6327 -0.4487  0.4760
23504SOL     OW71952   6.561   7.543  10.525  0.1407 -0.3822 -0.2789
23504SOL    HW171953   6.603   7.459  10.544  1.0449  0.3683  1.2544
23504SOL    HW271954   6.472   7.532  10.561  0.7674 -0.1688  1.4514
23505SOL     OW71955   5.007   6.373  10.014  0.0422 -0.2448  0.3244
23505SOL    HW171956   4.916   6.380   9.984  0.6168  0.2018 -1.3628
23505SOL    HW271957   5.013   6.284  10.049 -0.2882 -1.3887 -2.3231
23506SOL     OW71958   6.209   6.617   9.723 -0.3718 -0.2024 -0.2290
23506SOL    HW171959   6.230   6.679   9.792 -0.6853 -1.6574  1.2472
23506SOL    HW271960   6.147   6.663   9.667 -1.5810  0.4313  1.5302
23507SOL     OW71961   0.246   6.134   0.163  0.2870 -0.0410  0.3682
23507SOL    HW171962   0.203   6.198   0.107  1.5966  0.3982 -0.1713
23507SOL    HW271963   0.243   6.172   0.251  0.3103  0.3654  0.1924
23508SOL     OW71964   7.413   7.304  11.354  0.2128 -0.4364 -0.4371
23508SOL    HW171965   7.418   7.391  11.314 -2.4791 -0.4647 -1.0452
23508SOL    HW271966   7.332   7.266  11.318 -0.1576 -2.0839  1.9325
23509SOL     OW71967   5.331   7.142  12.359  0.2493 -0.1347  0.6642
23509SOL    HW171968   5.279   7.068  12.327 -0.6362  0.7223  0.0613
23509SOL    HW271969   5.421   7.110  12.357  0.1979 -0.3648 -2.0923
23510SOL     OW71970   6.743   5.660  11.231  0.3288 -0.0893 -0.6553
23510SOL    HW171971   6.768   5.698  11.315  0.6828  1.3361 -1.3765
23510SOL    HW271972   6.663   5.611  11.250 -0.7054  1.8108  0.1595
23511SOL     OW71973   5.636   5.178  12.424 -0.2291 -0.6940 -0.1845
23511SOL    HW171974   5.567   5.221  12.373  0.1464 -1.1893 -1.1398
23511SOL    HW271975   5.602   5.090  12.440 -1.0981 -0.0279  1.9718
23512SOL     OW71976   5.388   4.776  11.868  0.1312 -0.4467 -0.4533
23512SOL    HW171977   5.430   4.764  11.954  1.9099 -0.5373 -1.2871
23512SOL    HW271978   5.382   4.871  11.859  2.9780 -0.2738 -1.5382
23513SOL     OW71979   5.401   5.524  12.094 -0.2525  0.3902  0.4120
23513SOL    HW171980   5.359   5.593  12.144 -0.3166  0.2720  0.5236
23513SOL    HW271981   5.350   5.518  12.013 -1.2320 -0.5892  1.0631
23514SOL     OW71982   7.098   7.907   9.868  0.3974  0.5146 -0.5550
23514SOL    HW171983   7.187   7.875   9.854  1.0620  1.9652  0.1134
23514SOL    HW271984   7.101   7.998   9.839 -0.6660  0.7943  0.1824
23515SOL     OW71985   4.016   5.128   0.202 -0.3010  0.1626  0.3962
23515SOL    HW171986   4.026   5.159   0.112  1.7039 -2.2274 -0.3269
23515SOL    HW271987   3.921   5.116   0.213 -0.8230  2.8115 -0.4635
23516SOL     OW71988   6.359   5.551  11.809  0.4269 -0.0701  0.1430
23516SOL    HW171989   6.344   5.640  11.779 -0.2745 -0.5946 -1.1474
23516SOL    HW271990   6.350   5.555  11.904  1.2850  1.3849  0.1801
23517SOL     OW71991   6.393   6.441  10.763 -0.0926 -0.2700 -0.8888
23517SOL    HW171992   6.312   6.393  10.747  0.1619 -0.4382 -1.7233
23517SOL    HW271993   6.424   6.410  10.848  0.0419 -1.5590 -1.3932
23518SOL     OW71994   5.857   6.055  12.434  0.5567  0.7643 -0.2815
23518SOL    HW171995   5.942   6.088  12.464  0.6690 -0.6090  1.0691
23518SOL    HW271996   5.801   6.060  12.511 -0.8260  2.2561 -1.3296
23519SOL     OW71997   5.411   6.574  11.250 -0.2880 -0.3878  0.4712
23519SOL    HW171998   5.432   6.557  11.158 -0.4994 -1.1504  0.5601
23519SOL    HW271999   5.493   6.605  11.288  0.2203 -1.5660  0.3850
23520SOL     OW72000   7.453   7.581  10.046  0.1494  0.4460 -0.2838
23520SOL    HW172001   7.532   7.633  10.033 -0.1779  0.7832 -0.9630
23520SOL    HW272002   7.470   7.499   9.999  0.5094  0.0768  0.4624
23521SOL     OW72003   6.925   7.336  11.854  0.4859  0.4838 -0.3221
23521SOL    HW172004   6.881   7.254  11.877  1.4857 -0.1440 -0.5682
23521SOL    HW272005   6.878   7.403  11.904 -1.6549  0.0797 -1.6581
23522SOL     OW72006   6.076   6.642  12.081 -0.2340  0.0478 -0.6712
23522SOL    HW172007   6.085   6.579  12.010 -0.2321  1.0252 -1.5668
23522SOL    HW272008   5.984   6.635  12.108  0.3115 -2.0466  0.9312
23523SOL     OW72009   6.398   7.053  12.083  0.1960  0.2038 -0.6387
23523SOL    HW172010   6.340   6.986  12.046  1.7683 -0.4104 -2.1544
23523SOL    HW272011   6.468   7.003  12.125 -0.9961  0.9041  2.4548
23524SOL     OW72012   6.051   5.193  11.885 -0.5486 -0.4424 -0.5172
23524SOL    HW172013   6.097   5.118  11.922 -0.0278  0.3711  0.5712
23524SOL    HW272014   6.116   5.238  11.831 -0.7440 -0.5589 -0.8520
23525SOL     OW72015   6.569   6.607   0.127 -0.0778  0.0991 -0.3502
23525SOL    HW172016   6.517   6.532   0.097 -0.6678  0.0741  0.6796
23525SOL    HW272017   6.509   6.682   0.120 -0.4811 -0.0128  1.3506
23526SOL     OW72018   6.864   5.794  11.525 -0.6122 -1.0146  0.2162
23526SOL    HW172019   6.880   5.708  11.565  1.9491 -1.0041 -0.6008
23526SOL    HW272020   6.951   5.825  11.500 -1.7796  0.4277 -2.4133
23527SOL     OW72021   5.754   6.715  12.438 -0.3569 -0.0872  0.0354
23527SOL    HW172022   5.683   6.771  12.469  0.9837  1.3853  0.5550
23527SOL    HW272023   5.785   6.670  12.516 -1.0655 -1.1813 -0.2898
23528SOL     OW72024   7.869   5.725  12.366  0.2246 -0.6105 -0.4505
23528SOL    HW172025   7.890   5.660  12.433 -0.0735 -0.7322 -0.4748
23528SOL    HW272026   7.808   5.785  12.410  1.3290  0.2851 -0.0762
23529SOL     OW72027   0.214   7.417  11.647 -0.0218 -0.3632  0.0173
23529SOL    HW172028   0.245   7.474  11.717 -0.4458 -0.5002  0.3226
23529SOL    HW272029   0.283   7.419  11.581  0.6497 -0.6908  0.6992
23530SOL     OW72030   7.486   6.464   1.399 -0.2671  0.0854 -0.5723
23530SOL    HW172031   7.482   6.547   1.354  2.2038  1.1410  0.9503
23530SOL    HW272032   7.449   6.482   1.486 -1.0201 -0.7924 -0.6953
23531SOL     OW72033   6.530   7.157   1.215 -0.3989  0.4777  0.4117
23531SOL    HW172034   6.564   7.074   1.251  0.1366  0.9116  0.9234
23531SOL    HW272035   6.554   7.223   1.280  2.5778  1.6752 -1.6910
23532SOL     OW72036   7.893   0.316   1.541  0.1298 -0.2526  0.6385
23532SOL    HW172037   7.958   0.375   1.578  0.5992 -0.1999 -0.2238
23532SOL    HW272038   7.904   0.326   1.446 -0.9435 -0.4637  0.4849
23533SOL     OW72039   7.036   6.563  11.945  0.2663  0.5352  0.1800
23533SOL    HW172040   6.963   6.559  12.007 -0.9182  1.1238 -1.1217
23533SOL    HW272041   7.019   6.641  11.892  1.5513  0.3832 -0.5115
23534SOL     OW72042   4.906   5.509   0.377 -0.0687 -0.0596 -0.2190
23534SOL    HW172043   4.876   5.589   0.421 -0.5645 -0.1896 -0.3079
23534SOL    HW272044   4.827   5.475   0.334  0.4058  0.0713 -1.2217
23535SOL     OW72045   6.764   6.812   0.263 -0.1277 -0.1152 -0.9513
23535SOL    HW172046   6.713   6.745   0.218 -0.5525 -0.1068 -0.4903
23535SOL    HW272047   6.790   6.771   0.346  0.3940 -0.0274 -1.0689
23536SOL     OW72048   5.809   6.468  11.753 -0.6891  0.0106 -0.2346
23536SOL    HW172049   5.789   6.562  11.759 -1.6566 -0.2406  0.9461
23536SOL    HW272050   5.778   6.443  11.665 -1.2581  0.6180 -0.2188
23537SOL     OW72051   4.628   4.902  12.087  0.2787 -0.2181 -0.0185
23537SOL    HW172052   4.589   4.985  12.115  0.4007  0.6998 -2.3237
23537SOL    HW272053   4.722   4.912  12.107  0.1299 -0.2946  0.7531
23538SOL     OW72054   0.952   6.198  12.268  0.3264 -0.6696  0.1589
23538SOL    HW172055   0.922   6.143  12.195  1.8982 -0.4716 -0.6829
23538SOL    HW272056   1.014   6.259  12.228 -1.4455  1.8918  1.0148
23539SOL     OW72057   0.102   5.463   0.587 -0.1884  0.5847 -0.1625
23539SOL    HW172058   0.111   5.457   0.682  2.0109 -0.8935 -0.4043
23539SOL    HW272059   0.073   5.553   0.571 -1.7761  0.5117  1.9313
23540SOL     OW72060   4.321   4.609   0.193 -0.3437  0.0559  0.0544
23540SOL    HW172061   4.241   4.556   0.195 -0.3627 -0.0912 -2.4188
23540SOL    HW272062   4.299   4.686   0.245 -1.5849 -0.6419  0.6132
23541SOL     OW72063   4.602   7.729   2.245  0.0166  0.0270  0.2297
23541SOL    HW172064   4.676   7.759   2.298 -0.3407 -0.8318  1.2677
23541SOL    HW272065   4.529   7.724   2.308 -0.1203 -2.2424 -0.0352
23542SOL     OW72066   6.490   7.602   0.878 -0.2039  0.2535  0.4684
23542SOL    HW172067   6.429   7.666   0.913 -0.4859 -0.5742  1.5359
23542SOL    HW272068   6.434   7.534   0.840  0.0208 -0.5414  1.5067
23543SOL     OW72069   7.393   6.274   0.440 -0.8435 -0.0594 -0.4290
23543SOL    HW172070   7.390   6.360   0.481 -0.7621 -0.6837  0.9304
23543SOL    HW272071   7.311   6.232   0.467 -0.6716 -0.5824 -0.7049
23544SOL     OW72072   6.968   5.557   0.862  0.1822 -0.2490 -0.3724
23544SOL    HW172073   6.986   5.602   0.779  0.2708 -0.2247 -0.3405
23544SOL    HW272074   6.878   5.582   0.884 -0.0992 -0.8438 -0.8331
23545SOL     OW72075   4.336   4.282   0.303  0.1716  0.1635 -0.3082
23545SOL    HW172076   4.281   4.327   0.367  0.1296 -0.5206  0.1449
23545SOL    HW272077   4.425   4.306   0.328  0.1999 -0.7207  0.5074
23546SOL     OW72078   4.516   5.549  11.677 -0.2068 -0.4293  0.0368
23546SOL    HW172079   4.423   5.531  11.665 -0.4583 -0.0453  1.3053
23546SOL    HW272080   4.551   5.554  11.588 -1.2693 -1.2121 -0.4422
23547SOL     OW72081   4.803   4.747   0.090 -0.3987  0.2527 -0.2387
23547SOL    HW172082   4.803   4.739  -0.005 -1.6039 -1.4630 -0.1345
23547SOL    HW272083   4.737   4.685   0.120  0.5313  0.1474  1.7834
23548SOL     OW72084   4.409   5.730  11.880  0.1461 -0.0482  0.8979
23548SOL    HW172085   4.332   5.676  11.900  0.3563 -0.8810 -0.4189
23548SOL    HW272086   4.462   5.675  11.822  0.5812  1.4064 -0.1405
23549SOL     OW72087   7.386   6.209  12.017 -0.1764  0.2935 -0.3411
23549SOL    HW172088   7.335   6.239  11.942 -0.2065  0.0882 -0.4040
23549SOL    HW272089   7.388   6.114  12.008  0.3489  0.3054 -0.4257
23550SOL     OW72090   4.200   7.336   1.386 -0.2555  0.3725 -0.3695
23550SOL    HW172091   4.232   7.296   1.468  0.1370 -0.1087 -0.7523
23550SOL    HW272092   4.202   7.264   1.323  0.1301  0.9195 -0.9828
23551SOL     OW72093   7.830   5.756  10.244  0.2916  0.0828  0.7566
23551SOL    HW172094   7.817   5.700  10.320 -0.1630  0.3982  0.9184
23551SOL    HW272095   7.775   5.832  10.261 -1.4837 -0.7672 -0.8436
23552SOL     OW72096   6.466   5.275  10.799 -0.3629  0.1532  0.3310
23552SOL    HW172097   6.532   5.223  10.845  1.0710  2.1597  0.6843
23552SOL    HW272098   6.401   5.211  10.771 -0.1334 -1.4696  3.1293
23553SOL     OW72099   6.629   7.348  11.691 -0.3711 -0.7463  0.9005
23553SOL    HW172100   6.548   7.298  11.681 -0.8293 -0.3162  2.2242
23553SOL    HW272101   6.636   7.400  11.611 -0.6125 -1.8762  0.1169
23554SOL     OW72102   5.430   5.476   0.732 -0.7982 -0.4054  0.2799
23554SOL    HW172103   5.489   5.450   0.661  0.5473  0.6330  0.9769
23554SOL    HW272104   5.460   5.427   0.808 -1.5428 -0.6921  0.3974
23555SOL     OW72105   6.420   5.626  12.438  0.0376 -0.3227 -0.6561
23555SOL    HW172106   6.490   5.562  12.427 -0.5624 -0.9506 -0.9284
23555SOL    HW272107   6.389   5.643  12.349 -1.8419 -1.9983 -0.3888
23556SOL     OW72108   3.947   4.727   1.296 -0.3249 -0.4357 -0.1664
23556SOL    HW172109   3.854   4.743   1.312  0.1310  0.7307  1.4777
23556SOL    HW272110   3.958   4.633   1.312 -1.0999 -0.4653  0.2536
23557SOL     OW72111   6.449   6.816  11.175 -0.0771 -0.0288  0.3784
23557SOL    HW172112   6.382   6.762  11.133  0.5289  0.3825 -1.2114
23557SOL    HW272113   6.410   6.843  11.258 -0.4669 -2.7334  1.1652
23558SOL     OW72114   4.334   0.111  10.405  0.1126  0.4343 -0.0312
23558SOL    HW172115   4.265   0.085  10.344 -1.0565  2.1283  0.5062
23558SOL    HW272116   4.288   0.155  10.477  1.7657  2.5642 -0.1618
23559SOL     OW72117   6.104   5.954  11.660 -0.8175 -0.2239  0.3377
23559SOL    HW172118   6.010   5.964  11.646 -0.4761 -0.1193 -2.4720
23559SOL    HW272119   6.144   5.988  11.579  1.6189 -0.7416  1.2340
23560SOL     OW72120   6.156   6.390   0.732 -0.3918 -0.8081 -0.6605
23560SOL    HW172121   6.231   6.351   0.777 -0.1082 -0.3517 -0.7315
23560SOL    HW272122   6.192   6.423   0.650 -0.9042 -1.6222 -1.2244
23561SOL     OW72123   5.518   4.295  11.219 -0.7345  0.0765 -0.2064
23561SOL    HW172124   5.503   4.285  11.125 -0.5429 -3.1525 -0.0225
23561SOL    HW272125   5.538   4.206  11.249 -1.4541  0.8738  3.0135
23562SOL     OW72126   5.714   5.218  11.353 -0.1713  0.5132 -0.3966
23562SOL    HW172127   5.731   5.270  11.432  0.4764 -0.8542  0.4017
23562SOL    HW272128   5.625   5.241  11.328  0.1894  2.1978 -0.2344
23563SOL     OW72129   6.637   6.714  12.270  0.1369  0.2095  0.2094
23563SOL    HW172130   6.625   6.626  12.306  0.3560  1.3486  3.3397
23563SOL    HW272131   6.549   6.750  12.266 -0.3575 -0.9779 -3.8367
23564SOL     OW72132   5.475   5.299  11.694 -0.1277 -0.1643 -0.2752
23564SOL    HW172133   5.568   5.315  11.679 -0.3692  1.6666 -0.1158
23564SOL    HW272134   5.431   5.349  11.626 -1.0099 -0.1181  0.3088
23565SOL     OW72135   4.332   6.870   1.828 -0.1300 -0.0826 -0.5724
23565SOL    HW172136   4.426   6.877   1.813  0.2361 -0.6062  1.1712
23565SOL    HW272137   4.325   6.807   1.900 -1.4634  3.2215  2.4728
23566SOL     OW72138   5.554   7.238  11.391 -0.0667  0.2206 -0.3129
23566SOL    HW172139   5.470   7.194  11.397  0.7996 -1.3210  1.5899
23566SOL    HW272140   5.609   7.178  11.339  0.2579  0.5101 -0.3089
23567SOL     OW72141   7.129   4.309   0.476  0.1515 -0.2042  0.0025
23567SOL    HW172142   7.086   4.330   0.393  1.5274 -0.0452 -0.7121
23567SOL    HW272143   7.078   4.236   0.512 -0.1330 -0.6630 -1.2717
23568SOL     OW72144   5.778   7.393   9.827 -0.2635 -0.6816 -0.5654
23568SOL    HW172145   5.837   7.326   9.860  2.0524  0.8324 -1.3635
23568SOL    HW272146   5.715   7.346   9.772  0.4303 -2.3239  0.0163
23569SOL     OW72147   6.795   6.462   0.120 -0.1047  0.0302  0.1087
23569SOL    HW172148   6.802   6.446   0.026  0.1700 -0.1595  0.1606
23569SOL    HW272149   6.707   6.499   0.131 -0.3053 -0.3568 -0.1626
23570SOL     OW72150   7.224   0.301  12.200  0.1186 -0.5195  0.4174
23570SOL    HW172151   7.316   0.277  12.189  0.3429 -0.0805  1.2488
23570SOL    HW272152   7.175   0.229  12.160  0.8288 -0.1330 -1.2173
23571SOL     OW72153   5.700   6.990   0.863 -0.4704 -0.0576 -0.6430
23571SOL    HW172154   5.781   6.939   0.871  0.9420  1.9757 -1.1098
23571SOL    HW272155   5.668   6.971   0.775  1.2650  1.4541 -1.6749
23572SOL     OW72156   6.961   4.297   0.229 -0.2010  0.2490 -0.5465
23572SOL    HW172157   6.988   4.231   0.165  1.5228  1.7313 -1.4453
23572SOL    HW272158   6.903   4.355   0.180 -1.1867 -0.2017  0.0610
23573SOL     OW72159   0.565   7.643   0.078  0.4731 -0.0502  0.1447
23573SOL    HW172160   0.629   7.684   0.020  2.4512 -1.4567  1.2023
23573SOL    HW272161   0.580   7.683   0.164 -0.7850  0.3068  0.2258
23574SOL     OW72162   0.627   7.442  12.012 -0.4623  0.0206 -0.4984
23574SOL    HW172163   0.611   7.442  12.106 -1.3340  1.0152 -0.6327
23574SOL    HW272164   0.678   7.362  11.997 -0.8418 -0.4803  0.7200
23575SOL     OW72165   5.768   5.196  12.120 -0.2230  0.1938 -0.3929
23575SOL    HW172166   5.697   5.244  12.077 -0.9545 -2.2278 -2.0862
23575SOL    HW272167   5.846   5.248  12.102 -0.9025  0.5630 -2.5496
23576SOL     OW72168   7.442   1.102   0.266 -0.6512 -0.2228  0.0754
23576SOL    HW172169   7.474   1.016   0.290 -1.6189 -0.7082 -0.3064
23576SOL    HW272170   7.462   1.158   0.341  0.4646 -0.6424  0.1049
23577SOL     OW72171   0.025   4.341   0.809 -0.1070  0.8368 -0.0545
23577SOL    HW172172  -0.067   4.364   0.822 -0.1498  0.7007 -0.1146
23577SOL    HW272173   0.071   4.425   0.809 -0.0801  0.8398  1.1249
23578SOL     OW72174   4.988   4.947   0.147 -0.3657  0.0058  0.1731
23578SOL    HW172175   4.942   4.874   0.105 -1.0904  0.5746 -0.0450
23578SOL    HW272176   4.945   5.025   0.112  1.9882  0.6427 -1.4985
23579SOL     OW72177   6.383   7.164  10.567 -0.4433  0.1554  0.5492
23579SOL    HW172178   6.289   7.149  10.570 -0.6504  1.0317 -0.7198
23579SOL    HW272179   6.403   7.171  10.474  0.9433 -0.3462  0.7806
23580SOL     OW72180   5.857   7.935   2.279  0.4733  0.0895  0.6925
23580SOL    HW172181   5.952   7.938   2.266  0.6242  0.0205  1.7147
23580SOL    HW272182   5.826   7.871   2.216  1.1307 -0.0086  0.4605
23581SOL     OW72183   6.083   7.187  10.231 -0.1635  0.1341  0.5296
23581SOL    HW172184   6.006   7.148  10.273 -0.3287  0.2760  0.3638
23581SOL    HW272185   6.157   7.154  10.281 -0.2176 -1.2180 -0.2342
23582SOL     OW72186   7.645   0.408  11.551 -0.7477 -0.3090  0.4156
23582SOL    HW172187   7.647   0.469  11.477 -0.2774 -0.1840  0.5301
23582SOL    HW272188   7.568   0.354  11.535 -0.1223 -0.9163 -0.6670
23583SOL     OW72189   6.766   6.907  12.437  0.8790 -0.3342  0.6405
23583SOL    HW172190   6.728   6.827  12.402  1.4175  0.1646 -1.2671
23583SOL    HW272191   6.693   6.968  12.445  0.5490 -0.8519  1.6109
23584SOL     OW72192   3.068   3.289  12.134 -0.6965 -0.4119  0.8682
23584SOL    HW172193   3.042   3.381  12.135 -0.2198 -0.2014 -1.5982
23584SOL    HW272194   3.134   3.282  12.202  1.7952  1.9199 -1.1145
23585SOL     OW72195   5.992   6.972  12.297  0.0484  0.0953  0.5599
23585SOL    HW172196   5.913   6.939  12.255 -0.3789 -0.4508  1.7362
23585SOL    HW272197   5.963   7.054  12.339  0.3743  0.4486  0.0936
23586SOL     OW72198   0.251   5.737  12.201 -0.2285 -0.1861 -0.5539
23586SOL    HW172199   0.185   5.668  12.192 -0.2983 -0.1497 -0.3306
23586SOL    HW272200   0.218   5.792  12.272  0.3797 -0.5475  0.0203
23587SOL     OW72201   6.762   7.706  10.626  0.7340 -0.0549  0.0046
23587SOL    HW172202   6.700   7.761  10.675  1.8275 -0.5046  2.0078
23587SOL    HW272203   6.706   7.648  10.575 -0.4678  1.0659 -0.0130
23588SOL     OW72204   5.922   4.983  11.579  0.3361  0.1233  0.1543
23588SOL    HW172205   5.849   4.957  11.523 -0.7857  1.7167  0.8015
23588SOL    HW272206   5.999   4.974  11.524 -0.6763  1.1640 -1.5140
23589SOL     OW72207   4.146   4.601  12.043 -0.3885 -0.0633 -0.8443
23589SOL    HW172208   4.168   4.636  11.957  0.4866  1.0435 -0.1951
23589SOL    HW272209   4.059   4.563  12.032  1.0981 -3.3218 -3.1802
23590SOL     OW72210   6.524   6.058   1.137 -0.5669 -0.5339  0.3163
23590SOL    HW172211   6.530   6.152   1.120 -0.6030 -0.3043  1.4714
23590SOL    HW272212   6.480   6.051   1.222 -0.8219 -1.6066  0.1180
23591SOL     OW72213   6.114   1.429  11.581  0.0856  0.5390  0.0917
23591SOL    HW172214   6.112   1.338  11.611  0.3146  0.5200  0.0524
23591SOL    HW272215   6.046   1.434  11.515 -0.3779  0.5614  0.5647
23592SOL     OW72216   7.867   6.625  10.938  0.0324  0.1083  0.0616
23592SOL    HW172217   7.949   6.578  10.953 -0.3230 -0.7251 -0.5164
23592SOL    HW272218   7.810   6.561  10.895 -0.9764  0.6251  0.5879
23593SOL     OW72219   7.256   6.708   0.303 -0.2810  0.0658  0.2006
23593SOL    HW172220   7.324   6.743   0.245 -1.4110  2.0074 -0.0290
23593SOL    HW272221   7.202   6.654   0.247 -1.3474  1.9058 -0.6293
23594SOL     OW72222   4.862   6.502   9.522 -0.4346  0.5119  0.3123
23594SOL    HW172223   4.816   6.585   9.536  1.3790  1.1876  3.0137
23594SOL    HW272224   4.928   6.499   9.591  1.6011 -1.7889 -1.5420
23595SOL     OW72225   0.855   7.710   0.027  0.1484  0.2328 -0.3773
23595SOL    HW172226   0.848   7.793  -0.021 -1.1149  0.3733  0.0260
23595SOL    HW272227   0.890   7.735   0.112  1.2023  0.1428 -0.7685
23596SOL     OW72228   6.065   5.506  11.530 -0.3402  0.1518 -0.1992
23596SOL    HW172229   6.001   5.553  11.582 -0.0523 -0.2602  0.5396
23596SOL    HW272230   6.037   5.520  11.439 -0.6488  1.1603  0.0344
23597SOL     OW72231   6.272   6.027  11.996 -0.4811  0.2000  0.0639
23597SOL    HW172232   6.182   6.051  12.019 -0.4013  0.1189  0.4667
23597SOL    HW272233   6.311   6.109  11.965 -0.8488  0.1248 -0.6224
23598SOL     OW72234   5.607   6.696  11.424 -0.3432 -0.2653 -0.0822
23598SOL    HW172235   5.700   6.690  11.403 -0.4670 -1.5169 -0.3712
23598SOL    HW272236   5.601   6.767  11.488  0.9612 -0.8830  0.7607
23599SOL     OW72237   5.958   4.680  11.500  0.3801 -0.0451  0.0709
23599SOL    HW172238   5.908   4.607  11.464  0.0416 -0.1477  0.7291
23599SOL    HW272239   5.977   4.736  11.424  0.3622 -0.6450 -0.3858
23600SOL     OW72240   0.518   7.102   0.342 -0.0444 -0.1387 -0.0672
23600SOL    HW172241   0.539   7.017   0.380  1.8454  0.5022  0.4176
23600SOL    HW272242   0.588   7.119   0.279 -2.0703 -0.2955 -2.5323
23601SOL     OW72243   6.549   1.339  10.819  0.2030  0.3181  0.2276
23601SOL    HW172244   6.525   1.301  10.903 -0.2396 -1.1359 -0.5240
23601SOL    HW272245   6.488   1.412  10.808 -1.4357 -1.0195  0.0576
23602SOL     OW72246   5.953   6.469  12.497 -0.0380  0.6426  0.1980
23602SOL    HW172247   5.993   6.405  12.556 -2.8314 -1.0139  0.4602
23602SOL    HW272248   5.970   6.434  12.409  0.5398  0.8895  0.2048
23603SOL     OW72249   4.147   5.428   0.683 -0.0657 -0.9836  0.4824
23603SOL    HW172250   4.083   5.397   0.620  0.2708 -2.1392  0.6937
23603SOL    HW272251   4.129   5.378   0.763  0.0440 -0.1353  1.0594
23604SOL     OW72252   0.431   0.742   1.403 -0.2008  0.1970  0.7001
23604SOL    HW172253   0.474   0.794   1.335 -2.2348  0.2531 -0.6228
23604SOL    HW272254   0.493   0.671   1.422 -0.3398 -0.9615 -2.6315
23605SOL     OW72255   6.054   7.298  10.653  0.1690  0.4665 -0.0954
23605SOL    HW172256   5.974   7.312  10.604 -0.9122 -0.0320  1.4329
23605SOL    HW272257   6.076   7.206  10.638 -0.2959  0.2480  0.4903
23606SOL     OW72258   6.378   6.607  12.180  0.0623  0.3284 -0.1529
23606SOL    HW172259   6.399   6.570  12.094  1.4802 -1.5537  0.9447
23606SOL    HW272260   6.289   6.643  12.169 -0.3522 -1.0906 -2.0262
23607SOL     OW72261   7.659   5.741   0.367  0.4047 -0.0014  0.1439
23607SOL    HW172262   7.625   5.768   0.281 -0.3023 -0.2850  0.3310
23607SOL    HW272263   7.621   5.805   0.428  0.4015 -0.1767  0.3245
23608SOL     OW72264   4.687   7.673   0.519 -0.2288 -0.5048  0.5860
23608SOL    HW172265   4.683   7.594   0.467  2.7578 -0.3377 -0.0620
23608SOL    HW272266   4.633   7.736   0.472 -0.2364 -1.3063 -0.5049
23609SOL     OW72267   7.438   4.980  11.850 -0.2764 -0.1292  0.1574
23609SOL    HW172268   7.347   4.963  11.875 -0.6736 -3.5069 -2.8349
23609SOL    HW272269   7.490   4.950  11.924 -1.5426 -0.3748  0.9760
23610SOL     OW72270   5.859   7.107  11.886 -0.1783  0.1647 -0.1223
23610SOL    HW172271   5.871   7.161  11.965  0.5930 -0.3764  0.1430
23610SOL    HW272272   5.828   7.023  11.919  0.0432 -0.0290 -0.4074
23611SOL     OW72273   5.969   4.512  12.385 -0.1919  0.8744  0.1247
23611SOL    HW172274   5.880   4.546  12.382 -1.2530 -1.6714 -1.6977
23611SOL    HW272275   6.013   4.556  12.312 -0.5021  0.8693 -0.0700
23612SOL     OW72276   5.331   7.982  12.022  0.3705 -0.5798 -0.3399
23612SOL    HW172277   5.341   7.986  11.926  1.1405  1.8243 -0.2262
23612SOL    HW272278   5.418   8.002  12.055 -0.2257  0.0575  0.8687
23613SOL     OW72279   6.985   0.660  11.465  0.1990 -0.2292 -0.5491
23613SOL    HW172280   6.932   0.584  11.490  0.2198  0.1341  0.6497
23613SOL    HW272281   6.925   0.734  11.470  0.2472 -0.1273 -1.4493
23614SOL     OW72282   5.811   7.334   1.403  0.4856 -0.1293  0.2321
23614SOL    HW172283   5.883   7.385   1.441  1.1362 -0.5191 -0.4374
23614SOL    HW272284   5.752   7.317   1.476  0.4729  1.1990  0.5573
23615SOL     OW72285   5.492   6.365   2.110 -0.0548 -0.0674 -0.3421
23615SOL    HW172286   5.453   6.299   2.053  2.0147 -1.8246  0.1472
23615SOL    HW272287   5.465   6.449   2.072 -0.7249 -1.1787 -2.4582
23616SOL     OW72288   7.184   7.755  12.343 -0.2492 -0.0987  0.0097
23616SOL    HW172289   7.116   7.797  12.395  0.2500  0.9593 -0.1647
23616SOL    HW272290   7.204   7.674  12.391 -1.2718 -0.1811  0.3194
23617SOL     OW72291   5.293   7.729  11.699  0.6984 -0.0413 -0.0597
23617SOL    HW172292   5.346   7.655  11.728  0.7037  0.1159  0.3352
23617SOL    HW272293   5.335   7.806  11.737  0.8316  0.1937 -0.6619
23618SOL     OW72294   7.740   0.162   0.461 -0.3820 -0.3968 -0.4793
23618SOL    HW172295   7.735   0.175   0.555 -2.0815 -2.5683 -0.1835
23618SOL    HW272296   7.789   0.080   0.451 -1.2316 -0.8182 -1.3811
23619SOL     OW72297   6.846   7.935   2.224  0.2391 -0.0988 -0.6861
23619SOL    HW172298   6.806   7.937   2.138  0.6348 -2.5466 -0.9796
23619SOL    HW272299   6.938   7.915   2.208  0.5164  0.3141  0.2710
23620SOL     OW72300   5.382   7.595   2.324 -0.6097 -0.2739  0.3167
23620SOL    HW172301   5.365   7.548   2.242  0.4818  1.4414 -0.9618
23620SOL    HW272302   5.431   7.532   2.377 -1.2180 -1.3749 -0.3804
23621SOL     OW72303   7.485   7.632   1.466 -0.2312  0.4529  0.6568
23621SOL    HW172304   7.543   7.597   1.534  0.2516  1.5410  0.8186
23621SOL    HW272305   7.429   7.558   1.443  1.1401 -0.6191  0.5691
23622SOL     OW72306   6.063   0.077   3.921  0.5013 -0.0961 -0.0658
23622SOL    HW172307   6.057   0.133   3.843 -0.4496 -0.0045  0.0605
23622SOL    HW272308   6.155   0.054   3.927  0.9838  1.7216  0.0640
23623SOL     OW72309   7.111   0.348   0.719  0.5394 -0.1292 -0.2709
23623SOL    HW172310   7.102   0.342   0.814  0.9427  0.9106 -0.1528
23623SOL    HW272311   7.206   0.350   0.704  0.6749 -3.8647 -0.9905
23624SOL     OW72312   0.414   7.144   2.024  0.1536  0.6187 -0.0582
23624SOL    HW172313   0.421   7.238   2.012  0.3425  0.3563 -2.5360
23624SOL    HW272314   0.501   7.117   2.054  0.6890  1.0323 -1.1928
23625SOL     OW72315   4.859   1.640   2.897  0.2079 -0.0286  0.7148
23625SOL    HW172316   4.920   1.713   2.910  0.6523  0.2617 -2.2337
23625SOL    HW272317   4.775   1.682   2.880  0.3596 -0.1512 -0.4770
23626SOL     OW72318   4.524   0.611   2.197  0.0896 -0.2749 -0.2708
23626SOL    HW172319   4.484   0.529   2.167 -0.2145 -0.0301 -0.5469
23626SOL    HW272320   4.458   0.678   2.177  0.9596  0.2557 -1.4900
23627SOL     OW72321   5.730   6.893  11.993 -0.1343  0.3273  0.2572
23627SOL    HW172322   5.758   6.820  12.048  0.3001 -0.6079 -1.1666
23627SOL    HW272323   5.634   6.895  12.002 -0.1643 -0.5463  0.1514
23628SOL     OW72324   6.184   0.159   2.344  0.3262  0.5562  0.4946
23628SOL    HW172325   6.160   0.068   2.327 -3.0242  1.2719  0.7112
23628SOL    HW272326   6.184   0.201   2.258  0.2864  0.6844  0.5571
23629SOL     OW72327   5.354   0.020   1.751 -0.3818 -0.2034 -0.2332
23629SOL    HW172328   5.331   0.083   1.819  0.6290 -0.0646  0.0030
23629SOL    HW272329   5.270  -0.008   1.714 -0.8543  1.0035 -0.0996
23630SOL     OW72330   5.676   6.802   0.305 -0.4190 -0.1031 -0.3819
23630SOL    HW172331   5.585   6.808   0.333 -0.7974  0.6036 -1.6905
23630SOL    HW272332   5.696   6.888   0.268 -0.3909 -1.3176 -3.4532
23631SOL     OW72333   0.005   7.064   0.049 -0.4144  1.1048 -0.7430
23631SOL    HW172334   0.089   7.071   0.093 -1.1605 -0.0682  1.0099
23631SOL    HW272335  -0.057   7.045   0.119 -1.9240  0.6077 -2.1418
23632SOL     OW72336   6.736   0.836   1.676 -0.5057 -0.2587  0.1461
23632SOL    HW172337   6.717   0.885   1.755 -0.0060 -1.0776  0.7883
23632SOL    HW272338   6.796   0.892   1.626 -1.6254  0.7080 -0.1559
23633SOL     OW72339   0.049   1.914   0.680  0.3621 -0.2765  0.5221
23633SOL    HW172340   0.122   1.874   0.727 -0.0002 -1.7785 -0.1189
23633SOL    HW272341   0.012   1.842   0.628 -4.0853 -0.7514  3.7298
23634SOL     OW72342   4.053   0.954   1.152  0.2794  0.5822  0.3724
23634SOL    HW172343   3.996   1.009   1.206  0.5891 -0.3154  1.6612
23634SOL    HW272344   4.142   0.983   1.173  0.6538 -2.0712  3.1785
23635SOL     OW72345   0.467   7.113   2.717 -0.2016  0.1606  0.1302
23635SOL    HW172346   0.409   7.177   2.759 -0.2198  1.7479 -2.1096
23635SOL    HW272347   0.411   7.037   2.699 -1.1783  0.9926 -0.4679
23636SOL     OW72348   6.745   0.233   0.380 -0.3865  0.0218 -0.3838
23636SOL    HW172349   6.701   0.176   0.316  0.7960 -0.2709 -0.9624
23636SOL    HW272350   6.807   0.175   0.424  0.7024  0.8088 -0.8519
23637SOL     OW72351   5.292   6.700   1.717 -0.6684 -0.3933  0.1472
23637SOL    HW172352   5.337   6.692   1.633 -0.3262  0.2308  0.2663
23637SOL    HW272353   5.212   6.648   1.706 -1.1111  0.4738 -0.8994
23638SOL     OW72354   6.634   7.403   1.345  0.0089  0.0213 -0.3576
23638SOL    HW172355   6.661   7.427   1.434 -0.4851  1.0103 -0.4585
23638SOL    HW272356   6.685   7.460   1.288 -1.8300  1.5633 -0.5685
23639SOL     OW72357   3.561   2.137   2.978  0.2785  0.2385  0.3533
23639SOL    HW172358   3.650   2.120   3.008  0.3201  1.1579  0.8052
23639SOL    HW272359   3.547   2.230   2.996 -0.6353  0.2006 -0.0741
23640SOL     OW72360   5.610   7.399   2.361 -0.2361  0.0720  0.2289
23640SOL    HW172361   5.601   7.306   2.341  1.6979 -0.3202  0.9558
23640SOL    HW272362   5.655   7.401   2.445  1.5482  1.6488 -0.6930
23641SOL     OW72363   7.682   0.696   0.007 -0.4986  0.4213  0.1121
23641SOL    HW172364   7.747   0.764   0.028 -0.5297  0.3339  0.4917
23641SOL    HW272365   7.678   0.697  -0.089 -0.7703  1.2094  0.1195
23642SOL     OW72366   5.916   0.349   2.328  0.3254 -0.3725 -0.1661
23642SOL    HW172367   5.984   0.316   2.268  0.3845  0.6738 -0.6867
23642SOL    HW272368   5.937   0.308   2.412  1.5345 -0.1567 -0.3474
23643SOL     OW72369   6.131   7.247  12.124 -0.3107 -0.2673 -0.0195
23643SOL    HW172370   6.137   7.184  12.196 -0.9273 -1.3947 -0.9188
23643SOL    HW272371   6.037   7.254  12.106 -0.1781  0.1574 -0.5827
23644SOL     OW72372   3.652   7.380   1.681  0.2378  0.1042  0.2145
23644SOL    HW172373   3.721   7.351   1.739  0.3606 -0.0905 -0.0266
23644SOL    HW272374   3.575   7.390   1.737  0.7710  1.5817  0.7271
23645SOL     OW72375   5.016   0.162   1.998 -0.2692 -0.2096 -0.5425
23645SOL    HW172376   4.945   0.223   1.976 -0.6656 -0.7992 -0.9376
23645SOL    HW272377   5.030   0.174   2.092 -0.5631  0.2584 -0.5546
23646SOL     OW72378   7.066   6.045  11.793  0.5419 -0.3618  0.3839
23646SOL    HW172379   7.002   6.039  11.863 -0.4397 -0.5515 -0.4990
23646SOL    HW272380   7.025   6.100  11.726 -0.2600 -3.2446 -1.7232
23647SOL     OW72381   5.720   1.179   3.004  0.5936 -0.0521 -0.3174
23647SOL    HW172382   5.731   1.236   3.080 -1.9292  0.7251 -0.4710
23647SOL    HW272383   5.810   1.153   2.982  1.9687  3.9032 -0.3047
23648SOL     OW72384   4.316   7.555   1.518  0.1190 -0.1458 -1.1951
23648SOL    HW172385   4.411   7.543   1.523  0.1621 -0.4133 -2.2569
23648SOL    HW272386   4.286   7.476   1.472 -0.7326 -0.5011 -0.0697
23649SOL     OW72387   5.851   7.246  12.130 -0.2167 -0.3352 -0.2422
23649SOL    HW172388   5.874   7.241  12.223 -0.0534  1.6142 -0.1388
23649SOL    HW272389   5.768   7.294  12.127 -0.4964 -0.8390 -1.0758
23650SOL     OW72390   7.452   7.880   2.149  0.7833 -0.3699  0.9256
23650SOL    HW172391   7.537   7.847   2.121  0.5282  0.4752 -0.9914
23650SOL    HW272392   7.409   7.804   2.189  1.9640 -1.1165  0.8316
23651SOL     OW72393   7.297   0.926   0.999  0.5721 -0.0128 -0.1406
23651SOL    HW172394   7.314   0.875   0.920  0.8072 -0.4072  0.1658
23651SOL    HW272395   7.237   0.872   1.051 -0.5038  0.7309 -0.5527
23652SOL     OW72396   6.970   5.804  10.516  1.0211  0.2047  0.2692
23652SOL    HW172397   6.971   5.899  10.524  2.4589  0.2157  0.3584
23652SOL    HW272398   6.924   5.773  10.594  0.0914  0.8274 -0.0201
23653SOL     OW72399   7.594   1.200  11.380 -0.4624 -0.1507 -0.4128
23653SOL    HW172400   7.545   1.217  11.299  0.0338 -0.5934 -0.8155
23653SOL    HW272401   7.553   1.122  11.417 -1.1625  0.4735  0.1564
23654SOL     OW72402   6.738   5.649   0.456  0.2738 -0.3859 -0.1802
23654SOL    HW172403   6.797   5.574   0.461 -1.0512 -1.4537  0.1553
23654SOL    HW272404   6.651   5.612   0.474 -0.7068  0.8660 -1.9822
23655SOL     OW72405   6.563   7.609   2.500 -0.3282  0.1891  0.5372
23655SOL    HW172406   6.562   7.583   2.408 -0.7730 -0.0545  0.6121
23655SOL    HW272407   6.653   7.639   2.515  0.1971 -1.3033  0.4541
23656SOL     OW72408   4.972   7.738   2.152  0.6221 -0.7421 -0.3148
23656SOL    HW172409   4.934   7.651   2.140 -1.1124 -0.3380  1.6080
23656SOL    HW272410   4.911   7.783   2.211  2.0727  1.3863 -0.3095
23657SOL     OW72411   5.677   0.327   2.728  0.2598  0.4539 -0.3261
23657SOL    HW172412   5.736   0.271   2.779 -1.5491 -2.0613 -0.7970
23657SOL    HW272413   5.733   0.369   2.663  1.7805 -0.3932  0.3977
23658SOL     OW72414   5.266   0.074   0.675  0.0785  0.1436  0.2046
23658SOL    HW172415   5.239   0.139   0.740  0.6816  0.3456  0.2636
23658SOL    HW272416   5.320   0.012   0.725  1.4947  0.9202 -0.2883
23659SOL     OW72417   5.471   6.163  11.467 -0.4543 -0.0589 -0.5139
23659SOL    HW172418   5.483   6.083  11.518  0.7937  0.5692  0.2476
23659SOL    HW272419   5.523   6.149  11.388 -0.4608 -0.1115 -0.5090
23660SOL     OW72420   6.664   7.333   2.683  0.7325 -0.5184 -0.6383
23660SOL    HW172421   6.658   7.419   2.725 -0.2686  0.1263 -2.0506
23660SOL    HW272422   6.581   7.291   2.702  0.8919 -0.8471 -0.6616
23661SOL     OW72423   4.934   1.190   2.452  0.0015 -0.5964 -0.2465
23661SOL    HW172424   4.872   1.235   2.509  0.4378 -1.2215  0.7365
23661SOL    HW272425   5.020   1.223   2.478  0.0861  0.9463 -2.2038
23662SOL     OW72426   6.005   7.225   0.507 -0.1165 -0.2619 -0.2369
23662SOL    HW172427   6.097   7.234   0.483 -0.2293  0.7415 -0.3620
23662SOL    HW272428   6.005   7.209   0.601  0.3013 -3.5148 -0.6779
23663SOL     OW72429   6.631   1.062  12.068 -0.6265 -0.1526 -0.2843
23663SOL    HW172430   6.548   1.105  12.046 -1.1457 -0.8437  0.2573
23663SOL    HW272431   6.611   0.968  12.062 -0.5723 -0.3771  2.2501
23664SOL     OW72432   0.243   0.291   1.367 -0.1113  0.3511 -0.4351
23664SOL    HW172433   0.223   0.351   1.294  0.7061  2.4938  1.0127
23664SOL    HW272434   0.219   0.341   1.445  0.5030 -1.3054  0.8464
23665SOL     OW72435   5.882   6.990   1.170 -0.1682 -0.1553 -0.4189
23665SOL    HW172436   5.945   7.044   1.123  0.4336  0.5515  1.1599
23665SOL    HW272437   5.809   6.980   1.108  0.3705  1.1622 -1.3120
23666SOL     OW72438   7.318   0.069   2.015  0.1296 -0.5922 -0.0045
23666SOL    HW172439   7.342   0.087   1.925 -1.1536  0.3643 -0.1970
23666SOL    HW272440   7.392   0.022   2.052  1.7253  1.1360 -0.8638
23667SOL     OW72441   6.973   6.707   1.327  0.0850 -0.3875 -0.1263
23667SOL    HW172442   6.974   6.667   1.240 -1.3955  0.3970 -0.5421
23667SOL    HW272443   6.968   6.633   1.388 -1.2380 -0.9084 -0.8243
23668SOL     OW72444   6.214   5.470   1.429  0.2612  0.0981 -0.1242
23668SOL    HW172445   6.303   5.436   1.432  0.3499 -0.0211 -2.4857
23668SOL    HW272446   6.159   5.392   1.429  0.1956  0.1422  0.2787
23669SOL     OW72447   6.776   0.460   0.207 -0.5428  0.2663 -0.4373
23669SOL    HW172448   6.682   0.471   0.219 -0.8567 -1.2704 -1.2324
23669SOL    HW272449   6.795   0.373   0.243  0.3113 -0.0287 -1.5328
23670SOL     OW72450   4.542   7.938   1.187 -0.2781  0.4821 -0.2579
23670SOL    HW172451   4.520   7.903   1.100 -0.7444  1.6082 -0.6106
23670SOL    HW272452   4.457   7.950   1.229 -0.0206 -1.0677  0.7927
23671SOL     OW72453   6.287   7.159   0.743  0.2743 -0.6227 -0.4046
23671SOL    HW172454   6.281   7.101   0.667 -1.6214 -0.0370 -0.7339
23671SOL    HW272455   6.290   7.099   0.818  1.1082 -1.1754 -0.8520
23672SOL     OW72456   6.571   0.185  11.241  0.2665  0.0903 -0.1604
23672SOL    HW172457   6.539   0.095  11.244 -0.3924  0.2011 -2.2321
23672SOL    HW272458   6.654   0.180  11.194 -0.4967  0.6888 -1.6462
23673SOL     OW72459   0.286   0.002   0.077 -0.0870  0.3144 -0.3143
23673SOL    HW172460   0.271  -0.079   0.028 -2.2570  1.0752 -1.0011
23673SOL    HW272461   0.271   0.072   0.014  0.0543  1.2773  0.6830
23674SOL     OW72462   0.223   6.117   1.797 -0.2930  0.3406  0.4644
23674SOL    HW172463   0.249   6.151   1.882 -1.3163 -1.1029  1.4154
23674SOL    HW272464   0.172   6.038   1.817 -0.4016 -0.1579 -1.4917
23675SOL     OW72465   7.566   7.757   0.127 -0.6301  0.0212  0.4060
23675SOL    HW172466   7.493   7.697   0.112 -0.7298 -0.2037  1.7054
23675SOL    HW272467   7.569   7.768   0.222  0.7830  0.3383  0.3431
23676SOL     OW72468   5.594   0.094  12.024 -0.7285  1.1267  0.1826
23676SOL    HW172469   5.644   0.159  11.973 -0.4181  1.8211  1.3248
23676SOL    HW272470   5.624   0.107  12.114  0.4386 -1.6080  0.2946
23677SOL     OW72471   6.989   7.334  12.464 -0.3017 -0.3228  0.0203
23677SOL    HW172472   6.982   7.257  12.520 -0.5531  0.5646  1.2434
23677SOL    HW272473   6.911   7.386  12.484 -1.2725 -0.7340 -2.3633
23678SOL     OW72474   6.570   6.326   1.077  0.3894  0.2413  0.1635
23678SOL    HW172475   6.637   6.389   1.048 -0.0093  0.7910  0.4135
23678SOL    HW272476   6.513   6.377   1.134  0.8370 -0.6668  1.4906
23679SOL     OW72477   0.535   0.058   0.657 -0.3072  0.3410 -0.7622
23679SOL    HW172478   0.457   0.063   0.712  0.1569 -1.2010  0.0776
23679SOL    HW272479   0.534  -0.031   0.622  0.6681  0.5623 -1.3930
23680SOL     OW72480   7.249   6.603   0.770 -0.5836 -0.1281  1.1061
23680SOL    HW172481   7.194   6.527   0.790  0.1926 -0.7126  1.0849
23680SOL    HW272482   7.187   6.675   0.756 -1.3959 -1.0233 -0.0697
23681SOL     OW72483   6.816   7.660   4.895 -0.0565 -0.4877  0.3806
23681SOL    HW172484   6.834   7.603   4.970 -0.9687  1.1050  1.8844
23681SOL    HW272485   6.869   7.624   4.825  1.7238 -1.3872  2.0864
23682SOL     OW72486   4.279   1.134   2.705 -0.2140 -0.0626 -0.6134
23682SOL    HW172487   4.287   1.175   2.791 -1.2548  1.9724 -1.4320
23682SOL    HW272488   4.369   1.117   2.678  0.1226 -0.7114  0.8536
23683SOL     OW72489   7.673   6.815   2.129 -0.5432  0.0394 -0.6700
23683SOL    HW172490   7.673   6.884   2.063  0.8011  0.3614 -0.3715
23683SOL    HW272491   7.742   6.755   2.101  1.6185  1.3172  1.5097
23684SOL     OW72492   5.043   7.809   3.635  0.0704 -0.1727  0.3048
23684SOL    HW172493   4.970   7.755   3.607  0.2080 -0.3787  0.3437
23684SOL    HW272494   5.120   7.752   3.628 -0.0178 -0.5493  2.0795
23685SOL     OW72495   7.462   7.255   3.429 -0.0828  0.9109 -0.0849
23685SOL    HW172496   7.488   7.276   3.519 -1.9417  0.2984  0.6482
23685SOL    HW272497   7.530   7.196   3.397 -0.1749 -0.0714  1.4680
23686SOL     OW72498   6.877   0.655   2.608  0.3514 -0.0491  0.2421
23686SOL    HW172499   6.797   0.665   2.557  0.9996  1.8530 -0.4575
23686SOL    HW272500   6.944   0.634   2.544  0.5643 -0.9775  0.7485
23687SOL     OW72501   5.922   1.122   3.783 -0.4846 -0.2306  0.4984
23687SOL    HW172502   5.943   1.208   3.818 -0.0756 -0.1740  0.1256
23687SOL    HW272503   5.902   1.138   3.691  0.9898 -0.7099  0.0713
23688SOL     OW72504   4.639   7.676   2.785 -0.3981 -0.0896  0.4469
23688SOL    HW172505   4.599   7.606   2.836 -1.1463 -0.6335 -0.8367
23688SOL    HW272506   4.733   7.668   2.804 -0.4650 -1.4268  0.3505
23689SOL     OW72507   3.027   6.962   4.755 -0.0083  0.4318  0.2606
23689SOL    HW172508   3.040   7.015   4.677  0.3500  0.6123  0.4440
23689SOL    HW272509   2.968   7.014   4.810  0.6564  0.8232  0.6142
23690SOL     OW72510   6.014   7.828   4.167 -0.0357  0.0508 -0.4470
23690SOL    HW172511   5.967   7.870   4.239 -0.0121 -1.3725  0.4393
23690SOL    HW272512   6.104   7.818   4.199 -0.1876 -1.2154 -0.3842
23691SOL     OW72513   5.941   0.621   3.892 -0.5818 -0.0581 -0.5525
23691SOL    HW172514   6.025   0.629   3.937 -0.8098  0.3420 -0.1978
23691SOL    HW272515   5.901   0.707   3.901 -1.7853 -0.7207  0.7633
23692SOL     OW72516   6.418   0.841   4.658 -0.3740  0.3799 -0.7514
23692SOL    HW172517   6.438   0.933   4.640 -0.3442  0.3646 -0.7959
23692SOL    HW272518   6.357   0.844   4.732  0.0221  0.4115 -0.4224
23693SOL     OW72519   6.571   5.463   1.984 -0.3278  0.1459  0.3499
23693SOL    HW172520   6.504   5.528   1.963 -1.6122 -1.1886  0.0655
23693SOL    HW272521   6.601   5.485   2.071 -1.1209  0.8173  0.4630
23694SOL     OW72522   5.777   0.149   2.108 -0.5065 -0.5552  0.2777
23694SOL    HW172523   5.796   0.094   2.183 -1.3436  0.0523  0.9581
23694SOL    HW272524   5.681   0.156   2.107 -0.4087  3.0043  1.8446
23695SOL     OW72525   5.726   6.905   3.030 -0.8417 -0.2058  0.3829
23695SOL    HW172526   5.803   6.855   3.057 -2.1321 -1.3617  2.1965
23695SOL    HW272527   5.726   6.899   2.934  0.3279 -1.7296  0.4388
23696SOL     OW72528   5.649   1.265   2.320  0.0892  0.6075  0.3543
23696SOL    HW172529   5.719   1.319   2.356 -0.4319  0.1622  2.1397
23696SOL    HW272530   5.569   1.301   2.358 -0.4684 -0.0128 -0.2088
23697SOL     OW72531   4.692   7.048   2.923  0.1960 -0.1560 -0.0431
23697SOL    HW172532   4.726   6.960   2.904  0.2306 -0.3003  0.6566
23697SOL    HW272533   4.621   7.060   2.860  1.2088 -0.0444 -1.1934
23698SOL     OW72534   7.381   1.009   2.761  0.4718  0.7151  0.3487
23698SOL    HW172535   7.320   0.940   2.736  0.0704  1.5498 -1.0971
23698SOL    HW272536   7.460   0.963   2.789 -0.3624 -0.3469  1.0431
23699SOL     OW72537   4.861   7.250   2.930 -0.1544  0.2753 -0.0533
23699SOL    HW172538   4.795   7.181   2.939 -2.1728  1.7304 -2.3588
23699SOL    HW272539   4.839   7.314   2.997  0.1388 -0.1084  0.4196
23700SOL     OW72540   5.562   1.490   4.707  0.3858  0.1885  0.0408
23700SOL    HW172541   5.489   1.493   4.645 -2.3472 -2.1744  2.7967
23700SOL    HW272542   5.605   1.407   4.689  0.4396  0.1341  0.4221
23701SOL     OW72543   5.483   7.356   3.318 -0.7296  0.0181 -0.4151
23701SOL    HW172544   5.407   7.344   3.376 -1.3025 -1.9556 -1.4516
23701SOL    HW272545   5.558   7.335   3.373 -1.1697 -0.6216 -0.0308
23702SOL     OW72546   6.699   0.012   4.126  0.2389  0.0348 -0.0466
23702SOL    HW172547   6.638   0.000   4.198  1.8538 -1.3949  1.1796
23702SOL    HW272548   6.692  -0.069   4.075  0.9167 -0.0569 -0.0109
23703SOL     OW72549   7.096   0.436   4.470 -0.3719  0.0107  0.1477
23703SOL    HW172550   7.022   0.465   4.417 -1.1442 -1.7414  0.2025
23703SOL    HW272551   7.062   0.431   4.559  0.0176 -0.0974  0.2930
23704SOL     OW72552   5.310   1.756   2.902  0.1450 -0.4654 -0.1882
23704SOL    HW172553   5.366   1.815   2.852  1.1899 -2.7603 -1.8671
23704SOL    HW272554   5.221   1.776   2.871  0.5758 -0.4227 -1.4386
23705SOL     OW72555   7.109   7.900   2.198  0.0799  0.0317  0.3074
23705SOL    HW172556   7.180   7.917   2.136 -2.2402  2.0486 -2.0348
23705SOL    HW272557   7.122   7.963   2.268 -0.6164  2.1084 -1.3252
23706SOL     OW72558   4.743   6.285   3.331  0.2182  0.2425 -0.3559
23706SOL    HW172559   4.758   6.375   3.362 -1.0932  0.0210  1.0284
23706SOL    HW272560   4.694   6.243   3.401  1.5363 -1.8424 -0.6113
23707SOL     OW72561   4.246   7.742   2.053  0.6587  0.1684 -0.2751
23707SOL    HW172562   4.182   7.812   2.043  1.3422  0.7962 -0.3323
23707SOL    HW272563   4.283   7.755   2.141  0.9276  0.0026 -0.3610
23708SOL     OW72564   7.961   0.309   1.279  0.6186  0.2574  0.3460
23708SOL    HW172565   7.901   0.272   1.215  1.1915  2.7442 -1.8318
23708SOL    HW272566   8.045   0.267   1.260  0.0982 -1.6524  1.9740
23709SOL     OW72567   7.042   0.770   2.162 -0.2323  0.0941 -0.2199
23709SOL    HW172568   7.086   0.704   2.109 -1.5791 -0.6023 -0.5268
23709SOL    HW272569   7.023   0.841   2.101 -1.3613 -0.5050 -0.5894
23710SOL     OW72570   4.045   1.450   2.375  0.5746  0.1978  0.2739
23710SOL    HW172571   4.131   1.408   2.381 -0.5397 -2.2561  0.4033
23710SOL    HW272572   4.035   1.469   2.281  1.4271  0.9562  0.3232
23711SOL     OW72573   5.009   0.267   3.261 -0.4551  0.5062 -0.6619
23711SOL    HW172574   4.958   0.341   3.228  0.6067  1.1432 -0.8921
23711SOL    HW272575   4.944   0.211   3.303 -1.1178  2.1966  0.6810
23712SOL     OW72576   4.506   0.279   3.034  0.5111  0.1389 -0.4906
23712SOL    HW172577   4.446   0.327   3.091 -0.9974 -1.6544 -0.4511
23712SOL    HW272578   4.538   0.345   2.973 -0.3063  1.4776  0.4511
23713SOL     OW72579   6.855   0.544   2.862 -0.3091  0.3446  0.1430
23713SOL    HW172580   6.848   0.449   2.858 -2.6769  0.4784 -0.6247
23713SOL    HW272581   6.862   0.571   2.770 -0.0659  0.9165  0.3283
23714SOL     OW72582   7.878   7.073   1.786  0.4786  0.3804 -0.4156
23714SOL    HW172583   7.950   7.021   1.820  2.1977  1.7815 -1.7192
23714SOL    HW272584   7.830   7.013   1.729  1.1015 -0.3586 -0.1788
23715SOL     OW72585   6.425   6.458   2.293 -0.6890 -0.4183 -0.1055
23715SOL    HW172586   6.359   6.405   2.247  0.4382 -0.9369 -1.1788
23715SOL    HW272587   6.445   6.409   2.372 -1.8903 -0.0354  0.4674
23716SOL     OW72588   7.019   0.857   4.080 -0.8502  0.1225 -0.1867
23716SOL    HW172589   6.973   0.812   4.010 -1.9607 -0.6810  1.0184
23716SOL    HW272590   6.985   0.946   4.078 -1.8353 -0.2343  0.1322
23717SOL     OW72591   5.072   7.820   2.570  0.2555 -0.0154  0.1931
23717SOL    HW172592   5.167   7.826   2.558  0.3771 -0.6037  0.8278
23717SOL    HW272593   5.043   7.911   2.578  0.4386  0.3186 -2.3191
23718SOL     OW72594   4.124   0.601   2.704  0.1872  0.5018  0.1779
23718SOL    HW172595   4.130   0.508   2.725  0.2448  0.7546  1.3854
23718SOL    HW272596   4.200   0.618   2.648  0.4399 -0.0833  0.3325
23719SOL     OW72597   5.368   0.944   2.347  0.0314 -0.0533 -0.0109
23719SOL    HW172598   5.369   0.936   2.442  0.1243  2.0220  0.2029
23719SOL    HW272599   5.346   0.856   2.316  2.4353 -1.3968  1.7950
23720SOL     OW72600   7.981   7.325   1.565  0.0765 -0.4597 -0.1430
23720SOL    HW172601   7.920   7.255   1.588  1.1614 -2.3130 -2.4433
23720SOL    HW272602   8.065   7.296   1.602  0.4096 -0.0470 -0.5617
23721SOL     OW72603   0.380   5.518   1.791 -0.1343 -0.6106  0.7017
23721SOL    HW172604   0.416   5.448   1.846  0.4855  0.2986  1.4770
23721SOL    HW272605   0.452   5.580   1.781 -0.6082 -0.1828 -0.1725
23722SOL     OW72606   5.730   7.907   3.442  0.2228  0.2501 -0.2800
23722SOL    HW172607   5.740   7.902   3.347 -0.5387 -1.8244 -0.3190
23722SOL    HW272608   5.817   7.930   3.475  1.0298 -1.0364 -1.3908
23723SOL     OW72609   5.774   0.114   4.763  0.1757  0.0726 -0.7185
23723SOL    HW172610   5.789   0.026   4.799 -2.4206 -0.0970  0.1169
23723SOL    HW272611   5.845   0.167   4.799 -1.1254 -0.5525  3.2050
23724SOL     OW72612   4.400   6.876   3.890  0.8943  0.0875 -0.5139
23724SOL    HW172613   4.334   6.811   3.868  0.1564  0.8126 -0.4873
23724SOL    HW272614   4.442   6.898   3.807  1.2645 -0.5415 -0.4960
23725SOL     OW72615   4.904   6.629   4.855 -0.0652  0.2907 -0.5612
23725SOL    HW172616   4.900   6.534   4.845 -1.6807  0.1985  0.6374
23725SOL    HW272617   4.814   6.659   4.842  0.5880  1.8134 -2.0352
23726SOL     OW72618   4.967   6.538   3.306  0.8337  0.0989  0.2097
23726SOL    HW172619   4.888   6.591   3.308  0.4456 -0.4664  0.3166
23726SOL    HW272620   5.036   6.597   3.277 -0.0595  0.0435 -2.2324
23727SOL     OW72621   5.979   1.055   4.469 -0.1253 -0.3244 -0.0413
23727SOL    HW172622   5.904   1.001   4.443 -1.1624  1.2220 -0.3853
23727SOL    HW272623   5.960   1.141   4.433  1.7327  0.1763  0.0634
23728SOL     OW72624   6.379   7.822   2.888 -0.3448 -0.3835 -0.6343
23728SOL    HW172625   6.315   7.849   2.822 -1.0866 -1.7872 -0.5337
23728SOL    HW272626   6.330   7.765   2.948  0.4821  0.2966  0.7373
23729SOL     OW72627   4.960   0.066   3.501  0.8301  0.5259 -0.2166
23729SOL    HW172628   4.884   0.082   3.557  1.5199 -0.6781  1.1132
23729SOL    HW272629   5.001  -0.012   3.537  1.1985 -0.4505 -2.5640
23730SOL     OW72630   6.709   0.300   2.940  0.3933  0.2380 -0.0888
23730SOL    HW172631   6.641   0.234   2.924  0.8170 -0.4387  0.7864
23730SOL    HW272632   6.775   0.253   2.990  0.4048  1.5198  1.1386
23731SOL     OW72633   6.029   0.243   4.889  0.4258 -0.0216  0.2753
23731SOL    HW172634   6.026   0.332   4.854  0.8426 -0.1993 -0.2088
23731SOL    HW272635   6.023   0.255   4.984 -0.3589  0.4750  0.1752
23732SOL     OW72636   4.464   7.373   2.044 -0.6183  0.0516 -0.0544
23732SOL    HW172637   4.500   7.461   2.052 -0.5447  0.0496 -0.3577
23732SOL    HW272638   4.455   7.359   1.950 -1.6699  0.1532  0.0185
23733SOL     OW72639   5.558   0.059   0.797 -0.3241  0.9953 -0.1674
23733SOL    HW172640   5.561  -0.023   0.748 -0.2088  0.5788  0.5212
23733SOL    HW272641   5.646   0.069   0.834 -0.5802  0.9741  0.4642
23734SOL     OW72642   6.971   1.975   4.469 -0.3859 -0.2593  0.5821
23734SOL    HW172643   6.908   1.909   4.438 -0.4938  0.6878 -1.3550
23734SOL    HW272644   6.918   2.054   4.483  0.0943  0.0342  0.7591
23735SOL     OW72645   4.790   6.168   2.637 -0.0768 -0.1692 -0.4616
23735SOL    HW172646   4.850   6.230   2.594  0.0171  0.2543  0.2606
23735SOL    HW272647   4.744   6.221   2.703  0.7313 -1.0553  0.8653
23736SOL     OW72648   5.794   2.046   2.237  0.2110  0.0233 -0.5942
23736SOL    HW172649   5.812   1.965   2.189 -0.3339  0.2310 -1.1623
23736SOL    HW272650   5.701   2.063   2.222 -0.6197 -1.1118  2.3735
23737SOL     OW72651   5.732   7.740   1.351 -0.0249 -0.2499 -0.0690
23737SOL    HW172652   5.691   7.805   1.294  0.6291  0.5780  0.3745
23737SOL    HW272653   5.810   7.712   1.304 -0.9894 -1.7502 -0.8659
23738SOL     OW72654   6.816   7.514   4.048  0.0591 -0.6269  0.2862
23738SOL    HW172655   6.805   7.583   4.113 -0.3168 -0.1247 -0.3040
23738SOL    HW272656   6.791   7.433   4.094 -1.5477 -0.1162  0.3803
23739SOL     OW72657   6.033   6.987   1.708  0.7192  0.4499 -0.1719
23739SOL    HW172658   5.972   7.060   1.697  0.6373  0.4360  0.1999
23739SOL    HW272659   6.036   6.946   1.621 -2.8711 -1.9624  0.6022
23740SOL     OW72660   7.782   0.487   3.902  0.0482  0.0309  0.3288
23740SOL    HW172661   7.802   0.565   3.850  0.4431 -0.1809  0.1629
23740SOL    HW272662   7.867   0.448   3.922  0.0147  0.7533  2.1415
23741SOL     OW72663   7.039   0.094   3.212 -0.3104  0.4201  0.7237
23741SOL    HW172664   7.019   0.013   3.259  4.8629 -1.1919  0.8679
23741SOL    HW272665   7.083   0.149   3.276  2.4552  0.2490 -0.8656
23742SOL     OW72666   7.041   7.989   3.836 -0.1062  0.3665 -0.7017
23742SOL    HW172667   7.136   7.993   3.826  0.0360  1.3035  0.6554
23742SOL    HW272668   7.021   7.896   3.848  0.6667  0.1928 -0.7300
23743SOL     OW72669   6.941   6.505   3.948 -0.3052  0.0376 -0.2428
23743SOL    HW172670   6.897   6.584   3.915 -0.3698  1.0630  2.1408
23743SOL    HW272671   6.939   6.444   3.874 -3.0655  1.1347 -1.1965
23744SOL     OW72672   6.069   1.389   3.153  0.0428  0.2192  0.8803
23744SOL    HW172673   5.976   1.411   3.148  0.6514  2.9343 -1.3187
23744SOL    HW272674   6.081   1.323   3.085 -0.1537  0.5530  0.5124
23745SOL     OW72675   5.089   7.167   2.479 -0.3941 -0.4725  0.6349
23745SOL    HW172676   5.151   7.155   2.406  2.1294 -0.3092  2.5989
23745SOL    HW272677   5.070   7.078   2.508 -0.9403 -0.5184  0.1363
23746SOL     OW72678   7.605   5.244   0.336 -0.3260 -0.0290 -0.9425
23746SOL    HW172679   7.699   5.250   0.319 -0.1854  0.6744 -0.0163
23746SOL    HW272680   7.567   5.219   0.252  0.8444 -2.1253 -0.9072
23747SOL     OW72681   5.863   7.610   3.714 -0.3526 -0.0589 -0.4931
23747SOL    HW172682   5.873   7.705   3.728 -2.0801 -0.1551  2.1497
23747SOL    HW272683   5.930   7.571   3.770  0.7438 -0.4739 -2.0203
23748SOL     OW72684   7.003   7.472   4.434 -0.5358 -0.3275  0.0169
23748SOL    HW172685   6.949   7.396   4.458  0.5973 -0.9464  0.7363
23748SOL    HW272686   7.091   7.436   4.424 -0.3109  0.5908 -1.5219
23749SOL     OW72687   7.443   7.241   6.396 -0.5310  0.2630 -0.0088
23749SOL    HW172688   7.380   7.281   6.456 -0.6857 -0.3420  0.2399
23749SOL    HW272689   7.524   7.236   6.446  0.0532  2.0844 -0.7024
23750SOL     OW72690   7.422   7.751   4.946  0.2526 -0.3263  0.2522
23750SOL    HW172691   7.506   7.745   4.899 -0.5269 -2.0299 -1.0408
23750SOL    HW272692   7.447   7.770   5.036  1.9702  0.3847 -0.3310
23751SOL     OW72693   6.466   7.249   4.632  0.7498  0.0943 -0.3279
23751SOL    HW172694   6.490   7.157   4.643 -1.7988 -0.4877  1.5568
23751SOL    HW272695   6.516   7.295   4.700  0.7025 -0.2047 -0.0861
23752SOL     OW72696   7.583   7.446   6.118 -0.6117 -0.3424 -0.5767
23752SOL    HW172697   7.554   7.477   6.204  0.7664 -0.3996 -0.0743
23752SOL    HW272698   7.599   7.353   6.130  0.7765 -0.1224 -0.5393
23753SOL     OW72699   5.928   7.914   5.487  0.3167  0.5579  0.1086
23753SOL    HW172700   5.956   7.865   5.565 -0.4752  1.3946  0.9417
23753SOL    HW272701   5.882   7.849   5.434  0.4872  0.0709  0.5481
23754SOL     OW72702   0.230   7.984   6.585  0.3933 -0.0872  0.2228
23754SOL    HW172703   0.315   8.024   6.606 -0.4532  0.6371  2.6928
23754SOL    HW272704   0.166   8.043   6.625 -1.2671 -0.9675 -1.0171
23755SOL     OW72705   5.635   7.793   5.035  0.2655  0.3731  0.7779
23755SOL    HW172706   5.641   7.697   5.039  1.3602  0.4754  1.7894
23755SOL    HW272707   5.687   7.817   4.958 -1.7061  0.0458 -0.7377
23756SOL     OW72708   6.269   0.967   5.134 -0.1157  0.3025  0.4666
23756SOL    HW172709   6.258   1.001   5.046  0.4224  2.3953  1.1496
23756SOL    HW272710   6.364   0.957   5.145 -0.2003 -0.3629  0.6794
23757SOL     OW72711   5.186   2.137   6.890  0.2418 -0.6933  0.3940
23757SOL    HW172712   5.122   2.076   6.854  0.3853  0.7684 -2.6786
23757SOL    HW272713   5.202   2.199   6.819  2.7374  0.8318  2.1370
23758SOL     OW72714   7.791   0.361   5.464  0.4664  0.6410  0.1103
23758SOL    HW172715   7.848   0.315   5.526 -1.2713 -1.5719  0.2156
23758SOL    HW272716   7.823   0.334   5.378  0.2587  0.2898  0.1429
23759SOL     OW72717   7.608   6.843   6.133 -0.6858 -0.3226  0.1098
23759SOL    HW172718   7.561   6.772   6.090  0.2495 -0.4598 -0.7195
23759SOL    HW272719   7.554   6.921   6.115 -1.0318 -0.6064 -0.1058
23760SOL     OW72720   6.138   0.591   7.278 -0.7013  0.0286 -0.0050
23760SOL    HW172721   6.123   0.508   7.232 -1.0483 -1.2866  2.3254
23760SOL    HW272722   6.107   0.658   7.217 -2.4535 -1.7010 -1.1401
23761SOL     OW72723   6.043   7.587   5.086  0.0827  0.5930 -0.0996
23761SOL    HW172724   5.949   7.603   5.081  0.1937  1.3069 -0.0407
23761SOL    HW272725   6.083   7.672   5.069  0.7240  0.2779 -0.2205
23762SOL     OW72726   7.507   0.414   4.007  0.2248  0.1449 -0.0304
23762SOL    HW172727   7.449   0.475   3.960  0.7667  1.6156  1.1212
23762SOL    HW272728   7.595   0.435   3.976  0.5070  0.5859  1.0331
23763SOL     OW72729   0.317   7.478   5.710  0.6653  0.3696  0.0957
23763SOL    HW172730   0.247   7.495   5.646  2.0791  1.3917 -1.2790
23763SOL    HW272731   0.284   7.407   5.764 -1.2280  0.4940 -0.8153
23764SOL     OW72732   6.139   7.814   4.760 -0.2687 -0.3054 -0.3577
23764SOL    HW172733   6.231   7.793   4.745  0.0592  0.8355 -0.0677
23764SOL    HW272734   6.132   7.820   4.855 -0.3340  0.8663 -0.4263
23765SOL     OW72735   5.452   0.929   7.107 -0.0331  0.2794  0.0603
23765SOL    HW172736   5.424   1.009   7.152 -0.9799  0.5793 -1.0262
23765SOL    HW272737   5.371   0.889   7.076  0.2230 -2.1952  2.2971
23766SOL     OW72738   7.446   7.250   3.110  0.3846  0.2691  0.1116
23766SOL    HW172739   7.351   7.247   3.113  0.3790 -1.3546 -0.6423
23766SOL    HW272740   7.467   7.264   3.018  0.8858  0.0653  0.1889
23767SOL     OW72741   6.771   6.089   4.149 -0.2494 -0.2255 -0.4396
23767SOL    HW172742   6.838   6.022   4.163 -2.5858 -2.2890  2.1353
23767SOL    HW272743   6.791   6.157   4.213 -1.6170 -1.8570  1.8992
23768SOL     OW72744   6.276   6.844   1.728  0.3489  0.1430  0.1015
23768SOL    HW172745   6.184   6.869   1.734  0.9428  2.2842  1.2747
23768SOL    HW272746   6.314   6.908   1.667  1.4226  0.5497  1.1663
23769SOL     OW72747   0.048   6.913   5.955 -0.5537  0.1158 -0.0958
23769SOL    HW172748   0.013   6.844   5.899 -0.1414  0.1120 -0.3488
23769SOL    HW272749   0.051   6.991   5.899  1.0883 -0.1954 -0.4865
23770SOL     OW72750   5.393   1.775   6.404  0.2102  0.1056 -0.4246
23770SOL    HW172751   5.333   1.806   6.336 -1.6755 -2.3840 -0.0464
23770SOL    HW272752   5.373   1.828   6.481 -0.9704 -0.1279 -0.5475
23771SOL     OW72753   6.121   6.826   5.148  0.0886 -0.2629 -0.1802
23771SOL    HW172754   6.169   6.746   5.124  0.6215 -0.5595  1.7517
23771SOL    HW272755   6.063   6.799   5.219 -0.3190  0.9051 -0.0521
23772SOL     OW72756   6.817   0.464   4.900 -0.2925  0.4480 -0.0671
23772SOL    HW172757   6.770   0.423   4.972 -1.2679 -1.4277 -1.6793
23772SOL    HW272758   6.761   0.535   4.871 -0.9347 -0.1597 -0.3336
23773SOL     OW72759   7.657   1.249   1.726 -0.2292 -0.0147  0.0186
23773SOL    HW172760   7.628   1.291   1.645  0.6018  1.3290  0.3857
23773SOL    HW272761   7.647   1.316   1.793  0.2683 -0.7086  0.8044
23774SOL     OW72762   7.290   6.889   5.787 -0.4270  0.2237 -0.1135
23774SOL    HW172763   7.293   6.810   5.841  0.9686  1.2066  1.3405
23774SOL    HW272764   7.245   6.954   5.842 -1.4022  0.5267 -1.2162
23775SOL     OW72765   6.322   6.366   5.416  0.0107 -0.0904  0.0483
23775SOL    HW172766   6.332   6.455   5.382  0.1468 -0.1937 -0.1826
23775SOL    HW272767   6.300   6.313   5.339  1.8255 -0.5951 -0.1490
23776SOL     OW72768   5.315   6.918   4.969 -0.1891  0.3681 -0.9288
23776SOL    HW172769   5.314   6.961   5.054 -0.9087  0.5267 -1.0122
23776SOL    HW272770   5.254   6.844   4.978 -0.5147  0.5765 -1.4004
23777SOL     OW72771   6.446   7.781   6.433  0.0082  0.2725 -0.2787
23777SOL    HW172772   6.393   7.767   6.354  1.1176 -0.8276 -0.8694
23777SOL    HW272773   6.387   7.759   6.505 -0.4221 -0.7855 -0.9183
23778SOL     OW72774   5.723   0.163   4.494  0.0584  0.4272 -0.2038
23778SOL    HW172775   5.768   0.158   4.578 -2.8628  0.2184  1.4645
23778SOL    HW272776   5.670   0.242   4.500 -1.0906 -0.2191 -1.3860
23779SOL     OW72777   7.001   7.643   6.163 -0.7729  0.7711  0.1581
23779SOL    HW172778   7.085   7.661   6.205  0.1667 -0.4682 -1.0776
23779SOL    HW272779   6.935   7.665   6.229  0.5518  1.1874  1.3737
23780SOL     OW72780   7.066   1.086   5.680 -0.4298 -0.3724  0.2015
23780SOL    HW172781   6.988   1.038   5.652  0.2228 -1.5688  0.4035
23780SOL    HW272782   7.052   1.102   5.774 -0.4014 -0.6395  0.2508
23781SOL     OW72783   6.160   7.475   5.632 -0.2676 -0.2597  0.1186
23781SOL    HW172784   6.250   7.463   5.603 -0.4485 -1.8122  0.1358
23781SOL    HW272785   6.152   7.420   5.710 -0.6195  1.6058  1.4641
23782SOL     OW72786   6.530   7.528   5.667  0.0090  0.4415  0.0450
23782SOL    HW172787   6.481   7.566   5.594  0.3546 -0.3335 -0.5982
23782SOL    HW272788   6.608   7.490   5.627 -0.2072 -0.7240  0.6968
23783SOL     OW72789   7.385   6.305   6.640 -0.1369 -0.3544  0.2445
23783SOL    HW172790   7.474   6.337   6.625 -0.2927  0.3721  0.8625
23783SOL    HW272791   7.398   6.216   6.673  0.2666 -1.3394 -2.3295
23784SOL     OW72792   6.303   6.976   5.692  0.1953 -0.1168 -0.0975
23784SOL    HW172793   6.278   7.002   5.604  0.0138 -0.7410 -0.2320
23784SOL    HW272794   6.291   6.881   5.694 -2.1814  0.1385  1.3317
23785SOL     OW72795   6.156   0.373   4.010  0.3435 -0.4094 -0.0503
23785SOL    HW172796   6.232   0.326   4.045 -0.3878 -1.2545  0.4639
23785SOL    HW272797   6.168   0.463   4.038  1.0158 -0.5953  0.2719
23786SOL     OW72798   6.376   7.553   4.816  0.0286  0.5507  0.1062
23786SOL    HW172799   6.313   7.528   4.748  0.8093 -1.1038 -0.0710
23786SOL    HW272800   6.345   7.508   4.895  2.4719 -2.7844 -0.6344
23787SOL     OW72801   7.239   5.877   2.799 -0.1077  0.4670  0.4508
23787SOL    HW172802   7.199   5.791   2.806 -0.9993  0.9176  1.0492
23787SOL    HW272803   7.267   5.898   2.888 -1.0315  1.3199  0.5579
23788SOL     OW72804   6.727   0.149   4.496  0.3919  1.0365 -0.0435
23788SOL    HW172805   6.715   0.055   4.485  0.0110  1.2654 -1.7479
23788SOL    HW272806   6.805   0.157   4.551  1.6262 -0.2556 -1.5448
23789SOL     OW72807   4.938   0.269   6.095  0.6347  0.2334 -0.0106
23789SOL    HW172808   4.985   0.352   6.101  1.1200 -0.0438  0.1121
23789SOL    HW272809   4.881   0.268   6.172  1.0950  0.1748  0.3320
23790SOL     OW72810   6.505   1.084   6.629  0.3428  0.1527 -0.1966
23790SOL    HW172811   6.515   1.121   6.542 -1.7784  0.6868 -0.2480
23790SOL    HW272812   6.500   0.989   6.614 -0.6039  0.2765 -0.7325
23791SOL     OW72813   5.135   0.532   6.865  0.2974 -0.1893 -0.2033
23791SOL    HW172814   5.214   0.583   6.847 -0.2817  1.0847  0.7140
23791SOL    HW272815   5.076   0.555   6.793  0.5309 -0.6474 -0.5430
23792SOL     OW72816   7.210   0.443   6.864 -0.2761  0.0556 -0.3482
23792SOL    HW172817   7.124   0.438   6.823 -0.1310  0.5084 -0.7143
23792SOL    HW272818   7.193   0.433   6.957 -0.7682  0.5844 -0.3796
23793SOL     OW72819   4.721   5.957   5.783  0.4193  0.2444  0.5245
23793SOL    HW172820   4.699   5.865   5.770  0.9260  0.1319  0.4125
23793SOL    HW272821   4.752   5.963   5.873 -1.2703  0.6551  1.1103
23794SOL     OW72822   5.845   7.950   4.376  0.1727  0.4938  0.0905
23794SOL    HW172823   5.758   7.972   4.411  0.5899  0.4714  1.1754
23794SOL    HW272824   5.899   8.026   4.396  1.0741 -0.5475  1.9057
23795SOL     OW72825   6.119   0.615   3.110 -0.0986 -0.6179  0.2395
23795SOL    HW172826   6.147   0.539   3.058  2.6664  0.7432 -0.4754
23795SOL    HW272827   6.034   0.590   3.146 -0.4136 -3.0846 -1.9216
23796SOL     OW72828   7.894   7.265   4.761  0.6807  0.5859 -0.0559
23796SOL    HW172829   7.834   7.232   4.828  1.0942  1.2419  0.6514
23796SOL    HW272830   7.971   7.210   4.769  1.1293  1.3156  0.7063
23797SOL     OW72831   6.724   5.217   5.905  0.0367  0.1181 -0.7262
23797SOL    HW172832   6.791   5.167   5.860 -0.4697 -0.6630 -0.6277
23797SOL    HW272833   6.650   5.219   5.844  0.0095  0.6452 -0.6822
23798SOL     OW72834   5.961   5.345   4.241 -0.7182  0.5755 -0.4344
23798SOL    HW172835   5.916   5.295   4.309  1.6651 -0.9332  0.1460
23798SOL    HW272836   5.942   5.437   4.262  0.3559  0.2072  2.6692
23799SOL     OW72837   6.467   6.680   4.228  0.0355  0.3583 -0.1507
23799SOL    HW172838   6.380   6.674   4.188 -0.3040  1.0431  0.4520
23799SOL    HW272839   6.526   6.643   4.162 -0.9153 -2.0124  0.1993
23800SOL     OW72840   7.131   7.698   4.096 -0.7109  0.4322 -1.3438
23800SOL    HW172841   7.205   7.759   4.102 -0.2484 -0.2490  3.5898
23800SOL    HW272842   7.172   7.612   4.085 -0.6577  0.1049  0.9557
23801SOL     OW72843   5.721   7.261   3.421 -0.7562  0.2551  0.0485
23801SOL    HW172844   5.758   7.249   3.509  1.2012  0.2560 -0.7297
23801SOL    HW272845   5.669   7.182   3.407 -1.9119  0.6928  1.5646
23802SOL     OW72846   5.999   0.202   6.528  0.0517  0.2572  0.2092
23802SOL    HW172847   6.092   0.209   6.508 -0.4038  0.7110 -2.0589
23802SOL    HW272848   5.969   0.293   6.530 -0.4500  0.0907  0.2413
23803SOL     OW72849   5.312   1.117   5.446 -0.3214  0.6539  0.2665
23803SOL    HW172850   5.314   1.109   5.351 -0.7903  1.0121  0.2185
23803SOL    HW272851   5.404   1.112   5.473 -0.2642 -0.5561 -0.0974
23804SOL     OW72852   1.846   6.705   4.492  0.1070  0.4840  0.2703
23804SOL    HW172853   1.800   6.785   4.516 -0.8938 -0.0008  0.0408
23804SOL    HW272854   1.923   6.703   4.549 -0.6352  0.8691  1.3196
23805SOL     OW72855   5.297   7.714   4.610 -0.1115  0.1530 -0.0409
23805SOL    HW172856   5.247   7.679   4.536  0.6258 -1.3432  0.1272
23805SOL    HW272857   5.245   7.788   4.642 -0.4170  0.8793 -2.0842
23806SOL     OW72858   7.499   0.690   5.079  0.5032 -0.1113  0.0172
23806SOL    HW172859   7.534   0.773   5.112 -2.3265  2.1917 -2.1637
23806SOL    HW272860   7.423   0.673   5.134  0.1555 -0.3647 -0.5331
23807SOL     OW72861   7.277   0.452   5.620  0.2080 -0.1750  0.3438
23807SOL    HW172862   7.366   0.471   5.588 -0.3833 -0.1480 -1.4304
23807SOL    HW272863   7.233   0.538   5.619  0.3281 -0.0724  1.8685
23808SOL     OW72864   1.311   0.925   4.790  0.4559 -0.0523  0.3856
23808SOL    HW172865   1.357   0.894   4.712  1.5219  2.5429 -0.1533
23808SOL    HW272866   1.376   0.916   4.860  0.0406 -0.9268  0.6689
23809SOL     OW72867   6.259   0.782   4.867  0.4016 -0.2335  0.4762
23809SOL    HW172868   6.172   0.798   4.830  1.1523 -0.3413 -1.4010
23809SOL    HW272869   6.246   0.708   4.927 -1.0086  0.4953  1.1177
23810SOL     OW72870   6.334   7.784   5.886 -0.8530 -0.1790 -0.3483
23810SOL    HW172871   6.301   7.790   5.796 -0.8306  0.9944 -0.2971
23810SOL    HW272872   6.288   7.709   5.923 -0.3834 -1.0880 -1.5296
23811SOL     OW72873   5.624   6.748   6.611 -0.5408 -0.5333  0.2528
23811SOL    HW172874   5.581   6.675   6.654  0.5897 -2.2223 -1.3345
23811SOL    HW272875   5.602   6.738   6.518  0.7431  0.3301 -0.1767
23812SOL     OW72876   5.503   7.824   3.585  0.2671 -0.2650 -0.0673
23812SOL    HW172877   5.577   7.834   3.525 -0.8649  1.2308 -1.3074
23812SOL    HW272878   5.516   7.892   3.651 -0.2608  0.3869 -0.6149
23813SOL     OW72879   6.748   1.054   5.430  0.2202 -0.5770 -0.0289
23813SOL    HW172880   6.667   1.017   5.395 -0.2857  0.4433  0.0124
23813SOL    HW272881   6.805   1.064   5.354  0.0552 -0.6766 -0.1657
23814SOL     OW72882   5.927   7.221   5.056  0.6230  0.8701 -0.1962
23814SOL    HW172883   6.021   7.235   5.068  0.3217  1.4665  1.7771
23814SOL    HW272884   5.885   7.284   5.114 -0.9755 -0.5494  0.2747
23815SOL     OW72885   7.367   1.282   4.530 -0.1936 -0.0989 -0.2536
23815SOL    HW172886   7.412   1.207   4.570 -0.1902 -0.3810 -0.7806
23815SOL    HW272887   7.296   1.243   4.480 -0.0673  0.2357 -0.6970
23816SOL     OW72888   7.909   7.124   4.386 -0.6421 -0.1621 -0.3252
23816SOL    HW172889   7.987   7.087   4.344 -1.0521 -1.1302 -0.2735
23816SOL    HW272890   7.935   7.212   4.412 -0.5289  0.7069 -3.0698
23817SOL     OW72891   6.902   1.194   6.100  0.0474 -0.2787  0.4932
23817SOL    HW172892   6.836   1.181   6.168 -1.0141  0.6779 -0.3238
23817SOL    HW272893   6.918   1.288   6.100  2.2270 -0.6009  1.3883
23818SOL     OW72894   5.262   0.807   8.018  0.3455 -0.4895  0.3067
23818SOL    HW172895   5.260   0.900   8.043  1.5709 -0.0814 -0.9586
23818SOL    HW272896   5.283   0.761   8.100  1.5262  0.5332  0.6249
23819SOL     OW72897   6.734   1.708   5.387  0.1169 -0.0535  0.7015
23819SOL    HW172898   6.768   1.648   5.320  0.7473  0.2039  0.7909
23819SOL    HW272899   6.806   1.720   5.448 -1.1398 -2.1231  2.7705
23820SOL     OW72900   6.192   0.451   7.783 -0.0861 -0.3492  0.1411
23820SOL    HW172901   6.129   0.513   7.820 -0.2844 -0.8537  0.6624
23820SOL    HW272902   6.146   0.367   7.783 -0.1625 -0.3329 -1.4503
23821SOL     OW72903   5.688   0.071   7.426 -0.3245 -0.0681 -0.5467
23821SOL    HW172904   5.750   0.143   7.423 -0.8760  0.4402 -0.1084
23821SOL    HW272905   5.742  -0.008   7.423  0.3248  0.3641 -0.4099
23822SOL     OW72906   0.203   6.401   7.336  0.4168 -0.0175 -0.3285
23822SOL    HW172907   0.296   6.388   7.356  0.5984 -0.7118 -1.4876
23822SOL    HW272908   0.160   6.323   7.371  0.2291  0.4153  0.4157
23823SOL     OW72909   5.159   1.117   8.110 -0.3529  0.2245  0.3750
23823SOL    HW172910   5.219   1.096   8.038 -0.1563 -0.1143  0.6326
23823SOL    HW272911   5.130   1.206   8.091  1.7184  1.1614  1.2315
23824SOL     OW72912   0.721   7.808   7.386  0.6453 -0.0369 -0.1415
23824SOL    HW172913   0.641   7.804   7.333  0.2081  1.4189  0.3553
23824SOL    HW272914   0.701   7.757   7.464  0.8127 -1.0581 -0.7440
23825SOL     OW72915   5.383   7.936   8.529 -0.0494  0.1072 -0.1804
23825SOL    HW172916   5.410   7.961   8.617 -0.4464 -0.0053 -0.0257
23825SOL    HW272917   5.288   7.947   8.528  0.0760  1.4583 -1.0192
23826SOL     OW72918   0.193   6.787   6.712 -0.0522 -0.2610  0.4546
23826SOL    HW172919   0.123   6.726   6.688  0.8677 -0.8574 -0.8944
23826SOL    HW272920   0.265   6.730   6.738  0.5567  0.2598 -0.0523
23827SOL     OW72921   7.366   6.055   7.068  0.5535  0.1248  0.2629
23827SOL    HW172922   7.435   5.989   7.060 -0.1533 -0.5804 -0.1565
23827SOL    HW272923   7.344   6.078   6.978  1.1974  1.3905  0.4020
23828SOL     OW72924   5.629   0.166   7.113  0.1767 -0.1022  0.0387
23828SOL    HW172925   5.573   0.165   7.035  1.2713 -1.0880 -0.7664
23828SOL    HW272926   5.570   0.146   7.185 -0.5457 -0.9604 -0.7674
23829SOL     OW72927   6.054   7.921   8.562  0.2302 -0.6421  0.0038
23829SOL    HW172928   6.067   7.958   8.475  1.0690 -1.7743 -0.3765
23829SOL    HW272929   6.094   7.834   8.558  3.2751  0.4742  2.4548
23830SOL     OW72930   6.026   0.847   8.068 -0.1111 -0.1847 -0.5242
23830SOL    HW172931   6.000   0.895   8.147 -1.0380  0.2623 -1.0892
23830SOL    HW272932   6.019   0.910   7.997 -1.1693 -1.0840 -1.2600
23831SOL     OW72933   7.667   0.468   8.080 -0.7456  0.1866 -0.2818
23831SOL    HW172934   7.736   0.439   8.021  0.2049 -1.1570  1.4254
23831SOL    HW272935   7.596   0.404   8.068 -1.2254  0.8303 -1.0774
23832SOL     OW72936   4.674   0.365   7.863 -0.0884 -0.7062 -0.7736
23832SOL    HW172937   4.591   0.409   7.846 -0.4142 -1.4245 -1.0943
23832SOL    HW272938   4.738   0.413   7.811 -0.3844 -0.4256 -0.8794
23833SOL     OW72939   4.506   7.995   7.513 -0.2144  0.0362  0.0814
23833SOL    HW172940   4.546   8.048   7.582 -0.5771 -0.7551  0.9191
23833SOL    HW272941   4.412   8.009   7.523 -0.2267  1.5394 -1.6013
23834SOL     OW72942   7.169   0.196   6.025  0.0852  0.8534 -0.3422
23834SOL    HW172943   7.086   0.236   5.998 -0.0009  0.8809 -0.0403
23834SOL    HW272944   7.179   0.220   6.117  0.1934  0.4562 -0.2470
23835SOL     OW72945   6.443   0.244   7.258 -0.1589 -0.2504 -0.0997
23835SOL    HW172946   6.416   0.289   7.337  0.0379  0.7585 -0.5882
23835SOL    HW272947   6.407   0.155   7.267 -1.5140  0.3156  0.3850
23836SOL     OW72948   6.868   0.462   7.214 -0.0273  0.1021  0.0687
23836SOL    HW172949   6.890   0.544   7.258 -0.4780  0.2444  0.0317
23836SOL    HW272950   6.779   0.475   7.182 -1.1139 -1.3474  2.3061
23837SOL     OW72951   4.138   0.147   7.203 -0.0696 -0.6483 -0.0565
23837SOL    HW172952   4.230   0.130   7.220  0.5469  0.7594 -1.7090
23837SOL    HW272953   4.107   0.191   7.282  1.1040  0.2948 -0.0940
23838SOL     OW72954   7.876   6.526   7.729  0.4203 -0.3928 -0.1176
23838SOL    HW172955   7.912   6.594   7.787  1.0385 -1.6158  0.9714
23838SOL    HW272956   7.919   6.542   7.645  0.8625  0.3110  0.2319
23839SOL     OW72957   5.995   6.615   6.173  0.5681  0.5448 -0.3236
23839SOL    HW172958   5.925   6.600   6.109  0.1781  1.7693 -0.2143
23839SOL    HW272959   5.949   6.645   6.252  1.1710  0.7858 -0.0583
23840SOL     OW72960   7.593   7.294   6.790 -0.4330  0.3375 -0.1740
23840SOL    HW172961   7.557   7.324   6.873 -1.1666 -2.0616  0.4565
23840SOL    HW272962   7.685   7.320   6.793 -0.6966  1.2104  0.9255
23841SOL     OW72963   5.453   1.707   6.897  0.1997  0.4307  0.1823
23841SOL    HW172964   5.445   1.771   6.968 -1.4542  0.5509 -0.0621
23841SOL    HW272965   5.364   1.699   6.862  0.8917  0.0674 -1.6140
23842SOL     OW72966   5.005   7.845   6.912  0.0900 -0.3900 -0.2658
23842SOL    HW172967   5.044   7.903   6.978  1.8899  0.0985 -1.6714
23842SOL    HW272968   5.069   7.775   6.901 -1.9726 -2.6371  1.2639
23843SOL     OW72969   7.644   7.569   6.810  0.0099 -0.1756  0.1631
23843SOL    HW172970   7.626   7.653   6.766  0.9968  0.8118  1.5741
23843SOL    HW272971   7.588   7.507   6.765 -0.2798  1.1183 -1.3585
23844SOL     OW72972   7.228   7.651   7.327 -0.3765 -0.0033 -0.0651
23844SOL    HW172973   7.258   7.704   7.401 -0.8183  0.4337 -0.1987
23844SOL    HW272974   7.156   7.599   7.362 -0.8231  0.4656 -0.2724
23845SOL     OW72975   0.192   7.815   7.261 -0.0118  0.1908 -0.1447
23845SOL    HW172976   0.209   7.755   7.333  1.6093  0.3651 -0.3444
23845SOL    HW272977   0.157   7.759   7.191 -0.5040 -0.1572  0.3685
23846SOL     OW72978   0.714   6.359   6.323  0.0763 -0.2081  0.0860
23846SOL    HW172979   0.765   6.279   6.310  0.4709 -0.0982  0.8327
23846SOL    HW272980   0.647   6.357   6.255  1.2624 -0.2135 -1.1181
23847SOL     OW72981   6.785   0.827   8.503  0.0823 -0.2140  0.4304
23847SOL    HW172982   6.753   0.747   8.545  0.1114  0.5919  2.0816
23847SOL    HW272983   6.778   0.810   8.409  2.8349 -3.3129  0.5979
23848SOL     OW72984   7.500   0.096   7.764  0.2028 -0.3725  0.0059
23848SOL    HW172985   7.527   0.112   7.855  2.3172 -0.7335 -0.4986
23848SOL    HW272986   7.546   0.016   7.740  1.0005  0.5882 -1.8682
23849SOL     OW72987   6.291   7.746   6.199 -0.4882  0.2417 -0.5120
23849SOL    HW172988   6.217   7.769   6.142 -1.6220  0.3632  0.9430
23849SOL    HW272989   6.288   7.651   6.205 -0.3506  0.2267 -0.6635
23850SOL     OW72990   5.744   0.450   8.286 -0.4317 -0.4491  0.3765
23850SOL    HW172991   5.707   0.369   8.251  0.0104 -1.1427  1.4699
23850SOL    HW272992   5.828   0.459   8.241 -0.2959 -0.8290  0.5426
23851SOL     OW72993   6.323   0.001   7.398 -0.3295  0.3914  0.3039
23851SOL    HW172994   6.234  -0.033   7.390 -0.2297  0.1939  0.0158
23851SOL    HW272995   6.379  -0.075   7.383 -0.0963  0.7779 -0.8191
23852SOL     OW72996   5.403   0.648   6.740  0.1908  0.1051 -0.0579
23852SOL    HW172997   5.473   0.623   6.679  2.3943  0.7233  2.0183
23852SOL    HW272998   5.374   0.734   6.710 -0.2875 -0.5059 -1.4138
23853SOL     OW72999   6.203   7.087   6.062  0.3066 -0.1877  0.5387
23853SOL    HW173000   6.154   7.009   6.037 -1.4866  0.5858  1.4650
23853SOL    HW273001   6.138   7.145   6.102  1.7265  1.4710  0.5833
23854SOL     OW73002   4.612   0.270   6.062  0.0954 -0.2303 -0.3921
23854SOL    HW173003   4.671   0.283   6.136  0.9509  0.4056 -1.1483
23854SOL    HW273004   4.527   0.251   6.101  0.8335 -1.3624  0.7414
23855SOL     OW73005   4.565   1.925   6.714 -0.0707  0.1244  0.0784
23855SOL    HW173006   4.546   1.939   6.807  0.4714 -0.7981  0.3453
23855SOL    HW273007   4.505   1.983   6.668  0.9506  2.0487  1.0423
23856SOL     OW73008   0.639   7.842   5.492 -0.1735  0.3071  0.1694
23856SOL    HW173009   0.724   7.815   5.457  0.8373  1.1761  1.8058
23856SOL    HW273010   0.595   7.759   5.514  0.5607 -0.1342  0.0195
23857SOL     OW73011   5.741   0.325   6.448  0.2122 -0.0760 -0.6877
23857SOL    HW173012   5.647   0.315   6.437 -0.4794  1.1102  2.9025
23857SOL    HW273013   5.773   0.237   6.466 -0.8029 -0.1103  1.1820
23858SOL     OW73014   6.328   1.226   9.269 -0.2476 -0.0265 -0.1140
23858SOL    HW173015   6.327   1.172   9.348  1.5407 -0.7509 -0.5439
23858SOL    HW273016   6.419   1.256   9.261 -0.9433  2.1497 -0.5115
23859SOL     OW73017   7.968   0.509   8.746  0.7379 -0.5336 -0.2852
23859SOL    HW173018   7.973   0.603   8.727  2.5328 -0.6141 -0.3890
23859SOL    HW273019   7.883   0.482   8.711  0.0291  1.1016  0.0571
23860SOL     OW73020   6.896   0.471   7.732 -0.0546 -0.2621  0.3936
23860SOL    HW173021   6.974   0.526   7.738 -0.8001  0.8660  0.0549
23860SOL    HW273022   6.833   0.513   7.791 -1.3179  0.4482 -1.3686
23861SOL     OW73023   4.807   1.843   6.522 -0.7466 -0.0543  0.2309
23861SOL    HW173024   4.802   1.820   6.429 -0.1451  0.2549  0.1129
23861SOL    HW273025   4.772   1.767   6.568 -2.6331  0.4380 -0.3036
23862SOL     OW73026   6.609   0.986   7.751 -0.1509  0.1313 -0.3495
23862SOL    HW173027   6.553   1.064   7.756 -0.9429 -0.3100 -1.6848
23862SOL    HW273028   6.549   0.912   7.756 -0.0284 -0.3635 -3.6649
23863SOL     OW73029   6.724   7.382   6.755 -0.0875 -0.2631 -0.0161
23863SOL    HW173030   6.659   7.412   6.818  0.8852 -0.1800  0.9622
23863SOL    HW273031   6.789   7.335   6.807  0.2099 -1.0932 -1.0854
23864SOL     OW73032   7.041   0.740   7.672  0.3165 -0.2971 -0.2093
23864SOL    HW173033   7.122   0.786   7.695  0.3493  0.1352 -1.1616
23864SOL    HW273034   6.971   0.796   7.706  0.4025 -0.5152  0.3375
23865SOL     OW73035   5.930   7.554   6.412  0.3926 -0.2179  0.4344
23865SOL    HW173036   5.845   7.565   6.455  0.2200 -1.6804  0.5421
23865SOL    HW273037   5.937   7.628   6.352 -2.0912 -1.2545 -1.3402
23866SOL     OW73038   7.352   0.476   6.107 -0.4684  0.0487  0.0273
23866SOL    HW173039   7.367   0.553   6.161 -2.2241  0.9576 -0.7056
23866SOL    HW273040   7.321   0.409   6.168 -0.8902  0.5627  0.3827
23867SOL     OW73041   7.511   0.644   5.914  0.2182 -0.0422 -0.3389
23867SOL    HW173042   7.471   0.581   5.974 -0.1366  1.7418  1.4089
23867SOL    HW273043   7.604   0.621   5.914  0.0909 -0.5931  0.2320
23868SOL     OW73044   4.491   2.310   6.361  0.4226 -0.3720 -0.6994
23868SOL    HW173045   4.534   2.287   6.278 -2.3707 -1.0663 -2.0527
23868SOL    HW273046   4.450   2.229   6.390 -1.4917  0.6457 -0.4391
23869SOL     OW73047   7.990   7.937   7.891  0.1622  0.7111 -0.0694
23869SOL    HW173048   8.007   7.938   7.797  2.2424 -1.5650  0.1928
23869SOL    HW273049   7.926   7.867   7.904  0.8894  0.1078  0.3239
23870SOL     OW73050   0.582   6.939   8.484  0.0780 -0.9419  0.0419
23870SOL    HW173051   0.594   6.872   8.417 -0.2548 -0.0995 -0.8894
23870SOL    HW273052   0.560   7.018   8.435  0.1398 -0.2247  1.1341
23871SOL     OW73053   5.253   7.580   6.437 -0.3662 -0.3033  0.4533
23871SOL    HW173054   5.242   7.627   6.354 -0.0430 -0.5908  0.2444
23871SOL    HW273055   5.176   7.524   6.443 -1.3911  1.1405  1.3077
23872SOL     OW73056   4.298   7.510   6.166 -0.2608 -0.0115 -1.2926
23872SOL    HW173057   4.223   7.562   6.138 -1.4126 -0.6143  0.4817
23872SOL    HW273058   4.278   7.421   6.135 -1.4774 -0.6544  1.1110
23873SOL     OW73059   5.331   0.567   7.261  0.0912 -0.1717  0.1383
23873SOL    HW173060   5.354   0.552   7.169  1.6316  0.5983  0.3820
23873SOL    HW273061   5.264   0.635   7.258  0.2133 -0.0723 -0.4020
23874SOL     OW73062   6.524   7.495   6.900 -0.0975 -0.0303 -0.5737
23874SOL    HW173063   6.535   7.590   6.889 -0.9089  0.0960 -0.4054
23874SOL    HW273064   6.443   7.487   6.950 -0.0127 -0.8178 -0.5587
23875SOL     OW73065   1.011   7.269   6.943  0.0748  0.0017  0.3509
23875SOL    HW173066   0.958   7.189   6.954 -1.2859  1.0396  1.9019
23875SOL    HW273067   1.040   7.266   6.852 -1.3002 -1.4546 -0.1066
23876SOL     OW73068   4.920   0.547   6.661  0.0051 -0.2133  0.2825
23876SOL    HW173069   4.915   0.534   6.566  2.0665  1.0013 -0.0463
23876SOL    HW273070   4.848   0.607   6.681 -1.2924 -1.5256 -0.2416
23877SOL     OW73071   0.778   7.963   8.162  0.9155 -0.2789 -0.6011
23877SOL    HW173072   0.853   8.017   8.136  0.6533  0.2467 -0.2898
23877SOL    HW273073   0.789   7.882   8.114  3.4386 -1.5175  1.7688
23878SOL     OW73074   7.187   0.182   9.148  0.5677  0.0453  0.8640
23878SOL    HW173075   7.166   0.247   9.081 -0.7147  0.3472  1.5298
23878SOL    HW273076   7.240   0.231   9.212  3.2930 -0.6593 -0.6976
23879SOL     OW73077   5.828   0.093   6.018  0.2877 -0.4962  0.5572
23879SOL    HW173078   5.861   0.004   6.005 -2.2757 -1.5474  0.6220
23879SOL    HW273079   5.864   0.121   6.102  1.4212 -1.2907  0.3573
23880SOL     OW73080   5.265   2.383   6.785  0.3032 -0.1963  0.3988
23880SOL    HW173081   5.349   2.428   6.797  0.0053 -0.1432  2.7658
23880SOL    HW273082   5.207   2.423   6.850 -0.9677 -1.6426  0.2109
23881SOL     OW73083   5.296   0.368   7.932  0.6560 -0.1732 -0.5289
23881SOL    HW173084   5.379   0.344   7.891  0.0677 -0.6134 -1.4929
23881SOL    HW273085   5.230   0.353   7.864 -0.3380 -0.8208  0.5338
23882SOL     OW73086   7.719   5.132   5.891 -0.7488 -0.3200  0.4998
23882SOL    HW173087   7.653   5.198   5.910 -1.0251 -0.8182  1.3081
23882SOL    HW273088   7.801   5.170   5.923 -1.1754 -1.0648  2.6309
23883SOL     OW73089   7.278   7.555   6.102 -0.1836  0.2401 -0.1336
23883SOL    HW173090   7.366   7.589   6.086  0.2577 -1.3821 -1.4550
23883SOL    HW273091   7.223   7.594   6.035  0.0656 -0.6202 -0.8607
23884SOL     OW73092   6.904   0.283   6.012 -0.2948 -0.1292  0.0031
23884SOL    HW173093   6.877   0.238   6.092  0.3276 -0.2330  0.1544
23884SOL    HW273094   6.893   0.376   6.031 -1.8341 -0.1885 -0.3950
23885SOL     OW73095   0.220   7.363   8.275  0.2039 -0.2578 -0.7466
23885SOL    HW173096   0.233   7.283   8.326  2.2207  1.1082  1.0132
23885SOL    HW273097   0.238   7.336   8.185 -1.9474 -2.3664 -0.6592
23886SOL     OW73098   5.798   0.272   7.965 -0.4469 -0.0231  0.0930
23886SOL    HW173099   5.843   0.356   7.954  0.1613 -0.1673  1.2966
23886SOL    HW273100   5.708   0.290   7.939 -0.4251  1.1245  0.7200
23887SOL     OW73101   0.259   0.054   7.349  0.2220 -0.1839 -0.1428
23887SOL    HW173102   0.300   0.007   7.421  1.5785  0.2130 -0.6266
23887SOL    HW273103   0.191  -0.006   7.317 -0.5958 -0.2526  1.5951
23888SOL     OW73104   6.657   0.766   7.421  0.0581  0.1501  0.0901
23888SOL    HW173105   6.631   0.680   7.454 -0.8211  0.3188 -0.1559
23888SOL    HW273106   6.586   0.825   7.446  0.0297  0.5551 -0.8871
23889SOL     OW73107   0.930   0.230   9.456 -0.2152  0.5363  0.1891
23889SOL    HW173108   1.009   0.177   9.455 -1.1108 -0.8592 -0.9865
23889SOL    HW273109   0.891   0.214   9.542 -0.3957 -0.6534 -0.0914
23890SOL     OW73110   0.406   0.347   9.070 -0.1621  0.5581 -0.4513
23890SOL    HW173111   0.423   0.441   9.064  0.2728  0.5336  0.2985
23890SOL    HW273112   0.481   0.306   9.026 -0.0024  0.5466 -0.1719
23891SOL     OW73113   0.391   0.605   7.072  0.3963 -0.0707 -0.5792
23891SOL    HW173114   0.298   0.597   7.094  0.4946 -0.2511 -0.2350
23891SOL    HW273115   0.400   0.557   6.989  0.1066  0.2769 -0.8124
23892SOL     OW73116   1.009   7.607   7.954 -0.3338 -0.2805  0.2026
23892SOL    HW173117   1.104   7.618   7.958 -0.4052  0.0059  1.6401
23892SOL    HW273118   0.980   7.670   7.888  0.2651  1.3501  1.4149
23893SOL     OW73119   7.115   5.105   9.593  0.0107 -0.0674  0.4159
23893SOL    HW173120   7.183   5.038   9.604 -0.6643 -0.4784  2.7237
23893SOL    HW273121   7.161   5.179   9.553  1.3996 -0.9555  0.2771
23894SOL     OW73122   7.290   0.390   8.695 -0.0913  0.6714  0.2285
23894SOL    HW173123   7.381   0.392   8.664 -0.3384  0.9816 -0.4753
23894SOL    HW273124   7.246   0.459   8.646 -0.8118  0.2417  0.2600
23895SOL     OW73125   6.816   0.592  10.510  0.4614  0.0565  0.4103
23895SOL    HW173126   6.854   0.560  10.428  0.9014 -1.1793  1.0820
23895SOL    HW273127   6.737   0.540  10.521  1.2223 -0.9006  1.5505
23896SOL     OW73128   0.696   0.605   8.269  0.1199 -0.7404 -0.8044
23896SOL    HW173129   0.773   0.608   8.213  1.3236  3.8394  0.6720
23896SOL    HW273130   0.731   0.607   8.358 -1.5496  1.5506 -0.0805
23897SOL     OW73131   5.465   6.168   8.821  0.1270 -0.1154 -1.4137
23897SOL    HW173132   5.526   6.183   8.749 -0.9977 -0.3823 -2.4439
23897SOL    HW273133   5.378   6.181   8.783 -0.4911  0.0944 -0.0179
23898SOL     OW73134   5.638   7.267   7.806 -0.3621 -0.4550 -0.8886
23898SOL    HW173135   5.628   7.226   7.720  0.5327  1.2559 -1.8780
23898SOL    HW273136   5.688   7.204   7.858 -0.4589 -1.2877 -1.7800
23899SOL     OW73137   5.861   7.601   9.649 -0.2836  0.4779  0.4056
23899SOL    HW173138   5.846   7.552   9.730 -1.0611  2.1664  1.3350
23899SOL    HW273139   5.773   7.619   9.615  0.0163  0.4196 -0.4282
23900SOL     OW73140   6.987   7.008   8.815  0.1236 -0.8557 -0.1376
23900SOL    HW173141   7.053   7.026   8.881 -1.8711  0.0474  1.7548
23900SOL    HW273142   6.964   6.916   8.828 -0.5007 -0.5933  0.7011
23901SOL     OW73143   6.831   0.367   8.970  0.2872 -0.0268 -0.2865
23901SOL    HW173144   6.850   0.287   9.020 -0.8470  0.1709  0.4901
23901SOL    HW273145   6.865   0.348   8.882 -0.0064 -1.3809 -0.1372
23902SOL     OW73146   7.283   5.565   9.481 -0.2871  0.0824  0.6039
23902SOL    HW173147   7.272   5.470   9.487 -1.9258  0.0228 -1.8938
23902SOL    HW273148   7.198   5.600   9.509 -0.6829  0.6150 -1.1297
23903SOL     OW73149   0.152   6.542   9.852  0.5722  0.3986  0.0208
23903SOL    HW173150   0.175   6.477   9.785 -0.7894  0.4325 -0.5230
23903SOL    HW273151   0.134   6.622   9.802 -0.1948  0.4987  0.4368
23904SOL     OW73152   6.771   0.081   8.901  0.0815 -0.0755 -0.1906
23904SOL    HW173153   6.837   0.012   8.907 -0.7307 -0.8464  0.1715
23904SOL    HW273154   6.694   0.044   8.946 -0.6305  0.7410 -0.7132
23905SOL     OW73155   7.780   6.917   7.767  0.2585  0.1341 -0.2543
23905SOL    HW173156   7.816   6.996   7.726  1.0655  0.7740  1.5692
23905SOL    HW273157   7.856   6.861   7.782  0.2127  0.4836  1.4958
23906SOL     OW73158   7.363   1.802   7.882 -0.2560  0.2920  0.0840
23906SOL    HW173159   7.426   1.855   7.834  0.4927 -1.4486 -0.9645
23906SOL    HW273160   7.412   1.771   7.959 -0.4132  0.4156  0.2343
23907SOL     OW73161   7.477   6.574   8.334 -0.3461 -1.3121 -0.2376
23907SOL    HW173162   7.507   6.484   8.324  0.6393 -0.8761 -1.5590
23907SOL    HW273163   7.385   6.566   8.361 -0.5182 -2.7239 -1.1202
23908SOL     OW73164   4.185   5.602   9.805  0.8519 -0.5849  0.0494
23908SOL    HW173165   4.236   5.640   9.733 -0.7720  0.2160 -0.7250
23908SOL    HW273166   4.164   5.514   9.776 -0.0843 -0.1478 -0.6199
23909SOL     OW73167   0.207   7.418   8.790  0.2077 -0.1837 -0.7974
23909SOL    HW173168   0.231   7.330   8.762 -0.7787 -0.3099 -1.2759
23909SOL    HW273169   0.147   7.449   8.722  1.6051  1.4048 -1.3876
23910SOL     OW73170   7.641   0.692   8.253 -0.1104  0.0039  0.2422
23910SOL    HW173171   7.669   0.624   8.191  0.7168 -1.2794  1.9304
23910SOL    HW273172   7.575   0.648   8.308 -2.9727  1.9155 -1.3734
23911SOL     OW73173   7.413   7.564   8.237  0.5431  0.2466 -0.5552
23911SOL    HW173174   7.375   7.485   8.276  1.7223  0.1454  0.4396
23911SOL    HW273175   7.422   7.543   8.144 -3.3850  0.9090 -1.2338
23912SOL     OW73176   6.465   7.689   7.649  0.5003 -0.1240 -0.0046
23912SOL    HW173177   6.437   7.679   7.558  1.0538 -2.0484  0.0080
23912SOL    HW273178   6.560   7.678   7.647  0.2547 -3.6452  1.1413
23913SOL     OW73179   0.264   1.574   9.317  0.5621 -0.6160 -0.3170
23913SOL    HW173180   0.301   1.620   9.393 -1.2324 -0.7243  0.6775
23913SOL    HW273181   0.256   1.640   9.250  0.9522 -0.2085  0.0317
23914SOL     OW73182   5.633   1.961   8.030  0.4816 -0.3653  0.1663
23914SOL    HW173183   5.555   2.006   7.996  1.0183 -1.4055 -2.6977
23914SOL    HW273184   5.599   1.902   8.098 -1.2079 -0.5631 -0.7958
23915SOL     OW73185   5.537   7.818  10.624 -0.3907  0.2251  0.4671
23915SOL    HW173186   5.547   7.825  10.529 -1.8718  0.9375  0.3292
23915SOL    HW273187   5.551   7.725  10.643 -2.0510 -0.3250 -0.7392
23916SOL     OW73188   0.106   7.723   8.857  0.0979  0.2470 -0.6976
23916SOL    HW173189   0.143   7.750   8.941  1.3573 -0.2831 -1.0522
23916SOL    HW273190   0.090   7.629   8.866  2.9636 -0.4785 -1.9148
23917SOL     OW73191   1.692   1.438   8.890  0.1937  0.7757  0.0358
23917SOL    HW173192   1.742   1.360   8.913 -0.3192  0.3366 -0.3118
23917SOL    HW273193   1.636   1.454   8.966 -0.6852 -0.0103 -0.4227
23918SOL     OW73194   6.704   1.211   8.381 -0.0783 -0.2437  0.0318
23918SOL    HW173195   6.651   1.243   8.309  0.5096  0.8669  0.0606
23918SOL    HW273196   6.644   1.161   8.436 -1.0385  0.7917 -0.0476
23919SOL     OW73197   6.278   5.180  11.014 -0.2675  0.1766  0.1875
23919SOL    HW173198   6.190   5.145  11.025  0.0005 -0.4104  0.5648
23919SOL    HW273199   6.335   5.102  11.015  0.4202  0.6618  1.8357
23920SOL     OW73200   7.403   0.279   9.357 -0.2072  0.0428  0.0643
23920SOL    HW173201   7.469   0.342   9.328  0.0669 -0.0101  0.5589
23920SOL    HW273202   7.338   0.332   9.403  0.3141 -0.0930  0.9814
23921SOL     OW73203   5.973   7.932   8.194  0.0935  0.3337  0.2912
23921SOL    HW173204   5.928   8.005   8.235 -1.5977 -1.3323  1.5331
23921SOL    HW273205   6.051   7.919   8.248 -0.2247  0.4500  0.7856
23922SOL     OW73206   7.734   6.981   8.514  0.5283 -0.2851 -0.2048
23922SOL    HW173207   7.655   6.929   8.500  1.6035 -1.4833 -2.2780
23922SOL    HW273208   7.765   7.002   8.425  3.2762 -1.0402  0.4917
23923SOL     OW73209   6.848   7.870   7.760 -0.0430  0.5358 -0.6057
23923SOL    HW173210   6.835   7.953   7.714 -2.2986 -0.6746 -2.3392
23923SOL    HW273211   6.858   7.805   7.691 -0.5803 -0.9543  0.6605
23924SOL     OW73212   6.890   2.180   8.263  0.1970  0.0298 -0.5331
23924SOL    HW173213   6.881   2.107   8.324  0.5733  0.7088  0.3676
23924SOL    HW273214   6.966   2.229   8.296 -0.7607  1.4928 -0.3870
23925SOL     OW73215   7.492   0.708   5.506 -0.0080  0.5320 -0.2150
23925SOL    HW173216   7.505   0.799   5.478 -0.4146  0.7815  0.3662
23925SOL    HW273217   7.418   0.677   5.454  0.0012  0.6055 -0.2719
23926SOL     OW73218   5.185   7.479   8.794  0.2773 -0.2890  0.2137
23926SOL    HW173219   5.165   7.532   8.716 -0.1609 -1.7897 -0.7384
23926SOL    HW273220   5.279   7.492   8.809 -0.0812  1.9559  0.9746
23927SOL     OW73221   0.266   7.176   8.644  0.2930  0.0349  0.3450
23927SOL    HW173222   0.236   7.167   8.554  0.3253  0.8591  0.2441
23927SOL    HW273223   0.241   7.093   8.686  0.2514 -0.3409 -0.4059
23928SOL     OW73224   7.690   0.746   8.949 -0.6876  0.2552  0.2559
23928SOL    HW173225   7.636   0.702   8.884  0.6140 -1.6758  0.4130
23928SOL    HW273226   7.640   0.824   8.973 -2.6119 -0.6068 -0.7730
23929SOL     OW73227   6.070   7.910   6.523  0.0404 -0.0988 -0.5913
23929SOL    HW173228   6.079   7.870   6.610  1.6306 -0.5468 -0.9366
23929SOL    HW273229   6.120   7.991   6.528 -1.5238  0.8988 -0.5102
23930SOL     OW73230   3.580   2.596   7.941 -0.3268 -0.2314 -0.2176
23930SOL    HW173231   3.667   2.632   7.926 -0.7299  0.4531 -1.0452
23930SOL    HW273232   3.588   2.546   8.022  0.7760 -0.0003 -0.1673
23931SOL     OW73233   6.003   7.503   7.069  0.0880  0.6592  0.0428
23931SOL    HW173234   6.058   7.431   7.040 -0.6583 -0.0886  0.4456
23931SOL    HW273235   6.056   7.550   7.133  0.3831  0.1616  0.1628
23932SOL     OW73236   7.219   1.690   9.418  1.0102 -0.8032  0.0606
23932SOL    HW173237   7.245   1.734   9.499  1.9664 -0.0067 -0.6511
23932SOL    HW273238   7.133   1.727   9.397  2.0933  1.2890 -0.8872
23933SOL     OW73239   7.288   6.972   8.568  0.3001 -0.9056  0.6944
23933SOL    HW173240   7.197   6.942   8.577  0.0360 -0.5177 -0.5093
23933SOL    HW273241   7.288   7.061   8.603 -0.2171 -0.2314 -0.9168
23934SOL     OW73242   0.396   6.199   8.160 -0.3833  0.3579  0.0894
23934SOL    HW173243   0.423   6.116   8.122  0.8670  0.4155  0.7969
23934SOL    HW273244   0.465   6.261   8.135  0.3126  0.4736  2.0937
23935SOL     OW73245   1.028   0.146   9.086 -0.3333 -0.2770 -0.1808
23935SOL    HW173246   0.934   0.158   9.069 -0.2264  0.3061 -0.3786
23935SOL    HW273247   1.055   0.227   9.128 -0.3512 -1.2817  1.8487
23936SOL     OW73248   7.562   0.749   6.689 -0.1326  0.6065  0.3336
23936SOL    HW173249   7.642   0.698   6.673  0.0426  1.3033 -1.1415
23936SOL    HW273250   7.575   0.787   6.776  1.1840  0.7707  0.0913
23937SOL     OW73251   7.478   0.546   8.435  0.0352 -0.0124 -0.1982
23937SOL    HW173252   7.406   0.594   8.475 -0.2700  0.5378 -1.3792
23937SOL    HW273253   7.502   0.480   8.501  0.1351  1.4048  1.2596
23938SOL     OW73254   7.865   0.096   8.080 -0.0121  0.3840  0.1228
23938SOL    HW173255   7.945   0.147   8.084  1.4047 -1.7219  0.1362
23938SOL    HW273256   7.886   0.023   8.021 -1.8745 -0.3014  0.2386
23939SOL     OW73257   5.610   7.453  11.210 -0.4675  0.1566 -0.2190
23939SOL    HW173258   5.561   7.530  11.241 -1.2210 -0.0149 -0.9387
23939SOL    HW273259   5.576   7.381  11.262 -1.4151 -0.0559 -1.0870
23940SOL     OW73260   7.590   7.874   6.698  1.0135  0.1234  0.0490
23940SOL    HW173261   7.670   7.913   6.664  1.3329 -0.0185  0.6275
23940SOL    HW273262   7.559   7.936   6.764 -0.6688  1.3910 -1.7845
23941SOL     OW73263   5.803   0.715   8.302  0.8900 -0.6976  0.5308
23941SOL    HW173264   5.783   0.622   8.312  1.2317 -0.9234 -0.6342
23941SOL    HW273265   5.850   0.720   8.219  1.1822  0.4774  0.7442
23942SOL     OW73266   7.785   1.298   9.208 -0.0587  0.6070 -0.1567
23942SOL    HW173267   7.827   1.213   9.199  0.1534  0.6201  0.6117
23942SOL    HW273268   7.854   1.356   9.240 -0.7567  0.4861  1.7256
23943SOL     OW73269   7.672   7.894   7.694 -0.1691  0.2090  0.2654
23943SOL    HW173270   7.724   7.846   7.629 -2.9377 -1.0921 -1.1740
23943SOL    HW273271   7.637   7.825   7.750  0.0161  1.0970  1.4909
23944SOL     OW73272   6.216   0.867   7.840 -0.1725  0.5851 -0.0666
23944SOL    HW173273   6.218   0.817   7.922 -0.7555  0.0395 -0.3714
23944SOL    HW273274   6.163   0.944   7.860 -1.8090 -0.4234 -0.3902
23945SOL     OW73275   7.564   6.104   7.900  0.1130  0.0882  0.2820
23945SOL    HW173276   7.497   6.070   7.841  2.9903 -1.1235 -2.5965
23945SOL    HW273277   7.557   6.050   7.979 -2.8474  0.7146  0.5541
23946SOL     OW73278   7.963   1.054   7.986  0.2127  0.2682  0.0233
23946SOL    HW173279   8.008   1.035   7.904 -0.4173  1.4733 -0.6246
23946SOL    HW273280   7.943   0.968   8.023  1.7243 -0.2923 -0.3740
23947SOL     OW73281   6.281   7.990   9.948  0.5551  0.0703 -0.3578
23947SOL    HW173282   6.203   7.941   9.921  1.4929 -1.9233  0.4118
23947SOL    HW273283   6.247   8.057  10.007 -0.4482 -2.1643  1.7952
23948SOL     OW73284   0.084   7.346   9.142 -0.0940  0.0760  0.5895
23948SOL    HW173285   0.177   7.371   9.142 -0.4310  1.3700  0.1211
23948SOL    HW273286   0.075   7.293   9.221  1.3056 -1.1258  0.0025
23949SOL     OW73287   0.621   1.529   7.263  0.4033 -0.4299  0.5906
23949SOL    HW173288   0.617   1.437   7.235 -0.4284 -0.2090 -0.0334
23949SOL    HW273289   0.639   1.524   7.357  1.7372 -1.2041  0.3325
23950SOL     OW73290   7.222   6.955   7.896 -0.4506  0.0249 -0.4475
23950SOL    HW173291   7.209   6.877   7.950 -1.2114 -0.3450 -1.1432
23950SOL    HW273292   7.300   6.936   7.844  1.2499  1.0107  1.5718
23951SOL     OW73293   0.639   1.517   8.205  0.0420 -0.5064  0.0805
23951SOL    HW173294   0.661   1.445   8.146  1.3541  0.7873 -1.0831
23951SOL    HW273295   0.724   1.548   8.238 -0.5444  0.0755  1.0824
23952SOL     OW73296   0.056   7.161   9.321  0.0627 -0.6966  0.1592
23952SOL    HW173297  -0.038   7.141   9.311 -0.2560  1.1090 -0.7456
23952SOL    HW273298   0.100   7.094   9.269 -0.9130  0.2978 -2.0527
23953SOL     OW73299   6.851   6.160   8.918 -0.1828 -0.3447  0.1689
23953SOL    HW173300   6.759   6.184   8.921 -0.1547 -0.1293 -0.5471
23953SOL    HW273301   6.893   6.229   8.867  0.3848 -0.4241  0.5099
23954SOL     OW73302   5.944   5.972  11.126  0.2439  0.1845  0.0889
23954SOL    HW173303   5.883   5.918  11.077 -0.4601  1.4189 -0.4542
23954SOL    HW273304   5.999   5.910  11.174 -1.0521 -0.9820  0.1336
23955SOL     OW73305   7.788   7.856  12.030 -0.3618  0.3626  0.6508
23955SOL    HW173306   7.703   7.900  12.036 -0.2278  0.4615  2.5849
23955SOL    HW273307   7.826   7.865  12.118  1.6407  0.2808 -0.1555
23956SOL     OW73308   4.585   5.052  11.679  0.0928 -0.2988 -0.3423
23956SOL    HW173309   4.597   4.985  11.747  3.8493  0.7401  0.2751
23956SOL    HW273310   4.513   5.020  11.625 -1.5876 -2.2856  2.7942
23957SOL     OW73311   5.195   6.744  11.271 -0.3260  0.2265 -0.2062
23957SOL    HW173312   5.212   6.822  11.218  1.0549 -0.1072 -0.2760
23957SOL    HW273313   5.276   6.693  11.266 -1.5869 -1.8524 -1.2265
23958SOL     OW73314   7.467   7.781  11.116 -0.1828 -0.0216  0.1152
23958SOL    HW173315   7.554   7.798  11.081  0.5078 -1.8465  0.7951
23958SOL    HW273316   7.413   7.763  11.038  0.7017 -1.4239 -0.2213
23959SOL     OW73317   6.292   0.925   8.219 -0.2481  0.6921  0.1437
23959SOL    HW173318   6.349   0.865   8.268  0.2936  1.6632  0.7544
23959SOL    HW273319   6.351   0.965   8.154 -0.9779 -0.6471 -1.4212
23960SOL     OW73320   6.574   7.161  10.174 -0.1010 -0.0861 -0.9793
23960SOL    HW173321   6.649   7.209  10.209 -0.4329  0.4085 -0.9377
23960SOL    HW273322   6.587   7.164  10.079  0.0263 -0.1554 -0.9642
23961SOL     OW73323   6.336   0.931  11.788 -0.1719  0.0135  0.1180
23961SOL    HW173324   6.379   0.852  11.820  1.6452 -0.3070 -2.7759
23961SOL    HW273325   6.407   0.994  11.776 -1.0147  0.7688 -1.2113
23962SOL     OW73326   5.315   7.607  10.880  0.2795  0.1902  0.6137
23962SOL    HW173327   5.254   7.587  10.809 -0.7745 -0.5863  1.6922
23962SOL    HW273328   5.402   7.594  10.843 -0.2571 -0.5017 -0.4313
23963SOL     OW73329   0.206   1.781  11.738 -0.1890 -0.4749 -0.6001
23963SOL    HW173330   0.279   1.822  11.692 -0.0045 -1.0560 -0.8380
23963SOL    HW273331   0.129   1.833  11.714  0.1666  0.2307 -0.2276
23964SOL     OW73332   6.756   1.252  11.734 -0.1385  0.3779 -0.0752
23964SOL    HW173333   6.823   1.309  11.774  0.0768  0.2396 -0.2380
23964SOL    HW273334   6.708   1.310  11.675  0.4738  0.2584 -0.7014
23965SOL     OW73335   5.771   7.460  10.768 -0.1707 -0.0234 -0.0717
23965SOL    HW173336   5.855   7.506  10.773 -0.4311  0.4051  0.4336
23965SOL    HW273337   5.784   7.395  10.698  0.4160  0.3735 -0.3471
23966SOL     OW73338   6.042   7.264   8.778  0.0408 -0.0326  0.0266
23966SOL    HW173339   6.085   7.247   8.695 -0.7334 -0.8913 -0.1996
23966SOL    HW273340   6.071   7.352   8.802  0.8056 -0.0484 -0.8072
23967SOL     OW73341   7.468   5.666  11.803 -0.0992 -0.0331  0.7186
23967SOL    HW173342   7.409   5.655  11.729 -0.4633  1.6561  0.7164
23967SOL    HW273343   7.524   5.588  11.801 -0.7508 -0.4963 -0.7250
23968SOL     OW73344   6.785   7.368  10.275 -0.5746 -0.2466  0.5020
23968SOL    HW173345   6.810   7.417  10.354  0.7881  0.1885 -0.1722
23968SOL    HW273346   6.823   7.281  10.288  2.0478  0.6025 -0.8107
23969SOL     OW73347   5.108   7.766  11.013  0.5631 -0.1137 -0.3418
23969SOL    HW173348   5.026   7.724  10.987  0.4165 -0.4560  0.6600
23969SOL    HW273349   5.176   7.704  10.989  0.6785  0.6811 -2.3393
23970SOL     OW73350   0.679   7.060  10.691 -0.1659 -0.0624 -0.5215
23970SOL    HW173351   0.676   6.983  10.633  3.0844  0.5996 -1.8021
23970SOL    HW273352   0.729   7.031  10.767 -0.7718  0.2516  0.0089
23971SOL     OW73353   0.972   7.968  11.767 -0.3324 -0.4486 -0.2740
23971SOL    HW173354   1.010   7.980  11.681 -1.0752 -3.0440 -1.0397
23971SOL    HW273355   0.879   7.950  11.751 -0.1658 -2.6952  0.8714
23972SOL     OW73356   7.685   6.061   8.466  0.2452 -0.8533  0.1261
23972SOL    HW173357   7.604   6.065   8.518 -0.7320 -1.3021 -1.3212
23972SOL    HW273358   7.681   6.136   8.408  0.2270 -1.5833 -0.8490
23973SOL     OW73359   6.970   7.382  10.517 -0.2312 -0.0054  0.0672
23973SOL    HW173360   7.036   7.437  10.560 -0.9129  1.1861 -0.3752
23973SOL    HW273361   6.996   7.293  10.538  0.4923  0.4974  1.4319
23974SOL     OW73362   4.914   1.569  10.104 -0.1950 -0.1517  0.2268
23974SOL    HW173363   4.852   1.500  10.077 -1.7115  2.3973 -3.6562
23974SOL    HW273364   4.978   1.573  10.033 -2.0745  4.4136 -1.5955
23975SOL     OW73365   6.682   7.377  10.009 -0.4250  0.3045  0.5133
23975SOL    HW173366   6.722   7.369  10.096 -0.8321 -1.8515  0.5516
23975SOL    HW273367   6.748   7.424   9.957  0.2683  0.7044  1.7109
23976SOL     OW73368   7.453   0.890   9.760  0.5014  0.3175 -0.0478
23976SOL    HW173369   7.410   0.842   9.831  0.1114 -0.4145 -0.7551
23976SOL    HW273370   7.382   0.915   9.702  0.5546  2.7598  0.8374
23977SOL     OW73371   5.157   5.998  11.658 -0.2572 -0.2128  0.0206
23977SOL    HW173372   5.101   5.930  11.695  0.5028  0.1895  2.0244
23977SOL    HW273373   5.096   6.061  11.621 -1.0834 -0.5135  0.8234
23978SOL     OW73374   7.081   6.690   8.007 -0.9549  0.1806 -0.2268
23978SOL    HW173375   7.082   6.741   8.088  1.8820 -0.1736  0.0620
23978SOL    HW273376   7.017   6.621   8.024 -1.3907  0.8737  1.1948
23979SOL     OW73377   6.184   7.758  11.743 -0.2214  0.4399  0.0714
23979SOL    HW173378   6.276   7.754  11.715 -0.0061  2.3649  0.3671
23979SOL    HW273379   6.139   7.800  11.670 -0.4984  1.2551  0.6974
23980SOL     OW73380   7.487   1.767   8.795  0.3737  0.1526 -0.4008
23980SOL    HW173381   7.424   1.815   8.848 -0.8258 -0.1681 -1.4798
23980SOL    HW273382   7.434   1.709   8.741  1.6753 -1.0277 -0.4823
23981SOL     OW73383   6.317   6.975  11.413 -0.6205  0.3647 -0.0924
23981SOL    HW173384   6.268   6.952  11.491 -1.9771  1.1224 -0.6702
23981SOL    HW273385   6.375   7.046  11.440 -0.4671  0.0441  0.4150
23982SOL     OW73386   7.979   7.886   8.524  0.3890  0.1083  0.9347
23982SOL    HW173387   7.923   7.852   8.594 -0.7561  0.2718  0.1242
23982SOL    HW273388   7.983   7.981   8.541  0.1775  0.1370  0.8197
23983SOL     OW73389   7.334   0.816   0.076  0.1590 -0.0623  0.7225
23983SOL    HW173390   7.361   0.793  -0.013 -1.6342  1.6604 -0.3718
23983SOL    HW273391   7.244   0.848   0.065  0.3131  1.3183  2.9706
23984SOL     OW73392   6.912   0.519  10.256 -0.0379  0.1472 -0.4424
23984SOL    HW173393   6.863   0.593  10.220 -1.9825 -0.8244  0.0833
23984SOL    HW273394   6.921   0.458  10.182  0.3842  0.3128 -0.5319
23985SOL     OW73395   4.804   7.080   9.318 -0.0004  0.4181 -0.3735
23985SOL    HW173396   4.837   7.163   9.283  0.5529  0.3287 -0.0653
23985SOL    HW273397   4.878   7.019   9.312  0.3641  0.5872  1.6137
23986SOL     OW73398   4.995   0.573  10.962 -0.0005 -0.0843  0.6115
23986SOL    HW173399   5.038   0.522  10.893  1.0454  1.5724 -0.0327
23986SOL    HW273400   4.902   0.571  10.940  0.1461 -0.7920  0.0169
23987SOL     OW73401   5.400   6.915  12.022  0.6174  0.1351  0.3593
23987SOL    HW173402   5.399   7.009  12.006  0.0555  0.3684  1.6910
23987SOL    HW273403   5.314   6.885  11.993  0.4311  0.1999  0.8331
23988SOL     OW73404   5.441   0.622  11.032  1.0863  1.1016 -0.2257
23988SOL    HW173405   5.480   0.596  11.116  1.4631  1.4206 -0.2955
23988SOL    HW273406   5.430   0.541  10.984 -0.7990  0.6810  0.8177
23989SOL     OW73407   6.083   0.437   9.370 -0.0223  0.0525  0.6800
23989SOL    HW173408   6.033   0.512   9.337  1.4871  0.5106 -0.6828
23989SOL    HW273409   6.016   0.373   9.395 -1.3063  0.7154 -0.8775
23990SOL     OW73410   6.285   6.769   9.351  0.2005 -0.2188  0.2372
23990SOL    HW173411   6.375   6.794   9.372 -0.1056 -0.2232  1.6310
23990SOL    HW273412   6.266   6.816   9.269  1.9255 -1.3249 -0.8586
23991SOL     OW73413   7.402   1.226   8.673 -0.1964  0.4803 -0.2730
23991SOL    HW173414   7.314   1.244   8.709  0.9334  2.3657  1.8085
23991SOL    HW273415   7.438   1.313   8.655  1.3529 -0.2590 -0.8563
23992SOL     OW73416   6.418   1.787   9.785  0.3998 -0.2019  0.2783
23992SOL    HW173417   6.370   1.856   9.831  0.7382  0.6375 -0.5705
23992SOL    HW273418   6.490   1.764   9.843 -0.6220 -0.9944  1.2677
23993SOL     OW73419   7.317   1.046  10.094 -0.1409  0.1007  0.0840
23993SOL    HW173420   7.330   1.140  10.082 -0.4579  0.0548 -0.6642
23993SOL    HW273421   7.328   1.032  10.188  0.1648  0.8424  0.1654
23994SOL     OW73422   4.567   6.982   9.250 -0.3133 -0.0353 -0.0065
23994SOL    HW173423   4.506   7.012   9.317 -1.8567 -0.9335 -0.9542
23994SOL    HW273424   4.648   7.031   9.268 -1.0153  0.5462  1.8098
23995SOL     OW73425   5.655   0.270  10.679  0.2413 -0.1033  0.1041
23995SOL    HW173426   5.563   0.261  10.703  0.6662 -2.0619  1.1944
23995SOL    HW273427   5.665   0.362  10.657 -1.5636  0.5449  1.7273
23996SOL     OW73428   5.494   6.966  10.348 -0.4094 -0.6283 -0.1304
23996SOL    HW173429   5.495   6.872  10.366  0.9176 -0.3297  1.6906
23996SOL    HW273430   5.401   6.988  10.339 -1.0821 -1.5391  3.1718
23997SOL     OW73431   6.163   6.981  11.082  0.3842 -0.1640 -0.2694
23997SOL    HW173432   6.157   6.897  11.128  0.5613  0.1110  0.2630
23997SOL    HW273433   6.122   7.044  11.142  1.7551  0.4247  0.0775
23998SOL     OW73434   5.263   6.560  12.029 -0.3856 -0.1410  0.0767
23998SOL    HW173435   5.186   6.518  12.067  0.5663 -0.8980  1.2777
23998SOL    HW273436   5.239   6.652  12.022 -1.8665 -0.5596 -0.8693
23999SOL     OW73437   7.350   7.529   9.659 -0.1321  0.0950  0.4603
23999SOL    HW173438   7.287   7.466   9.694  0.3385 -0.6237  0.0538
23999SOL    HW273439   7.303   7.575   9.589  0.0380 -1.0368 -0.4256
24000SOL     OW73440   6.947   1.052   9.225  0.0740 -0.4528 -0.2660
24000SOL    HW173441   6.852   1.059   9.228 -0.1515 -0.2583 -3.5755
24000SOL    HW273442   6.978   1.142   9.229  0.1127 -0.5008  0.5751
24001SOL     OW73443   6.390   0.295  10.137 -0.2117 -0.3882 -0.2640
24001SOL    HW173444   6.388   0.369  10.076 -0.8839 -0.7720 -0.7172
24001SOL    HW273445   6.482   0.269  10.140  0.3403  1.5528  1.2456
24002SOL     OW73446   0.041   0.417  10.826  0.0554  0.2469 -0.4892
24002SOL    HW173447   0.108   0.429  10.893 -0.7543 -0.2149  0.4199
24002SOL    HW273448   0.079   0.353  10.766  0.8897  0.8563 -0.6327
24003SOL     OW73449   0.755   7.321  11.326  0.6991 -0.1377  0.2168
24003SOL    HW173450   0.685   7.378  11.293 -0.1420 -1.2794 -0.0323
24003SOL    HW273451   0.710   7.249  11.369  1.7294 -0.7846  0.2623
24004SOL     OW73452   6.007   7.849  10.653  0.3691  0.4465 -0.0988
24004SOL    HW173453   5.925   7.895  10.670  1.6921  2.5242  1.1007
24004SOL    HW273454   6.013   7.784  10.722 -0.7609 -0.5008 -0.8558
24005SOL     OW73455   4.947   1.059  10.739 -0.0867 -0.0670 -0.1563
24005SOL    HW173456   5.024   1.069  10.683 -0.7707  0.9277 -0.9587
24005SOL    HW273457   4.957   1.125  10.807  0.7048 -1.2240  0.8793
24006SOL     OW73458   7.950   0.207  11.560 -0.2897 -0.3935  0.1822
24006SOL    HW173459   7.919   0.119  11.583  0.4302 -0.3685  1.3022
24006SOL    HW273460   7.939   0.212  11.465 -0.8234 -1.4998  0.1702
24007SOL     OW73461   6.152   7.723  10.900 -0.1386 -0.2114  0.0173
24007SOL    HW173462   6.061   7.755  10.904 -0.0373  0.2520 -1.0483
24007SOL    HW273463   6.144   7.628  10.904 -0.8429 -0.2837 -2.2232
24008SOL     OW73464   6.757   6.525   8.289  0.0292  0.2012  0.4271
24008SOL    HW173465   6.667   6.496   8.301 -0.4214  1.2730 -0.2262
24008SOL    HW273466   6.766   6.600   8.348 -0.0538  1.1738 -0.7719
24009SOL     OW73467   5.731   2.529  11.890 -0.2206  0.4415  0.0262
24009SOL    HW173468   5.751   2.549  11.799  0.4402  0.0750  0.0901
24009SOL    HW273469   5.733   2.615  11.934 -1.4561  0.7472 -0.4554
24010SOL     OW73470   6.101   6.472  11.838  0.0776  0.3330  0.2831
24010SOL    HW173471   6.170   6.495  11.776 -0.0773 -0.5403 -0.2273
24010SOL    HW273472   6.022   6.463  11.785  0.0541 -0.9831  0.4978
24011SOL     OW73473   7.051   0.489  11.016 -0.2016  0.3724 -0.4064
24011SOL    HW173474   7.102   0.416  11.051 -0.0891  0.0640 -1.1965
24011SOL    HW273475   6.984   0.448  10.962 -0.4792  0.8316 -0.4167
24012SOL     OW73476   7.299   7.733  10.392  0.0971 -0.7988 -0.5584
24012SOL    HW173477   7.342   7.652  10.364 -0.2380 -0.4593 -2.1937
24012SOL    HW273478   7.205   7.714  10.383 -0.0159 -0.6050  0.1893
24013SOL     OW73479   6.657   1.192  11.352  0.1860  0.2087 -0.0865
24013SOL    HW173480   6.609   1.137  11.415  0.4437 -0.1330 -0.1837
24013SOL    HW273481   6.675   1.273  11.400  0.0417  0.1028  0.1503
24014SOL     OW73482   7.629   0.669  10.813  0.1623 -0.0048  0.3577
24014SOL    HW173483   7.553   0.637  10.863 -0.0533  1.0013  0.7005
24014SOL    HW273484   7.622   0.624  10.728 -3.2698  3.0562 -1.2704
24015SOL     OW73485   6.284   6.814   9.875 -0.2108 -0.4697 -0.0571
24015SOL    HW173486   6.379   6.831   9.876 -0.0728 -1.0923  1.6557
24015SOL    HW273487   6.246   6.886   9.924 -0.2348 -1.8429  2.0781
24016SOL     OW73488   6.750   1.026  10.402  0.0502 -0.0536  0.3515
24016SOL    HW173489   6.744   1.065  10.489  1.5399 -1.0924  0.9777
24016SOL    HW273490   6.700   0.945  10.409  0.4109 -0.2808  0.3493
24017SOL     OW73491   0.481   1.782  11.663  0.3703  0.3249 -0.4913
24017SOL    HW173492   0.525   1.825  11.591 -0.5372 -2.3882 -2.8597
24017SOL    HW273493   0.431   1.711  11.622  0.1998 -1.7119  2.8354
24018SOL     OW73494   6.856   0.856  10.792  0.1811 -0.2605  0.8694
24018SOL    HW173495   6.931   0.822  10.742  1.6590  1.6738  1.6578
24018SOL    HW273496   6.785   0.861  10.728  1.1190 -0.7754 -0.2590
24019SOL     OW73497   5.796   7.300  10.549 -0.4277  0.3872  0.4937
24019SOL    HW173498   5.795   7.322  10.455  3.8255 -1.0495 -0.0921
24019SOL    HW273499   5.763   7.211  10.553  1.0506 -0.2042  0.0456
24020SOL     OW73500   5.702   7.084  10.032 -0.0905  0.5379  0.0153
24020SOL    HW173501   5.658   7.002  10.057 -1.0830  1.1748  0.4071
24020SOL    HW273502   5.631   7.142  10.005  0.4951  1.6640  0.8366
24021SOL     OW73503   0.022   7.625  11.768  0.0555  0.0078  0.5514
24021SOL    HW173504  -0.061   7.669  11.787  0.7790  1.4898  0.4219
24021SOL    HW273505   0.076   7.642  11.846  0.7528  0.3838 -0.0060
24022SOL     OW73506   5.342   6.324   1.032 -0.0773  0.0941 -0.1340
24022SOL    HW173507   5.256   6.288   1.053 -0.3137  1.8181  2.2124
24022SOL    HW273508   5.380   6.262   0.970 -2.2840 -1.6217  0.1320
24023SOL     OW73509   6.741   1.328  10.443  0.6291 -0.4281  0.1996
24023SOL    HW173510   6.696   1.250  10.477 -0.0827 -0.6032 -1.0824
24023SOL    HW273511   6.725   1.326  10.349  2.5117  0.0476 -0.1784
24024SOL     OW73512   7.542   7.645   0.787 -0.7223 -0.2159  0.2235
24024SOL    HW173513   7.612   7.623   0.725  1.2708  0.5391  2.0746
24024SOL    HW273514   7.578   7.622   0.873 -2.7371  0.2953  1.2644
24025SOL     OW73515   5.721   0.846   2.128  0.0422 -0.2819 -0.2160
24025SOL    HW173516   5.708   0.891   2.211 -1.1908  0.5671 -0.8236
24025SOL    HW273517   5.752   0.759   2.151  0.6870  0.2616  1.0740
24026SOL     OW73518   6.256   0.250   0.429  0.7723  0.2310 -1.6702
24026SOL    HW173519   6.185   0.200   0.389 -0.5223  1.3486 -0.8475
24026SOL    HW273520   6.253   0.226   0.522 -0.6666  2.6581 -1.0209
24027SOL     OW73521   6.916   6.289   1.051 -0.5898 -0.3135  0.0437
24027SOL    HW173522   6.959   6.298   1.136 -1.0213 -0.7751  0.3140
24027SOL    HW273523   6.858   6.214   1.061 -0.4024 -0.5711 -0.7654
24028SOL     OW73524   6.687   6.175  11.010 -0.2903 -0.0764 -0.1267
24028SOL    HW173525   6.700   6.112  10.939  0.3295  1.5558 -1.5386
24028SOL    HW273526   6.769   6.223  11.015 -0.4668  0.1129  1.4719
24029SOL     OW73527   6.655   0.734  11.774  0.1950  0.1614 -0.1044
24029SOL    HW173528   6.715   0.731  11.848 -0.4254 -0.9327  0.3684
24029SOL    HW273529   6.635   0.827  11.764  0.4698  0.3483  0.9449
24030SOL     OW73530   6.094   7.168   1.051 -0.0914 -0.2409  0.3111
24030SOL    HW173531   6.098   7.257   1.084 -0.3802  0.0345 -0.3758
24030SOL    HW273532   6.186   7.142   1.042  0.0071  0.2919 -0.2692
24031SOL     OW73533   6.900   7.314  12.217  0.2039 -0.3612  0.0216
24031SOL    HW173534   6.808   7.297  12.236 -0.1819  1.2848 -0.1548
24031SOL    HW273535   6.941   7.322  12.302 -0.3387  1.2455  0.1774
24032SOL     OW73536   7.188   1.375  11.957  0.3390  0.3265 -0.0449
24032SOL    HW173537   7.273   1.419  11.961 -0.1292  1.4767 -1.5838
24032SOL    HW273538   7.194   1.318  11.880 -0.3530  0.5784 -0.2906
24033SOL     OW73539   5.033   6.676  12.257 -0.8708  0.6543 -0.4758
24033SOL    HW173540   4.973   6.751  12.253 -0.5483  0.8706 -1.4682
24033SOL    HW273541   4.988   6.606  12.211 -0.7540  0.5387 -0.4150
24034SOL     OW73542   6.093   2.063   0.547  0.6105  0.2952 -0.4354
24034SOL    HW173543   6.099   2.032   0.638  1.5127 -0.4482 -0.7318
24034SOL    HW273544   6.000   2.077   0.533  0.4026 -0.1138  0.4437
24035SOL     OW73545   6.339   6.773   0.112  0.2910 -0.2455  0.2479
24035SOL    HW173546   6.281   6.785   0.037 -0.6551 -1.6144  0.7206
24035SOL    HW273547   6.294   6.819   0.184 -0.2174 -1.2786  0.6062
24036SOL     OW73548   4.887   7.480   2.109 -0.2390 -0.1344 -0.3250
24036SOL    HW173549   4.836   7.403   2.085  1.0353 -0.7629 -1.1608
24036SOL    HW273550   4.978   7.451   2.105  0.3845  1.7707 -2.2208
24037SOL     OW73551   6.555   7.769   0.663  0.1799  0.3223 -0.2345
24037SOL    HW173552   6.563   7.725   0.748  0.0712  0.4794 -0.1407
24037SOL    HW273553   6.622   7.838   0.665 -0.4763  0.9663  0.1310
24038SOL     OW73554   7.347   6.047   0.925 -0.0503 -0.2480  0.5053
24038SOL    HW173555   7.288   5.971   0.923  1.4392 -1.5450  2.2846
24038SOL    HW273556   7.301   6.111   0.980 -1.0706 -0.0200 -0.5620
24039SOL     OW73557   6.257   2.088  10.933  0.1607  0.3986  0.3538
24039SOL    HW173558   6.203   2.078  11.012  0.8028  3.9579  1.4178
24039SOL    HW273559   6.339   2.043  10.955 -0.1654  0.1834  1.1741
24040SOL     OW73560   6.800   0.560  12.061  0.1423 -0.8475  0.4170
24040SOL    HW173561   6.861   0.496  12.025 -1.1148 -3.1872  2.1728
24040SOL    HW273562   6.855   0.634  12.088  1.6726 -1.2118 -1.4552
24041SOL     OW73563   7.178   7.808  11.177  0.6598  0.2440 -1.0419
24041SOL    HW173564   7.182   7.795  11.271 -0.7095  0.9341 -0.8611
24041SOL    HW273565   7.164   7.721  11.141  1.1878 -0.0218 -0.6184
24042SOL     OW73566   7.508   7.214  12.153 -0.3823  0.3288 -0.2157
24042SOL    HW173567   7.424   7.206  12.109 -1.9833  0.5138  2.5867
24042SOL    HW273568   7.542   7.299  12.125 -1.3760  0.5016 -0.9523
24043SOL     OW73569   0.620   6.318   0.905 -0.2838 -0.6112 -0.3186
24043SOL    HW173570   0.707   6.341   0.872 -0.4918 -0.7263 -0.9596
24043SOL    HW273571   0.596   6.239   0.856 -0.9732 -0.2739 -0.5397
24044SOL     OW73572   6.830   7.040  11.539 -0.3972  0.2003  0.4413
24044SOL    HW173573   6.887   7.004  11.471  0.2657 -2.9277  2.4659
24044SOL    HW273574   6.879   7.113  11.576  1.9281 -1.7073  1.3626
24045SOL     OW73575   4.385   7.470  11.464  0.2251 -0.0280  0.2603
24045SOL    HW173576   4.415   7.436  11.548  1.2703  1.3554  0.4916
24045SOL    HW273577   4.383   7.565  11.476 -2.2263  0.0619 -0.4568
24046SOL     OW73578   7.364   7.502   0.168 -0.1558 -0.7100 -0.3094
24046SOL    HW173579   7.312   7.491   0.088 -3.5989 -1.3691  1.7848
24046SOL    HW273580   7.419   7.423   0.171 -0.0598 -0.7466 -1.8879
24047SOL     OW73581   6.739   6.715  10.815  0.5084  0.6639 -0.5861
24047SOL    HW173582   6.811   6.774  10.836  0.3094 -0.0186  2.4980
24047SOL    HW273583   6.662   6.771  10.811  0.6714  0.9224 -0.1130
24048SOL     OW73584   7.297   0.810   9.958  0.0438 -0.1682  0.3419
24048SOL    HW173585   7.294   0.892  10.008  1.0847 -0.0340  0.2062
24048SOL    HW273586   7.320   0.743  10.023  1.4693  0.0169  0.0676
24049SOL     OW73587   6.330   1.538  10.866  0.6072 -0.0276 -0.0524
24049SOL    HW173588   6.272   1.465  10.885  0.7711  0.1277  1.1019
24049SOL    HW273589   6.276   1.616  10.876  0.9110  0.0984  0.6194
24050SOL     OW73590   0.421   2.707  12.266  0.3893 -0.1716 -0.4831
24050SOL    HW173591   0.361   2.703  12.192  0.8445 -0.5453 -0.8410
24050SOL    HW273592   0.368   2.683  12.342  0.1993 -1.0205 -0.8673
24051SOL     OW73593   4.246   1.919  12.371 -0.3057 -0.0031 -0.0747
24051SOL    HW173594   4.277   2.004  12.402 -0.2463  0.0268 -0.2159
24051SOL    HW273595   4.275   1.915  12.279 -0.4616 -0.0985 -0.1200
24052SOL     OW73596   5.519   7.715  11.373  0.4586 -1.0091 -0.4042
24052SOL    HW173597   5.443   7.729  11.316  0.8585  0.5127 -0.6118
24052SOL    HW273598   5.484   7.714  11.461  0.0753 -1.3736 -0.5593
24053SOL     OW73599   7.561   1.240   0.803 -0.2884  0.3753  0.1754
24053SOL    HW173600   7.563   1.144   0.800 -0.0047  0.3796 -2.4734
24053SOL    HW273601   7.470   1.261   0.825 -0.8972 -0.5709 -1.2536
24054SOL     OW73602   1.048   0.505   1.362 -0.0506 -0.3550  0.3483
24054SOL    HW173603   1.055   0.565   1.436  0.9179  0.8543 -0.6910
24054SOL    HW273604   0.981   0.442   1.389 -1.5120  1.4983  1.2736
24055SOL     OW73605   7.680   7.405   0.344 -0.2391  0.1266  0.5960
24055SOL    HW173606   7.629   7.457   0.407  0.3820 -0.5696  1.7110
24055SOL    HW273607   7.614   7.354   0.297 -0.8247  1.5943 -0.2361
24056SOL     OW73608   0.761   7.677   0.743 -0.0354  0.1901  0.4780
24056SOL    HW173609   0.691   7.729   0.703 -0.9248 -1.5554 -0.3779
24056SOL    HW273610   0.724   7.589   0.748  1.8997 -0.6584  0.5865
24057SOL     OW73611   7.329   7.507   0.706  0.9543  0.3224  0.6434
24057SOL    HW173612   7.356   7.417   0.726  2.0702  0.3827 -0.4880
24057SOL    HW273613   7.407   7.560   0.725  0.7295  0.8778  0.0431
24058SOL     OW73614   7.430   7.478  10.966 -0.8447 -0.2383 -0.0143
24058SOL    HW173615   7.449   7.437  10.881  1.0533 -2.0061  1.1533
24058SOL    HW273616   7.494   7.549  10.973 -0.4989 -0.5730  0.2420
24059SOL     OW73617   7.997   1.032   0.533 -0.4643  0.2489  0.0597
24059SOL    HW173618   8.035   1.111   0.572 -1.4885 -0.0120  1.6745
24059SOL    HW273619   8.035   0.960   0.584 -1.2323 -0.1524  0.0789
24060SOL     OW73620   4.840   7.081  10.432  0.8852  0.0390  0.1743
24060SOL    HW173621   4.879   7.031  10.360 -1.6316  0.1251 -1.3360
24060SOL    HW273622   4.764   7.030  10.459  0.1960  1.3955  0.8900
24061SOL     OW73623   6.302   4.831  12.327 -0.4631 -0.1499  0.1154
24061SOL    HW173624   6.225   4.797  12.282 -0.6505  1.2213 -0.6398
24061SOL    HW273625   6.375   4.783  12.289 -0.8485 -0.7426  0.1140
24062SOL     OW73626   7.899   7.903   0.303 -0.2859 -0.1775 -0.5450
24062SOL    HW173627   7.925   7.841   0.235 -0.0148  0.3554 -0.9396
24062SOL    HW273628   7.818   7.868   0.339 -0.7144 -0.1999 -1.5045
24063SOL     OW73629   4.670   0.058  11.210  0.3698 -0.2677 -0.5978
24063SOL    HW173630   4.718  -0.024  11.201  0.6260  0.0408 -2.3569
24063SOL    HW273631   4.635   0.076  11.123  0.6319  1.6796 -0.3611
24064SOL     OW73632   7.924   5.995  11.145  0.3263 -0.6499  0.4974
24064SOL    HW173633   7.940   5.901  11.157 -0.4387 -0.6907  1.2814
24064SOL    HW273634   7.950   6.012  11.055 -0.4670 -1.8276  0.0209
24065SOL     OW73635   5.719   7.017  11.259 -0.0838 -0.1284  0.6142
24065SOL    HW173636   5.750   6.946  11.202 -0.0598 -1.4086  2.1588
24065SOL    HW273637   5.763   7.003  11.342  1.3080  2.7781  0.5095
24066SOL     OW73638   7.055   7.994  11.480  0.7160  0.1992 -0.4601
24066SOL    HW173639   7.018   7.944  11.407 -0.0966  0.4253 -0.2135
24066SOL    HW273640   7.079   7.928  11.545 -0.3070  0.1071 -0.1572
24067SOL     OW73641   6.537   5.770   1.076 -0.4907 -0.5431 -0.2532
24067SOL    HW173642   6.568   5.851   1.117  3.0062 -1.5803 -0.5799
24067SOL    HW273643   6.554   5.702   1.141  0.3693 -1.5198 -1.4636
24068SOL     OW73644   6.321   7.209  11.886  0.6658 -0.1763 -0.3184
24068SOL    HW173645   6.242   7.238  11.932 -1.6409 -0.1351 -3.9341
24068SOL    HW273646   6.358   7.141  11.942 -2.8828 -1.3777  0.8376
24069SOL     OW73647   0.225   0.436  11.020  0.2158  0.0892  0.1842
24069SOL    HW173648   0.231   0.449  11.115  0.8080 -0.2716  0.2040
24069SOL    HW273649   0.310   0.398  10.996  0.5177  1.2434 -0.6613
24070SOL     OW73650   7.715   1.564   0.607 -0.0328  0.1165 -0.1850
24070SOL    HW173651   7.630   1.520   0.609  1.0354 -2.0835  0.5072
24070SOL    HW273652   7.719   1.612   0.689  0.2516 -1.6471  0.8878
24071SOL     OW73653   7.777   2.691   1.067 -0.2818 -0.2554  0.6014
24071SOL    HW173654   7.693   2.737   1.069 -0.1184  0.1797 -0.9982
24071SOL    HW273655   7.766   2.623   1.001  0.6461 -0.0939  0.2540
24072SOL     OW73656   1.581   0.697   1.898  0.4306  0.0715 -0.5303
24072SOL    HW173657   1.543   0.680   1.984  1.7031 -0.5307 -0.0502
24072SOL    HW273658   1.508   0.689   1.837 -0.4687  0.3739  0.4729
24073SOL     OW73659   1.442   0.967   0.923 -0.7582 -0.1712 -0.0458
24073SOL    HW173660   1.423   0.985   1.015  1.2398 -1.9787  0.7893
24073SOL    HW273661   1.503   1.036   0.897 -0.8111 -0.0410  0.1771
24074SOL     OW73662   6.853   1.302   0.069 -0.3995  0.1800 -0.2683
24074SOL    HW173663   6.789   1.354   0.020 -2.2113 -2.4855 -0.9279
24074SOL    HW273664   6.876   1.230   0.010  2.9429  0.7799  0.1469
24075SOL     OW73665   0.253   7.540   0.317 -0.1550 -0.1135  0.0355
24075SOL    HW173666   0.295   7.457   0.338 -0.5781 -0.5093 -0.6452
24075SOL    HW273667   0.159   7.521   0.318 -0.2969  0.5976  0.8571
24076SOL     OW73668   6.357   1.334   1.167 -0.2201 -0.6450  0.1228
24076SOL    HW173669   6.376   1.400   1.234  1.0578 -0.7430 -0.1146
24076SOL    HW273670   6.287   1.372   1.115 -0.7357 -0.2536  1.0656
24077SOL     OW73671   7.598   3.264   1.032 -0.0585 -0.3811 -0.0879
24077SOL    HW173672   7.685   3.282   1.068  0.0872  0.2425 -0.7257
24077SOL    HW273673   7.563   3.350   1.010  0.1823 -0.7500 -2.1665
24078SOL     OW73674   6.472   0.456   1.057 -0.1543 -0.2525 -0.0168
24078SOL    HW173675   6.449   0.531   1.112 -0.7345 -0.2632 -0.2392
24078SOL    HW273676   6.564   0.440   1.077 -0.2427 -0.0012  0.6483
24079SOL     OW73677   7.417   2.142  11.330 -0.1580 -0.1062  0.0779
24079SOL    HW173678   7.423   2.212  11.265  0.7540  0.0581  0.3198
24079SOL    HW273679   7.323   2.133  11.348 -0.2557  1.3185  0.3366
24080SOL     OW73680   5.833   3.541  11.623  0.2208  0.5355  0.2697
24080SOL    HW173681   5.876   3.455  11.627 -0.0256  0.4388  3.4534
24080SOL    HW273682   5.742   3.521  11.601  0.8148  0.3805 -2.3890
24081SOL     OW73683   7.432   7.795   1.231  0.3557  0.5463 -0.4028
24081SOL    HW173684   7.436   7.779   1.325 -0.4528  2.4219 -0.0099
24081SOL    HW273685   7.423   7.708   1.192  0.7300 -0.2594  1.2351
24082SOL     OW73686   6.906   1.818   2.089 -0.2043  0.2117  0.3674
24082SOL    HW173687   6.917   1.746   2.028  0.3873  1.3064 -0.8603
24082SOL    HW273688   6.990   1.863   2.089 -1.3018  2.4083 -0.8963
24083SOL     OW73689   6.867   0.569   1.969 -0.1979 -0.0123  0.0493
24083SOL    HW173690   6.808   0.634   2.006 -0.6171 -0.3088 -0.0914
24083SOL    HW273691   6.829   0.546   1.885 -0.1767 -0.6008  0.1948
24084SOL     OW73692   1.007   0.909   1.430 -0.1357  0.5044 -0.2671
24084SOL    HW173693   1.036   0.894   1.340 -0.0946  0.5358 -0.2592
24084SOL    HW273694   1.064   0.978   1.462  0.4415 -0.1233  0.0747
24085SOL     OW73695   0.288   0.364   0.888  0.0637 -0.0477  0.4458
24085SOL    HW173696   0.200   0.378   0.855  0.2223 -0.7774 -0.3247
24085SOL    HW273697   0.278   0.367   0.984 -0.4544  1.7219  0.3622
24086SOL     OW73698   6.780   1.258   1.877 -0.1963  0.3093  0.1578
24086SOL    HW173699   6.839   1.276   1.951 -0.1159 -0.0130  0.1703
24086SOL    HW273700   6.818   1.182   1.834  0.3515  1.1239 -0.8486
24087SOL     OW73701   6.729   1.893   0.847 -0.3888 -0.0005  0.1524
24087SOL    HW173702   6.767   1.949   0.779  0.5489 -0.3142  0.3914
24087SOL    HW273703   6.791   1.900   0.920  0.6013 -2.4914 -0.3406
24088SOL     OW73704   6.232   2.066  11.619 -0.0068  0.0538 -0.0556
24088SOL    HW173705   6.328   2.065  11.621 -0.0180 -0.8308  0.7957
24088SOL    HW273706   6.207   1.974  11.615 -0.8266  0.2937 -2.0101
24089SOL     OW73707   0.321   0.181   1.132  0.1406 -0.3852  0.1536
24089SOL    HW173708   0.296   0.175   1.224 -0.9214  1.1103  0.0066
24089SOL    HW273709   0.415   0.162   1.132  0.0161 -1.1369  1.4332
24090SOL     OW73710   1.087   0.923   0.583  0.3779 -0.4899  0.0122
24090SOL    HW173711   1.100   0.877   0.666  0.0767  0.1099  0.3952
24090SOL    HW273712   0.999   0.899   0.556  0.5287 -0.7986 -0.2071
24091SOL     OW73713   2.147   0.379   1.026  0.3685  0.7337  0.1641
24091SOL    HW173714   2.164   0.359   1.118  2.0256 -1.8898 -0.6199
24091SOL    HW273715   2.112   0.298   0.990  2.5591  0.7231 -2.1579
24092SOL     OW73716   7.591   3.174   0.791 -0.3594  0.3015 -0.1321
24092SOL    HW173717   7.682   3.146   0.789 -0.3521  0.3804 -1.5659
24092SOL    HW273718   7.579   3.210   0.880  0.2488 -2.0572  0.9756
24093SOL     OW73719   5.088   1.150   0.985  0.3024 -0.0049  0.5258
24093SOL    HW173720   5.116   1.095   1.058  1.0469  1.1133  1.1232
24093SOL    HW273721   4.994   1.133   0.977 -0.1640  1.0486  2.8728
24094SOL     OW73722   7.547   7.216   1.282  0.2660  0.6525 -0.0413
24094SOL    HW173723   7.464   7.251   1.315 -1.7029 -2.4258 -1.2642
24094SOL    HW273724   7.612   7.282   1.306 -2.0609  2.0018  3.3740
24095SOL     OW73725   6.467   0.950   3.305  0.2345 -0.4351  0.3593
24095SOL    HW173726   6.433   0.870   3.264 -2.1742  1.0061 -0.6387
24095SOL    HW273727   6.458   0.934   3.399  1.1592 -1.8555  0.2402
24096SOL     OW73728   7.021   0.168  12.477  0.2554  0.0117  0.6499
24096SOL    HW173729   6.967   0.239  12.443  1.4207  0.3574 -0.5581
24096SOL    HW273730   6.981   0.088  12.442  1.2418  0.3396 -1.3717
24097SOL     OW73731   6.937   1.505   1.027  0.0870 -1.1121 -0.1335
24097SOL    HW173732   6.863   1.479   0.972 -0.8687 -0.0299  0.5846
24097SOL    HW273733   7.007   1.443   1.005 -0.4838 -1.1495 -2.0375
24098SOL     OW73734   0.314   2.580  11.968  0.4709 -0.1591 -0.0594
24098SOL    HW173735   0.341   2.506  11.914 -0.4708 -0.1906 -0.5154
24098SOL    HW273736   0.226   2.602  11.935  1.6777  2.8053 -1.7349
24099SOL     OW73737   1.292   7.908   1.570  0.0104 -0.1321 -0.2975
24099SOL    HW173738   1.222   7.857   1.613  1.0543 -0.5450  0.9818
24099SOL    HW273739   1.360   7.844   1.552  0.5763  0.4875 -0.3796
24100SOL     OW73740   0.477   0.593   2.415 -0.1949  0.2349  0.7861
24100SOL    HW173741   0.475   0.649   2.338  0.4746  0.2462  0.7734
24100SOL    HW273742   0.459   0.505   2.381  1.2358  0.0588  0.4444
24101SOL     OW73743   0.823   0.605   2.955  0.1765 -1.0220  0.3146
24101SOL    HW173744   0.876   0.593   3.033 -0.4864  0.7398  1.1103
24101SOL    HW273745   0.795   0.697   2.959 -1.3938 -1.3797 -1.0191
24102SOL     OW73746   0.704   7.184   1.568 -0.4074 -0.2479  0.0500
24102SOL    HW173747   0.648   7.185   1.491  2.4116 -0.9469 -2.2103
24102SOL    HW273748   0.785   7.227   1.539  1.0037 -1.1033  2.4138
24103SOL     OW73749   0.178   0.142   1.959  0.4236  0.1404  0.0406
24103SOL    HW173750   0.100   0.139   2.013 -0.3283 -0.2685 -1.0303
24103SOL    HW273751   0.145   0.154   1.870  1.4746 -1.5219 -0.6310
24104SOL     OW73752   7.770   7.570   2.729  0.1968 -0.6663  0.1338
24104SOL    HW173753   7.699   7.570   2.666  0.2740 -2.7603 -0.0068
24104SOL    HW273754   7.754   7.494   2.785 -0.2354  1.4300  3.1352
24105SOL     OW73755   7.897   1.482   1.151  0.2322 -0.1175 -0.1352
24105SOL    HW173756   7.883   1.410   1.089 -2.0110  0.1073  0.0041
24105SOL    HW273757   7.827   1.544   1.131  0.5560  0.8090  1.4431
24106SOL     OW73758   0.938   6.998   0.519 -0.5920 -0.5084 -0.3987
24106SOL    HW173759   0.962   6.975   0.429 -0.8801  0.6939 -0.8058
24106SOL    HW273760   0.976   7.086   0.532  1.0377 -1.3840  1.2948
24107SOL     OW73761   0.654   1.747  12.205  0.1665 -0.8449  0.3597
24107SOL    HW173762   0.749   1.757  12.196 -0.0250  1.6454  0.2284
24107SOL    HW273763   0.643   1.681  12.273  2.0117 -1.0290  0.5252
24108SOL     OW73764   0.076   1.057   1.868 -0.1124  1.0069 -0.4566
24108SOL    HW173765   0.058   1.146   1.837  0.3581  1.7235  1.2107
24108SOL    HW273766   0.128   1.070   1.947 -0.4729 -0.7435  0.0975
24109SOL     OW73767   1.495   1.291  11.524 -0.0389  0.0545  0.3333
24109SOL    HW173768   1.440   1.217  11.501  1.8384 -1.2949 -0.0410
24109SOL    HW273769   1.585   1.261  11.506  0.8834  1.9069  1.5335
24110SOL     OW73770   5.634   1.884   1.144  0.2599 -0.1862  0.4033
24110SOL    HW173771   5.599   1.797   1.164  1.9184 -1.0894 -0.3544
24110SOL    HW273772   5.708   1.895   1.204  0.5128  0.3690  0.0041
24111SOL     OW73773   4.986   7.812   1.717 -0.0752 -0.1704 -0.4474
24111SOL    HW173774   5.058   7.868   1.689  0.2294 -1.1705 -1.7343
24111SOL    HW273775   4.907   7.863   1.697  0.1862 -0.2850 -1.8925
24112SOL     OW73776   7.302   1.387   2.996 -0.6377 -0.2827 -0.3629
24112SOL    HW173777   7.328   1.416   3.083  1.2761  0.0402 -1.0038
24112SOL    HW273778   7.380   1.398   2.942 -0.6521 -3.7851 -1.3556
24113SOL     OW73779   7.308   2.008   1.897  0.2806  0.2487 -0.5977
24113SOL    HW173780   7.383   2.047   1.942  0.8818 -0.6583 -0.7983
24113SOL    HW273781   7.299   2.060   1.817  0.3207  0.7280 -0.2972
24114SOL     OW73782   7.659   2.669  12.330  0.2004 -0.1173 -0.4821
24114SOL    HW173783   7.716   2.684  12.254  0.3682  1.8631 -0.0329
24114SOL    HW273784   7.605   2.748  12.335  0.3655 -0.0732  1.5953
24115SOL     OW73785   7.558   0.141   2.650  0.3966  0.6680 -0.1437
24115SOL    HW173786   7.486   0.204   2.647 -2.0393 -1.9377 -0.9299
24115SOL    HW273787   7.592   0.140   2.560  1.5437  1.9588  0.2466
24116SOL     OW73788   0.074   1.451   0.114 -0.1785  0.5853 -0.3754
24116SOL    HW173789   0.162   1.416   0.130 -1.1811 -1.5680  0.8040
24116SOL    HW273790   0.016   1.377   0.127 -2.2005  1.9291 -1.2677
24117SOL     OW73791   6.653   2.439   1.478 -0.3155  0.0523 -0.4181
24117SOL    HW173792   6.740   2.441   1.517 -0.4400 -2.4940  0.1878
24117SOL    HW273793   6.616   2.356   1.507 -2.2850  0.2705 -2.0809
24118SOL     OW73794   0.238   2.107   0.118 -0.0162  0.1897  0.2937
24118SOL    HW173795   0.167   2.124   0.056 -0.8614  2.0379  1.7021
24118SOL    HW273796   0.313   2.085   0.062 -1.1724  0.0945 -1.2919
24119SOL     OW73797   7.457   1.022   1.704  0.3719  0.7748 -0.2173
24119SOL    HW173798   7.516   1.090   1.738  1.0114 -0.2042  0.7296
24119SOL    HW273799   7.418   0.984   1.783 -0.3792  0.4099 -0.7622
24120SOL     OW73800   1.434   4.278  12.033 -0.9768 -0.1748  0.1128
24120SOL    HW173801   1.468   4.368  12.036  1.6955 -1.0701 -0.8922
24120SOL    HW273802   1.354   4.285  11.982 -2.1501  1.9572  2.0489
24121SOL     OW73803   7.442   2.330  11.724  0.4251 -0.1537 -0.4357
24121SOL    HW173804   7.401   2.417  11.728  2.1051  0.6471  0.3246
24121SOL    HW273805   7.496   2.334  11.645 -1.9511 -1.7098 -2.2531
24122SOL     OW73806   5.961   7.803   1.166 -0.7021 -0.2130  0.0203
24122SOL    HW173807   5.933   7.773   1.079 -0.7637  0.2781 -0.1298
24122SOL    HW273808   5.936   7.895   1.168  0.4497  0.1079  0.0776
24123SOL     OW73809   7.644   1.356   0.056 -0.4011 -0.3676  0.1370
24123SOL    HW173810   7.605   1.379   0.140 -1.5517 -1.5543 -0.0333
24123SOL    HW273811   7.625   1.431  -0.001  1.5848  1.0600  1.2505
24124SOL     OW73812   0.036   0.651   3.140 -0.5713 -0.5742 -0.0969
24124SOL    HW173813   0.098   0.578   3.149  0.3602  0.0153 -1.4474
24124SOL    HW273814   0.041   0.696   3.224  2.8714  0.9739 -0.9832
24125SOL     OW73815   7.686   7.883   2.524  0.2746 -0.4945 -0.2246
24125SOL    HW173816   7.697   7.900   2.618  0.5377  0.0279 -0.3442
24125SOL    HW273817   7.654   7.966   2.489 -2.4683 -1.4354 -0.1903
24126SOL     OW73818   6.619   3.634  12.461  0.3258  0.2652  0.0218
24126SOL    HW173819   6.592   3.683  12.539 -0.2177  0.1974 -0.1216
24126SOL    HW273820   6.615   3.542  12.487  0.9205  0.2754  0.1558
24127SOL     OW73821   0.082   0.024   2.941 -0.2208 -0.4488  0.0386
24127SOL    HW173822   0.134   0.058   3.014  1.4918 -2.4312 -0.1832
24127SOL    HW273823   0.004  -0.012   2.983  0.1334 -0.4083  0.7559
24128SOL     OW73824   1.614   1.287   2.350  0.2535 -0.1922 -0.4540
24128SOL    HW173825   1.615   1.194   2.373  0.6020 -0.3388 -1.0488
24128SOL    HW273826   1.706   1.311   2.343  0.1608  0.1123 -0.6388
24129SOL     OW73827   7.061   1.930  11.571  0.0193 -0.5949 -0.0228
24129SOL    HW173828   7.003   1.915  11.646 -1.0973  1.2629 -0.4510
24129SOL    HW273829   7.126   1.993  11.602 -0.8335  0.6829 -0.7515
24130SOL     OW73830   7.283   1.209   0.867 -0.2133 -0.3347 -0.7554
24130SOL    HW173831   7.193   1.242   0.873 -0.4734 -1.2030  0.1580
24130SOL    HW273832   7.276   1.115   0.882  0.9745 -0.2623  0.4287
24131SOL     OW73833   7.501   7.909   1.543 -0.0305  0.4652  0.2398
24131SOL    HW173834   7.531   7.819   1.554 -0.9993  0.0913 -0.1059
24131SOL    HW273835   7.580   7.958   1.520  0.4093 -0.3839 -0.0871
24132SOL     OW73836   6.964   7.553   4.684  0.0054 -0.1689  0.3248
24132SOL    HW173837   7.056   7.549   4.711 -0.3172 -3.7745  1.3945
24132SOL    HW273838   6.967   7.550   4.589  1.0165 -0.5687  0.3544
24133SOL     OW73839   8.000   7.842   4.879  0.3559  0.2168  0.4290
24133SOL    HW173840   8.040   7.825   4.793  3.1479 -0.1391  1.6781
24133SOL    HW273841   8.041   7.923   4.909 -2.6153  1.8685  0.3821
24134SOL     OW73842   6.386   0.928   3.563 -0.3794 -0.1094 -0.2166
24134SOL    HW173843   6.310   0.895   3.516 -0.1572  0.5043 -1.0378
24134SOL    HW273844   6.355   1.008   3.606 -0.2243  0.0923 -0.4780
24135SOL     OW73845   6.427   1.459   1.931 -0.3764  0.4656  0.3793
24135SOL    HW173846   6.433   1.450   1.836 -0.1810 -0.4003  0.4621
24135SOL    HW273847   6.499   1.518   1.954 -0.5146  0.7959 -0.0168
24136SOL     OW73848   6.996   1.295   3.054 -0.1649 -0.6948 -0.9713
24136SOL    HW173849   7.046   1.373   3.029 -1.6933 -0.1295 -2.4792
24136SOL    HW273850   7.054   1.221   3.035  2.0287  0.0122  2.1527
24137SOL     OW73851   5.884   0.751   2.529  0.5793 -0.5091 -0.4901
24137SOL    HW173852   5.904   0.709   2.613  0.5938  0.2302 -0.1110
24137SOL    HW273853   5.804   0.708   2.499 -1.3291  1.4145  1.5188
24138SOL     OW73854   5.226   6.980   1.838 -0.1350 -0.3235  0.1986
24138SOL    HW173855   5.241   6.885   1.835 -1.4502 -0.5820  1.1909
24138SOL    HW273856   5.275   7.014   1.763  2.1468 -1.5132  1.0572
24139SOL     OW73857   1.606   2.192   0.043  0.2759  0.0915  0.2563
24139SOL    HW173858   1.545   2.125   0.011  1.1180 -0.9744  0.8354
24139SOL    HW273859   1.575   2.211   0.132  0.8362 -0.5405  0.5968
24140SOL     OW73860   6.537   1.179   4.275 -0.5510 -0.6280  0.6003
24140SOL    HW173861   6.470   1.157   4.340 -0.3571  0.1659  1.0882
24140SOL    HW273862   6.498   1.247   4.221  0.3055  0.8178  1.7333
24141SOL     OW73863   7.707   2.767   4.593 -0.3624  0.3813 -0.0781
24141SOL    HW173864   7.640   2.824   4.554  0.4924  0.6513 -1.2175
24141SOL    HW273865   7.698   2.780   4.687 -1.8830  0.4425 -0.2046
24142SOL     OW73866   7.162   0.435   2.794  0.5105  0.3008 -0.2335
24142SOL    HW173867   7.165   0.400   2.883  1.3655 -1.3427 -0.8728
24142SOL    HW273868   7.180   0.528   2.805  0.6440  0.1292  1.3134
24143SOL     OW73869   7.206   1.049   3.073  0.6253  0.3533 -0.0305
24143SOL    HW173870   7.179   1.073   2.984  2.6566 -0.0485 -0.8130
24143SOL    HW273871   7.301   1.067   3.075  0.6657  0.1775  2.0067
24144SOL     OW73872   6.090   7.984   1.916 -0.0012  0.6889  0.1947
24144SOL    HW173873   6.029   8.056   1.900 -0.8138 -0.0842 -0.3656
24144SOL    HW273874   6.130   7.967   1.830  2.3360  2.3009  0.8903
24145SOL     OW73875   7.873   7.768   4.345 -0.6311 -0.1099  0.4052
24145SOL    HW173876   7.868   7.863   4.347 -2.0338 -0.1659  0.8742
24145SOL    HW273877   7.802   7.739   4.402 -0.0521 -1.4398  0.4960
24146SOL     OW73878   6.913   6.901   3.246 -0.3453  0.3185 -0.8604
24146SOL    HW173879   6.918   6.816   3.289  1.7622  1.5182  1.5067
24146SOL    HW273880   7.003   6.919   3.217 -0.1706  2.6569  0.7855
24147SOL     OW73881   7.884   2.292   1.716  0.5243 -0.6968 -0.3666
24147SOL    HW173882   7.929   2.221   1.669  1.4715 -0.4156  0.1045
24147SOL    HW273883   7.948   2.323   1.780 -0.5710 -0.7199  0.7719
24148SOL     OW73884   0.545   0.216   1.839  0.3508  0.5688  0.5417
24148SOL    HW173885   0.585   0.302   1.826  0.5069  0.7824  2.1620
24148SOL    HW273886   0.617   0.154   1.829  0.7938  0.8374  1.8893
24149SOL     OW73887   1.175   1.024   3.999  0.3600 -0.3464  0.5866
24149SOL    HW173888   1.110   1.043   3.931 -0.3593 -0.4553  1.2374
24149SOL    HW273889   1.221   0.946   3.967  1.3035  0.6801 -0.6679
24150SOL     OW73890   7.513   1.644   2.437 -0.4996 -0.0839 -0.4166
24150SOL    HW173891   7.545   1.575   2.495  0.5846  1.8714  1.4394
24150SOL    HW273892   7.566   1.637   2.358  2.2629  0.8641  1.2165
24151SOL     OW73893   0.275   1.433   4.187 -0.2035 -0.0985 -0.1970
24151SOL    HW173894   0.212   1.482   4.240  0.0610 -0.1492  0.1680
24151SOL    HW273895   0.330   1.501   4.147  0.2400 -0.0914  0.4050
24152SOL     OW73896   0.017   7.440   2.495 -0.2895  0.3620  0.1478
24152SOL    HW173897  -0.076   7.454   2.476 -0.1719 -0.0072 -0.7397
24152SOL    HW273898   0.063   7.484   2.423  0.1882 -0.5703 -0.1284
24153SOL     OW73899   6.959   0.386   3.634  0.5966 -0.2054  0.6543
24153SOL    HW173900   6.888   0.449   3.645  0.7460 -0.1955  1.6774
24153SOL    HW273901   6.916   0.301   3.637  0.4675 -0.1803 -0.1453
24154SOL     OW73902   0.791   6.972   1.691 -0.1640 -0.4503 -0.3346
24154SOL    HW173903   0.758   7.050   1.646  1.5201 -0.1302 -1.0800
24154SOL    HW273904   0.736   6.965   1.769 -1.0216  0.8700 -0.7830
24155SOL     OW73905   7.290   1.845   0.999  0.0464 -0.1339  0.5487
24155SOL    HW173906   7.299   1.849   1.095 -1.9788  0.0654  0.7642
24155SOL    HW273907   7.217   1.786   0.984  1.0243 -1.0246 -0.9641
24156SOL     OW73908   6.909   0.458   5.187  0.0496  0.2155  0.2649
24156SOL    HW173909   6.952   0.479   5.270 -0.6237  0.6472  0.5141
24156SOL    HW273910   6.942   0.524   5.126 -1.0321  1.1926  0.7127
24157SOL     OW73911   0.854   7.338   2.673 -0.3134 -0.3444  0.1939
24157SOL    HW173912   0.926   7.330   2.735 -1.6071 -0.2332  1.7690
24157SOL    HW273913   0.881   7.408   2.613  2.2136 -2.3515 -1.2077
24158SOL     OW73914   6.640   1.769   4.692  0.0306  0.3553 -0.6149
24158SOL    HW173915   6.700   1.786   4.620  1.4600  0.3720  0.5271
24158SOL    HW273916   6.597   1.854   4.708 -1.1399  0.0862 -2.1254
24159SOL     OW73917   7.383   0.602   3.868 -0.0714 -0.0598 -0.2495
24159SOL    HW173918   7.422   0.621   3.782 -0.3432  0.3500 -0.2839
24159SOL    HW273919   7.295   0.639   3.863  0.0979  0.4552  0.3918
24160SOL     OW73920   6.864   0.320   1.329  0.1994  0.0259  0.1033
24160SOL    HW173921   6.806   0.385   1.368  1.1283  1.3475 -0.5980
24160SOL    HW273922   6.818   0.237   1.339 -1.9002  1.0220 -0.5828
24161SOL     OW73923   7.189   0.092   4.177 -0.4799  0.3795  0.0290
24161SOL    HW173924   7.154   0.033   4.243 -1.2287  2.0011  1.1498
24161SOL    HW273925   7.260   0.138   4.221  0.4266  0.0008 -0.9829
24162SOL     OW73926   0.848   0.706   3.546  0.2129 -0.0235 -0.1931
24162SOL    HW173927   0.801   0.649   3.485  2.1888  0.1498 -2.0196
24162SOL    HW273928   0.940   0.690   3.527  0.8620  1.9676  0.9929
24163SOL     OW73929   7.747   6.938   2.563  0.3956  0.5747 -0.0856
24163SOL    HW173930   7.662   6.907   2.532  0.2819 -0.5724  1.2768
24163SOL    HW273931   7.783   6.986   2.488  0.1035 -1.9821 -2.0333
24164SOL     OW73932   0.231   0.168   4.247 -0.0568 -0.6045 -0.2676
24164SOL    HW173933   0.169   0.188   4.178 -0.4855  1.3782  0.6192
24164SOL    HW273934   0.316   0.195   4.212  0.0078 -1.3116 -0.6763
24165SOL     OW73935   7.865   0.292   2.448 -0.4462  0.4230 -0.3275
24165SOL    HW173936   7.955   0.290   2.480 -0.6474  0.7817  0.2723
24165SOL    HW273937   7.852   0.382   2.418 -0.2181  0.0644 -1.5685
24166SOL     OW73938   7.605   6.794   4.958  0.5418  0.1802  0.1718
24166SOL    HW173939   7.530   6.853   4.957  0.5055  0.1389  0.6397
24166SOL    HW273940   7.596   6.742   4.878  0.1821  0.3101  0.1290
24167SOL     OW73941   1.137   0.542   2.124 -0.5072 -0.0365 -0.1507
24167SOL    HW173942   1.122   0.599   2.049 -0.2241 -1.6055 -1.4680
24167SOL    HW273943   1.049   0.515   2.151 -0.5627 -0.7952 -1.0300
24168SOL     OW73944   5.601   0.248   3.400 -0.2497  0.2984 -0.0193
24168SOL    HW173945   5.605   0.305   3.477 -2.1891 -0.5890  0.8101
24168SOL    HW273946   5.533   0.184   3.421  1.5627 -2.1306 -1.0700
24169SOL     OW73947   0.310   6.889   2.395 -0.8255 -0.3232  0.2735
24169SOL    HW173948   0.377   6.956   2.405 -1.7864  0.8685 -0.9272
24169SOL    HW273949   0.350   6.810   2.431  1.4638  0.1850 -0.9754
24170SOL     OW73950   5.197   1.569   1.171  0.1856  0.4811 -0.2090
24170SOL    HW173951   5.240   1.489   1.201 -1.1812  0.0593  0.7000
24170SOL    HW273952   5.218   1.634   1.238  0.5915  0.6812 -0.5195
24171SOL     OW73953   7.208   4.147   1.226  0.0822 -0.1416 -0.1484
24171SOL    HW173954   7.114   4.148   1.210  0.1792 -0.6884 -0.8035
24171SOL    HW273955   7.228   4.056   1.248  0.6915 -0.3575 -1.5296
24172SOL     OW73956   6.392   2.455   1.953  0.0765 -0.1258 -0.0326
24172SOL    HW173957   6.307   2.412   1.961 -0.0179  0.2566  1.2753
24172SOL    HW273958   6.371   2.544   1.926  0.0579 -0.0543  0.2124
24173SOL     OW73959   5.839   0.892   3.899 -0.2663 -0.1971  0.6709
24173SOL    HW173960   5.865   0.983   3.885  0.3079 -0.5152 -0.4241
24173SOL    HW273961   5.748   0.888   3.869 -0.6904  0.2597  1.8195
24174SOL     OW73962   0.393   0.494   3.699 -0.0986  0.4063  0.1595
24174SOL    HW173963   0.337   0.449   3.763  0.0208  2.0367  1.4539
24174SOL    HW273964   0.446   0.424   3.661 -1.3246 -0.8305  0.6322
24175SOL     OW73965   7.392   0.115   2.886  0.0320 -0.1552 -0.1536
24175SOL    HW173966   7.320   0.072   2.841 -0.6496  0.4854  0.2995
24175SOL    HW273967   7.465   0.110   2.825  0.0710 -2.2082  0.0113
24176SOL     OW73968   7.308   7.912   3.542 -0.2176  0.0472  0.3496
24176SOL    HW173969   7.393   7.953   3.526 -0.3350 -0.1296 -0.7986
24176SOL    HW273970   7.245   7.971   3.501 -0.3870 -1.2354 -1.3338
24177SOL     OW73971   7.179   0.052   1.137  0.4650 -0.7464  0.2703
24177SOL    HW173972   7.148   0.085   1.222 -0.5363  0.6538 -0.6039
24177SOL    HW273973   7.207  -0.038   1.156 -2.6793 -1.6364  1.5356
24178SOL     OW73974   1.316   1.813   5.448 -0.4616 -0.2368  0.1750
24178SOL    HW173975   1.308   1.892   5.502  1.7577  0.2833 -0.1485
24178SOL    HW273976   1.375   1.756   5.498 -0.9053 -1.0931 -0.2560
24179SOL     OW73977   0.542   0.449   3.182  0.0096 -0.2558 -0.2311
24179SOL    HW173978   0.447   0.459   3.179  0.0010 -0.0510  0.4670
24179SOL    HW273979   0.568   0.438   3.091 -0.4973  1.4571 -0.6286
24180SOL     OW73980   0.184   3.848   3.657  0.4142  0.3634  0.4519
24180SOL    HW173981   0.146   3.928   3.694 -0.3003 -0.4038  1.4060
24180SOL    HW273982   0.275   3.871   3.638 -0.1460  1.8415 -0.6441
24181SOL     OW73983   0.136   7.889   2.344 -0.2303  0.6046  0.9594
24181SOL    HW173984   0.092   7.828   2.284  2.8365 -1.8561  0.9483
24181SOL    HW273985   0.082   7.887   2.423 -1.3885 -0.4433  0.2023
24182SOL     OW73986   5.394   3.438   4.013 -0.5569  0.0934 -0.0215
24182SOL    HW173987   5.390   3.414   3.920 -1.4446 -0.1820  0.0844
24182SOL    HW273988   5.354   3.524   4.018 -0.6164  0.0580  0.1233
24183SOL     OW73989   0.410   2.284   2.489  0.8491  0.1719 -0.1277
24183SOL    HW173990   0.441   2.282   2.580 -0.7500 -2.1204  0.4745
24183SOL    HW273991   0.401   2.191   2.466  1.7331  0.6848 -2.8552
24184SOL     OW73992   6.900   1.143   0.914  0.0415  0.0969  0.0859
24184SOL    HW173993   6.960   1.145   0.988 -0.1479 -1.9039  0.3584
24184SOL    HW273994   6.925   1.219   0.861  2.8289 -0.6258  0.1829
24185SOL     OW73995   6.734   0.212   3.944 -0.3271  0.2050  0.3610
24185SOL    HW173996   6.828   0.224   3.958 -0.2585  0.0435  0.0477
24185SOL    HW273997   6.703   0.171   4.025 -0.0633 -0.0589  0.3323
24186SOL     OW73998   5.243   0.816   3.096  0.1000 -0.2720 -0.2763
24186SOL    HW173999   5.192   0.770   3.162  1.0696  0.6961  1.2008
24186SOL    HW274000   5.329   0.774   3.098  1.0517  1.5598  1.1976
24187SOL     OW74001   7.172   7.417   1.722  0.1650 -0.1534 -0.1959
24187SOL    HW174002   7.093   7.410   1.668  1.7118  2.6940 -3.1563
24187SOL    HW274003   7.145   7.471   1.796 -1.4552 -2.3370  0.9571
24188SOL     OW74004   1.015   0.601   3.150 -0.5597  0.0007  0.2937
24188SOL    HW174005   1.079   0.659   3.109  0.0707 -0.3838  0.7179
24188SOL    HW274006   1.018   0.624   3.243 -1.3426  0.2682  0.2559
24189SOL     OW74007   0.058   7.750   3.429  0.4088 -0.4353  0.3206
24189SOL    HW174008  -0.002   7.824   3.431  1.0622  0.1627 -1.3153
24189SOL    HW274009   0.031   7.696   3.504 -0.8058  0.8559  0.8577
24190SOL     OW74010   0.050   0.119   3.339  0.1281  0.1443 -0.3385
24190SOL    HW174011   0.117   0.086   3.280  0.3434  1.7692 -1.0543
24190SOL    HW274012  -0.032   0.108   3.291  0.1169 -0.0285 -0.2787
24191SOL     OW74013   6.954   7.720   3.128  0.1759 -0.3117  0.1314
24191SOL    HW174014   6.864   7.718   3.097  0.2798 -1.9069 -0.1550
24191SOL    HW274015   6.954   7.787   3.197 -1.0668  0.1557 -0.2918
24192SOL     OW74016   1.379   7.944   2.089 -0.3904  0.4941 -0.0538
24192SOL    HW174017   1.291   7.915   2.116 -0.0597  0.9662  1.6256
24192SOL    HW274018   1.438   7.907   2.155  0.5968  0.8109 -0.7405
24193SOL     OW74019   5.539   0.766   3.091  0.0625 -0.3456  0.2418
24193SOL    HW174020   5.568   0.741   3.178 -1.0326  0.8709  0.9842
24193SOL    HW274021   5.533   0.683   3.043 -0.4362 -1.1624  1.6595
24194SOL     OW74022   0.573   0.988   6.093 -0.2965 -0.2512  0.1734
24194SOL    HW174023   0.494   1.029   6.127 -2.1443 -1.5284 -2.2386
24194SOL    HW274024   0.593   1.037   6.013  2.3441  1.0165  1.4734
24195SOL     OW74025   6.633   7.981   4.743 -0.0247 -0.1200  0.0953
24195SOL    HW174026   6.584   7.909   4.784 -0.1181  1.0038  2.0520
24195SOL    HW274027   6.634   8.050   4.808  0.5065  1.5044 -1.5536
24196SOL     OW74028   7.740   1.200   5.159 -0.2913 -0.3530 -0.3848
24196SOL    HW174029   7.781   1.282   5.130  2.0484 -1.9417 -1.9782
24196SOL    HW274030   7.727   1.211   5.253  1.9632  1.0913 -0.1726
24197SOL     OW74031   0.493   0.558   6.811  0.0841 -0.3612 -0.0446
24197SOL    HW174032   0.439   0.624   6.768 -1.1071  0.4635  2.5182
24197SOL    HW274033   0.579   0.600   6.821  0.6051 -0.8281 -2.1031
24198SOL     OW74034   0.245   1.613   4.586  0.3732 -0.0769  0.3696
24198SOL    HW174035   0.331   1.575   4.602  0.1644  0.2276  2.4901
24198SOL    HW274036   0.257   1.668   4.508  1.2480 -2.5090 -1.3042
24199SOL     OW74037   6.458   0.422   5.558 -0.0397 -0.5747 -0.4335
24199SOL    HW174038   6.409   0.490   5.512 -0.3142  1.4023  2.5610
24199SOL    HW274039   6.394   0.351   5.570 -1.1963  0.5793  0.4434
24200SOL     OW74040   0.049   0.847   6.604 -0.0148  0.5380  0.6130
24200SOL    HW174041   0.118   0.782   6.619  0.7537  1.2246  0.1971
24200SOL    HW274042   0.094   0.918   6.559 -1.2208  0.5951 -0.5436
24201SOL     OW74043   7.697   7.809   4.716  0.7397 -0.1922 -0.4448
24201SOL    HW174044   7.725   7.900   4.702  0.6929 -0.2542 -0.9686
24201SOL    HW274045   7.674   7.778   4.628 -2.4058  0.3180  0.0832
24202SOL     OW74046   7.108   0.836   3.413  0.3104  0.1912  0.3198
24202SOL    HW174047   7.095   0.928   3.390  0.1094  0.0272 -0.2565
24202SOL    HW274048   7.075   0.828   3.502 -0.2195  0.5562  0.1639
24203SOL     OW74049   6.782   0.224   5.745 -0.8292  0.1596 -0.2653
24203SOL    HW174050   6.687   0.210   5.747 -0.8324  0.2101  0.4007
24203SOL    HW274051   6.807   0.230   5.838 -0.1630  0.0600 -0.4312
24204SOL     OW74052   6.530   0.896   5.001 -0.6113  0.4319  0.2828
24204SOL    HW174053   6.616   0.859   5.021 -1.4900 -0.6514  2.3880
24204SOL    HW274054   6.487   0.830   4.948 -0.9728 -0.0718  1.1979
24205SOL     OW74055   0.079   0.122   4.979  0.1689 -0.7797 -0.1424
24205SOL    HW174056   0.074   0.204   5.026 -1.1192 -1.5631  1.1536
24205SOL    HW274057  -0.004   0.115   4.933  0.2362 -1.3982 -0.1810
24206SOL     OW74058   0.213   1.712   2.960 -0.3031  0.3175 -0.4857
24206SOL    HW174059   0.205   1.778   2.891 -1.7451 -0.0461 -0.7060
24206SOL    HW274060   0.253   1.637   2.917  0.6452  0.7778 -0.4216
24207SOL     OW74061   7.075   1.260   4.677 -0.3030  0.3178 -0.7285
24207SOL    HW174062   7.088   1.176   4.633 -0.8994 -0.3663  0.3677
24207SOL    HW274063   7.147   1.267   4.739 -1.7315 -0.7134  1.1455
24208SOL     OW74064   0.236   2.642   3.611 -0.0441  0.1214 -0.1039
24208SOL    HW174065   0.252   2.718   3.666  2.4413  0.0265 -0.5962
24208SOL    HW274066   0.162   2.667   3.556 -0.9859  1.1318  1.5484
24209SOL     OW74067   1.153   0.717   5.371 -0.1107  0.1073  0.3130
24209SOL    HW174068   1.133   0.779   5.442  2.5568  0.8406  0.5206
24209SOL    HW274069   1.177   0.772   5.297 -2.7055 -0.6606 -1.2336
24210SOL     OW74070   1.274   0.891   5.165 -0.2508 -0.0176 -0.0180
24210SOL    HW174071   1.216   0.956   5.126  0.3823  0.0204 -0.9283
24210SOL    HW274072   1.331   0.942   5.223 -2.4312 -0.2915  2.6065
24211SOL     OW74073   1.838   0.548   3.894  0.2390 -0.1483 -0.0020
24211SOL    HW174074   1.816   0.454   3.897 -0.4202 -0.2000 -3.0644
24211SOL    HW274075   1.764   0.591   3.937 -0.8151 -0.9099 -0.9968
24212SOL     OW74076   1.920   0.015   4.420  0.4534 -0.5354  0.1570
24212SOL    HW174077   1.997  -0.029   4.455  0.4630 -0.3863  0.3241
24212SOL    HW274078   1.904  -0.027   4.336 -0.3375 -1.7808  0.8977
24213SOL     OW74079   1.213   0.319   5.574  0.1612  0.0836 -0.1340
24213SOL    HW174080   1.160   0.382   5.623  0.1684  0.0694 -0.1081
24213SOL    HW274081   1.198   0.342   5.482  0.4285  0.3390 -0.1160
24214SOL     OW74082   6.172   0.590   6.241 -0.3185 -0.5191  0.4540
24214SOL    HW174083   6.217   0.579   6.325 -2.6795  3.8150  2.6435
24214SOL    HW274084   6.083   0.560   6.258 -1.7756  3.5181  0.8290
24215SOL     OW74085   5.772   0.092   3.741 -0.0282  0.2573  0.2120
24215SOL    HW174086   5.844   0.130   3.793 -0.0994  2.6674 -1.2610
24215SOL    HW274087   5.811   0.076   3.655 -0.6152 -0.9657  0.1579
24216SOL     OW74088   7.386   0.161   3.985 -0.3865  0.1850  0.3226
24216SOL    HW174089   7.331   0.137   4.060 -0.3404  0.9935  0.6309
24216SOL    HW274090   7.390   0.257   3.989 -2.7444  0.5413 -2.3656
24217SOL     OW74091   7.352   0.669   3.314  0.0633  0.0732 -0.2657
24217SOL    HW174092   7.399   0.697   3.235  0.8841  2.1659  0.8990
24217SOL    HW274093   7.282   0.733   3.325 -0.3603 -0.4943  0.4341
24218SOL     OW74094   6.778   0.701   6.448 -0.5005 -0.2291  0.1960
24218SOL    HW174095   6.839   0.775   6.437  1.1102 -1.3553  1.0921
24218SOL    HW274096   6.804   0.638   6.381  1.8864 -2.2771  2.7876
24219SOL     OW74097   6.560   1.924   5.675  0.1408  0.2197 -0.1847
24219SOL    HW174098   6.540   1.897   5.765 -1.7955 -0.5665 -0.8038
24219SOL    HW274099   6.549   1.844   5.623 -1.5702  1.2620 -1.5014
24220SOL     OW74100   7.198   6.884   5.157 -0.4186 -0.7709 -0.7692
24220SOL    HW174101   7.256   6.931   5.098  1.2054 -1.0609  0.5045
24220SOL    HW274102   7.123   6.941   5.168  0.4636  0.4821 -1.0378
24221SOL     OW74103   7.937   2.120   5.605 -0.0668 -0.4894  0.1643
24221SOL    HW174104   7.949   2.042   5.658 -1.1467 -0.8302 -0.0506
24221SOL    HW274105   7.867   2.169   5.649 -0.0947 -0.1513 -0.2428
24222SOL     OW74106   0.582   1.516   5.133  0.4196  0.0902  0.4509
24222SOL    HW174107   0.493   1.527   5.166 -0.5492  0.1254 -1.9740
24222SOL    HW274108   0.611   1.605   5.112  0.7522  0.0173  0.5973
24223SOL     OW74109   7.306   0.783   4.682 -0.7032 -0.4185  0.1681
24223SOL    HW174110   7.339   0.693   4.691  0.4244  0.0289  0.7062
24223SOL    HW274111   7.262   0.784   4.597  2.6476 -0.4887 -1.7479
24224SOL     OW74112   6.495   1.460   5.286  0.4959  0.4789 -0.1287
24224SOL    HW174113   6.538   1.518   5.224  1.4638  0.9806  0.9689
24224SOL    HW274114   6.438   1.517   5.337 -1.3447 -0.1328 -1.3718
24225SOL     OW74115   0.481   0.868   4.344  0.2176  0.0658  0.1052
24225SOL    HW174116   0.496   0.962   4.348 -1.1238  0.2484  1.7345
24225SOL    HW274117   0.455   0.843   4.433 -1.4367 -1.4770 -0.7397
24226SOL     OW74118   7.660   7.333   5.192  0.2137 -0.0949  0.2819
24226SOL    HW174119   7.753   7.335   5.167  0.1787 -1.0748  0.0524
24226SOL    HW274120   7.654   7.395   5.264  1.0772 -0.1100  0.3812
24227SOL     OW74121   7.283   1.056   6.592 -0.5155 -0.1501  0.0431
24227SOL    HW174122   7.241   1.043   6.507 -0.7020 -0.6894  0.2149
24227SOL    HW274123   7.373   1.027   6.579 -0.1427  1.1213 -0.3589
24228SOL     OW74124   7.156   0.085   4.896 -0.2205 -0.1501 -0.0586
24228SOL    HW174125   7.165   0.005   4.948 -1.7401 -0.6194 -0.4639
24228SOL    HW274126   7.177   0.057   4.807 -1.7841 -0.3890 -0.3831
24229SOL     OW74127   0.725   0.835   7.000  0.7624  0.3031  0.4249
24229SOL    HW174128   0.735   0.745   7.029  1.5890  0.5032  0.7656
24229SOL    HW274129   0.781   0.842   6.923  1.3697  0.7578  0.9013
24230SOL     OW74130   7.572   1.680   3.813 -0.3876 -0.4097  0.1604
24230SOL    HW174131   7.476   1.683   3.819 -0.4260 -0.3939 -0.4387
24230SOL    HW274132   7.599   1.771   3.824 -0.4990 -0.2852 -0.5703
24231SOL     OW74133   7.566   0.425   5.678  0.0067 -0.0257 -0.5163
24231SOL    HW174134   7.501   0.377   5.730 -0.2460  1.8090  0.9686
24231SOL    HW274135   7.650   0.395   5.711 -0.1470  1.1163  1.0841
24232SOL     OW74136   7.179   1.123   4.423  0.1728  0.3373  0.3753
24232SOL    HW174137   7.241   1.077   4.367  2.0387  1.0756  1.7392
24232SOL    HW274138   7.177   1.071   4.504  0.6636  1.4599  1.1260
24233SOL     OW74139   1.557   1.612   4.355 -0.1964 -0.7233 -0.3757
24233SOL    HW174140   1.514   1.529   4.378  0.6144 -0.9341  0.4426
24233SOL    HW274141   1.487   1.677   4.360 -0.4120 -1.0252  1.1728
24234SOL     OW74142   1.595   7.605   4.337 -0.4960  0.3790 -0.0521
24234SOL    HW174143   1.582   7.692   4.374 -0.1225  1.3065 -2.0297
24234SOL    HW274144   1.685   7.606   4.305 -0.2073 -1.0478  0.6231
24235SOL     OW74145   6.260   7.783   5.644 -0.4061 -0.1903  0.0094
24235SOL    HW174146   6.166   7.770   5.657 -1.0464  0.8686 -2.7256
24235SOL    HW274147   6.283   7.719   5.577  0.4436  0.6160 -0.4829
24236SOL     OW74148   7.199   6.711   2.648 -0.5748  0.3548 -0.1563
24236SOL    HW174149   7.135   6.782   2.647 -2.6710 -1.4366 -0.4251
24236SOL    HW274150   7.160   6.643   2.594  0.7925 -1.4953  1.0638
24237SOL     OW74151   1.936   0.532   5.708  0.0750  0.2208 -0.4682
24237SOL    HW174152   1.950   0.601   5.772 -0.4107  1.2914 -1.4866
24237SOL    HW274153   2.016   0.480   5.710 -0.5107 -0.6873  2.0762
24238SOL     OW74154   7.685   1.022   4.428  0.4764  0.2696  0.2021
24238SOL    HW174155   7.740   1.090   4.466 -0.0293  0.6396  0.2878
24238SOL    HW274156   7.662   0.966   4.502  0.0407  0.6066  0.3269
24239SOL     OW74157   0.320   2.118   5.715  0.0904 -0.4895 -0.7440
24239SOL    HW174158   0.311   2.035   5.760  0.9820  0.5047  1.4340
24239SOL    HW274159   0.254   2.175   5.756 -0.1093  0.0525 -1.7800
24240SOL     OW74160   5.797   0.566   2.755 -0.3400  0.5174  0.2585
24240SOL    HW174161   5.775   0.505   2.825 -1.6954  1.0340  0.3033
24240SOL    HW274162   5.713   0.600   2.725  0.3196  1.5202 -0.5220
24241SOL     OW74163   0.790   1.428   4.842  0.4919 -0.4494 -0.4751
24241SOL    HW174164   0.844   1.489   4.892  1.4940 -0.6701 -1.2524
24241SOL    HW274165   0.759   1.365   4.907  2.3957 -1.1811 -0.1971
24242SOL     OW74166   0.622   7.228   4.663  0.3036 -0.0819  0.6363
24242SOL    HW174167   0.714   7.204   4.668  0.6198  1.0606  0.5605
24242SOL    HW274168   0.599   7.253   4.753 -0.0427 -0.7401  0.7344
24243SOL     OW74169   6.817   3.154   5.061 -0.5581 -0.0715  0.0074
24243SOL    HW174170   6.849   3.122   5.145  0.9666 -1.2996 -1.0093
24243SOL    HW274171   6.838   3.247   5.061  0.9059 -0.3878  0.3431
24244SOL     OW74172   0.926   7.302   4.943 -0.3860 -0.3617  0.1074
24244SOL    HW174173   0.951   7.248   4.868  1.2586  1.4079 -0.6967
24244SOL    HW274174   0.832   7.315   4.934 -0.1221  0.3089 -2.0084
24245SOL     OW74175   0.926   0.822   5.023  0.3971 -0.6022 -0.3837
24245SOL    HW174176   0.994   0.785   4.966 -0.4079 -0.9164 -1.1602
24245SOL    HW274177   0.923   0.762   5.097  1.4809 -0.1682  0.0442
24246SOL     OW74178   0.610   3.031   4.904 -0.6911 -0.0753  0.4171
24246SOL    HW174179   0.627   3.103   4.964 -0.7004 -1.0757  1.6547
24246SOL    HW274180   0.538   2.982   4.945 -0.6208 -0.8476 -0.3512
24247SOL     OW74181   0.741   1.733   5.045  0.4216  0.6554 -0.3328
24247SOL    HW174182   0.821   1.683   5.030 -2.7736 -5.5516  0.3071
24247SOL    HW274183   0.740   1.748   5.140 -0.3362 -1.8432  0.1050
24248SOL     OW74184   7.267   7.951   6.126 -0.1517  0.4111  0.6854
24248SOL    HW174185   7.238   8.035   6.089 -1.1522  0.1274  0.8040
24248SOL    HW274186   7.213   7.885   6.083 -0.3132 -0.0580  1.5789
24249SOL     OW74187   7.152   7.956   2.749 -0.2964  0.0857  0.9061
24249SOL    HW174188   7.133   7.890   2.816 -1.4881  1.0995  1.6039
24249SOL    HW274189   7.075   8.012   2.748  0.8434  1.7199  0.6116
24250SOL     OW74190   6.225   1.364   5.289  0.7561 -0.3581  0.1746
24250SOL    HW174191   6.314   1.392   5.309  0.4837  0.1851  0.6496
24250SOL    HW274192   6.221   1.273   5.319  1.4404 -0.7012 -0.7474
24251SOL     OW74193   0.034   2.513   5.133 -0.4163  0.2926  0.4806
24251SOL    HW174194   0.012   2.439   5.190  3.3005 -1.8512 -0.5226
24251SOL    HW274195  -0.041   2.521   5.074 -3.8853  1.8421  4.5790
24252SOL     OW74196   6.789   0.979   5.677 -0.4549  0.2440  0.0916
24252SOL    HW174197   6.783   0.883   5.680  0.9936  0.1097 -0.6409
24252SOL    HW274198   6.774   1.001   5.585 -2.5717  0.9126  0.5238
24253SOL     OW74199   7.739   2.773   3.567  0.2478  0.0943 -0.0343
24253SOL    HW174200   7.742   2.821   3.484  1.2878  1.5896  0.8268
24253SOL    HW274201   7.686   2.828   3.624 -1.9052 -1.7287 -0.1165
24254SOL     OW74202   6.499   2.171   5.157  0.2327 -0.2581 -0.2555
24254SOL    HW174203   6.465   2.210   5.238  0.0246  2.4586 -1.5470
24254SOL    HW274204   6.554   2.099   5.188 -2.2389 -1.3309  2.1354
24255SOL     OW74205   0.244   7.883   4.349  0.1364  0.0954  0.0321
24255SOL    HW174206   0.245   7.962   4.296  0.7277 -0.8881 -1.4813
24255SOL    HW274207   0.186   7.823   4.302  2.2183 -1.4984 -0.6342
24256SOL     OW74208   7.943   1.164   3.164 -0.2394  0.1300 -0.3928
24256SOL    HW174209   7.927   1.078   3.126 -0.6194  0.9748 -2.2725
24256SOL    HW274210   7.946   1.223   3.089  1.2868  1.5887  0.7344
24257SOL     OW74211   6.824   1.355   5.650 -0.5261  0.7441 -0.5851
24257SOL    HW174212   6.749   1.336   5.594 -0.7517 -0.7485  0.1882
24257SOL    HW274213   6.807   1.308   5.731  1.1325  0.5474 -0.3095
24258SOL     OW74214   0.264   7.715   4.798 -0.1426 -0.3355  0.4562
24258SOL    HW174215   0.205   7.737   4.725  1.1724  1.4749 -0.1351
24258SOL    HW274216   0.298   7.799   4.827  0.2466 -1.1238  2.4664
24259SOL     OW74217   1.981   0.462   7.694  0.5025 -0.1932 -0.0815
24259SOL    HW174218   1.891   0.437   7.675  0.5836  1.4475 -3.1733
24259SOL    HW274219   2.014   0.391   7.750 -2.0806 -1.8523 -0.5133
24260SOL     OW74220   7.815   0.833   7.522  0.1308  0.0896  0.2033
24260SOL    HW174221   7.762   0.754   7.527  1.0211 -0.5052  0.5304
24260SOL    HW274222   7.860   0.826   7.437 -0.9775  1.0409 -0.4928
24261SOL     OW74223   1.458   7.506   8.210 -0.3626 -0.0348 -0.0141
24261SOL    HW174224   1.452   7.541   8.299 -2.6924  0.7411 -0.4067
24261SOL    HW274225   1.505   7.573   8.161  0.5549 -0.2733  0.5210
24262SOL     OW74226   0.342   3.852   5.683 -0.1223  0.0945 -0.5201
24262SOL    HW174227   0.400   3.888   5.615 -1.5841  1.1381 -1.2710
24262SOL    HW274228   0.263   3.905   5.677 -2.3389 -3.0663 -1.4938
24263SOL     OW74229   7.620   2.911   6.695 -0.0236 -0.2892  0.0356
24263SOL    HW174230   7.578   2.957   6.768  0.5409 -1.8260  1.3988
24263SOL    HW274231   7.577   2.945   6.617 -2.9490 -0.8603  1.2704
24264SOL     OW74232   7.955   1.366   6.254 -0.4223 -0.2326 -0.1478
24264SOL    HW174233   7.954   1.442   6.312 -0.0949  0.9340 -1.6044
24264SOL    HW274234   7.960   1.291   6.313 -1.6837  0.8109  1.3795
24265SOL     OW74235   7.753   0.179   7.430  0.4263 -0.0775 -0.7334
24265SOL    HW174236   7.741   0.095   7.385  0.8275 -1.0520  0.9063
24265SOL    HW274237   7.664   0.210   7.445  0.1604 -1.4988  0.9162
24266SOL     OW74238   6.603   7.952   6.599  0.1914 -0.0618  0.0625
24266SOL    HW174239   6.599   7.890   6.526  0.2338 -1.2084  0.9967
24266SOL    HW274240   6.697   7.967   6.612  0.3290 -1.6514  1.2900
24267SOL     OW74241   0.487   7.724   6.931  0.7319  0.2304  0.3019
24267SOL    HW174242   0.531   7.786   6.873  1.3293  0.1643  0.6649
24267SOL    HW274243   0.455   7.655   6.873  1.8143 -0.1214  0.1041
24268SOL     OW74244   1.152   0.741   8.923  0.0023 -0.3691  0.5276
24268SOL    HW174245   1.241   0.763   8.950  1.1141 -1.1820 -2.1099
24268SOL    HW274246   1.161   0.660   8.873 -2.2373 -0.4847  0.1830
24269SOL     OW74247   7.322   6.946   7.075 -0.0567  0.2789 -0.1296
24269SOL    HW174248   7.312   6.958   6.981 -1.8948 -0.0969 -0.0269
24269SOL    HW274249   7.232   6.949   7.109  0.4385 -1.0914  1.4172
24270SOL     OW74250   1.238   1.138   7.590 -0.3213 -0.0178  0.6206
24270SOL    HW174251   1.320   1.166   7.630 -0.4448 -0.1597  0.9741
24270SOL    HW274252   1.235   1.184   7.506  0.1240 -0.0184  0.6011
24271SOL     OW74253   0.501   0.755   5.667  0.1531  0.0470 -0.3592
24271SOL    HW174254   0.449   0.763   5.746 -0.3192 -0.2952 -0.6315
24271SOL    HW274255   0.447   0.704   5.607  0.0035  1.2803 -1.3188
24272SOL     OW74256   6.608   7.928   5.547 -0.5125 -0.0837  0.6835
24272SOL    HW174257   6.618   7.884   5.632 -0.9309 -2.0922 -0.2571
24272SOL    HW274258   6.658   7.874   5.486 -0.3397  1.2525 -0.4007
24273SOL     OW74259   7.320   2.297   6.357  0.0506  0.5320 -0.5539
24273SOL    HW174260   7.330   2.234   6.285 -1.2864 -0.6779  0.2529
24273SOL    HW274261   7.392   2.277   6.417 -2.0535 -2.4875  1.2277
24274SOL     OW74262   7.662   1.692   6.072  0.2921  0.4135 -0.4192
24274SOL    HW174263   7.628   1.672   6.160  0.1488  1.9833 -0.0876
24274SOL    HW274264   7.597   1.655   6.012 -1.3868  2.2011  0.1881
24275SOL     OW74265   7.858   1.647   5.736  0.3894 -0.1178 -0.1853
24275SOL    HW174266   7.894   1.613   5.654  0.7181 -1.1109  0.3581
24275SOL    HW274267   7.845   1.570   5.791 -0.4099  0.4692  0.4826
24276SOL     OW74268   1.012   7.866   7.163 -0.3568  1.1200 -0.1483
24276SOL    HW174269   1.013   7.835   7.253 -2.1750  1.6134  0.0810
24276SOL    HW274270   0.928   7.835   7.128  0.4771  0.6001 -1.8075
24277SOL     OW74271   6.143   1.856   8.164  0.2862 -0.6815  0.0783
24277SOL    HW174272   6.063   1.898   8.196 -0.6570 -1.1582 -1.5198
24277SOL    HW274273   6.162   1.901   8.082  1.4747 -0.8098  0.2676
24278SOL     OW74274   7.471   3.486   7.817 -0.3627 -0.9516  0.2173
24278SOL    HW174275   7.473   3.400   7.857  1.6950 -0.6631  0.8920
24278SOL    HW274276   7.544   3.485   7.755  0.1623  0.4794  0.7499
24279SOL     OW74277   1.626   7.777   6.535 -0.1073 -0.3806  0.1915
24279SOL    HW174278   1.688   7.707   6.515 -0.3538 -0.8608  1.0506
24279SOL    HW274279   1.578   7.745   6.611 -0.5411  0.5320  0.3136
24280SOL     OW74280   1.233   6.534   5.062 -0.3533 -0.1591  0.2148
24280SOL    HW174281   1.208   6.458   5.115  0.4496 -1.2456 -0.9146
24280SOL    HW274282   1.198   6.515   4.975 -1.3206  1.4231  0.2192
24281SOL     OW74283   6.991   1.529   4.024 -0.2111 -0.1820  0.1671
24281SOL    HW174284   6.976   1.538   3.930 -0.9612 -0.9156  0.2103
24281SOL    HW274285   6.965   1.439   4.045 -0.4863  0.1069  1.1565
24282SOL     OW74286   7.665   2.283   6.132 -0.0634  0.6514  0.9102
24282SOL    HW174287   7.619   2.245   6.057  1.3888  0.5654  0.0139
24282SOL    HW274288   7.657   2.377   6.120  1.9036  0.7190 -0.5998
24283SOL     OW74289   7.166   3.146   6.475  0.5509 -0.7230 -0.1456
24283SOL    HW174290   7.141   3.056   6.456  0.4308 -0.4054 -1.6538
24283SOL    HW274291   7.177   3.149   6.570 -1.7788 -1.7366  0.2249
24284SOL     OW74292   1.388   7.767   6.222  0.0776  0.1650  0.0960
24284SOL    HW174293   1.442   7.691   6.241 -1.4654 -1.0200 -0.0896
24284SOL    HW274294   1.386   7.772   6.126  1.2894  1.2942  0.1044
24285SOL     OW74295   1.268   1.230   8.498 -0.2903  0.3869 -0.4156
24285SOL    HW174296   1.339   1.185   8.543 -1.7465 -1.0060  0.5970
24285SOL    HW274297   1.205   1.249   8.567 -0.1880  3.1866 -0.9747
24286SOL     OW74298   0.780   7.696   7.045 -0.1506 -0.6708 -0.4248
24286SOL    HW174299   0.712   7.758   7.071 -0.6753 -1.5416  0.3170
24286SOL    HW274300   0.811   7.729   6.961 -0.8255  0.2689 -0.3207
24287SOL     OW74301   0.234   0.607   8.626  0.1749 -0.8120 -0.3750
24287SOL    HW174302   0.269   0.589   8.538  0.0335 -0.4418 -0.5096
24287SOL    HW274303   0.256   0.699   8.642  0.6486 -1.0161  0.1892
24288SOL     OW74304   0.066   2.344   8.507  0.1548  0.0080  0.6025
24288SOL    HW174305   0.034   2.417   8.560 -1.2815 -0.3032  0.1997
24288SOL    HW274306  -0.008   2.283   8.502  1.1387 -1.2155  0.4534
24289SOL     OW74307   0.489   1.461   8.480 -0.4224 -0.2451  0.1790
24289SOL    HW174308   0.510   1.368   8.487 -0.5898 -0.3284 -0.3507
24289SOL    HW274309   0.527   1.487   8.396 -1.7069 -0.2115 -0.4174
24290SOL     OW74310   6.630   6.828   7.791  0.0127  0.2831  0.2230
24290SOL    HW174311   6.581   6.783   7.860  1.7161  0.4562  1.5949
24290SOL    HW274312   6.691   6.885   7.837  2.3919 -0.8237 -1.3374
24291SOL     OW74313   7.324   2.711   6.389  0.2179  0.1255 -0.0867
24291SOL    HW174314   7.257   2.650   6.358  0.3127  0.7542 -1.6064
24291SOL    HW274315   7.357   2.753   6.309  0.4215  1.8942  0.8745
24292SOL     OW74316   7.410   1.640   8.550  0.1527 -0.0001 -0.1955
24292SOL    HW174317   7.457   1.572   8.502 -0.5267 -0.7953  0.2469
24292SOL    HW274318   7.470   1.715   8.550  1.5121 -1.0384  0.5224
24293SOL     OW74319   2.001   0.575   8.560  0.0162  0.2035 -0.2644
24293SOL    HW174320   2.000   0.670   8.576 -0.5024  0.4463 -1.5868
24293SOL    HW274321   2.009   0.567   8.465  0.7048 -1.1034 -0.1232
24294SOL     OW74322   1.677   0.985   7.004 -0.0507 -0.2014 -0.3710
24294SOL    HW174323   1.697   0.964   7.095  3.4738 -2.0008 -1.3880
24294SOL    HW274324   1.699   0.905   6.956  1.9768  1.8533 -3.1835
24295SOL     OW74325   7.388   7.934   7.284  0.3249  0.0639  0.5075
24295SOL    HW174326   7.422   8.023   7.291 -1.7016  0.8507  0.7422
24295SOL    HW274327   7.335   7.935   7.204 -0.5574 -0.6304  1.0747
24296SOL     OW74328   1.297   7.446   4.457  0.4172  0.4300  0.0982
24296SOL    HW174329   1.345   7.517   4.498  0.6177 -1.1124  2.7850
24296SOL    HW274330   1.273   7.479   4.371  1.5437  3.2455  0.7726
24297SOL     OW74331   0.722   0.740   7.419  0.4489  0.7935  0.2169
24297SOL    HW174332   0.696   0.684   7.491 -0.8022 -0.4188 -1.1025
24297SOL    HW274333   0.815   0.720   7.404  0.4387  0.2939  0.7997
24298SOL     OW74334   7.788   0.113   4.892 -0.3302  0.4633  0.1989
24298SOL    HW174335   7.706   0.069   4.869 -0.4357  0.8301 -0.1284
24298SOL    HW274336   7.770   0.206   4.878  0.0152  0.5805  0.5155
24299SOL     OW74337   1.856   7.617   6.481  0.3668 -0.8095 -0.0713
24299SOL    HW174338   1.915   7.677   6.436 -0.5583 -0.2625 -0.5755
24299SOL    HW274339   1.914   7.554   6.524  1.4130  1.0725  1.4167
24300SOL     OW74340   1.263   1.631   6.141 -0.1582 -0.0018 -0.2276
24300SOL    HW174341   1.225   1.602   6.059 -0.8840 -1.0162  0.4392
24300SOL    HW274342   1.317   1.557   6.170  0.0479  0.3217  0.2306
24301SOL     OW74343   0.692   1.325   8.021  0.5425 -0.4051 -0.3384
24301SOL    HW174344   0.782   1.345   7.995 -0.4796  3.3848 -1.5890
24301SOL    HW274345   0.647   1.305   7.939  0.0629 -1.6650  0.2064
24302SOL     OW74346   2.144   5.615   4.087 -0.3697 -0.5583  0.0967
24302SOL    HW174347   2.168   5.641   4.176 -3.6378 -1.0988  1.2472
24302SOL    HW274348   2.196   5.536   4.071  0.4576 -0.3208  1.4157
24303SOL     OW74349   0.114   2.824   8.728 -0.1153 -0.8373 -0.0082
24303SOL    HW174350   0.062   2.744   8.742  0.5677 -1.5176 -1.2404
24303SOL    HW274351   0.050   2.892   8.709 -0.5945 -1.6118 -1.2471
24304SOL     OW74352   7.745   0.700   5.385 -0.2991  0.0422 -0.2208
24304SOL    HW174353   7.802   0.718   5.310  1.8581 -0.5817  1.1679
24304SOL    HW274354   7.703   0.784   5.404  1.2470  0.9102 -0.4671
24305SOL     OW74355   6.883   2.607   6.266 -0.3597  0.1889  0.1308
24305SOL    HW174356   6.921   2.669   6.204  1.0012  0.0329  0.7703
24305SOL    HW274357   6.956   2.550   6.291 -0.7655  0.4268  2.0797
24306SOL     OW74358   6.999   1.939   6.690 -0.0148  0.6796 -0.0526
24306SOL    HW174359   7.003   1.976   6.778  1.0674  1.8631 -0.5694
24306SOL    HW274360   7.087   1.950   6.655  0.1788 -1.7577 -0.5377
24307SOL     OW74361   7.348   2.393   6.717  0.4245 -0.5215 -0.2681
24307SOL    HW174362   7.405   2.337   6.665  0.0145  1.3913 -2.9797
24307SOL    HW274363   7.262   2.387   6.675 -0.0124  0.8437  0.3427
24308SOL     OW74364   7.488   1.247   7.186  0.3280 -0.0646  0.0297
24308SOL    HW174365   7.396   1.254   7.211 -0.4048  0.7857 -2.5462
24308SOL    HW274366   7.532   1.215   7.264 -1.7403  1.8660  2.1414
24309SOL     OW74367   1.097   7.822   7.802  0.0437  0.5485 -0.4600
24309SOL    HW174368   1.125   7.899   7.753  0.6442  0.3351 -0.4638
24309SOL    HW274369   1.162   7.755   7.781 -0.3367  0.1116 -0.2696
24310SOL     OW74370   7.009   3.101   6.878  0.2355  0.6744  0.1334
24310SOL    HW174371   6.944   3.061   6.936  1.3682 -0.0423  0.9572
24310SOL    HW274372   6.961   3.117   6.796 -0.3416 -2.3288 -0.2459
24311SOL     OW74373   6.472   3.520   6.187  0.3311  0.0567 -0.5438
24311SOL    HW174374   6.493   3.604   6.146 -2.5395  1.1234 -0.0664
24311SOL    HW274375   6.412   3.478   6.126 -1.4898  0.2511  1.0407
24312SOL     OW74376   6.686   1.735   7.051  0.1011 -0.0119 -0.8375
24312SOL    HW174377   6.633   1.691   7.118 -1.9279 -0.4106 -2.5702
24312SOL    HW274378   6.665   1.827   7.062  0.5421  0.0336 -0.3234
24313SOL     OW74379   6.910   0.880   5.271  0.5942  0.2742 -0.0107
24313SOL    HW174380   6.982   0.934   5.304  1.5365  0.4321 -2.2026
24313SOL    HW274381   6.953   0.813   5.218 -0.8871  0.8420 -2.0279
24314SOL     OW74382   7.337   1.966   5.741  0.2212  0.4102  0.4197
24314SOL    HW174383   7.332   1.871   5.729 -1.0099  0.3388  1.3371
24314SOL    HW274384   7.408   1.993   5.683 -0.0333 -0.9457 -0.5948
24315SOL     OW74385   7.513   2.484   7.749 -0.5671 -0.4342 -0.1972
24315SOL    HW174386   7.554   2.569   7.766 -1.5387 -0.3121  1.7332
24315SOL    HW274387   7.586   2.427   7.724  0.1680  0.8083 -1.0379
24316SOL     OW74388   0.788   1.550   8.463  0.6873  0.1392 -0.0580
24316SOL    HW174389   0.873   1.594   8.460 -0.4014  2.4262  0.1853
24316SOL    HW274390   0.751   1.576   8.548 -1.0842  0.9812 -1.0228
24317SOL     OW74391   6.695   0.342   6.590  0.3353  0.4114  0.4476
24317SOL    HW174392   6.621   0.282   6.599  1.3976 -0.8492  0.9906
24317SOL    HW274393   6.705   0.354   6.496  0.2924 -0.4955  0.3194
24318SOL     OW74394   0.976   0.114   7.966 -0.1396  0.2637 -0.0842
24318SOL    HW174395   0.934   0.177   8.025  1.7878  0.9317  0.6587
24318SOL    HW274396   1.055   0.086   8.013 -0.1837 -1.6280 -1.0277
24319SOL     OW74397   7.980   2.173   7.086 -0.0185  0.3670  0.6354
24319SOL    HW174398   8.062   2.152   7.040 -0.4056  1.2012 -0.4694
24319SOL    HW274399   7.945   2.249   7.039 -1.0825  0.4438  1.5284
24320SOL     OW74400   7.304   0.643   6.615 -0.2454  0.5193 -0.5417
24320SOL    HW174401   7.266   0.613   6.698  0.3374 -1.0370 -0.8029
24320SOL    HW274402   7.389   0.678   6.640  1.3967 -2.8944 -0.7201
24321SOL     OW74403   0.776   1.871   8.309  0.3895 -0.1498 -0.0463
24321SOL    HW174404   0.686   1.850   8.282  0.4772  0.0128 -0.4675
24321SOL    HW274405   0.794   1.811   8.381  0.4444 -1.1479 -0.8718
24322SOL     OW74406   0.588   1.169   6.845 -0.1050 -0.5068 -0.3930
24322SOL    HW174407   0.658   1.232   6.861 -0.4247 -0.0185 -0.8728
24322SOL    HW274408   0.624   1.110   6.779 -0.1748 -0.1840 -0.7298
24323SOL     OW74409   0.420   1.059   8.346  0.6032 -0.1801 -0.8678
24323SOL    HW174410   0.427   1.119   8.271  1.6020 -0.3423 -0.9161
24323SOL    HW274411   0.456   0.977   8.314  1.6787 -0.0578 -0.0117
24324SOL     OW74412   0.398   2.238   8.764 -0.0508  0.3893 -0.5729
24324SOL    HW174413   0.335   2.288   8.816  0.5843 -0.1856  0.8087
24324SOL    HW274414   0.345   2.175   8.716 -0.4871 -1.2313  1.8410
24325SOL     OW74415   7.972   1.095   9.110 -0.0078  0.1516 -0.4666
24325SOL    HW174416   8.040   1.161   9.103  0.1364 -0.0586 -1.0697
24325SOL    HW274417   7.929   1.094   9.025  1.3622 -1.9750 -1.2229
24326SOL     OW74418   6.961   1.775   6.974  0.0784 -0.2460  0.3220
24326SOL    HW174419   6.959   1.807   6.884 -0.0635 -0.9723  0.0589
24326SOL    HW274420   6.869   1.766   6.998  0.1163 -0.5159  0.3678
24327SOL     OW74421   0.123   1.371   7.620  0.0414  0.1881 -0.3786
24327SOL    HW174422   0.076   1.357   7.538  1.0326 -0.9688 -0.7788
24327SOL    HW274423   0.128   1.467   7.629 -0.5475  0.3238 -1.3875
24328SOL     OW74424   1.655   0.515  10.714 -0.5900 -0.8100  0.9335
24328SOL    HW174425   1.728   0.537  10.773 -0.4997  0.0241  0.5190
24328SOL    HW274426   1.659   0.581  10.645 -1.1404 -1.3488  0.3738
24329SOL     OW74427   7.456   1.464   8.909  0.0551 -0.2420 -0.3393
24329SOL    HW174428   7.534   1.485   8.858 -0.9102  0.0582 -1.7619
24329SOL    HW274429   7.484   1.397   8.971  1.4744 -0.0061 -0.7068
24330SOL     OW74430   0.627   1.520   7.543  0.6879 -0.3835 -0.3726
24330SOL    HW174431   0.564   1.465   7.590  1.9794 -1.4460  0.1617
24330SOL    HW274432   0.583   1.605   7.535 -0.5646 -0.9167  0.5130
24331SOL     OW74433   0.056   1.147   9.420 -0.0365  0.1456 -0.0814
24331SOL    HW174434  -0.036   1.155   9.442 -0.5745 -3.1080 -0.6142
24331SOL    HW274435   0.092   1.086   9.485  1.1001 -0.5553 -1.2999
24332SOL     OW74436   0.644   2.166   8.992  0.2080 -0.3236 -0.0437
24332SOL    HW174437   0.571   2.226   8.981  2.0024  2.1758  0.7627
24332SOL    HW274438   0.703   2.187   8.920  0.0496 -2.5618 -0.9154
24333SOL     OW74439   1.114   1.649   8.838  0.1567 -0.1580  0.4220
24333SOL    HW174440   1.119   1.714   8.908 -1.0260  0.5236 -0.1076
24333SOL    HW274441   1.193   1.665   8.786 -0.0316  0.7712  0.3900
24334SOL     OW74442   7.965   1.728   8.617  0.6066 -0.3565 -0.0371
24334SOL    HW174443   7.933   1.806   8.573  0.0003 -0.6066 -0.0511
24334SOL    HW274444   8.028   1.689   8.556  0.7894  0.0332 -0.0962
24335SOL     OW74445   7.324   0.902   9.327  0.1113 -0.6479 -0.0424
24335SOL    HW174446   7.388   0.839   9.361  1.3399 -0.3357 -1.6681
24335SOL    HW274447   7.345   0.984   9.370  0.8864 -0.5281 -0.6331
24336SOL     OW74448   7.713   1.889   8.901 -0.2486 -0.0370 -0.4667
24336SOL    HW174449   7.642   1.832   8.871  0.5190  0.1785 -2.9114
24336SOL    HW274450   7.698   1.972   8.855  1.4681  0.0774 -0.8679
24337SOL     OW74451   1.408   1.593  11.021  0.0463  0.4688  0.5923
24337SOL    HW174452   1.382   1.515  11.071 -1.1425  0.0874 -0.5690
24337SOL    HW274453   1.366   1.666  11.067  0.7062  0.3713  1.3638
24338SOL     OW74454   2.079   3.000   8.564  0.3959  0.1899 -0.8805
24338SOL    HW174455   2.087   2.981   8.470  1.2306  0.5667 -0.8921
24338SOL    HW274456   2.167   3.028   8.591 -0.3089  2.1438 -0.4339
24339SOL     OW74457   1.942   0.704   7.529 -0.2864 -0.4593  0.2812
24339SOL    HW174458   2.010   0.647   7.563  0.0931 -0.7298 -0.8777
24339SOL    HW274459   1.975   0.793   7.544 -1.3134 -0.4500  2.9831
24340SOL     OW74460   0.978   0.641   9.470  0.3488 -0.1077  0.3375
24340SOL    HW174461   0.924   0.617   9.396  0.3571  0.5759  0.1002
24340SOL    HW274462   1.025   0.561   9.493  0.7347 -0.1998 -0.7246
24341SOL     OW74463   6.482   0.997  10.096  0.1333  0.1495  0.0102
24341SOL    HW174464   6.423   0.987  10.021 -1.3617 -0.5264  1.2109
24341SOL    HW274465   6.440   1.064  10.150  0.5302 -0.2485  0.8217
24342SOL     OW74466   7.956   2.330  10.015  0.4654  0.2437  0.0350
24342SOL    HW174467   7.974   2.280   9.935 -0.0826 -1.0818  0.6999
24342SOL    HW274468   8.023   2.302  10.077  0.4628  0.7208  0.2547
24343SOL     OW74469   7.819   7.274   7.352 -0.5655  0.1420 -0.3750
24343SOL    HW174470   7.835   7.367   7.371  1.6340 -0.4519  1.0233
24343SOL    HW274471   7.827   7.268   7.257 -2.2949  1.5979 -0.6726
24344SOL     OW74472   1.859   1.176   7.458  0.0427  0.4939 -0.3127
24344SOL    HW174473   1.892   1.093   7.423  1.4926  1.1365 -0.5407
24344SOL    HW274474   1.916   1.242   7.420 -0.1169  1.4665  1.0853
24345SOL     OW74475   7.935   6.437   8.283  0.3684 -0.2705  0.0507
24345SOL    HW174476   7.894   6.418   8.368 -0.5619 -1.4645 -0.6219
24345SOL    HW274477   7.865   6.478   8.232  0.8324  0.1585 -0.2471
24346SOL     OW74478   7.623   3.527   7.598 -0.3370 -0.0431  0.4299
24346SOL    HW174479   7.565   3.603   7.599  0.3097  0.4661  0.6503
24346SOL    HW274480   7.628   3.502   7.506 -1.3057 -0.4168  0.4716
24347SOL     OW74481   7.167   0.715   8.920  0.0598 -0.4545  0.1077
24347SOL    HW174482   7.150   0.797   8.967  2.1764 -0.5725  1.2068
24347SOL    HW274483   7.114   0.650   8.966 -1.9884  0.3081 -1.0507
24348SOL     OW74484   1.587   2.054   7.662  0.4543 -0.1644  0.1197
24348SOL    HW174485   1.602   1.970   7.705  0.6129  0.8021  2.0426
24348SOL    HW274486   1.627   2.045   7.576 -1.7037 -2.8983 -0.7407
24349SOL     OW74487   0.746   3.866   8.362  0.3441 -0.0727 -0.1557
24349SOL    HW174488   0.742   3.789   8.418  0.7692 -0.1858 -0.2786
24349SOL    HW274489   0.666   3.915   8.382  0.8222  0.2435  1.0408
24350SOL     OW74490   0.068   2.057   8.751  0.1708 -0.0920  0.0012
24350SOL    HW174491  -0.026   2.040   8.759  0.1920  0.5260  2.0028
24350SOL    HW274492   0.109   1.973   8.768  0.0314  0.1919  1.9173
24351SOL     OW74493   1.582   1.209   8.076  0.0253 -0.4270 -0.1228
24351SOL    HW174494   1.499   1.234   8.035  1.6136  0.6916 -2.9768
24351SOL    HW274495   1.607   1.285   8.128  0.3997  0.2549 -1.2676
24352SOL     OW74496   0.074   3.347   8.668  0.0137  0.3163 -0.2885
24352SOL    HW174497   0.163   3.314   8.657 -0.1654 -0.1000 -0.5117
24352SOL    HW274498   0.082   3.418   8.732  0.3973 -0.2129  0.2607
24353SOL     OW74499   7.749   2.289  10.611  0.1662 -0.5227 -0.4056
24353SOL    HW174500   7.731   2.331  10.527  1.4974 -1.6500 -1.3105
24353SOL    HW274501   7.760   2.197  10.589  1.3455 -0.7174  0.8815
24354SOL     OW74502   0.567   7.563   9.129  0.3147 -0.2837 -0.6409
24354SOL    HW174503   0.580   7.509   9.051 -1.4101  0.1845 -1.3111
24354SOL    HW274504   0.646   7.550   9.181  1.4587 -0.7439 -2.3863
24355SOL     OW74505   0.526   2.427   7.951  0.7529  0.6294  0.3426
24355SOL    HW174506   0.589   2.366   7.989  2.7888  1.9461 -0.7029
24355SOL    HW274507   0.576   2.508   7.939 -1.9396  2.7074  2.1196
24356SOL     OW74508   1.051   6.810   8.918 -0.0090 -0.3745  0.0879
24356SOL    HW174509   1.043   6.791   8.825  1.1289 -1.2914  0.1656
24356SOL    HW274510   1.024   6.729   8.962  1.4844 -0.6751  0.4946
24357SOL     OW74511   0.844   1.656   8.727  0.0136 -0.3789 -0.2165
24357SOL    HW174512   0.939   1.657   8.740  0.3235 -0.0787 -2.2308
24357SOL    HW274513   0.808   1.649   8.816  1.8935  0.3467  0.6579
24358SOL     OW74514   0.782   1.694   9.005 -0.6426 -0.5719  0.1227
24358SOL    HW174515   0.817   1.781   8.983 -2.3049  0.4446  1.2584
24358SOL    HW274516   0.791   1.689   9.100  0.7816 -2.2983 -0.0608
24359SOL     OW74517   0.023   1.500  10.322  0.4057  0.3518 -0.1301
24359SOL    HW174518   0.094   1.520  10.383  0.1696  0.2514  0.1747
24359SOL    HW274519   0.025   1.405  10.313  1.5471  0.4645 -1.6035
24360SOL     OW74520   0.707   2.157   8.250 -0.0855  0.4187 -0.4639
24360SOL    HW174521   0.790   2.204   8.239 -0.1723  0.4575 -0.9491
24360SOL    HW274522   0.732   2.067   8.268  0.0779  0.5970  0.2506
24361SOL     OW74523   0.900   0.244   8.190 -0.3001 -0.3086  0.5646
24361SOL    HW174524   0.938   0.294   8.262  0.3280  0.1280 -0.0528
24361SOL    HW274525   0.806   0.246   8.206 -0.2025  0.2179  1.0969
24362SOL     OW74526   7.959   1.753   8.963 -0.2059 -0.0624 -0.6845
24362SOL    HW174527   7.887   1.792   8.913  0.0729  0.2015 -0.8786
24362SOL    HW274528   8.037   1.769   8.910 -0.1384 -1.2542 -0.9749
24363SOL     OW74529   7.947   1.501   9.336  0.1087  0.8593  0.1266
24363SOL    HW174530   7.900   1.561   9.278  1.0891  1.8951  0.3500
24363SOL    HW274531   7.932   1.537   9.423  0.0524  0.3073  0.3436
24364SOL     OW74532   7.905   7.788   9.694 -0.7898 -0.2147 -0.4566
24364SOL    HW174533   7.848   7.815   9.623 -1.6715 -0.3000  0.1953
24364SOL    HW274534   7.910   7.865   9.751  1.9387  0.7335 -1.8149
24365SOL     OW74535   2.775   0.168   7.143 -0.1761  0.1546 -0.2452
24365SOL    HW174536   2.774   0.225   7.066 -0.9181  1.1244  0.4524
24365SOL    HW274537   2.794   0.227   7.216 -0.2005 -0.6232  0.4027
24366SOL     OW74538   7.751   2.110   8.729 -0.5301  0.1628  0.7299
24366SOL    HW174539   7.705   2.077   8.652 -0.9846 -2.9918  2.1994
24366SOL    HW274540   7.692   2.177   8.764 -0.0595  2.0789 -1.8356
24367SOL     OW74541   0.885   0.331   7.707  0.4596 -0.3528 -0.6018
24367SOL    HW174542   0.857   0.423   7.706  1.3360 -0.0769 -0.7597
24367SOL    HW274543   0.851   0.296   7.789  0.2831  0.1627 -0.4506
24368SOL     OW74544   6.666   0.992   9.281  0.5518 -0.6281  0.0002
24368SOL    HW174545   6.650   0.917   9.224  2.4362 -1.4735  0.4803
24368SOL    HW274546   6.620   0.970   9.363  0.4768 -0.9149 -0.1167
24369SOL     OW74547   7.254   1.934   9.612 -0.0907  0.1443 -0.1537
24369SOL    HW174548   7.328   1.899   9.562 -1.7308 -0.1927 -2.4776
24369SOL    HW274549   7.279   1.921   9.703  2.2680 -0.8820 -0.8633
24370SOL     OW74550   7.079   1.239   9.498 -0.0332 -0.3849  0.1344
24370SOL    HW174551   7.069   1.256   9.404 -2.0668 -1.9494 -0.0063
24370SOL    HW274552   7.072   1.325   9.539 -0.8000  0.1446 -1.0512
24371SOL     OW74553   0.115   0.297   9.450  0.2996 -0.5472 -0.0598
24371SOL    HW174554   0.075   0.383   9.435  0.6503  0.0518  2.0085
24371SOL    HW274555   0.117   0.289   9.546  0.9483 -2.5598 -0.2005
24372SOL     OW74556   7.854   1.314   8.587 -0.1003  0.0315  0.1389
24372SOL    HW174557   7.867   1.320   8.492 -1.4608  0.7458 -0.0278
24372SOL    HW274558   7.823   1.225   8.602 -1.3717  0.3863 -0.3008
24373SOL     OW74559   6.933   0.655   7.409  0.3004 -0.3299 -0.0555
24373SOL    HW174560   6.845   0.691   7.408  0.6287  0.5153  0.3076
24373SOL    HW274561   6.963   0.668   7.499 -0.4023 -3.6481  0.7795
24374SOL     OW74562   5.046   2.693   7.894  0.3964  0.6671 -0.1962
24374SOL    HW174563   4.957   2.725   7.878  0.9755  1.3800 -2.2474
24374SOL    HW274564   5.041   2.653   7.981 -1.8555  0.9064 -0.1480
24375SOL     OW74565   6.100   2.166   9.489  0.0910 -0.1323  0.5500
24375SOL    HW174566   6.020   2.149   9.440 -0.7767  0.5505  1.6894
24375SOL    HW274567   6.071   2.190   9.577  1.5471  0.0085  1.0337
24376SOL     OW74568   1.687   2.044   8.786 -0.0768  0.2245  0.3075
24376SOL    HW174569   1.718   1.959   8.818 -0.2264  0.0753  0.0633
24376SOL    HW274570   1.625   2.074   8.852 -1.0351 -0.4761 -0.2322
24377SOL     OW74571   1.281   0.017   7.689  0.1691  0.1479 -0.1460
24377SOL    HW174572   1.375   0.007   7.671  0.2910  0.5793  0.2463
24377SOL    HW274573   1.275   0.098   7.739 -0.4769  0.4141 -0.6462
24378SOL     OW74574   6.265   2.426   9.808  0.3344 -0.4011  0.3042
24378SOL    HW174575   6.301   2.509   9.839 -0.8845 -0.3628  1.7842
24378SOL    HW274576   6.266   2.432   9.713 -0.5526  1.6971  0.3872
24379SOL     OW74577   0.402   2.617  10.400  0.0864  0.0257  0.9897
24379SOL    HW174578   0.430   2.708  10.414 -1.1560  0.4455  0.9075
24379SOL    HW274579   0.413   2.604  10.306  0.5139  0.0038  1.0411
24380SOL     OW74580   5.972   0.587   7.893  0.5721 -0.1411  0.1800
24380SOL    HW174581   5.934   0.642   7.962 -0.7732 -0.4994 -0.2445
24380SOL    HW274582   5.951   0.633   7.812  1.7591  0.0494 -0.0393
24381SOL     OW74583   0.149   2.517   9.856 -0.4996 -0.1494  0.1814
24381SOL    HW174584   0.139   2.611   9.872 -1.8266 -0.4421  1.2290
24381SOL    HW274585   0.064   2.480   9.880 -0.5157 -1.4426 -1.7076
24382SOL     OW74586   0.847   0.248   9.992 -0.2033  0.2626 -0.5239
24382SOL    HW174587   0.798   0.322   9.956 -0.3711 -0.1484 -1.1701
24382SOL    HW274588   0.787   0.208  10.055 -0.5968 -0.0783 -1.1130
24383SOL     OW74589   6.968   2.214   7.992  0.0487 -0.1999  0.7880
24383SOL    HW174590   6.960   2.182   8.081 -0.2313 -1.1567  0.4384
24383SOL    HW274591   7.049   2.176   7.959 -1.0287 -1.8715 -0.1178
24384SOL     OW74592   0.804   1.659   9.290 -0.6924  0.1725  0.6938
24384SOL    HW174593   0.769   1.745   9.315 -1.0845  0.1815  0.1118
24384SOL    HW274594   0.862   1.636   9.363 -0.6401  0.8955  0.8979
24385SOL     OW74595   7.867   0.180  10.638 -0.3380  0.0239 -0.0654
24385SOL    HW174596   7.956   0.215  10.644 -0.5245  0.9631 -2.1192
24385SOL    HW274597   7.877   0.093  10.600 -0.2986  0.1590 -0.3653
24386SOL     OW74598   0.220   1.201  10.684  0.1634 -0.1284 -0.4035
24386SOL    HW174599   0.314   1.193  10.667  0.0590 -2.0749 -0.3077
24386SOL    HW274600   0.179   1.157  10.610 -0.5398 -1.9924  1.0044
24387SOL     OW74601   0.187   1.087  10.399 -0.3908  0.1071 -0.5595
24387SOL    HW174602   0.250   1.111  10.331 -0.3927  0.1383 -0.5503
24387SOL    HW274603   0.107   1.134  10.376  0.1277  1.5370  0.4471
24388SOL     OW74604   0.072   1.463  10.624  0.1503  0.1447  0.1275
24388SOL    HW174605  -0.015   1.428  10.603  0.7026 -2.0118  1.1290
24388SOL    HW274606   0.128   1.385  10.632  2.1557  1.4626 -0.3195
24389SOL     OW74607   2.056   2.695   8.802 -0.3156 -0.1765  0.3869
24389SOL    HW174608   2.139   2.657   8.772 -0.5540 -0.6094  0.2628
24389SOL    HW274609   2.082   2.766   8.860  0.1458  0.0499 -0.0880
24390SOL     OW74610   7.775   1.661   9.161 -0.3120  0.4507  0.2570
24390SOL    HW174611   7.828   1.670   9.082  1.3584  0.5242  1.3299
24390SOL    HW274612   7.696   1.617   9.132  0.6351 -0.3080 -1.3187
24391SOL     OW74613   0.519   1.916  11.902 -0.0655  0.3705  0.2235
24391SOL    HW174614   0.510   1.835  11.851  1.3529  0.0362  0.4678
24391SOL    HW274615   0.609   1.944  11.887  0.6354 -0.0984  3.0716
24392SOL     OW74616   0.231   1.360   9.582  0.0469 -0.2333 -0.3965
24392SOL    HW174617   0.323   1.350   9.609 -0.1629 -0.9333  0.1078
24392SOL    HW274618   0.187   1.395   9.659  0.1105  1.3436 -1.0453
24393SOL     OW74619   0.272   1.941   9.911  0.0439 -0.4875  0.2318
24393SOL    HW174620   0.289   1.986   9.994 -0.0917 -0.6454  0.3447
24393SOL    HW274621   0.336   1.979   9.850  0.3749 -0.6189  0.4931
24394SOL     OW74622   6.708   1.461  12.411  0.3373 -0.1963 -0.1964
24394SOL    HW174623   6.676   1.442  12.322 -0.3892  0.6159 -0.1276
24394SOL    HW274624   6.628   1.469  12.463  0.7729 -1.2312  0.6663
24395SOL     OW74625   6.858   2.155  10.089  0.3910 -0.1889 -0.2424
24395SOL    HW174626   6.924   2.114  10.145  0.3481  0.0136 -0.0391
24395SOL    HW274627   6.832   2.086  10.028  1.3122 -0.0551 -0.8002
24396SOL     OW74628   0.733   7.823   0.993 -0.3809  0.6956 -0.7844
24396SOL    HW174629   0.760   7.788   0.908 -1.4844 -0.8575 -0.5459
24396SOL    HW274630   0.640   7.845   0.982 -1.5894 -2.7822  0.8525
24397SOL     OW74631   1.193   1.037  10.258  0.1033  0.3703  0.8136
24397SOL    HW174632   1.153   1.120  10.282  0.6845  0.2656  2.3113
24397SOL    HW274633   1.121   0.984  10.223 -0.0351  1.8982 -1.3951
24398SOL     OW74634   0.419   0.834  11.054  0.2082  0.0830 -0.1119
24398SOL    HW174635   0.474   0.910  11.071 -0.6240  0.4062  1.2605
24398SOL    HW274636   0.426   0.820  10.960  0.4524  1.7897 -0.3770
24399SOL     OW74637   7.842   1.238  10.565  0.2466 -0.2638  0.1928
24399SOL    HW174638   7.823   1.256  10.657 -2.1432 -0.0723 -0.2589
24399SOL    HW274639   7.756   1.240  10.523  1.1230 -1.6992 -1.8151
24400SOL     OW74640   1.019   7.667  10.223 -0.2541 -0.2168  0.2517
24400SOL    HW174641   1.060   7.626  10.146  0.5450 -0.1620  0.6349
24400SOL    HW274642   0.926   7.669  10.202 -0.0182  0.0872 -0.8637
24401SOL     OW74643   7.624   2.704  10.164 -0.1673 -0.3315  0.4663
24401SOL    HW174644   7.553   2.662  10.213 -1.3868  0.5613 -0.4665
24401SOL    HW274645   7.682   2.632  10.139 -0.3330 -0.9912  1.8784
24402SOL     OW74646   7.418   2.377  10.036 -0.7089  0.4982 -0.2269
24402SOL    HW174647   7.494   2.366  10.093 -1.0301  0.8562  0.2792
24402SOL    HW274648   7.448   2.436   9.967 -0.7203  1.1748  0.3431
24403SOL     OW74649   0.478   1.166  11.597  0.2309 -0.3669 -0.0670
24403SOL    HW174650   0.557   1.211  11.623  1.6575 -1.6188 -1.9188
24403SOL    HW274651   0.460   1.198  11.508 -0.0149 -1.7220 -0.5335
24404SOL     OW74652   0.048   6.888  11.045  0.5221 -0.1270  0.4416
24404SOL    HW174653  -0.027   6.881  10.986 -0.1803 -1.5586  1.4232
24404SOL    HW274654   0.074   6.980  11.041  1.0984 -0.3271 -2.7488
24405SOL     OW74655   6.341   2.016   8.990  0.0106 -0.3458 -0.6111
24405SOL    HW174656   6.292   2.000   9.070 -1.8169 -1.8164 -1.9395
24405SOL    HW274657   6.299   2.093   8.951  0.1782 -0.2916 -0.6861
24406SOL     OW74658   0.667   0.493   9.353  0.3673  0.1401  0.2738
24406SOL    HW174659   0.574   0.513   9.341  0.7644  3.9549  1.8816
24406SOL    HW274660   0.696   0.458   9.268 -2.5488 -1.7158 -0.0902
24407SOL     OW74661   6.261   0.843  10.547 -0.2729 -0.3946  0.5911
24407SOL    HW174662   6.216   0.920  10.581  2.3087  0.4935  2.2883
24407SOL    HW274663   6.234   0.772  10.604 -2.0528 -0.6282 -0.4911
24408SOL     OW74664   0.727   0.383   9.123  0.3205 -0.1797  0.2659
24408SOL    HW174665   0.698   0.438   9.050  1.0774 -0.4084 -0.2279
24408SOL    HW274666   0.721   0.294   9.089  0.0776 -0.3335  0.7069
24409SOL     OW74667   0.272   0.855  11.896  0.1585  0.2445  0.3922
24409SOL    HW174668   0.349   0.877  11.844 -0.4111 -0.4355 -0.7820
24409SOL    HW274669   0.200   0.855  11.834 -0.5958 -0.3115  1.2328
24410SOL     OW74670   0.042   7.303  10.751  0.2279 -0.0205 -0.2900
24410SOL    HW174671   0.019   7.393  10.775 -1.7319 -0.3467 -0.7357
24410SOL    HW274672   0.071   7.310  10.660  0.3723  0.2136 -0.2272
24411SOL     OW74673   7.596   1.312  10.439  0.3499 -0.1104 -0.0581
24411SOL    HW174674   7.511   1.298  10.479  1.0165 -1.2609  1.0333
24411SOL    HW274675   7.587   1.278  10.350 -0.9287  1.7896 -0.7344
24412SOL     OW74676   6.640   1.855   9.629 -0.3615  0.2981  0.1265
24412SOL    HW174677   6.573   1.793   9.659 -0.2455  0.2456  0.2749
24412SOL    HW274678   6.620   1.867   9.536  0.3628 -0.9283 -0.2118
24413SOL     OW74679   0.403   1.515  11.558  0.4987  0.1427 -0.2500
24413SOL    HW174680   0.457   1.524  11.480  1.3918 -0.3687  0.2832
24413SOL    HW274681   0.412   1.423  11.583 -0.4221  0.1097 -0.0010
24414SOL     OW74682   0.889   1.571  12.153 -0.2105 -0.1293  0.3177
24414SOL    HW174683   0.941   1.541  12.228 -0.5616  0.9614  1.0230
24414SOL    HW274684   0.954   1.591  12.085  0.1792 -0.3128  0.6306
24415SOL     OW74685   0.743   0.940  10.337 -0.0770  0.0371  0.0791
24415SOL    HW174686   0.770   1.028  10.363 -1.2801 -0.3401  2.9462
24415SOL    HW274687   0.823   0.888  10.341  0.2432  0.5602  0.5556
24416SOL     OW74688   5.297   0.007  10.482  0.0380 -0.3265  0.2604
24416SOL    HW174689   5.293  -0.044  10.563 -1.2975  0.9247  1.0358
24416SOL    HW274690   5.361   0.075  10.500  0.8177 -0.8987 -0.2873
24417SOL     OW74691   1.458   0.853   0.283  0.1002 -0.1786 -0.2155
24417SOL    HW174692   1.383   0.793   0.284  0.5404 -0.7423 -0.3258
24417SOL    HW274693   1.450   0.898   0.199  1.0057 -1.7273 -1.2005
24418SOL     OW74694   0.446   0.489  10.101  0.2412 -0.4353  0.2074
24418SOL    HW174695   0.533   0.517  10.074  0.1908 -0.1888  0.2900
24418SOL    HW274696   0.401   0.571  10.122  0.0007 -0.5641  0.1933
24419SOL     OW74697   0.482   0.849  12.485 -0.0759  1.1888  0.3661
24419SOL    HW174698   0.537   0.926  12.493  3.3756 -1.0465  0.0586
24419SOL    HW274699   0.452   0.830  12.574 -0.2705  2.3495  0.5605
24420SOL     OW74700   7.368   1.320  10.053 -0.3628 -0.4748 -0.0699
24420SOL    HW174701   7.372   1.410  10.021 -1.7193 -0.3204  0.1360
24420SOL    HW274702   7.457   1.301  10.084  0.1394  0.4954 -0.8797
24421SOL     OW74703   1.130   0.030   9.435  0.7522  0.1993  0.1943
24421SOL    HW174704   1.177  -0.014   9.505  1.7493  0.7548 -0.1118
24421SOL    HW274705   1.077  -0.039   9.395 -0.0666 -0.0556  1.6711
24422SOL     OW74706   6.946   1.368  11.243  0.1400  0.1413 -0.1030
24422SOL    HW174707   6.968   1.411  11.161  1.7756 -2.6801 -1.2938
24422SOL    HW274708   6.915   1.281  11.217  3.2737 -1.8679  2.2318
24423SOL     OW74709   7.261   0.346  10.765  0.4722  0.1830 -0.3505
24423SOL    HW174710   7.334   0.305  10.811  1.2826  1.9870  0.0616
24423SOL    HW274711   7.289   0.351  10.674  0.4078 -0.0979 -0.3862
24424SOL     OW74712   7.746   7.637  10.333  0.1079 -0.1463 -0.2577
24424SOL    HW174713   7.702   7.699  10.392  2.2937  1.2661  0.0072
24424SOL    HW274714   7.722   7.551  10.368  0.3484  0.6248  1.9950
24425SOL     OW74715   7.342   1.123   9.499  0.1371 -0.3776  0.4026
24425SOL    HW174716   7.366   1.192   9.561  0.8631  0.0464 -0.3240
24425SOL    HW274717   7.248   1.110   9.512 -0.0047  0.7437  0.5599
24426SOL     OW74718   0.102   2.239   8.989 -0.1403  0.0809  0.4331
24426SOL    HW174719   0.088   2.166   8.929  0.5434 -1.3914  1.9695
24426SOL    HW274720   0.126   2.313   8.933 -3.0434 -0.2037 -1.3766
24427SOL     OW74721   7.708   0.860   9.719 -0.1214 -0.0588 -0.4212
24427SOL    HW174722   7.616   0.857   9.744 -0.2075  3.5728  0.3158
24427SOL    HW274723   7.708   0.857   9.623 -0.7971 -1.9079 -0.3921
24428SOL     OW74724   0.222   1.766  12.407 -0.3868 -0.3920  0.3886
24428SOL    HW174725   0.148   1.819  12.379 -1.3857 -2.0903 -0.3291
24428SOL    HW274726   0.263   1.736  12.326  0.3228 -0.4960  0.7731
24429SOL     OW74727   1.079   0.357  10.314  0.1671  0.0820  0.0783
24429SOL    HW174728   1.117   0.331  10.230 -1.4635 -0.5158 -0.5234
24429SOL    HW274729   1.034   0.439  10.296 -0.1417 -0.0204  0.3701
24430SOL     OW74730   6.838   1.745  10.618 -0.0681 -0.5311 -0.2077
24430SOL    HW174731   6.916   1.799  10.619  1.7667 -2.9875  0.5565
24430SOL    HW274732   6.784   1.781  10.547  2.1438  0.7593 -1.3411
24431SOL     OW74733   6.855   7.906  10.895 -0.3637  0.2088 -0.2942
24431SOL    HW174734   6.859   7.950  10.810 -0.2247  0.1780 -0.3053
24431SOL    HW274735   6.906   7.826  10.882  1.5037  1.2229  0.4176
24432SOL     OW74736   0.748   7.641  11.583  0.4007  0.2328  0.1712
24432SOL    HW174737   0.743   7.602  11.671  0.5785  0.4326  0.2718
24432SOL    HW274738   0.732   7.735  11.599  0.6871  0.3069  0.0215
24433SOL     OW74739   7.029   2.041   9.163 -1.0865 -0.1629  0.3083
24433SOL    HW174740   6.999   1.951   9.156  0.9657 -0.7743 -1.5071
24433SOL    HW274741   7.064   2.048   9.252 -1.0984 -1.2122  0.4042
24434SOL     OW74742   7.380   2.660  11.259  0.0607  0.7377 -0.1249
24434SOL    HW174743   7.476   2.663  11.264  0.2414 -2.0610 -0.6698
24434SOL    HW274744   7.351   2.718  11.330  2.1229  1.7329 -0.0119
24435SOL     OW74745   6.192   0.085  10.764 -0.2486  0.0401 -0.5880
24435SOL    HW174746   6.126   0.152  10.745 -0.5378  0.5583  1.9159
24435SOL    HW274747   6.145   0.002  10.754 -0.6236  0.3044 -1.0831
24436SOL     OW74748   7.022   0.844   9.407 -0.7080 -0.2489 -0.2004
24436SOL    HW174749   6.967   0.899   9.350 -0.7474 -0.0715  0.0057
24436SOL    HW274750   7.108   0.844   9.365 -0.2748  1.2883  0.6352
24437SOL     OW74751   6.874   3.162   9.345  0.0940 -0.5917  0.1740
24437SOL    HW174752   6.891   3.256   9.343 -2.8931  0.0563  0.1599
24437SOL    HW274753   6.888   3.133   9.255 -2.5037  0.6844 -0.7411
24438SOL     OW74754   0.112   1.478   9.804  0.2112  0.4830 -0.1776
24438SOL    HW174755   0.179   1.538   9.837  0.9931  0.7325 -2.0967
24438SOL    HW274756   0.058   1.458   9.881  0.6069  2.7350  0.7630
24439SOL     OW74757   0.461   0.954  12.231 -0.0489 -1.0921 -0.0013
24439SOL    HW174758   0.448   0.894  12.304 -2.0544 -2.8005 -1.6450
24439SOL    HW274759   0.533   0.916  12.181 -0.2944 -1.2713 -0.2183
24440SOL     OW74760   5.929   0.389  10.007 -0.1827 -0.2410  0.2985
24440SOL    HW174761   5.979   0.436  10.074  0.8363 -0.7189 -0.1155
24440SOL    HW274762   5.873   0.329  10.057 -0.2825  0.2309  0.7622
24441SOL     OW74763   6.914   1.329   8.493  0.1348  0.0406 -0.0690
24441SOL    HW174764   6.829   1.301   8.459 -1.0107  2.5121  0.5472
24441SOL    HW274765   6.915   1.298   8.584  0.4105 -0.9544 -0.3967
24442SOL     OW74766   0.233   1.520  11.847 -0.2611  0.3298  0.1456
24442SOL    HW174767   0.224   1.607  11.808  1.3368 -0.5629 -2.4259
24442SOL    HW274768   0.173   1.465  11.797 -1.6247 -0.0430  2.0722
24443SOL     OW74769   1.327   1.088  11.450 -0.6995  0.0697 -0.1569
24443SOL    HW174770   1.351   0.995  11.452 -0.7144  0.0803  0.9385
24443SOL    HW274771   1.235   1.090  11.477 -1.1661  0.2766 -1.6964
24444SOL     OW74772   1.642   7.971  12.073  0.8134  0.3023 -0.3345
24444SOL    HW174773   1.656   7.887  12.118  0.0511  1.8123  3.0344
24444SOL    HW274774   1.724   8.019  12.088 -0.1551  1.5552  1.3619
24445SOL     OW74775   1.168   7.839  11.323  0.5659 -0.4639  0.4494
24445SOL    HW174776   1.094   7.804  11.273  1.4657 -0.3695 -0.9980
24445SOL    HW274777   1.245   7.801  11.282  1.4064  0.6739  0.9237
24446SOL     OW74778   0.469   0.911  11.687 -0.0687  0.7254 -0.1105
24446SOL    HW174779   0.482   0.998  11.650  1.8359  1.0800  1.2474
24446SOL    HW274780   0.491   0.851  11.616  1.5883  1.3795 -0.1859
24447SOL     OW74781   6.693   2.386   7.239  0.0388  0.2237  0.1585
24447SOL    HW174782   6.688   2.371   7.145  2.4401 -1.2114  0.1694
24447SOL    HW274783   6.756   2.457   7.249  0.8924 -0.5929  0.7099
24448SOL     OW74784   0.810   1.737   1.157 -0.3921 -0.2720  0.4835
24448SOL    HW174785   0.768   1.818   1.185 -0.8713 -0.8108  1.3737
24448SOL    HW274786   0.779   1.671   1.219 -0.2759 -1.2066 -0.4117
24449SOL     OW74787   0.339   2.563  11.600 -0.3393  0.3174 -0.4758
24449SOL    HW174788   0.272   2.495  11.589  0.3262 -0.6785  1.1960
24449SOL    HW274789   0.304   2.639  11.554 -4.2474  0.9383  2.9183
24450SOL     OW74790   7.956   7.988  11.797 -0.7849  0.2309 -0.2648
24450SOL    HW174791   7.925   7.975  11.886  1.0019 -0.6582  0.2922
24450SOL    HW274792   8.025   8.054  11.804 -1.5716  1.2019 -1.2395
24451SOL     OW74793   7.755   2.860   0.090 -0.5375  0.2420 -0.0469
24451SOL    HW174794   7.840   2.899   0.070 -0.2031 -0.5511 -0.1908
24451SOL    HW274795   7.766   2.767   0.072 -1.9675  0.3614 -1.8461
24452SOL     OW74796   6.822   3.524  11.563 -0.2215 -0.3056 -0.2940
24452SOL    HW174797   6.771   3.520  11.481 -1.7499  0.5568  0.5654
24452SOL    HW274798   6.755   3.520  11.632  0.9652  0.0641  0.9042
24453SOL     OW74799   1.459   0.416  11.482  0.2633  0.1769  0.1183
24453SOL    HW174800   1.379   0.448  11.441 -1.2917 -0.9188  2.1691
24453SOL    HW274801   1.447   0.430  11.575  1.0090 -2.9616  0.8247
24454SOL     OW74802   0.292   0.223  12.378 -0.1999  0.2355 -0.0130
24454SOL    HW174803   0.279   0.266  12.463  1.0161  0.1146  0.2491
24454SOL    HW274804   0.224   0.261  12.322 -1.9209 -0.6699  1.3534
24455SOL     OW74805   7.985   0.136  12.075  0.1674 -0.4722 -0.5964
24455SOL    HW174806   8.028   0.217  12.100 -2.3974  0.7299  0.2238
24455SOL    HW274807   7.992   0.080  12.152 -1.7541  0.6445  0.4531
24456SOL     OW74808   0.353   3.822  11.527  0.3670  0.2456 -0.2625
24456SOL    HW174809   0.302   3.799  11.605  1.5939  0.8014  0.7404
24456SOL    HW274810   0.294   3.876  11.475 -0.9622 -1.2797 -0.4221
24457SOL     OW74811   7.967   0.039  12.499  0.4376  0.0946  0.4271
24457SOL    HW174812   7.886   0.005  12.462  1.3365 -1.7458  0.0717
24457SOL    HW274813   8.007  -0.036  12.543  2.5199  0.6655 -0.4061
24458SOL     OW74814   1.152   1.088   1.571 -0.0486 -0.1858  0.8017
24458SOL    HW174815   1.208   1.165   1.560 -0.8455  0.3694  0.5575
24458SOL    HW274816   1.159   1.066   1.664  1.1465 -0.5848  0.6404
24459SOL     OW74817   0.198   0.909  10.044 -0.5516  0.7438  0.3860
24459SOL    HW174818   0.226   0.997  10.068  1.1038  0.3937 -0.0923
24459SOL    HW274819   0.158   0.919   9.957 -3.3680  1.4733  1.6634
24460SOL     OW74820   0.545   0.778  11.443  0.1272 -0.1339  0.8191
24460SOL    HW174821   0.618   0.730  11.405 -0.7098 -0.1440 -0.8759
24460SOL    HW274822   0.564   0.870  11.424  0.5535  0.0242  1.9505
24461SOL     OW74823   0.018   7.026  12.271  0.4826 -0.4126  0.3246
24461SOL    HW174824  -0.050   7.089  12.247  1.3529  0.3952 -0.0692
24461SOL    HW274825   0.031   7.039  12.365  1.3055  0.6672  0.0791
24462SOL     OW74826   1.197   1.431   0.296  0.4084 -0.1184 -0.2778
24462SOL    HW174827   1.249   1.352   0.289 -0.9387 -1.0827  0.2531
24462SOL    HW274828   1.243   1.485   0.361 -0.4225 -1.9550  1.9636
24463SOL     OW74829   1.754   1.189  11.453  0.0067 -0.5528  0.0568
24463SOL    HW174830   1.816   1.259  11.473  0.6671 -0.9208 -0.6276
24463SOL    HW274831   1.804   1.129  11.397 -0.6203 -1.4406  0.4337
24464SOL     OW74832   6.116   1.374  10.898 -0.0121  0.3333  0.2081
24464SOL    HW174833   6.021   1.359  10.892 -0.3739  2.2156  0.3641
24464SOL    HW274834   6.142   1.393  10.808 -0.3368  2.4111  0.4963
24465SOL     OW74835   0.757   7.937  12.405 -0.2969 -0.5099 -0.0540
24465SOL    HW174836   0.754   8.021  12.360  3.3879 -0.8913 -1.3493
24465SOL    HW274837   0.696   7.881  12.357 -0.2687  0.5261 -1.3297
24466SOL     OW74838   6.773   7.892  10.254 -0.3069 -0.5622  0.1603
24466SOL    HW174839   6.702   7.828  10.261 -1.4118  0.7717  2.0583
24466SOL    HW274840   6.734   7.974  10.284  1.6927  0.5140 -0.0442
24467SOL     OW74841   6.468   7.713  11.712 -0.0489  0.4197 -0.0490
24467SOL    HW174842   6.544   7.675  11.755 -0.5042 -1.4334 -0.7889
24467SOL    HW274843   6.467   7.672  11.625 -1.9752  0.2740  0.0131
24468SOL     OW74844   1.356   2.517  11.817  0.0924  0.4979  0.3483
24468SOL    HW174845   1.397   2.557  11.893 -1.6595  1.3994  0.8690
24468SOL    HW274846   1.266   2.498  11.845  0.3724 -2.4403 -0.3706
24469SOL     OW74847   0.694   7.922  11.662  0.0689  0.4973  0.0656
24469SOL    HW174848   0.661   7.978  11.591 -0.8850 -1.3981 -1.0746
24469SOL    HW274849   0.625   7.924  11.728  0.8125  1.9991  0.8563
24470SOL     OW74850   6.899   2.042  11.318  0.2761 -0.3575  0.1915
24470SOL    HW174851   6.931   2.041  11.408  1.0257  0.6470 -0.0524
24470SOL    HW274852   6.877   1.950  11.299 -0.2799 -0.5217  1.5174
24471SOL     OW74853   7.788   0.261  11.899 -0.3082 -0.1474  0.3536
24471SOL    HW174854   7.814   0.201  11.969 -0.8298 -0.1694  0.5351
24471SOL    HW274855   7.693   0.262  11.902 -0.3054  1.0778  0.6923
24472SOL     OW74856   6.759   1.559  10.788 -0.0718 -0.1513 -0.0194
24472SOL    HW174857   6.749   1.476  10.741  2.7647 -1.4215  1.3632
24472SOL    HW274858   6.770   1.625  10.719  1.2812 -1.5202 -1.1604
24473SOL     OW74859   0.163   0.926   1.298 -0.0264 -0.2795 -0.3337
24473SOL    HW174860   0.222   0.988   1.339 -0.4878  1.0767 -1.6522
24473SOL    HW274861   0.088   0.921   1.357 -0.0619  0.5573 -0.3078
24474SOL     OW74862   0.487   2.139  11.711  0.1887  0.1560  0.5839
24474SOL    HW174863   0.473   2.077  11.783  0.1833  0.3073  0.7124
24474SOL    HW274864   0.582   2.152  11.710  0.7335 -2.8624 -1.9226
24475SOL     OW74865   1.834   7.328  11.854 -0.0814 -0.1422 -0.3390
24475SOL    HW174866   1.861   7.263  11.919  0.7310  0.6978  0.1975
24475SOL    HW274867   1.798   7.400  11.906 -0.1264  0.2208 -0.8605
24476SOL     OW74868   1.113   0.267   0.499 -0.0173  0.0697 -0.5585
24476SOL    HW174869   1.129   0.179   0.464  1.7238 -0.6425  1.7869
24476SOL    HW274870   1.068   0.313   0.428 -0.1092 -2.3963 -2.2244
24477SOL     OW74871   6.934   7.815  11.638  0.6605 -0.1269  0.2194
24477SOL    HW174872   6.999   7.753  11.670  0.9931  0.1467  0.0851
24477SOL    HW274873   6.888   7.844  11.716  1.2600  0.3015  0.4271
24478SOL     OW74874   6.911   1.948  12.134 -0.1274  0.2511  0.0591
24478SOL    HW174875   6.824   1.941  12.173  0.3964  0.1072  1.2429
24478SOL    HW274876   6.960   1.874  12.169  0.0794 -0.5323 -1.7412
24479SOL     OW74877   0.647   0.724   1.949 -0.0395  0.0221  0.0283
24479SOL    HW174878   0.583   0.679   1.894  1.7398 -0.5296 -1.7181
24479SOL    HW274879   0.635   0.686   2.036 -3.7973  1.8091  0.4698
24480SOL     OW74880   7.703   3.401  11.242 -0.5218  0.3944 -0.0291
24480SOL    HW174881   7.763   3.381  11.314  0.1700 -1.8950 -1.1500
24480SOL    HW274882   7.736   3.484  11.206  0.7201  0.2392  0.6752
24481SOL     OW74883   6.422   3.210  11.311 -0.0456  0.2086 -0.3226
24481SOL    HW174884   6.388   3.218  11.222  0.6446 -1.8631 -0.8421
24481SOL    HW274885   6.505   3.258  11.309 -0.2838  0.6057 -0.6556
24482SOL     OW74886   0.362   0.327  11.468 -0.3351  0.3828  0.2276
24482SOL    HW174887   0.343   0.420  11.461 -0.8867  0.1556 -2.5504
24482SOL    HW274888   0.308   0.286  11.400  0.7823 -1.8041  0.5569
24483SOL     OW74889   7.894   0.881   0.029  0.0567 -0.5605 -0.3505
24483SOL    HW174890   7.973   0.831   0.009  1.2164  1.4932 -1.2483
24483SOL    HW274891   7.916   0.930   0.109 -0.0277  0.4961 -0.9475
24484SOL     OW74892   7.444   1.216  12.118 -0.1309 -0.4460  0.2171
24484SOL    HW174893   7.477   1.158  12.187 -0.8310  0.2189  1.1398
24484SOL    HW274894   7.510   1.284  12.112 -0.5121  0.0052  0.9207
24485SOL     OW74895   7.539   2.890  11.657 -0.0246  0.2287  0.2164
24485SOL    HW174896   7.460   2.937  11.684 -1.0320  0.5533 -2.9238
24485SOL    HW274897   7.553   2.917  11.566  2.6329 -1.2943  0.0740
24486SOL     OW74898   7.253   0.313  11.902 -0.0357 -0.2423 -0.2296
24486SOL    HW174899   7.277   0.315  11.995  2.4519 -2.4544 -0.6969
24486SOL    HW274900   7.281   0.226  11.873 -0.7169  0.4129 -3.0663
24487SOL     OW74901   6.355   1.206  10.224 -0.4510 -0.4992  0.5456
24487SOL    HW174902   6.307   1.226  10.305  0.0078 -3.5342  1.6684
24487SOL    HW274903   6.287   1.194  10.158 -0.8559  1.3822  0.5619
24488SOL     OW74904   1.297   1.809  12.227 -0.4389 -0.2367 -0.1487
24488SOL    HW174905   1.226   1.838  12.285 -0.1523  0.7147 -0.2515
24488SOL    HW274906   1.252   1.768  12.153 -0.8177 -1.2259  0.6096
24489SOL     OW74907   6.538   7.922  11.335  0.1486  0.3700  0.1508
24489SOL    HW174908   6.555   7.836  11.373  2.1095  0.5735 -0.1705
24489SOL    HW274909   6.444   7.934  11.345 -0.3788 -2.2691 -0.7610
24490SOL     OW74910   7.569   1.915  11.306 -0.5061  0.1430 -0.3133
24490SOL    HW174911   7.505   1.986  11.305  1.0865  1.6515 -1.6164
24490SOL    HW274912   7.586   1.896  11.214  0.2243 -0.8788  0.0099
24491SOL     OW74913   6.917   2.210   1.542  0.7757  0.4722  0.0021
24491SOL    HW174914   6.891   2.217   1.450  0.2589 -0.9109  0.0223
24491SOL    HW274915   6.879   2.288   1.584 -0.4221  0.2557 -0.6443
24492SOL     OW74916   6.364   2.907   9.864  0.6458 -0.3895 -0.0267
24492SOL    HW174917   6.390   2.995   9.893 -2.1175  0.1729  1.0713
24492SOL    HW274918   6.349   2.917   9.770  0.5589  0.2580  0.0479
24493SOL     OW74919   6.127   1.090  10.593  0.0021  0.6945 -0.1022
24493SOL    HW174920   6.147   1.110  10.684  3.0879  0.1756 -0.5806
24493SOL    HW274921   6.169   1.159  10.543  0.3931 -0.3383 -1.2369
24494SOL     OW74922   7.265   2.036  12.169 -0.4301  0.2840 -0.1171
24494SOL    HW174923   7.260   2.002  12.258 -1.3826  0.7069  0.0055
24494SOL    HW274924   7.356   2.020  12.142 -0.5642 -1.3470  0.3095
24495SOL     OW74925   7.493   1.326   1.245 -0.3043  0.3111 -0.1991
24495SOL    HW174926   7.530   1.239   1.230  0.6710  0.5519  0.6589
24495SOL    HW274927   7.400   1.317   1.227  0.1798 -0.2686 -2.7251
24496SOL     OW74928   6.837   2.317   0.205  0.3465 -0.4471  0.1128
24496SOL    HW174929   6.790   2.313   0.288  0.2425  0.3794  0.1057
24496SOL    HW274930   6.897   2.243   0.208 -0.3167 -0.9819  0.5128
24497SOL     OW74931   6.585   5.407  12.326  0.3146 -0.0004  0.3046
24497SOL    HW174932   6.639   5.451  12.391 -0.4373  0.8451  0.3788
24497SOL    HW274933   6.608   5.448  12.243 -2.2144  2.5171  0.6709
24498SOL     OW74934   0.260   2.093   3.247 -0.0436  0.4076  0.0961
24498SOL    HW174935   0.172   2.060   3.266  0.1627 -0.5931 -0.5867
24498SOL    HW274936   0.283   2.144   3.324 -0.5325 -0.7855  1.0817
24499SOL     OW74937   4.579   3.818  11.826  0.2314  0.3742  0.2330
24499SOL    HW174938   4.644   3.761  11.786  0.6180  0.9441  0.0401
24499SOL    HW274939   4.628   3.871  11.889 -0.3926 -0.6105  1.6039
24500SOL     OW74940   6.147   4.883   0.420 -0.2122  0.1950  0.6893
24500SOL    HW174941   6.081   4.943   0.385 -0.4792 -0.3716  0.2082
24500SOL    HW274942   6.227   4.936   0.423 -0.4820  0.6272  0.4368
24501SOL     OW74943   7.264   2.295   0.395 -0.0921  0.4496  0.3944
24501SOL    HW174944   7.245   2.218   0.449  0.1563 -0.0281 -0.1764
24501SOL    HW274945   7.206   2.285   0.319  1.5597 -0.4395 -0.8293
24502SOL     OW74946   6.889   2.591   0.352  0.1962 -0.4838  0.1383
24502SOL    HW174947   6.841   2.514   0.383 -0.2427 -1.4367 -2.6153
24502SOL    HW274948   6.863   2.600   0.261 -0.6165  3.6490  0.5662
24503SOL     OW74949   0.415   3.964  12.069  0.6241  0.2530  0.4199
24503SOL    HW174950   0.362   4.041  12.088  0.4651  0.5638 -1.1833
24503SOL    HW274951   0.358   3.909  12.015  1.3805 -0.1424  0.0088
24504SOL     OW74952   7.178   1.327   0.014 -0.0823 -0.5286 -0.1196
24504SOL    HW174953   7.098   1.372  -0.013 -1.6864 -1.8156  2.1863
24504SOL    HW274954   7.218   1.299  -0.069 -1.3991  1.1054 -1.3821
24505SOL     OW74955   7.223   2.579   0.910 -0.4256  0.2856 -0.0248
24505SOL    HW174956   7.273   2.586   0.829 -0.4856 -0.9050 -0.1894
24505SOL    HW274957   7.152   2.519   0.890 -1.4832  1.3378  0.4353
24506SOL     OW74958   7.740   1.333   2.027 -0.6316 -0.2782  0.0264
24506SOL    HW174959   7.815   1.304   2.079 -1.1322  0.0554  0.9610
24506SOL    HW274960   7.677   1.262   2.032 -0.5747 -0.3601 -0.3633
24507SOL     OW74961   6.793   2.779   0.533 -0.1154 -0.2394  0.1346
24507SOL    HW174962   6.831   2.723   0.465 -0.8455 -1.0673  0.3863
24507SOL    HW274963   6.699   2.782   0.512 -0.2178  0.1590  0.6379
24508SOL     OW74964   6.682   4.908   1.049  0.0099  0.3596 -0.2344
24508SOL    HW174965   6.712   4.877   0.964 -3.9308  0.0032 -1.7146
24508SOL    HW274966   6.732   4.857   1.112  1.9500 -0.5146 -2.3449
24509SOL     OW74967   7.114   1.764   1.637  0.1573  0.0263 -0.0952
24509SOL    HW174968   7.190   1.820   1.651 -0.1904  0.3630  0.5034
24509SOL    HW274969   7.039   1.817   1.665 -0.3460 -0.1501 -1.0711
24510SOL     OW74970   0.302   3.193   0.217 -0.1885 -0.1855  0.1527
24510SOL    HW174971   0.211   3.168   0.203 -0.0919 -1.2814  1.2688
24510SOL    HW274972   0.352   3.116   0.190  0.3439  0.0587  0.4347
24511SOL     OW74973   2.188   2.263   0.244  0.0994 -0.7684 -0.5564
24511SOL    HW174974   2.246   2.295   0.175  0.7372 -1.9863 -0.6233
24511SOL    HW274975   2.214   2.171   0.256  1.2131 -0.1848  2.5151
24512SOL     OW74976   7.769   2.439   2.787  0.4598 -0.2156  0.0831
24512SOL    HW174977   7.807   2.526   2.800 -0.8340  0.2170  1.2636
24512SOL    HW274978   7.845   2.382   2.774  1.8746  0.2567  4.3538
24513SOL     OW74979   7.024   1.216   1.455 -0.3240 -0.4736  0.1029
24513SOL    HW174980   7.053   1.195   1.544  0.5206  1.4765  0.3550
24513SOL    HW274981   6.929   1.225   1.462 -0.2023  0.3618  1.0126
24514SOL     OW74982   1.135   3.318   1.732 -0.3917  0.2770  0.3301
24514SOL    HW174983   1.104   3.392   1.679  2.4023  0.9088 -0.5795
24514SOL    HW274984   1.159   3.357   1.816  0.2870  0.2873  0.1404
24515SOL     OW74985   7.643   1.974   1.970  0.1158 -0.0665  0.2904
24515SOL    HW174986   7.604   2.059   1.953  1.5905  0.9141  1.5772
24515SOL    HW274987   7.734   1.982   1.942  0.8626 -0.4741  2.4164
24516SOL     OW74988   7.279   1.917   1.263 -0.6797 -0.3576 -0.1055
24516SOL    HW174989   7.360   1.968   1.264 -0.5146 -0.6083  1.4070
24516SOL    HW274990   7.224   1.959   1.328 -0.7561 -1.7529  0.7773
24517SOL     OW74991   7.889   1.246   0.067  0.1332 -0.0306 -0.0295
24517SOL    HW174992   7.908   1.203  -0.016  1.2522  0.4776 -0.0572
24517SOL    HW274993   7.797   1.272   0.060  0.4057  0.6512 -1.4064
24518SOL     OW74994   5.913   5.395   0.639  0.0244  0.1338  0.2130
24518SOL    HW174995   6.002   5.428   0.652  0.0616 -0.0530  0.4357
24518SOL    HW274996   5.919   5.301   0.657 -0.3282  0.2125  0.7818
24519SOL     OW74997   6.976   1.798   1.054 -0.0325 -0.2657  0.9046
24519SOL    HW174998   6.932   1.722   1.092 -1.0309  0.5455  1.4520
24519SOL    HW274999   6.974   1.782   0.960  0.4650 -1.2699  1.0525
24520SOL     OW75000   7.103   1.207   1.107  0.0406  0.3238 -0.5173
24520SOL    HW175001   7.104   1.280   1.169 -0.7806 -1.9413  2.3833
24520SOL    HW275002   7.177   1.152   1.134 -2.1558 -2.2755  0.6150
24521SOL     OW75003   7.770   4.916   1.405 -0.1368 -0.4760 -0.4272
24521SOL    HW175004   7.739   4.877   1.323 -1.4642 -0.3432 -0.0107
24521SOL    HW275005   7.701   4.896   1.469  0.4351  0.2147  0.4305
24522SOL     OW75006   0.186   3.874   2.644 -0.5519  0.4065  0.1548
24522SOL    HW175007   0.245   3.900   2.714  1.0422 -1.1728 -0.5398
24522SOL    HW275008   0.099   3.900   2.675  0.3085  1.3451  1.8996
24523SOL     OW75009   6.218   5.221   0.965 -0.6596 -0.0954 -0.2785
24523SOL    HW175010   6.135   5.238   1.009 -0.0924  2.1958  0.0502
24523SOL    HW275011   6.270   5.300   0.980  0.6577 -0.4243 -2.5926
24524SOL     OW75012   0.738   2.946  12.429 -0.1266 -0.1988 -0.4254
24524SOL    HW175013   0.762   3.026  12.476 -1.7094 -0.2816  0.6186
24524SOL    HW275014   0.686   2.976  12.355  0.6715 -0.1762 -0.9780
24525SOL     OW75015   0.016   2.730   2.033  0.5294  0.1558 -0.0746
24525SOL    HW175016   0.047   2.690   2.115 -0.1782  0.2195  0.2294
24525SOL    HW275017   0.039   2.822   2.042 -0.0173  0.2626  0.2900
24526SOL     OW75018   6.130   2.392   1.221  0.6340 -0.0631 -0.0536
24526SOL    HW175019   6.131   2.475   1.270  1.0676  0.2623 -0.6006
24526SOL    HW275020   6.086   2.414   1.139 -2.0734 -1.0975  1.0038
24527SOL     OW75021   0.046   0.734   2.881  0.1669 -0.1315  0.2494
24527SOL    HW175022   0.048   0.710   2.973  1.0184  1.2779  0.6403
24527SOL    HW275023   0.137   0.724   2.851  0.1357  0.5559 -0.1014
24528SOL     OW75024   1.105   3.699   1.990  0.2385  0.2826  0.1063
24528SOL    HW175025   1.168   3.680   1.920 -1.1640  0.3032 -1.2220
24528SOL    HW275026   1.146   3.664   2.069  0.2095 -3.3955 -1.3194
24529SOL     OW75027   0.320   1.716   1.168  0.5966  0.0552  0.1147
24529SOL    HW175028   0.270   1.635   1.176  1.8117 -0.8415 -0.9223
24529SOL    HW275029   0.270   1.769   1.106  0.2539 -0.2659  0.1136
24530SOL     OW75030   7.678   3.982  12.408  0.6748  0.2879 -0.2298
24530SOL    HW175031   7.590   3.984  12.371  0.7647 -1.7533 -0.6781
24530SOL    HW275032   7.676   3.910  12.471  1.7320  0.9185  0.5554
24531SOL     OW75033   7.702   0.467  12.095 -0.6603 -0.7692  0.2037
24531SOL    HW175034   7.782   0.421  12.120  1.0434  2.2574  0.7731
24531SOL    HW275035   7.713   0.486  12.002 -0.6111 -0.1637  0.3302
24532SOL     OW75036   7.425   1.704   1.368 -0.1878  0.0906 -0.4764
24532SOL    HW175037   7.358   1.767   1.339 -0.0763 -0.2286 -1.4650
24532SOL    HW275038   7.424   1.711   1.463 -1.2284  0.5126 -0.4990
24533SOL     OW75039   0.322   4.929  12.283  0.7331  0.4322 -0.2527
24533SOL    HW175040   0.384   4.867  12.324 -1.8728 -1.7658  0.6497
24533SOL    HW275041   0.323   5.004  12.342  1.1900 -0.3321  0.7590
24534SOL     OW75042   5.840   0.830   0.841 -0.4273  0.4036  0.1412
24534SOL    HW175043   5.780   0.776   0.892  1.7033  1.2690  3.9084
24534SOL    HW275044   5.919   0.777   0.832  0.2320  1.3526  0.2315
24535SOL     OW75045   7.843   3.326   1.165 -0.0872 -0.7864  0.4870
24535SOL    HW175046   7.824   3.236   1.193 -3.8851  0.1457  1.4670
24535SOL    HW275047   7.837   3.378   1.245 -0.0063  0.6039 -0.3738
24536SOL     OW75048   5.976   3.398   0.632  0.5105 -0.4840  0.3138
24536SOL    HW175049   5.910   3.462   0.659  0.5407 -0.0482 -0.6176
24536SOL    HW275050   5.928   3.315   0.625 -0.4748  0.2083 -2.4125
24537SOL     OW75051   0.724   2.170   1.383  0.2330 -0.3562 -0.7732
24537SOL    HW175052   0.634   2.202   1.375  0.1764 -0.5721 -0.9983
24537SOL    HW275053   0.764   2.228   1.448  0.3303  0.5924 -1.6625
24538SOL     OW75054   6.854   1.955   1.702  0.1991 -0.4057  0.1242
24538SOL    HW175055   6.843   1.992   1.789 -1.1675 -0.0360 -0.1899
24538SOL    HW275056   6.879   2.030   1.647  1.4706 -0.7077  0.2497
24539SOL     OW75057   0.703   3.528  11.375 -1.0039 -0.0240  0.1818
24539SOL    HW175058   0.766   3.595  11.350 -1.7693  1.0662  1.0495
24539SOL    HW275059   0.748   3.445  11.360  0.2041  0.6985 -0.2892
24540SOL     OW75060   6.661   1.564   1.521 -0.5181 -0.4262  0.0055
24540SOL    HW175061   6.727   1.556   1.452 -0.2417  0.9739  0.0804
24540SOL    HW275062   6.672   1.485   1.574  1.4939  0.0425  0.3425
24541SOL     OW75063   7.413   3.550   0.773 -0.1242 -0.0518  0.1284
24541SOL    HW175064   7.480   3.585   0.832  0.1101  0.0860 -0.2176
24541SOL    HW275065   7.358   3.625   0.753 -0.3180 -0.1416  0.3264
24542SOL     OW75066   7.344   4.279  11.066 -0.0291 -0.3530 -0.0668
24542SOL    HW175067   7.308   4.196  11.096 -0.7820 -0.5863 -1.5561
24542SOL    HW275068   7.430   4.257  11.031 -1.2307 -1.0045 -2.8200
24543SOL     OW75069   0.266   2.087  12.308  0.1974 -0.2685  0.6358
24543SOL    HW175070   0.352   2.057  12.280  0.9031 -0.8290  3.2367
24543SOL    HW275071   0.205   2.021  12.273  0.6324  0.4885 -1.8006
24544SOL     OW75072   0.563   4.192   2.689  0.9319 -0.0929 -0.2818
24544SOL    HW175073   0.502   4.202   2.762  1.2152  1.2995 -0.1964
24544SOL    HW275074   0.622   4.122   2.716  0.3361 -0.3739  0.3204
24545SOL     OW75075   7.404   3.572   1.618 -0.2743  0.3334 -0.0489
24545SOL    HW175076   7.447   3.609   1.695 -0.0999 -0.5064  0.2661
24545SOL    HW275077   7.465   3.589   1.546  0.4370 -0.5120  0.3303
24546SOL     OW75078   7.360   4.381   0.353  0.1136 -0.2391  0.3218
24546SOL    HW175079   7.283   4.354   0.403 -1.1358  1.4097 -0.6080
24546SOL    HW275080   7.395   4.456   0.401  0.2580 -0.0698 -0.0465
24547SOL     OW75081   0.331   2.531   0.628 -0.7210  0.0127 -0.3402
24547SOL    HW175082   0.364   2.555   0.714 -2.0461 -1.1026  0.5121
24547SOL    HW275083   0.405   2.486   0.586 -0.6318 -1.0887  0.9387
24548SOL     OW75084   0.026   1.914  12.296  0.4752  0.0762 -0.2303
24548SOL    HW175085  -0.022   1.876  12.223  0.2429 -0.9410  0.4385
24548SOL    HW275086  -0.020   1.996  12.314 -1.1921 -0.9778  0.5487
24549SOL     OW75087   1.155   4.959   1.049  0.3527  0.3174 -0.6855
24549SOL    HW175088   1.241   4.951   1.090 -0.5191 -0.4619  1.0964
24549SOL    HW275089   1.136   4.872   1.015  0.0479  0.3517 -0.6069
24550SOL     OW75090   0.675   4.105   2.337 -0.1900 -0.1658 -0.0603
24550SOL    HW175091   0.741   4.037   2.325  0.5002  0.0382  2.0971
24550SOL    HW275092   0.626   4.078   2.415 -0.1540  1.5528  0.6188
24551SOL     OW75093   7.709   3.179   1.350 -0.2433 -0.5284  0.2967
24551SOL    HW175094   7.623   3.194   1.390 -0.0445  0.0625  0.5030
24551SOL    HW275095   7.760   3.137   1.420 -0.8210 -2.3290 -0.3002
24552SOL     OW75096   0.841   3.899   2.294  0.1530 -0.1829 -0.3858
24552SOL    HW175097   0.910   3.853   2.341 -0.0920 -0.2100 -0.0519
24552SOL    HW275098   0.876   3.910   2.205  1.7293  2.2048  0.4116
24553SOL     OW75099   6.874   3.051   0.606  0.4944  0.0703 -0.2623
24553SOL    HW175100   6.887   3.104   0.527 -0.7615  1.5089  0.4396
24553SOL    HW275101   6.815   2.981   0.578  2.0954 -0.9583 -1.1786
24554SOL     OW75102   5.049   3.895   0.341  0.1418 -0.0013  0.2903
24554SOL    HW175103   4.979   3.856   0.394 -1.0973 -0.8028 -1.8139
24554SOL    HW275104   5.125   3.840   0.356  0.1007  0.3444  1.9285
24555SOL     OW75105   7.604   3.433  12.030  0.2092  0.3647 -0.3320
24555SOL    HW175106   7.570   3.496  12.093 -1.9980 -0.5224 -0.5193
24555SOL    HW275107   7.687   3.470  12.000  0.4621  1.6531  1.7770
24556SOL     OW75108   0.831   1.931   3.582  0.0871 -0.4471  0.4287
24556SOL    HW175109   0.881   1.917   3.501  1.1305 -1.1959  1.1735
24556SOL    HW275110   0.853   2.021   3.607  0.5112 -0.5329  0.3767
24557SOL     OW75111   7.470   2.896   2.555 -0.0988  0.3695  0.0398
24557SOL    HW175112   7.465   2.863   2.645 -1.3716 -1.1818 -0.5520
24557SOL    HW275113   7.557   2.870   2.524 -0.8365 -2.0412 -0.2019
24558SOL     OW75114   7.514   2.453   2.702  0.7588  0.1647 -0.1214
24558SOL    HW175115   7.501   2.371   2.655 -2.0145 -0.8391  2.0627
24558SOL    HW275116   7.604   2.449   2.735  0.6310 -2.1338  0.0705
24559SOL     OW75117   0.644   3.192   2.372  0.2399  0.2193 -0.6306
24559SOL    HW175118   0.653   3.121   2.308  2.4063  1.5330 -1.9256
24559SOL    HW275119   0.636   3.271   2.318 -0.2787  1.1513  0.7705
24560SOL     OW75120   6.134   5.172   1.486 -0.1190  0.9639  0.0762
24560SOL    HW175121   6.218   5.174   1.441 -0.2214 -0.9637 -0.2606
24560SOL    HW275122   6.107   5.081   1.485 -2.1828  1.5068  0.2680
24561SOL     OW75123   7.187   4.300   2.511  0.5162 -0.1889 -0.0901
24561SOL    HW175124   7.216   4.211   2.491  0.4644 -0.4735  1.0188
24561SOL    HW275125   7.108   4.288   2.563  1.7119  0.4178  1.9726
24562SOL     OW75126   0.890   3.551   3.369  0.7122 -0.1204  0.5428
24562SOL    HW175127   0.922   3.573   3.457 -1.6021 -1.6064  1.8501
24562SOL    HW275128   0.963   3.504   3.329  0.5864 -2.8391  3.1619
24563SOL     OW75129   6.909   7.664   1.563  0.2879  0.0832 -0.1058
24563SOL    HW175130   6.966   7.683   1.488  0.1093 -1.2781 -0.6081
24563SOL    HW275131   6.939   7.724   1.631  0.4165  1.3920 -1.2765
24564SOL     OW75132   0.001   2.267   2.897  0.1387  0.5166  0.2109
24564SOL    HW175133   0.005   2.190   2.840  2.2785  0.2211  0.6931
24564SOL    HW275134   0.065   2.328   2.861 -0.6384  1.5900  0.5739
24565SOL     OW75135   0.762   2.163   2.628  0.2536 -0.1348 -0.0660
24565SOL    HW175136   0.741   2.232   2.691 -3.3610 -1.5678  0.5306
24565SOL    HW275137   0.771   2.208   2.544  3.3065  1.5661  0.9981
24566SOL     OW75138   0.462   3.147   2.628 -0.0676 -0.5879  0.1186
24566SOL    HW175139   0.475   3.240   2.649  0.6656 -0.9123  1.1396
24566SOL    HW275140   0.470   3.143   2.533 -1.8920  0.6752 -0.1621
24567SOL     OW75141   6.733   4.332   3.220 -0.3318 -0.0867  0.1273
24567SOL    HW175142   6.748   4.269   3.291 -0.8867 -0.3927 -0.0200
24567SOL    HW275143   6.651   4.375   3.243 -0.5818 -0.2758 -0.3903
24568SOL     OW75144   0.402   1.400   0.851 -0.6572  0.0807  0.5309
24568SOL    HW175145   0.316   1.439   0.834 -0.1169  1.4521  0.8468
24568SOL    HW275146   0.438   1.384   0.764 -1.1347 -0.3123  0.3960
24569SOL     OW75147   0.073   3.379   1.838  0.2055  0.2744  0.5446
24569SOL    HW175148   0.087   3.393   1.744 -1.1690 -1.6168  0.0012
24569SOL    HW275149  -0.003   3.433   1.860  0.3888  0.5400  0.5341
24570SOL     OW75150   7.861   4.364   5.640 -0.1261  0.3042  0.1318
24570SOL    HW175151   7.900   4.291   5.591 -1.3972 -0.8014  0.6970
24570SOL    HW275152   7.779   4.328   5.674 -1.4062  2.3858 -0.5947
24571SOL     OW75153   7.468   1.310   3.587  0.7129  0.3209 -0.1893
24571SOL    HW175154   7.377   1.295   3.563  0.0060  1.8061  1.3000
24571SOL    HW275155   7.481   1.261   3.668  0.7574  1.2828  0.4080
24572SOL     OW75156   0.039   4.128   2.863 -0.1513  0.2437  0.2376
24572SOL    HW175157  -0.055   4.125   2.882 -0.1565 -0.4626  0.1169
24572SOL    HW275158   0.079   4.154   2.947 -0.5702  2.3678 -0.1441
24573SOL     OW75159   6.621   1.384   3.146  0.4501  0.8174  0.2097
24573SOL    HW175160   6.710   1.396   3.178  0.3225  1.1338  0.4573
24573SOL    HW275161   6.625   1.406   3.053  0.8353 -0.1540 -0.0119
24574SOL     OW75162   1.374   2.467   1.969 -0.6048  0.0941 -0.2111
24574SOL    HW175163   1.437   2.537   1.988  1.2317 -1.3301 -0.7902
24574SOL    HW275164   1.388   2.448   1.876 -1.5376 -0.6245 -0.2160
24575SOL     OW75165   5.668   4.184   4.844 -0.1329  0.4862  0.5577
24575SOL    HW175166   5.676   4.272   4.880  2.6252  0.4897  0.1086
24575SOL    HW275167   5.588   4.187   4.791 -0.0143  2.7779  0.4115
24576SOL     OW75168   7.770   2.653   2.072 -0.0906  0.0196  0.0374
24576SOL    HW175169   7.729   2.633   1.987  0.7002 -0.7365 -0.1860
24576SOL    HW275170   7.846   2.705   2.049 -0.1956  0.3027  0.3346
24577SOL     OW75171   6.468   1.555   3.284  0.1759  0.0427  0.5166
24577SOL    HW175172   6.491   1.495   3.213  0.5195 -1.3141  1.7261
24577SOL    HW275173   6.543   1.550   3.344  0.3070  1.8585  0.5601
24578SOL     OW75174   7.902   1.919   1.240 -0.4434  0.0936 -0.1560
24578SOL    HW175175   7.850   1.875   1.173  0.4184  0.5976 -1.1806
24578SOL    HW275176   7.838   1.945   1.307 -1.2532 -0.7867 -0.5681
24579SOL     OW75177   0.261   2.570   2.987 -0.0135 -0.1154 -0.4991
24579SOL    HW175178   0.220   2.512   2.924 -0.2212 -1.1152  0.5293
24579SOL    HW275179   0.188   2.610   3.035  0.1485  0.2695 -0.5683
24580SOL     OW75180   7.677   1.779   0.760 -0.2372 -0.1215  0.3154
24580SOL    HW175181   7.585   1.792   0.783  0.1195  0.8324  1.2921
24580SOL    HW275182   7.686   1.817   0.673 -0.6511  0.2591  0.4366
24581SOL     OW75183   0.011   4.421   3.096  0.0555  0.0165 -0.1628
24581SOL    HW175184  -0.012   4.506   3.132 -0.8981  0.3254 -1.3981
24581SOL    HW275185   0.021   4.437   3.002  0.3690 -1.1334 -0.3416
24582SOL     OW75186   6.974   2.869   2.201 -0.1735 -0.6485  0.7632
24582SOL    HW175187   6.990   2.898   2.291 -2.0085 -0.5312  1.0926
24582SOL    HW275188   6.992   2.946   2.148  0.8091 -0.6840  1.0270
24583SOL     OW75189   5.867   3.655   3.884  0.3457  0.2231  0.2513
24583SOL    HW175190   5.898   3.737   3.923 -0.0739  1.3648 -1.7072
24583SOL    HW275191   5.773   3.668   3.871  0.2673 -0.5961 -0.0796
24584SOL     OW75192   6.119   4.408   3.534  0.6056 -0.4702  0.2487
24584SOL    HW175193   6.072   4.331   3.502 -1.9757  1.2671 -0.5073
24584SOL    HW275194   6.137   4.459   3.455  3.6903 -0.8829  0.5361
24585SOL     OW75195   7.571   2.996   1.949  0.3147  0.4027  0.2164
24585SOL    HW175196   7.507   2.947   2.000 -1.3688  1.5250 -0.7315
24585SOL    HW275197   7.601   2.934   1.882 -2.3152  0.7555 -1.4178
24586SOL     OW75198   1.096   2.805   3.600 -0.0044 -0.1605  0.3557
24586SOL    HW175199   1.027   2.859   3.637  0.0012 -1.3230  2.1567
24586SOL    HW275200   1.052   2.753   3.532 -0.0368  1.8821 -1.3136
24587SOL     OW75201   0.727   2.317   2.837 -0.1524  0.2078 -0.3356
24587SOL    HW175202   0.794   2.368   2.882  1.3677 -0.2909 -1.9286
24587SOL    HW275203   0.706   2.246   2.898  0.9823  0.2128  0.0819
24588SOL     OW75204   6.681   3.226   3.488 -0.0883 -0.4748 -0.2533
24588SOL    HW175205   6.682   3.314   3.526  1.4274 -1.2632  1.6986
24588SOL    HW275206   6.753   3.180   3.532 -1.2543 -2.8952 -0.7178
24589SOL     OW75207   0.758   2.028   2.288  0.3715  0.3265 -0.0085
24589SOL    HW175208   0.682   2.022   2.346  0.4046  0.5027  0.0543
24589SOL    HW275209   0.730   1.986   2.207 -0.2383  1.5646 -0.4494
24590SOL     OW75210   6.447   3.134   1.893 -0.5275  0.1537 -0.5969
24590SOL    HW175211   6.425   3.156   1.984 -1.7333 -0.0708 -0.8128
24590SOL    HW275212   6.526   3.081   1.899  0.3388  1.4619  0.2019
24591SOL     OW75213   7.706   3.128   2.394 -0.8364 -0.2675 -0.1602
24591SOL    HW175214   7.779   3.114   2.334  0.5471  1.6644  0.9380
24591SOL    HW275215   7.697   3.046   2.442 -0.0242 -0.8454 -0.9629
24592SOL     OW75216   5.417   2.965   4.524  0.0528  0.2265 -0.7176
24592SOL    HW175217   5.469   2.913   4.585 -0.3577  2.7929  2.0147
24592SOL    HW275218   5.327   2.956   4.555 -0.1633  1.6568 -0.8616
24593SOL     OW75219   0.520   2.054   1.142 -0.1670 -0.0913 -0.1077
24593SOL    HW175220   0.437   2.076   1.100  0.1150 -2.0039 -1.8365
24593SOL    HW275221   0.501   1.973   1.190  0.5475 -0.1929  0.0064
24594SOL     OW75222   7.704   2.040   1.043  0.1196  0.0785 -0.4233
24594SOL    HW175223   7.791   2.056   1.008 -0.0727 -0.6392 -1.2484
24594SOL    HW275224   7.660   1.986   0.977 -1.2499  1.1374 -0.4361
24595SOL     OW75225   7.612   2.790   2.945 -0.5102 -0.0963 -0.6148
24595SOL    HW175226   7.617   2.747   3.031  0.4618  2.1317  0.5330
24595SOL    HW275227   7.546   2.740   2.898 -1.1325 -1.3812  1.4523
24596SOL     OW75228   7.451   1.530   2.132 -0.0379 -0.6251 -0.2938
24596SOL    HW175229   7.396   1.467   2.086  1.9025 -1.5319 -1.4750
24596SOL    HW275230   7.454   1.606   2.074 -0.3695 -0.3997 -0.0224
24597SOL     OW75231   7.011   2.091   3.655  0.0307 -0.3678 -0.3947
24597SOL    HW175232   6.942   2.045   3.703 -0.0456 -0.9537 -1.0410
24597SOL    HW275233   6.981   2.182   3.651  0.3624 -0.1632  1.2362
24598SOL     OW75234   7.074   2.965   3.171 -0.1229 -0.1052  0.1131
24598SOL    HW175235   7.012   2.892   3.169 -0.9660  0.6005 -0.5418
24598SOL    HW275236   7.024   3.037   3.211  0.1340  0.5741 -0.7412
24599SOL     OW75237   7.224   4.630   1.330 -0.3135  1.3395  0.1077
24599SOL    HW175238   7.181   4.552   1.366 -0.5908  1.3200 -0.2561
24599SOL    HW275239   7.153   4.692   1.317 -0.4029  0.9403 -1.4674
24600SOL     OW75240   6.972   2.201   2.813  0.0538 -0.5465  0.2704
24600SOL    HW175241   6.944   2.174   2.901  1.0734 -0.2769  0.6871
24600SOL    HW275242   7.067   2.212   2.820 -0.0075  0.6500 -0.5513
24601SOL     OW75243   6.832   3.543   2.983 -0.0822 -0.5889  0.7721
24601SOL    HW175244   6.879   3.626   2.986 -2.5376  0.9672 -0.5085
24601SOL    HW275245   6.786   3.539   3.067 -2.3193  0.9631 -0.2618
24602SOL     OW75246   0.794   1.550   1.384  0.1586 -0.5816  0.0890
24602SOL    HW175247   0.830   1.569   1.471 -1.5778 -0.1871  0.7595
24602SOL    HW275248   0.704   1.523   1.401  0.3176 -2.2660 -1.4684
24603SOL     OW75249   0.850   1.974   4.896  0.2778  0.6130  0.2117
24603SOL    HW175250   0.762   1.959   4.929 -0.3312  2.1024 -0.6544
24603SOL    HW275251   0.900   1.899   4.927 -0.9594  0.4246  1.8936
24604SOL     OW75252   7.489   1.543   0.843  0.2812 -0.5956  0.2341
24604SOL    HW175253   7.499   1.558   0.937 -0.4500  1.4688  0.0533
24604SOL    HW275254   7.498   1.449   0.832 -0.2615 -0.9660  2.4548
24605SOL     OW75255   0.905   3.382   4.829 -0.7521 -0.4807 -0.3242
24605SOL    HW175256   0.982   3.391   4.773 -1.1996 -0.2607 -0.9112
24605SOL    HW275257   0.895   3.288   4.842 -1.8525 -0.6976 -2.3404
24606SOL     OW75258   6.155   3.228   3.277 -0.5952  0.1875  0.2417
24606SOL    HW175259   6.226   3.204   3.337 -0.2549  0.0471 -0.2088
24606SOL    HW275260   6.123   3.312   3.310  0.0467  0.4499  0.2154
24607SOL     OW75261   6.290   4.735   4.374  0.2285 -0.4440  0.5279
24607SOL    HW175262   6.349   4.760   4.445  0.9541  0.3793 -0.3355
24607SOL    HW275263   6.347   4.722   4.299 -0.6927  0.8141 -0.4418
24608SOL     OW75264   6.855   2.202   1.264  0.0528 -0.8009 -0.8382
24608SOL    HW175265   6.796   2.129   1.247 -0.0562 -0.4374 -2.1108
24608SOL    HW275266   6.933   2.183   1.212  0.8050 -0.9422  0.3048
24609SOL     OW75267   7.390   1.744   5.525  0.1172 -0.9144 -0.1104
24609SOL    HW175268   7.485   1.746   5.539  0.1214  4.7637  1.4599
24609SOL    HW275269   7.377   1.786   5.440 -1.0147 -0.5767  0.2088
24610SOL     OW75270   1.018   1.768   1.457  0.1922 -0.1150 -0.0159
24610SOL    HW175271   0.930   1.805   1.455 -0.0899 -0.7673  0.1441
24610SOL    HW275272   1.018   1.709   1.532  1.0755  0.6208  0.5865
24611SOL     OW75273   0.362   2.791   4.714  0.3324  0.3348  0.1360
24611SOL    HW175274   0.451   2.770   4.687  0.7645  0.4515  1.4120
24611SOL    HW275275   0.340   2.870   4.663  0.3756 -0.5381 -1.2910
24612SOL     OW75276   6.667   2.771   2.736  0.2226  0.1341  0.4735
24612SOL    HW175277   6.624   2.780   2.821 -1.9460  2.3965 -0.7459
24612SOL    HW275278   6.750   2.819   2.746  1.0639 -1.4877  1.8763
24613SOL     OW75279   6.515   4.158   3.618 -0.1102 -0.4778 -0.5736
24613SOL    HW175280   6.441   4.099   3.599 -1.0233  0.7480 -0.9605
24613SOL    HW275281   6.582   4.133   3.555 -1.2198  0.1683 -2.0839
24614SOL     OW75282   6.707   1.032   2.206 -0.2273 -0.4463 -0.8847
24614SOL    HW175283   6.738   1.006   2.292 -0.8994 -1.4489 -0.9241
24614SOL    HW275284   6.615   1.054   2.220  0.1618  1.3298 -0.9824
24615SOL     OW75285   1.350   2.628   3.426  0.2919  0.5881 -0.2742
24615SOL    HW175286   1.322   2.581   3.504  1.3432 -0.0226 -0.2496
24615SOL    HW275287   1.291   2.596   3.357  0.0962  0.2730  0.0327
24616SOL     OW75288   6.909   2.305   3.331 -0.2167  0.7006  0.0168
24616SOL    HW175289   6.903   2.382   3.274  0.4398 -0.5615 -1.8324
24616SOL    HW275290   6.992   2.317   3.378 -0.4774  1.4653  0.3068
24617SOL     OW75291   0.234   0.576   1.868  0.2145  0.3180  0.5549
24617SOL    HW175292   0.281   0.497   1.897  1.1699 -0.5894 -2.9822
24617SOL    HW275293   0.145   0.564   1.901  0.2052 -2.5400 -0.1677
24618SOL     OW75294   0.349   2.875   2.660  0.4642 -0.2583  0.3101
24618SOL    HW175295   0.307   2.961   2.668  1.4128  0.0899  2.1171
24618SOL    HW275296   0.364   2.865   2.566 -0.6925  1.0393 -0.0532
24619SOL     OW75297   6.436   2.450   2.979  0.5765 -0.3808 -1.1619
24619SOL    HW175298   6.518   2.466   2.934  0.3257  2.5743 -0.7777
24619SOL    HW275299   6.397   2.537   2.990 -0.7227 -1.2048  2.1740
24620SOL     OW75300   7.922   3.181   3.098  1.0206 -0.4756  0.0683
24620SOL    HW175301   7.845   3.139   3.058  0.7227 -0.0645  0.1981
24620SOL    HW275302   7.947   3.249   3.035  0.8444 -0.1456  0.3471
24621SOL     OW75303   7.487   1.511   5.306 -0.4425 -0.0215 -0.1580
24621SOL    HW175304   7.571   1.525   5.351  0.0496 -2.7027 -0.1062
24621SOL    HW275305   7.422   1.518   5.376 -0.3814  2.3346 -0.2375
24622SOL     OW75306   0.419   2.549   3.894 -0.5101 -0.2702 -0.4914
24622SOL    HW175307   0.343   2.504   3.856 -0.0828  0.0402 -1.7792
24622SOL    HW275308   0.479   2.561   3.820  0.4008  0.3053  0.3150
24623SOL     OW75309   7.298   0.830   5.346 -0.4778 -0.5604 -0.2644
24623SOL    HW175310   7.326   0.910   5.301  1.1263 -0.6969  0.4130
24623SOL    HW275311   7.251   0.780   5.279  0.0134  0.1841 -1.1897
24624SOL     OW75312   6.460   4.371   4.731  0.1928 -0.0707 -0.1833
24624SOL    HW175313   6.540   4.354   4.780  0.0740  1.2825  0.5235
24624SOL    HW275314   6.490   4.409   4.649  0.3977 -2.4280 -1.3042
24625SOL     OW75315   0.126   3.265   6.038  0.2816 -0.0545 -0.4373
24625SOL    HW175316   0.043   3.238   5.999 -0.0115 -0.9123  0.7211
24625SOL    HW275317   0.104   3.339   6.094 -0.1394 -1.5507  1.4933
24626SOL     OW75318   0.394   1.099   3.070 -0.0101 -0.4127 -0.6244
24626SOL    HW175319   0.443   1.135   3.143 -0.7153  1.8876 -1.1928
24626SOL    HW275320   0.304   1.092   3.103 -0.6884  2.2056 -1.6306
24627SOL     OW75321   7.777   4.159   2.876 -0.4318 -0.0524 -0.1584
24627SOL    HW175322   7.779   4.212   2.956  1.9013 -0.2578 -0.0036
24627SOL    HW275323   7.746   4.073   2.905  2.7126 -0.8982  1.1626
24628SOL     OW75324   7.949   3.444   4.621  0.0620  0.0230  0.1239
24628SOL    HW175325   7.999   3.369   4.651  2.2018  0.5339 -1.8609
24628SOL    HW275326   7.868   3.407   4.586  0.9575 -1.3494 -0.5656
24629SOL     OW75327   5.912   1.884   4.469 -0.2667  0.7390 -0.2052
24629SOL    HW175328   5.841   1.856   4.527 -1.0754 -1.0168 -1.9147
24629SOL    HW275329   5.977   1.814   4.475  1.1246  2.0614  0.9107
24630SOL     OW75330   0.345   3.922   2.870  0.7437  0.4456 -0.1449
24630SOL    HW175331   0.368   3.969   2.950 -2.1960  2.3627 -0.2788
24630SOL    HW275332   0.299   3.843   2.901  0.3548  0.7541  0.0698
24631SOL     OW75333   1.220   2.932   6.252 -0.6909  0.0623  0.0650
24631SOL    HW175334   1.258   3.001   6.307 -0.6427 -0.8621  1.2083
24631SOL    HW275335   1.164   2.980   6.190  0.4704  1.2452 -0.1250
24632SOL     OW75336   6.483   2.981   3.158  0.0953 -0.3268  0.4483
24632SOL    HW175337   6.526   3.062   3.188  0.6212 -0.0693 -0.9097
24632SOL    HW275338   6.399   3.010   3.123  0.6362 -0.2104 -0.8271
24633SOL     OW75339   7.654   2.561   6.123  0.2145 -0.2486 -0.1546
24633SOL    HW175340   7.595   2.610   6.065  0.5478 -1.1511 -1.2903
24633SOL    HW275341   7.638   2.598   6.210 -0.3778  1.0681 -0.7919
24634SOL     OW75342   7.104   1.118   3.331 -0.1007  0.3889 -0.3028
24634SOL    HW175343   7.019   1.137   3.291  0.2155  0.7654 -0.8064
24634SOL    HW275344   7.167   1.129   3.260  0.4809  1.1255  0.3076
24635SOL     OW75345   7.829   2.450   3.835  0.1870  0.1195  0.0372
24635SOL    HW175346   7.826   2.444   3.930  0.7208 -0.6342  0.0211
24635SOL    HW275347   7.876   2.370   3.808  1.4155  1.0679 -0.7482
24636SOL     OW75348   6.411   3.603   3.974  0.0638 -0.4927 -0.2217
24636SOL    HW175349   6.343   3.669   3.989  0.6224  0.9998 -3.4428
24636SOL    HW275350   6.362   3.521   3.964 -1.0468  0.1719 -0.4162
24637SOL     OW75351   1.096   1.546   5.942 -0.1379 -0.4700  0.0173
24637SOL    HW175352   1.022   1.602   5.919 -0.7023 -1.4765 -0.6830
24637SOL    HW275353   1.057   1.465   5.975  0.6367  0.1980  2.9492
24638SOL     OW75354   6.915   3.630   4.643  0.1228 -0.1970 -0.2499
24638SOL    HW175355   6.820   3.627   4.639  0.1756 -1.0484 -1.5249
24638SOL    HW275356   6.935   3.708   4.696 -1.2682 -0.4260  0.6545
24639SOL     OW75357   1.338   2.740   3.925  0.1260 -0.2823 -0.3670
24639SOL    HW175358   1.416   2.737   3.980 -0.2441  1.4300  0.2998
24639SOL    HW275359   1.360   2.802   3.855 -1.3230  1.9416  1.0356
24640SOL     OW75360   6.707   2.339   4.195 -0.1298  0.2008 -0.4305
24640SOL    HW175361   6.663   2.262   4.230  0.2256  0.4223  0.5287
24640SOL    HW275362   6.762   2.370   4.266  1.9615 -0.3344 -1.7267
24641SOL     OW75363   7.372   2.885   4.167 -0.4172  0.0190  0.2579
24641SOL    HW175364   7.331   2.970   4.188  0.3395  1.2333 -2.6724
24641SOL    HW275365   7.301   2.833   4.129 -0.5009 -0.0249  0.4728
24642SOL     OW75366   6.004   2.516   5.333 -0.1311  0.1166 -0.1523
24642SOL    HW175367   6.071   2.542   5.268 -1.1982  0.2233 -1.2475
24642SOL    HW275368   5.924   2.509   5.282 -0.5215 -2.3471  0.6786
24643SOL     OW75369   7.764   2.434   4.325 -0.3004 -0.1188 -0.0160
24643SOL    HW175370   7.712   2.357   4.347 -0.7389  0.3505  0.6465
24643SOL    HW275371   7.704   2.508   4.336  0.0717  0.3079 -0.7843
24644SOL     OW75372   7.626   2.041   2.896 -0.0133 -0.1356  0.5536
24644SOL    HW175373   7.651   2.040   2.803 -0.2003  1.2461  0.4727
24644SOL    HW275374   7.632   2.133   2.921  1.5522 -0.6696  2.3366
24645SOL     OW75375   1.640   1.165   4.663 -0.0519  0.2287  0.0826
24645SOL    HW175376   1.652   1.073   4.639 -0.8189  0.2937 -0.5961
24645SOL    HW275377   1.607   1.162   4.753 -1.1554 -0.2374 -0.3141
24646SOL     OW75378   0.945   1.549   2.739 -0.3634 -0.5227 -0.4704
24646SOL    HW175379   0.892   1.472   2.759 -1.0497  0.0616  0.0287
24646SOL    HW275380   0.992   1.526   2.659  0.6090 -2.0181  0.4854
24647SOL     OW75381   7.485   3.260   4.076  0.3083 -0.2939  0.7338
24647SOL    HW175382   7.548   3.232   4.143  1.0558 -1.5643 -0.4430
24647SOL    HW275383   7.427   3.185   4.065 -1.1323  0.6769  1.4168
24648SOL     OW75384   0.429   1.233   4.224 -0.4688 -0.2065 -0.4730
24648SOL    HW175385   0.371   1.309   4.214 -0.1257  0.1134 -0.0330
24648SOL    HW275386   0.370   1.158   4.214 -0.6358  0.0836 -2.0771
24649SOL     OW75387   0.167   1.263   3.702  0.0820 -0.4350 -0.5694
24649SOL    HW175388   0.085   1.311   3.688  0.3999  0.1346 -0.4919
24649SOL    HW275389   0.220   1.321   3.756 -0.8105 -2.2076  2.5092
24650SOL     OW75390   0.427   0.546   4.368  0.0827 -0.2828 -0.3720
24650SOL    HW175391   0.447   0.518   4.457 -1.1926 -0.1750 -0.0243
24650SOL    HW275392   0.339   0.511   4.351 -0.1229  0.5920 -1.2018
24651SOL     OW75393   6.804   4.389   5.993  0.1110 -0.1487 -0.4727
24651SOL    HW175394   6.878   4.352   5.946 -0.5745 -0.2151 -1.5324
24651SOL    HW275395   6.734   4.324   5.984 -1.1211  1.2971 -2.3681
24652SOL     OW75396   0.610   3.524   4.515 -0.0309  0.2241 -0.5055
24652SOL    HW175397   0.610   3.534   4.610  2.2492  0.2255 -0.4581
24652SOL    HW275398   0.524   3.558   4.488 -0.6518  0.4200  1.5091
24653SOL     OW75399   0.269   0.737   4.108 -0.6729 -0.1482  0.3912
24653SOL    HW175400   0.240   0.736   4.017  0.1271 -0.7699  0.1287
24653SOL    HW275401   0.249   0.826   4.138 -0.2235  0.3254 -0.6349
24654SOL     OW75402   6.444   4.877   5.390 -0.5664 -0.2296  0.1638
24654SOL    HW175403   6.496   4.957   5.384  0.0422 -0.4720  1.7171
24654SOL    HW275404   6.357   4.901   5.357 -0.2814  0.9576  0.2599
24655SOL     OW75405   0.230   0.770   5.521 -0.1398  0.1515  0.0222
24655SOL    HW175406   0.196   0.744   5.607  0.6090 -0.5738  0.1068
24655SOL    HW275407   0.203   0.862   5.512  1.3152  0.8307  1.8374
24656SOL     OW75408   6.506   1.733   5.524 -0.0441  0.4486  0.3450
24656SOL    HW175409   6.592   1.710   5.488 -0.2908  0.7775 -0.4780
24656SOL    HW275410   6.446   1.722   5.450 -0.3921  2.3069  0.3204
24657SOL     OW75411   0.579   3.012   6.109 -0.7678 -0.7364 -0.1116
24657SOL    HW175412   0.521   2.968   6.172 -0.3911 -0.3221  0.5400
24657SOL    HW275413   0.530   3.091   6.084 -1.3574 -1.3995 -1.1289
24658SOL     OW75414   7.964   1.822   4.083  0.0760 -0.0921 -0.3167
24658SOL    HW175415   7.981   1.885   4.153  0.7658 -0.6521  0.0349
24658SOL    HW275416   8.047   1.814   4.037 -0.0326 -0.6673 -0.4165
24659SOL     OW75417   7.263   3.372   4.634  0.0775 -0.0417  0.3060
24659SOL    HW175418   7.290   3.376   4.726  2.5565 -0.8503 -0.2832
24659SOL    HW275419   7.249   3.463   4.609  2.1846  0.4968  0.8257
24660SOL     OW75420   1.301   2.313   3.516  0.6054  0.3156  0.8146
24660SOL    HW175421   1.250   2.372   3.570  1.2763  1.5495  0.1413
24660SOL    HW275422   1.361   2.270   3.576  0.7298  1.0018  1.1874
24661SOL     OW75423   5.013   2.623   5.022 -0.2793 -0.2873 -0.3607
24661SOL    HW175424   5.032   2.694   5.084  1.5431 -2.2059  1.4732
24661SOL    HW275425   4.927   2.591   5.049 -0.8030  0.7333 -0.7526
24662SOL     OW75426   6.823   2.639   5.149 -0.3831 -0.3822  0.1977
24662SOL    HW175427   6.760   2.685   5.093  0.1062  0.0878  0.0220
24662SOL    HW275428   6.779   2.557   5.172 -1.0765 -0.0468  0.1113
24663SOL     OW75429   0.375   1.476   5.642  0.3302  0.2828 -0.2496
24663SOL    HW175430   0.350   1.425   5.565  0.5552 -0.2301  0.0086
24663SOL    HW275431   0.468   1.496   5.629  0.3361  0.3068 -0.1757
24664SOL     OW75432   5.714   3.849   3.208  0.0311 -0.0166 -0.1463
24664SOL    HW175433   5.784   3.897   3.252 -1.7138  2.4374  0.1236
24664SOL    HW275434   5.648   3.915   3.187 -2.4702 -2.2712  0.0516
24665SOL     OW75435   0.727   2.741   3.151 -0.0717 -0.0001 -0.1954
24665SOL    HW175436   0.648   2.689   3.143  0.7302 -1.1470 -0.9050
24665SOL    HW275437   0.718   2.810   3.085  1.4387 -2.7383 -3.5794
24666SOL     OW75438   1.442   1.525   5.583 -0.5251  0.0922  0.0511
24666SOL    HW175439   1.464   1.592   5.647  0.7912  0.3104 -0.6023
24666SOL    HW275440   1.505   1.538   5.512 -1.5102 -0.5751 -0.9869
24667SOL     OW75441   7.652   2.114   4.105 -0.1572 -0.3418  0.0603
24667SOL    HW175442   7.744   2.138   4.094  0.8244 -3.6827 -0.0589
24667SOL    HW275443   7.605   2.167   4.040  1.0329  4.0155  2.3552
24668SOL     OW75444   1.322   1.958   4.879  0.0982 -0.2495 -0.1182
24668SOL    HW175445   1.304   1.933   4.788  3.3398 -1.6557 -0.5212
24668SOL    HW275446   1.373   2.039   4.872 -1.3280  0.7421  0.6146
24669SOL     OW75447   7.626   2.981   3.670 -0.2739  0.3062  0.0939
24669SOL    HW175448   7.560   2.982   3.740  0.0379  1.5742  0.3942
24669SOL    HW275449   7.674   3.063   3.682 -0.6353  0.8694 -2.0076
24670SOL     OW75450   7.772   5.246   4.749 -0.0505 -0.2731 -0.1268
24670SOL    HW175451   7.748   5.257   4.842  0.8116  0.8781 -0.0206
24670SOL    HW275452   7.688   5.236   4.704 -0.5982  1.0026  0.5660
24671SOL     OW75453   0.458   1.365   4.817  0.0283  0.0512 -0.3221
24671SOL    HW175454   0.552   1.367   4.834 -0.1513  0.9023  0.6659
24671SOL    HW275455   0.448   1.412   4.734  0.2873  2.0051  0.6938
24672SOL     OW75456   6.869   3.432   5.015  0.0909  0.0322  0.4253
24672SOL    HW175457   6.839   3.433   4.925  0.3708 -0.1620  0.3266
24672SOL    HW275458   6.791   3.453   5.067  0.2229  1.5192  0.0692
24673SOL     OW75459   6.660   3.550   7.692 -0.1442  0.0821 -0.0652
24673SOL    HW175460   6.617   3.465   7.699  0.3304 -0.6719 -4.0148
24673SOL    HW275461   6.753   3.532   7.709  0.2362 -0.6711 -2.5471
24674SOL     OW75462   6.109   4.717   4.125 -0.6274  0.7027 -0.2616
24674SOL    HW175463   6.161   4.776   4.071  2.3832 -0.4918  1.1329
24674SOL    HW275464   6.165   4.697   4.200 -0.9592 -4.6650 -1.0666
24675SOL     OW75465   0.494   2.585   4.870  0.0341  0.1563 -0.4318
24675SOL    HW175466   0.472   2.515   4.808 -2.3547 -0.6387  1.1775
24675SOL    HW275467   0.436   2.657   4.845 -0.6774 -0.0405  0.5837
24676SOL     OW75468   6.687   3.053   4.092 -0.5771 -0.5278 -0.5382
24676SOL    HW175469   6.703   3.129   4.148 -5.0258 -0.7024  1.3625
24676SOL    HW275470   6.727   2.980   4.139 -1.5527 -0.1923  0.8737
24677SOL     OW75471   7.923   4.249   4.054  0.1143  0.3128 -0.2504
24677SOL    HW175472   7.998   4.306   4.037 -0.5249  0.9385 -1.0609
24677SOL    HW275473   7.960   4.175   4.103  0.7621  1.9809  1.9394
24678SOL     OW75474   6.944   3.526   5.301 -0.0290 -0.1222 -0.3541
24678SOL    HW175475   6.972   3.513   5.210  0.8817 -0.3199 -0.0495
24678SOL    HW275476   6.903   3.612   5.301 -0.4040 -0.2888 -1.0385
24679SOL     OW75477   1.476   2.813   4.545 -0.1736  0.0943 -0.1088
24679SOL    HW175478   1.505   2.723   4.550  1.5436  0.6842  1.3948
24679SOL    HW275479   1.556   2.865   4.540 -1.0953  1.5770 -0.3681
24680SOL     OW75480   0.802   0.869   3.053  0.5781 -0.7550  0.1088
24680SOL    HW175481   0.864   0.908   3.115  0.0847 -0.6283  0.5275
24680SOL    HW275482   0.738   0.825   3.108 -0.3527  0.0834 -0.2715
24681SOL     OW75483   7.737   4.220   4.815 -0.2207  0.0967  0.4257
24681SOL    HW175484   7.656   4.185   4.854 -0.6018  0.2872 -0.1763
24681SOL    HW275485   7.727   4.203   4.721 -0.1949  1.3837  0.1788
24682SOL     OW75486   7.557   3.607   5.316 -0.0477  0.4953  0.0541
24682SOL    HW175487   7.613   3.596   5.393  1.6826  1.1106 -1.0401
24682SOL    HW275488   7.551   3.519   5.279  0.8962  0.5463 -0.2509
24683SOL     OW75489   0.255   4.824   6.462 -0.0568 -0.0789 -0.0073
24683SOL    HW175490   0.213   4.737   6.467  0.3093 -0.3403 -1.2426
24683SOL    HW275491   0.328   4.819   6.524 -2.7882  1.0023  3.6746
24684SOL     OW75492   6.618   2.029   4.713  0.1611 -0.1549  0.4614
24684SOL    HW175493   6.532   2.070   4.711  0.3650  0.3432  1.3096
24684SOL    HW275494   6.644   2.032   4.805  0.4717 -1.6018  0.4515
24685SOL     OW75495   6.602   3.022   4.403 -0.7659 -0.0966 -0.2384
24685SOL    HW175496   6.632   3.101   4.359 -2.2393  0.8525  0.3848
24685SOL    HW275497   6.612   3.041   4.496  1.5197 -1.7615 -0.0706
24686SOL     OW75498   0.299   4.510   3.000  0.1698  0.0970  0.2008
24686SOL    HW175499   0.333   4.587   3.046 -0.3967  0.1010  0.6170
24686SOL    HW275500   0.227   4.544   2.947  0.0169 -0.1212  0.2688
24687SOL     OW75501   5.425   0.423   4.724 -0.5123  0.2312  0.7316
24687SOL    HW175502   5.368   0.500   4.724  0.4185  0.9656 -0.6862
24687SOL    HW275503   5.389   0.366   4.792 -1.4753  1.7252  1.5190
24688SOL     OW75504   0.691   2.447   6.946  0.1541 -0.3410  0.2605
24688SOL    HW175505   0.633   2.421   7.018 -0.4088  1.7820  0.6545
24688SOL    HW275506   0.683   2.542   6.942  1.5886 -0.2319 -1.4450
24689SOL     OW75507   7.766   2.955   5.331 -0.0033  0.4060  0.3366
24689SOL    HW175508   7.680   2.965   5.291  0.7706  1.6293 -1.1622
24689SOL    HW275509   7.824   2.931   5.258  1.1775  1.0772  1.0119
24690SOL     OW75510   7.463   2.102   4.952 -0.1446  0.7942 -0.4417
24690SOL    HW175511   7.555   2.127   4.951  0.1466 -0.1311  0.9210
24690SOL    HW275512   7.435   2.118   5.042 -1.0348  0.0897 -0.5806
24691SOL     OW75513   7.442   1.081   6.946  0.0419 -0.4599  0.0746
24691SOL    HW175514   7.358   1.051   6.911  0.0167  0.9168 -1.1733
24691SOL    HW275515   7.430   1.082   7.040 -1.6280  0.4289 -0.1152
24692SOL     OW75516   1.118   3.816   6.918 -0.1515 -0.0228 -0.3496
24692SOL    HW175517   1.063   3.781   6.988 -2.3670 -0.8261 -2.3727
24692SOL    HW275518   1.199   3.765   6.924 -0.9015 -1.1405  0.6510
24693SOL     OW75519   7.361   3.748   6.420  0.4566 -0.0252 -0.1861
24693SOL    HW175520   7.270   3.759   6.447  0.8523  1.6065  0.6680
24693SOL    HW275521   7.360   3.765   6.326  0.0104  1.0933 -0.0000
24694SOL     OW75522   7.407   3.408   4.905 -0.2447  0.0613  0.1781
24694SOL    HW175523   7.331   3.456   4.938 -0.2661  0.9897 -1.1863
24694SOL    HW275524   7.477   3.473   4.901 -0.2260 -0.0415 -1.5224
24695SOL     OW75525   4.064   2.048   5.461  0.4196 -0.1907 -0.2865
24695SOL    HW175526   4.079   2.030   5.368  0.3289  0.4445 -0.4270
24695SOL    HW275527   4.138   2.101   5.488 -0.7674  1.7298 -0.6243
24696SOL     OW75528   5.551   3.869   6.854  0.1599 -0.4020  0.6256
24696SOL    HW175529   5.629   3.830   6.894  0.8832 -0.3503 -0.6665
24696SOL    HW275530   5.484   3.802   6.862  0.9514 -1.3178 -0.1682
24697SOL     OW75531   0.054   2.551   7.434 -1.3233  0.6203 -0.4165
24697SOL    HW175532   0.018   2.470   7.397 -1.1342  0.6871 -0.7597
24697SOL    HW275533   0.026   2.551   7.525 -2.0699  0.6039 -0.6400
24698SOL     OW75534   0.073   3.492   5.690 -0.2069  0.4283  0.0399
24698SOL    HW175535   0.016   3.421   5.658 -0.1088 -0.0181  0.8399
24698SOL    HW275536   0.158   3.451   5.701 -0.4068  0.3744  1.5719
24699SOL     OW75537   0.755   2.352   7.721 -0.4147 -0.1377 -0.5662
24699SOL    HW175538   0.828   2.312   7.673 -1.1172 -0.8543 -1.0587
24699SOL    HW275539   0.750   2.302   7.802  0.8060  1.1073  0.3242
24700SOL     OW75540   7.703   1.851   5.317  0.5704 -0.4201 -0.0919
24700SOL    HW175541   7.676   1.768   5.356 -1.5584 -0.0028 -0.5529
24700SOL    HW275542   7.632   1.873   5.256  1.0192  1.7862  0.1019
24701SOL     OW75543   7.709   2.879   6.312  0.2067  0.1832 -0.3893
24701SOL    HW175544   7.700   2.942   6.383  0.1636 -0.4114  0.1442
24701SOL    HW275545   7.662   2.801   6.343 -0.2103  0.0787 -1.2649
24702SOL     OW75546   6.496   3.835   5.783 -0.6579  0.5322  0.4642
24702SOL    HW175547   6.424   3.781   5.750  0.7380 -1.1908  0.0799
24702SOL    HW275548   6.462   3.873   5.864 -2.4197  0.8115 -0.3715
24703SOL     OW75549   1.076   3.657   7.240  0.4259  0.1725  0.2716
24703SOL    HW175550   1.100   3.564   7.235 -0.5396 -0.2502  2.2645
24703SOL    HW275551   1.150   3.698   7.286  0.7592  0.3586 -0.4248
24704SOL     OW75552   7.954   1.646   5.255  0.1020 -0.3107  0.0539
24704SOL    HW175553   7.990   1.733   5.240 -1.7788  0.5767  0.3792
24704SOL    HW275554   7.868   1.647   5.213  1.1298 -3.0249 -2.4824
24705SOL     OW75555   7.274   2.586   6.941  0.3216  0.0978  0.0727
24705SOL    HW175556   7.310   2.499   6.924  1.0782  0.8396 -2.6867
24705SOL    HW275557   7.225   2.608   6.861 -0.0091  2.1323  0.7604
24706SOL     OW75558   7.882   2.371   6.919 -0.3111  0.3543  0.3682
24706SOL    HW175559   7.792   2.382   6.889  0.2813  0.1828 -1.5500
24706SOL    HW275560   7.897   2.446   6.977 -1.0258  1.5227 -0.9179
24707SOL     OW75561   0.626   3.747   6.420 -0.4623 -0.5071 -0.6884
24707SOL    HW175562   0.617   3.742   6.515  0.4442  1.2839 -0.4686
24707SOL    HW275563   0.621   3.656   6.390  0.1190 -1.1811  1.1507
24708SOL     OW75564   6.738   1.851   6.262  0.1571 -0.0482 -0.4035
24708SOL    HW175565   6.654   1.805   6.256 -0.3778  1.0760 -2.1476
24708SOL    HW275566   6.725   1.916   6.331 -0.6759  0.5780 -1.1250
24709SOL     OW75567   7.547   2.424   5.759  0.1943  0.3032  0.1820
24709SOL    HW175568   7.640   2.445   5.758  0.0299  1.0977 -1.3865
24709SOL    HW275569   7.530   2.387   5.672 -0.7706 -0.7487  0.7891
24710SOL     OW75570   5.445   0.939   6.389 -0.2675 -0.8697 -0.1748
24710SOL    HW175571   5.535   0.909   6.376  0.7729 -0.0479  3.7594
24710SOL    HW275572   5.394   0.889   6.326  2.9926 -0.5153 -3.4766
24711SOL     OW75573   0.264   2.921   7.992  0.2988  0.1253  0.8123
24711SOL    HW175574   0.289   2.870   8.069  2.9560 -1.9247 -1.2148
24711SOL    HW275575   0.333   2.988   7.985  0.0744  0.2999  0.2386
24712SOL     OW75576   7.473   3.041   6.215 -0.1186 -0.0192 -0.0572
24712SOL    HW175577   7.412   3.008   6.149  0.6703 -0.9031 -0.3689
24712SOL    HW275578   7.548   3.072   6.165  0.9190 -1.6077  0.4347
24713SOL     OW75579   7.191   1.234   7.237  0.6978 -0.9144 -0.3507
24713SOL    HW175580   7.156   1.307   7.188 -0.3438 -0.8249  0.5015
24713SOL    HW275581   7.182   1.259   7.329  1.8834 -1.4065 -0.0723
24714SOL     OW75582   6.322   2.758   5.674 -0.0014 -1.3642  0.0187
24714SOL    HW175583   6.415   2.758   5.649 -0.0187  0.1871 -0.1564
24714SOL    HW275584   6.277   2.723   5.598  0.4865 -3.1590  0.4891
24715SOL     OW75585   6.536   1.991   7.087 -0.2903  0.0253 -0.0715
24715SOL    HW175586   6.555   2.074   7.042 -1.5408  0.2364 -0.2443
24715SOL    HW275587   6.576   2.000   7.173  0.6855  0.2859 -0.5327
24716SOL     OW75588   7.987   3.930   5.907 -0.4328 -0.5391 -0.1871
24716SOL    HW175589   7.895   3.952   5.920 -0.1822  0.2193  0.3938
24716SOL    HW275590   7.990   3.834   5.913 -1.0232 -0.5084  0.9588
24717SOL     OW75591   7.006   2.537   4.725  0.3819  0.3416 -0.3099
24717SOL    HW175592   6.947   2.612   4.737 -0.0867 -0.0360 -0.2163
24717SOL    HW275593   6.992   2.484   4.803 -1.2242 -1.1523 -1.5341
24718SOL     OW75594   0.646   3.264   7.786 -0.0943  0.0987 -0.5122
24718SOL    HW175595   0.695   3.332   7.739  4.2508 -1.3570  1.3934
24718SOL    HW275596   0.646   3.190   7.725 -1.6999  0.6204 -1.2062
24719SOL     OW75597   7.606   4.598   5.420  0.2659  0.5489  0.3619
24719SOL    HW175598   7.629   4.566   5.333 -2.9036 -1.5150  0.1303
24719SOL    HW275599   7.564   4.682   5.404  1.1808  0.9727  0.1126
24720SOL     OW75600   0.421   3.628   8.235 -0.1331 -0.4608 -0.2231
24720SOL    HW175601   0.362   3.624   8.159 -0.6894  0.8047  0.1202
24720SOL    HW275602   0.503   3.589   8.203 -0.8646 -1.4327 -0.9703
24721SOL     OW75603   0.713   3.857   7.869 -0.5093  0.1195 -0.0883
24721SOL    HW175604   0.795   3.833   7.827 -0.5645  1.4790 -1.0225
24721SOL    HW275605   0.704   3.951   7.855 -2.0123  0.0843  0.3662
24722SOL     OW75606   7.318   4.094   5.190 -0.1462 -0.8078 -0.5990
24722SOL    HW175607   7.320   4.093   5.286 -0.4918  0.1595 -0.5665
24722SOL    HW275608   7.410   4.090   5.164  0.0566  0.5692 -0.1760
24723SOL     OW75609   7.306   1.447   6.895  0.0461  0.4547 -0.1774
24723SOL    HW175610   7.217   1.453   6.862  0.3150 -1.4765 -1.4238
24723SOL    HW275611   7.316   1.523   6.953 -2.6060  0.3174  0.5600
24724SOL     OW75612   0.392   3.215   6.060 -0.8632 -0.8276 -0.6653
24724SOL    HW175613   0.302   3.200   6.029 -0.9809 -2.2244  0.2633
24724SOL    HW275614   0.409   3.307   6.039 -2.8639 -0.2444  0.0044
24725SOL     OW75615   7.430   1.346   7.467  0.4326 -0.0784  0.2947
24725SOL    HW175616   7.404   1.438   7.468  2.4911  0.5375 -0.0196
24725SOL    HW275617   7.380   1.307   7.540 -0.7276  1.1710  0.2139
24726SOL     OW75618   0.932   3.797   8.176 -0.1334 -0.0986  0.2144
24726SOL    HW175619   0.855   3.816   8.231  0.2665 -0.3931  0.8904
24726SOL    HW275620   1.004   3.844   8.219 -0.0663  0.8109 -0.8455
24727SOL     OW75621   0.037   3.050   4.376 -0.1923 -0.7305 -0.1070
24727SOL    HW175622  -0.011   2.967   4.378 -1.7194  0.1264  1.7373
24727SOL    HW275623  -0.029   3.117   4.396  0.9205  1.0074 -1.8924
24728SOL     OW75624   6.616   2.508   7.961 -0.3505  0.3314 -0.0232
24728SOL    HW175625   6.560   2.501   8.039 -0.7868  0.6273 -0.3088
24728SOL    HW275626   6.581   2.583   7.913 -0.0746  0.1547 -0.5015
24729SOL     OW75627   6.625   2.995   5.784  0.4096  0.5686  0.5085
24729SOL    HW175628   6.568   2.927   5.747  1.4192  0.8977 -1.8277
24729SOL    HW275629   6.574   3.075   5.776 -0.1293  0.3688  1.7166
24730SOL     OW75630   6.832   3.756   6.544 -0.4322 -0.6442  0.1652
24730SOL    HW175631   6.873   3.694   6.483 -0.2274  0.4077 -0.8005
24730SOL    HW275632   6.738   3.743   6.532 -0.3928 -0.4861 -0.3425
24731SOL     OW75633   0.071   3.559   5.013 -0.5575 -0.2002  0.3355
24731SOL    HW175634  -0.005   3.512   4.978 -0.4268 -0.1962  0.0468
24731SOL    HW275635   0.133   3.490   5.036  0.8587 -0.1303 -2.8209
24732SOL     OW75636   0.456   3.363   8.931 -0.1544  0.0318 -0.2113
24732SOL    HW175637   0.436   3.292   8.992  1.7773 -0.4919 -0.1256
24732SOL    HW275638   0.408   3.341   8.851 -0.9337 -0.4482  0.3860
24733SOL     OW75639   6.641   3.438   5.887 -0.3404 -0.1429  0.4386
24733SOL    HW175640   6.563   3.396   5.850 -2.1934  3.1628  0.1623
24733SOL    HW275641   6.680   3.485   5.813 -1.4101  2.7782  1.5894
24734SOL     OW75642   0.173   0.928   5.135  0.1061 -0.3421  0.4696
24734SOL    HW175643   0.120   0.958   5.061 -1.0897  0.3826  1.5753
24734SOL    HW275644   0.138   0.842   5.157  0.2518 -0.4179  0.4111
24735SOL     OW75645   5.972   4.034   5.518 -0.5739  0.3213 -0.3026
24735SOL    HW175646   5.938   4.045   5.429 -0.9753  0.2123 -0.1651
24735SOL    HW275647   5.934   3.951   5.548  0.2694 -0.1005 -0.3505
24736SOL     OW75648   6.919   3.355   4.020 -0.3067 -0.0388  0.2467
24736SOL    HW175649   6.939   3.300   3.944  1.2758 -1.9392  1.9122
24736SOL    HW275650   6.837   3.398   3.997 -0.3423 -1.2011 -2.1757
24737SOL     OW75651   7.935   3.791   4.997  0.0172  0.3400  0.2278
24737SOL    HW175652   7.934   3.766   4.905 -0.2707 -2.4956  0.9046
24737SOL    HW275653   7.985   3.721   5.040  1.7384  2.5043  2.0378
24738SOL     OW75654   7.747   3.625   6.778 -0.8035 -0.3370  0.1225
24738SOL    HW175655   7.818   3.561   6.786  0.8320  1.3453 -0.1959
24738SOL    HW275656   7.763   3.667   6.693 -2.8268 -0.6133 -0.4352
24739SOL     OW75657   7.381   2.224   5.189  0.5235 -0.3574 -0.1184
24739SOL    HW175658   7.455   2.284   5.184  0.4826 -0.2205  0.7320
24739SOL    HW275659   7.309   2.270   5.146  0.9811 -0.5968 -1.1885
24740SOL     OW75660   5.670   2.685   6.906  0.3466 -0.3609  0.2029
24740SOL    HW175661   5.746   2.676   6.847  0.6706 -0.4884  0.6342
24740SOL    HW275662   5.677   2.774   6.940  0.3243 -0.3870  0.2754
24741SOL     OW75663   6.453   2.266   5.968 -0.1176 -0.3622  0.2073
24741SOL    HW175664   6.522   2.261   5.901 -0.4841 -1.7495 -0.0809
24741SOL    HW275665   6.408   2.349   5.949  1.5389  0.6589  0.5004
24742SOL     OW75666   0.915   2.849   5.166  0.1673  0.1535 -0.6994
24742SOL    HW175667   0.890   2.801   5.245  0.4795  2.0213  0.6134
24742SOL    HW275668   0.998   2.809   5.139 -0.5844 -1.3500 -0.8849
24743SOL     OW75669   6.272   2.845   6.845  0.1672 -0.1912  0.1363
24743SOL    HW175670   6.288   2.865   6.938 -0.4297  2.3107 -0.2530
24743SOL    HW275671   6.227   2.921   6.811  1.7055 -0.3892 -2.6075
24744SOL     OW75672   7.979   1.326   5.314  0.0400 -0.3660  0.4647
24744SOL    HW175673   8.038   1.250   5.321  0.6062  0.1148  1.1035
24744SOL    HW275674   7.949   1.325   5.224  0.6051 -0.9420  0.2729
24745SOL     OW75675   6.822   2.939   6.638 -1.0615  0.0607 -0.5646
24745SOL    HW175676   6.780   2.899   6.714 -0.6839  1.5905  0.5074
24745SOL    HW275677   6.773   3.021   6.625  0.3976  0.9901 -0.4276
24746SOL     OW75678   1.585   3.937   6.362 -0.3721  0.0135  0.0392
24746SOL    HW175679   1.676   3.962   6.381  0.4655 -1.1148 -2.1240
24746SOL    HW275680   1.561   3.879   6.435  0.7349  0.1129  0.5116
24747SOL     OW75681   1.991   4.306   7.621  0.0713  0.8235  0.4480
24747SOL    HW175682   2.015   4.271   7.707 -0.5621  0.1217  0.3529
24747SOL    HW275683   2.036   4.390   7.616 -0.7582  1.3808  1.9052
24748SOL     OW75684   5.419   2.609   6.397 -0.7547  0.0078 -0.0439
24748SOL    HW175685   5.511   2.585   6.409 -1.1536 -1.5834  0.0208
24748SOL    HW275686   5.401   2.671   6.467 -0.5238 -2.0058  1.9055
24749SOL     OW75687   0.196   4.331   6.721  0.5446  0.1202  0.6402
24749SOL    HW175688   0.291   4.329   6.722  0.5696  0.8219  1.6589
24749SOL    HW275689   0.169   4.240   6.712  1.2914  0.0172 -0.8878
24750SOL     OW75690   1.769   1.936   6.412  0.7242 -0.0863 -0.0370
24750SOL    HW175691   1.828   2.010   6.400 -2.1899  2.2862 -1.0002
24750SOL    HW275692   1.749   1.936   6.506  1.7339 -0.5237  0.1881
24751SOL     OW75693   6.277   3.634   4.838  0.2028  0.0906 -0.3477
24751SOL    HW175694   6.268   3.539   4.841  1.1616 -0.0180 -0.6569
24751SOL    HW275695   6.335   3.656   4.911 -1.5296  0.6554  0.9272
24752SOL     OW75696   0.488   3.378   7.069  0.3762  0.0838 -0.0740
24752SOL    HW175697   0.471   3.313   7.137 -1.7287 -0.0636 -0.6868
24752SOL    HW275698   0.491   3.462   7.115  0.5835 -0.1733  0.3908
24753SOL     OW75699   7.599   0.610  10.080 -0.1271  0.4259 -0.1941
24753SOL    HW175700   7.604   0.590   9.986  1.7527 -1.3066  0.1902
24753SOL    HW275701   7.505   0.615  10.098 -0.5622 -0.3238 -1.9534
24754SOL     OW75702   0.492   3.934   9.406  0.2068  0.1015 -0.0345
24754SOL    HW175703   0.511   3.868   9.473  1.5262  0.6154  0.1330
24754SOL    HW275704   0.453   3.884   9.334 -0.9538 -0.5029  0.9762
24755SOL     OW75705   0.218   2.875   8.476 -0.1418 -0.2682  0.0813
24755SOL    HW175706   0.286   2.942   8.476 -0.6791  0.2983  0.7239
24755SOL    HW275707   0.205   2.854   8.568 -0.0135 -1.2362 -0.1112
24756SOL     OW75708   1.199   2.091   9.904 -0.1452 -0.2843 -0.0665
24756SOL    HW175709   1.124   2.032   9.894 -0.4369  0.0797 -0.0358
24756SOL    HW275710   1.181   2.139   9.984  1.2252 -1.7805  1.2089
24757SOL     OW75711   6.909   3.089   5.322 -0.2822  0.6424  0.6876
24757SOL    HW175712   7.000   3.060   5.326 -0.3285  0.2122 -0.7348
24757SOL    HW275713   6.870   3.059   5.404  0.3749 -0.9401  0.4616
24758SOL     OW75714   6.822   2.691   7.726 -0.4377  0.0271 -0.1339
24758SOL    HW175715   6.816   2.611   7.778  0.6219 -1.7173 -2.5234
24758SOL    HW275716   6.741   2.739   7.747 -2.1506 -2.6504 -0.1205
24759SOL     OW75717   0.726   3.281   9.592 -0.1150  0.4673  0.0082
24759SOL    HW175718   0.772   3.256   9.512 -0.3515  0.5838 -0.1623
24759SOL    HW275719   0.790   3.332   9.642 -0.0657  0.6449 -0.2374
24760SOL     OW75720   7.976   2.874   6.234  0.4675 -0.2346  0.0496
24760SOL    HW175721   7.966   2.877   6.139 -1.1039  0.9828  0.2161
24760SOL    HW275722   7.887   2.868   6.268  0.6669  2.9499  1.4954
24761SOL     OW75723   6.227   4.703   7.200 -0.1082 -0.2967 -0.2042
24761SOL    HW175724   6.308   4.651   7.199  1.0056  1.1292  2.5798
24761SOL    HW275725   6.237   4.764   7.127  2.1620  0.8491  0.9540
24762SOL     OW75726   7.913   1.501   9.608  0.5535 -0.4811 -0.3778
24762SOL    HW175727   7.992   1.489   9.662  2.6282  1.3526 -2.7141
24762SOL    HW275728   7.882   1.589   9.631 -0.0560 -0.6879 -0.3994
24763SOL     OW75729   7.559   2.954   9.306 -0.1760  0.0622 -0.0444
24763SOL    HW175730   7.487   2.904   9.267  0.7384 -2.5163  1.3254
24763SOL    HW275731   7.522   3.041   9.322 -2.2471 -0.4774 -1.4797
24764SOL     OW75732   1.702   3.631   9.645  0.1851  0.1109 -0.2727
24764SOL    HW175733   1.657   3.603   9.725  0.7151 -1.0813 -0.3684
24764SOL    HW275734   1.795   3.628   9.668  0.3379 -0.2279 -0.9349
24765SOL     OW75735   0.285   3.171   7.329  0.2381  0.2009  0.0196
24765SOL    HW175736   0.273   3.212   7.414  0.1051 -0.2305  0.2084
24765SOL    HW275737   0.379   3.152   7.324 -0.1609 -2.6025  1.3902
24766SOL     OW75738   1.915   1.759   6.239  0.1888  0.0379  0.4430
24766SOL    HW175739   1.994   1.800   6.205  0.0440 -0.5687 -0.6710
24766SOL    HW275740   1.879   1.823   6.300  0.7525  0.9400 -0.1474
24767SOL     OW75741   7.314   5.175   8.959 -0.1862  0.0893  0.3552
24767SOL    HW175742   7.267   5.258   8.963 -0.9364 -0.3662  2.4551
24767SOL    HW275743   7.246   5.108   8.957  0.4071 -0.5115 -0.9865
24768SOL     OW75744   0.474   4.257   6.777  0.2760 -0.3658  0.5078
24768SOL    HW175745   0.548   4.306   6.744 -0.2090 -0.6232 -1.0070
24768SOL    HW275746   0.511   4.173   6.804  0.7415  0.0093  1.0601
24769SOL     OW75747   0.469   4.413   9.440  0.2847  0.1629 -0.4492
24769SOL    HW175748   0.398   4.471   9.413  1.8668  1.9310 -1.0620
24769SOL    HW275749   0.427   4.328   9.453 -1.5704  0.5496 -3.0397
24770SOL     OW75750   1.140   3.243   7.478 -0.2862  0.0226  0.0788
24770SOL    HW175751   1.090   3.218   7.555 -0.9345 -0.5005 -0.5049
24770SOL    HW275752   1.231   3.248   7.509 -0.6777  1.0768  1.1691
24771SOL     OW75753   0.130   3.199   7.076  0.2753 -0.1892 -0.3435
24771SOL    HW175754   0.173   3.189   7.161  1.7872 -1.0072 -1.1535
24771SOL    HW275755   0.145   3.115   7.032  0.3462  0.5357 -1.7623
24772SOL     OW75756   1.912   3.166  10.447 -0.1611 -0.1946 -0.0113
24772SOL    HW175757   1.969   3.241  10.465  0.3633 -0.3926 -0.7911
24772SOL    HW275758   1.968   3.105  10.398 -0.1536 -1.7064  1.7925
24773SOL     OW75759   0.019   6.151  10.600 -0.4142  0.2651 -0.1665
24773SOL    HW175760   0.108   6.131  10.629 -0.1836  0.5719 -0.6632
24773SOL    HW275761   0.025   6.162  10.505 -1.0398 -0.0247 -0.2483
24774SOL     OW75762   1.657   1.642   5.437 -0.3936  0.4463 -0.5566
24774SOL    HW175763   1.688   1.580   5.370 -2.4529 -1.5924  0.2590
24774SOL    HW275764   1.682   1.728   5.403  0.3774 -0.6413 -2.9620
24775SOL     OW75765   6.248   2.625   8.363  0.1816 -0.1988  0.2773
24775SOL    HW175766   6.246   2.549   8.305 -2.1843 -0.5602  0.7131
24775SOL    HW275767   6.239   2.590   8.451 -0.9735  0.5512  0.4826
24776SOL     OW75768   0.880   2.654   9.142  0.4229 -0.4396 -0.2598
24776SOL    HW175769   0.828   2.585   9.101 -2.2620  1.4452 -0.3400
24776SOL    HW275770   0.970   2.633   9.120 -0.3814 -3.1428 -1.4062
24777SOL     OW75771   0.096   0.150   6.747 -0.0682  0.6558  0.1357
24777SOL    HW175772   0.017   0.201   6.725  0.0379  0.9630  0.4477
24777SOL    HW275773   0.138   0.201   6.816  0.7080  0.7891 -0.4302
24778SOL     OW75774   0.233   2.756   9.588  0.1907  0.3851  0.1704
24778SOL    HW175775   0.206   2.789   9.502 -1.1996  1.8735  1.1134
24778SOL    HW275776   0.296   2.820   9.619  0.2960  0.1368  0.4696
24779SOL     OW75777   0.059   2.133   9.869  0.1400  0.1956  0.3281
24779SOL    HW175778   0.142   2.093   9.895 -0.2163  0.1092  1.3532
24779SOL    HW275779   0.048   2.106   9.777  1.4283  0.5433  0.0441
24780SOL     OW75780   7.700   2.457   9.790 -0.0559 -0.4029  0.0921
24780SOL    HW175781   7.661   2.529   9.741  1.9086  0.3205 -0.5322
24780SOL    HW275782   7.718   2.390   9.724 -1.5651 -1.3558  0.6152
24781SOL     OW75783   0.394   2.653  10.108  0.1040 -0.0244 -0.1991
24781SOL    HW175784   0.434   2.735  10.079 -0.6280 -0.1966 -1.7935
24781SOL    HW275785   0.430   2.586  10.049  0.9094 -0.9304  1.2562
24782SOL     OW75786   6.434   5.063   7.368  0.2036  0.0774  0.3033
24782SOL    HW175787   6.528   5.056   7.350  0.1218  1.2249 -0.7094
24782SOL    HW275788   6.408   4.975   7.394  1.4451 -0.4008 -0.0014
24783SOL     OW75789   5.536   2.453   6.857  0.0124  0.6635 -0.2143
24783SOL    HW175790   5.610   2.402   6.825 -0.6485 -1.0078  0.8006
24783SOL    HW275791   5.576   2.532   6.893  1.4875 -0.7335  1.4095
24784SOL     OW75792   7.378   2.101   7.300 -0.1851 -0.5187 -0.1692
24784SOL    HW175793   7.403   2.192   7.288 -0.2140 -0.0266  2.8943
24784SOL    HW275794   7.282   2.101   7.290 -0.4908  0.3191  2.2397
24785SOL     OW75795   5.916   3.767   6.684  0.3288  0.2264 -0.4165
24785SOL    HW175796   5.907   3.862   6.683 -1.8784  0.0656 -0.3247
24785SOL    HW275797   5.860   3.736   6.613  0.3141 -1.0462  0.1111
24786SOL     OW75798   1.568   2.954   7.151 -0.2549 -0.6743 -0.0832
24786SOL    HW175799   1.532   2.885   7.095 -0.9193 -0.1080 -0.3676
24786SOL    HW275800   1.631   3.000   7.096 -0.5570 -0.4208 -0.2229
24787SOL     OW75801   0.710   1.652   9.768  0.2466 -0.3979  0.1509
24787SOL    HW175802   0.753   1.638   9.853  0.2750 -0.4950  0.1210
24787SOL    HW275803   0.722   1.746   9.750  1.9317 -0.7235 -0.6628
24788SOL     OW75804   0.206   4.241  10.709  0.0500 -0.1289  0.4514
24788SOL    HW175805   0.263   4.165  10.697 -0.4812 -0.5265  0.4011
24788SOL    HW275806   0.246   4.310  10.656  0.6795 -0.2949  0.7015
24789SOL     OW75807   0.858   3.583   8.056 -0.1128 -0.2334  0.0596
24789SOL    HW175808   0.779   3.559   8.104  0.8276 -0.9317  1.3045
24789SOL    HW275809   0.894   3.657   8.105  1.0747 -1.2107  0.7090
24790SOL     OW75810   6.933   4.175   8.864 -0.4859  0.0194 -0.0901
24790SOL    HW175811   6.907   4.125   8.787  1.9731 -3.1868  0.9148
24790SOL    HW275812   7.003   4.233   8.832 -0.5405 -0.1704 -0.5597
24791SOL     OW75813   7.861   2.962   7.067  0.5074 -0.5369 -0.3987
24791SOL    HW175814   7.906   2.893   7.115 -0.7141 -0.4129  1.0260
24791SOL    HW275815   7.775   2.925   7.045  0.3470  0.0616 -0.8373
24792SOL     OW75816   7.112   4.275   7.426  0.3220 -0.1270 -0.4297
24792SOL    HW175817   7.082   4.212   7.361  0.3622 -0.0084 -0.5627
24792SOL    HW275818   7.158   4.341   7.376  1.1257 -0.4955 -0.1843
24793SOL     OW75819   0.544   3.698  10.625  0.3160 -0.0369 -0.0918
24793SOL    HW175820   0.630   3.675  10.661  1.3456  1.0763 -1.7101
24793SOL    HW275821   0.530   3.788  10.653  1.0624  0.7978 -2.1853
24794SOL     OW75822   0.333   3.275   7.584 -0.3972  0.2767 -0.3177
24794SOL    HW175823   0.289   3.305   7.663  0.7341  1.5061 -0.1175
24794SOL    HW275824   0.350   3.182   7.599 -1.7061  0.0989  0.1456
24795SOL     OW75825   7.529   3.315   5.229 -0.3487  0.5649 -0.1231
24795SOL    HW175826   7.475   3.260   5.171 -0.5399 -0.5212  1.0526
24795SOL    HW275827   7.615   3.314   5.188  0.2491 -2.5030  0.9955
24796SOL     OW75828   0.091   2.339   6.073  0.0936  0.2564 -0.2347
24796SOL    HW175829   0.142   2.345   5.993  2.1856  0.5564  1.0565
24796SOL    HW275830   0.039   2.420   6.075  1.1190  0.9374 -0.5754
24797SOL     OW75831   7.365   2.243   9.237 -0.0214  0.3852  0.2375
24797SOL    HW175832   7.301   2.248   9.166 -1.3414 -0.5422  1.3276
24797SOL    HW275833   7.430   2.311   9.215 -1.2480  1.2118 -0.9969
24798SOL     OW75834   0.416   3.311   9.382 -0.1665  0.5288  0.5063
24798SOL    HW175835   0.409   3.242   9.316  0.4729 -0.8311  1.7837
24798SOL    HW275836   0.460   3.383   9.338  1.9293 -1.0313 -0.0791
24799SOL     OW75837   0.118   1.328   8.684 -0.2384  0.6197  0.4833
24799SOL    HW175838   0.028   1.329   8.651  0.4062 -1.7837 -1.7545
24799SOL    HW275839   0.170   1.299   8.609  2.2856  1.0097  1.9840
24800SOL     OW75840   6.385   3.984   7.844 -0.4176  0.5242  0.0956
24800SOL    HW175841   6.304   3.933   7.839 -0.5703  0.8373 -0.7482
24800SOL    HW275842   6.356   4.076   7.843 -0.0766  0.6385  0.3580
24801SOL     OW75843   7.147   3.253   7.819 -0.1539  0.6933  0.0148
24801SOL    HW175844   7.112   3.201   7.746  0.9539  1.3576 -1.0336
24801SOL    HW275845   7.175   3.335   7.778  2.1430  0.3971  0.8488
24802SOL     OW75846   7.993   2.011   7.649 -0.6045  0.0196 -0.7255
24802SOL    HW175847   7.992   1.921   7.680 -1.4154  0.0906 -0.5018
24802SOL    HW275848   7.951   2.008   7.563 -3.0785  0.5095  0.3763
24803SOL     OW75849   7.611   4.044   6.798 -0.0464 -0.5313 -0.1320
24803SOL    HW175850   7.652   4.075   6.717 -0.3473 -0.8788 -0.4247
24803SOL    HW275851   7.527   4.090   6.802  0.2885  0.0318  0.3628
24804SOL     OW75852   0.244   4.717   8.507  0.1389 -0.0050 -0.0060
24804SOL    HW175853   0.233   4.786   8.573 -1.4571  0.3904 -0.6350
24804SOL    HW275854   0.213   4.757   8.426  2.5542 -0.3014 -1.1466
24805SOL     OW75855   7.965   3.485   7.669 -0.4106 -0.5486 -0.4717
24805SOL    HW175856   7.966   3.398   7.629 -0.6461 -0.3075 -1.0100
24805SOL    HW275857   7.874   3.499   7.694 -0.2127 -0.8265  0.4609
24806SOL     OW75858   6.584   3.735   9.446 -0.2494 -0.4309 -0.2847
24806SOL    HW175859   6.624   3.780   9.371 -1.4669  0.0219 -0.6825
24806SOL    HW275860   6.572   3.645   9.416  2.6734 -1.2568  0.6924
24807SOL     OW75861   1.291   3.256   9.580 -0.4900 -0.5518  0.3858
24807SOL    HW175862   1.314   3.348   9.592 -1.0169 -0.3512 -0.0750
24807SOL    HW275863   1.375   3.212   9.566 -0.3326  0.1311 -1.0936
24808SOL     OW75864   0.389   2.374   7.421 -0.0800 -0.0138 -0.1474
24808SOL    HW175865   0.417   2.308   7.484 -1.9512  0.7186  1.5284
24808SOL    HW275866   0.334   2.327   7.359  1.9933 -0.7921 -1.4967
24809SOL     OW75867   0.071   3.851   9.411  0.4498 -0.0222  0.0603
24809SOL    HW175868   0.149   3.799   9.390  0.4109 -0.0887  0.0814
24809SOL    HW275869   0.051   3.897   9.329  0.8910  0.4940  0.2338
24810SOL     OW75870   0.128   1.559   6.614  0.8795  0.1184 -0.1895
24810SOL    HW175871   0.166   1.641   6.646  0.3419  0.1387  0.4248
24810SOL    HW275872   0.190   1.492   6.640 -0.1006 -0.0215  2.0573
24811SOL     OW75873   7.023   1.750   7.289  0.2043 -0.5772  0.0374
24811SOL    HW175874   7.064   1.830   7.320 -1.3760 -0.0678  0.9588
24811SOL    HW275875   6.942   1.779   7.248  0.3950 -1.5893 -1.0996
24812SOL     OW75876   0.516   5.185   8.879  0.0865  0.7524  0.4845
24812SOL    HW175877   0.577   5.259   8.871  0.2038  0.8278  1.8305
24812SOL    HW275878   0.564   5.120   8.930 -0.0715 -0.2095 -0.5713
24813SOL     OW75879   6.413   4.397  10.114  0.7866  0.7806 -0.0851
24813SOL    HW175880   6.410   4.489  10.137  0.1166  0.1723  2.5387
24813SOL    HW275881   6.323   4.367  10.121  0.7736  0.1226 -2.1252
24814SOL     OW75882   7.944   3.943   7.127 -0.2113 -0.4649  0.1355
24814SOL    HW175883   7.852   3.915   7.130 -0.5043  0.3543 -0.7918
24814SOL    HW275884   7.989   3.870   7.085 -0.5413 -0.6267  0.0557
24815SOL     OW75885   7.469   4.407   8.790 -0.1485 -0.2527  0.0223
24815SOL    HW175886   7.536   4.367   8.736 -0.0835  1.4599 -1.2590
24815SOL    HW275887   7.389   4.403   8.737 -0.1715  1.1118 -0.0824
24816SOL     OW75888   7.185   2.534   9.845 -0.2634 -0.4643 -0.2247
24816SOL    HW175889   7.189   2.438   9.849  0.0683 -0.4304  0.4909
24816SOL    HW275890   7.255   2.559   9.785  0.1823 -0.6414  0.2099
24817SOL     OW75891   0.428   2.533   5.834  0.7582 -0.6803  0.2521
24817SOL    HW175892   0.380   2.582   5.901  1.6409 -0.2825  0.6062
24817SOL    HW275893   0.511   2.581   5.824  0.7960 -0.9472 -0.8525
24818SOL     OW75894   6.698   3.028  11.548 -0.1649  0.5782  0.2159
24818SOL    HW175895   6.606   3.024  11.521 -0.4861  0.3537  1.2858
24818SOL    HW275896   6.696   3.079  11.630  1.0702  3.4144 -1.3647
24819SOL     OW75897   7.273   1.582  10.263 -0.2269  0.6149  0.3273
24819SOL    HW175898   7.237   1.495  10.281 -1.6289  1.0114 -0.3615
24819SOL    HW275899   7.346   1.591  10.324  0.0084 -1.0702  0.3463
24820SOL     OW75900   7.722   2.350  11.228 -0.3783 -0.1949 -0.0378
24820SOL    HW175901   7.804   2.306  11.250 -0.9892 -1.1104  0.4955
24820SOL    HW275902   7.745   2.410  11.157  1.2693  1.3972  1.6824
24821SOL     OW75903   7.857   3.178   9.550  0.0081  0.3598 -0.4969
24821SOL    HW175904   7.897   3.230   9.481 -0.4895  0.6596 -0.5663
24821SOL    HW275905   7.928   3.122   9.582  1.2626  2.7238  1.2068
24822SOL     OW75906   7.492   2.646   0.228 -0.5907 -0.6565  0.2544
24822SOL    HW175907   7.561   2.711   0.233 -0.5198 -0.7685  0.7715
24822SOL    HW275908   7.474   2.622   0.319 -0.7160 -1.2520  0.0769
24823SOL     OW75909   7.985   4.823  10.519  0.2249 -0.0868  0.0491
24823SOL    HW175910   7.897   4.837  10.555  0.0373 -0.4457 -0.2702
24823SOL    HW275911   8.044   4.841  10.593 -0.1842 -1.5570  0.7717
24824SOL     OW75912   0.405   4.948   9.234 -0.2315  0.2447 -0.0751
24824SOL    HW175913   0.346   4.964   9.307 -1.8556  0.6191 -1.4018
24824SOL    HW275914   0.387   5.018   9.172 -0.8313 -1.4698 -1.9778
24825SOL     OW75915   7.595   2.950  10.307  0.4024 -0.2702  0.3421
24825SOL    HW175916   7.528   2.949  10.239 -0.5165  0.6171  1.1967
24825SOL    HW275917   7.675   2.920  10.263 -0.1449  0.3470 -1.1289
24826SOL     OW75918   7.331   3.995  10.313  0.0146 -0.5986 -0.0270
24826SOL    HW175919   7.295   4.066  10.367 -0.6817  0.2901 -1.5620
24826SOL    HW275920   7.317   4.025  10.223  0.6909 -2.2273 -0.7131
24827SOL     OW75921   6.631   3.341   9.568 -0.4197 -0.7044 -0.1974
24827SOL    HW175922   6.688   3.417   9.582 -0.3850 -0.3899 -1.7529
24827SOL    HW275923   6.581   3.333   9.649 -0.5615  1.1148 -0.0509
24828SOL     OW75924   5.964   3.386   9.176 -0.1736 -0.4698 -0.1713
24828SOL    HW175925   5.960   3.404   9.270  1.7013 -0.5305 -0.0279
24828SOL    HW275926   5.886   3.428   9.140 -2.2300 -2.4658  1.6706
24829SOL     OW75927   6.327   4.182   9.749 -0.3304  0.5776 -0.2409
24829SOL    HW175928   6.419   4.156   9.737 -0.7635 -1.6542  0.6997
24829SOL    HW275929   6.301   4.216   9.664  0.5025 -1.8393 -1.5813
24830SOL     OW75930   1.372   1.668  11.832 -0.1875 -0.2979 -0.1759
24830SOL    HW175931   1.433   1.734  11.865 -1.3053 -0.0709  1.6031
24830SOL    HW275932   1.300   1.720  11.794 -0.7441 -0.4845  0.6036
24831SOL     OW75933   0.032   2.529   9.311  0.1556 -0.2921 -0.1118
24831SOL    HW175934  -0.041   2.482   9.270  1.0957 -1.8083 -0.1438
24831SOL    HW275935  -0.009   2.601   9.358 -1.1829 -0.0164 -1.6230
24832SOL     OW75936   7.763   2.133   9.604  0.6125  0.2002 -0.0781
24832SOL    HW175937   7.699   2.081   9.652 -0.2392  0.6753 -0.6642
24832SOL    HW275938   7.717   2.158   9.523  1.3188  1.0824 -0.2205
24833SOL     OW75939   6.965   5.454  11.436 -0.3235  0.9502  0.1834
24833SOL    HW175940   6.937   5.484  11.523 -1.1527 -0.2452  0.3449
24833SOL    HW275941   6.890   5.470  11.380  0.3808  2.1741 -0.4485
24834SOL     OW75942   7.165   0.913  10.417 -0.4510  0.4042 -0.0534
24834SOL    HW175943   7.115   0.863  10.353  0.0917 -0.0085 -0.1562
24834SOL    HW275944   7.123   0.892  10.501  2.0452 -3.2897  0.4700
24835SOL     OW75945   7.269   5.600   9.843  0.0758  0.6263 -0.6990
24835SOL    HW175946   7.197   5.573   9.901  0.3635  0.7520 -0.2757
24835SOL    HW275947   7.310   5.518   9.817  0.5031  0.6038  0.0077
24836SOL     OW75948   6.593   4.047  10.948  0.0828 -0.1757 -0.2933
24836SOL    HW175949   6.605   4.068  10.856 -0.2507  1.1508 -0.0480
24836SOL    HW275950   6.502   4.019  10.955  0.3405 -1.0983 -0.5000
24837SOL     OW75951   1.065   4.986  11.575 -0.0144 -0.4037 -0.5169
24837SOL    HW175952   1.022   5.053  11.521  2.9155  0.1125 -2.4350
24837SOL    HW275953   1.057   4.906  11.523  0.2223 -0.5767 -0.2875
24838SOL     OW75954   7.916   3.293  10.838  0.3789 -0.6144  0.2234
24838SOL    HW175955   7.853   3.222  10.849  0.3054 -0.3328  1.8894
24838SOL    HW275956   7.881   3.365  10.890  0.8449  0.4016 -0.8141
24839SOL     OW75957   6.882   4.870  11.952  0.6272 -0.2793  0.1048
24839SOL    HW175958   6.816   4.896  12.016 -0.3279 -3.6580  0.7001
24839SOL    HW275959   6.845   4.896  11.868 -0.3091  0.0420  0.5980
24840SOL     OW75960   1.212   1.755  10.478 -0.1572 -0.0927  0.0123
24840SOL    HW175961   1.292   1.801  10.455  0.4185 -0.5737  0.9870
24840SOL    HW275962   1.226   1.726  10.568 -1.9861  1.0188  0.7053
24841SOL     OW75963   5.412   4.915  11.081  0.2941  0.7349 -0.0646
24841SOL    HW175964   5.390   4.824  11.063 -0.9135  1.3922 -2.3160
24841SOL    HW275965   5.388   4.929  11.172  0.0480 -1.0549  0.1706
24842SOL     OW75966   0.674   3.122  11.677  0.7069  0.0304  0.0952
24842SOL    HW175967   0.694   3.186  11.608  2.2778  0.4624  0.8840
24842SOL    HW275968   0.652   3.176  11.754  0.2477 -0.4161  0.2812
24843SOL     OW75969   0.093   2.953  11.080  0.1289  0.1779  0.0264
24843SOL    HW175970   0.117   2.963  11.172 -0.5687 -1.1074  0.3701
24843SOL    HW275971   0.137   3.026  11.036  1.3581  0.1991  1.2101
24844SOL     OW75972   1.189   1.116   8.882 -0.1163  0.1945  0.1658
24844SOL    HW175973   1.094   1.109   8.886 -0.3001  0.2779 -2.4480
24844SOL    HW275974   1.206   1.209   8.863  0.4054 -0.0679 -0.7017
24845SOL     OW75975   6.976   4.084  10.462  0.0531  0.4250 -0.9166
24845SOL    HW175976   7.034   4.160  10.461 -0.3931  0.7670 -1.4202
24845SOL    HW275977   6.900   4.112  10.513  0.2711  0.0163 -0.3542
24846SOL     OW75978   1.000   1.518  10.694  0.1722 -0.1045  0.2895
24846SOL    HW175979   0.928   1.554  10.643 -0.7101  0.0978  1.6438
24846SOL    HW275980   1.072   1.580  10.683 -0.7670  1.1658  1.1867
24847SOL     OW75981   1.923   4.632  10.614 -0.1784  0.3493 -0.1866
24847SOL    HW175982   1.860   4.681  10.666 -0.7491  0.4162 -0.9161
24847SOL    HW275983   1.891   4.541  10.618 -1.0191  0.5579 -1.5076
24848SOL     OW75984   7.034   3.743  12.432  0.0041  0.4197  0.0893
24848SOL    HW175985   7.109   3.725  12.376 -0.0239 -0.4504  0.3012
24848SOL    HW275986   6.968   3.780  12.374 -0.5867 -1.8879 -0.8245
24849SOL     OW75987   6.811   3.543   9.601  0.2571  0.6739 -0.0149
24849SOL    HW175988   6.798   3.524   9.694  2.6295  0.7328  0.3915
24849SOL    HW275989   6.789   3.635   9.592  0.4498  0.7862  0.6132
24850SOL     OW75990   7.097   1.471   9.595 -0.2280 -0.2373  0.0068
24850SOL    HW175991   7.159   1.504   9.660 -0.2676  0.3180 -0.2262
24850SOL    HW275992   7.074   1.548   9.543 -0.8148 -0.5122 -0.1553
24851SOL     OW75993   7.901   3.892  10.104 -0.1173  0.6333  0.4770
24851SOL    HW175994   7.985   3.937  10.103 -0.1622  0.7459  1.1673
24851SOL    HW275995   7.920   3.804  10.071  0.7345 -0.1032  2.7485
24852SOL     OW75996   0.689   3.738  11.080  0.1316  0.1321 -0.3169
24852SOL    HW175997   0.767   3.685  11.098 -0.1807 -0.5384 -0.8775
24852SOL    HW275998   0.666   3.717  10.990 -1.6359 -0.9275  0.3373
24853SOL     OW75999   0.073   2.955  10.699  0.1375  0.0105  0.0825
24853SOL    HW176000   0.132   2.959  10.624 -0.2368 -2.0414 -0.3782
24853SOL    HW276001  -0.009   2.994  10.668  0.6233  1.0702  0.1048
24854SOL     OW76002   2.061   3.998   9.687 -0.0087 -0.1964 -0.6911
24854SOL    HW176003   2.147   4.038   9.699  0.4467 -1.9169  3.4303
24854SOL    HW276004   2.080   3.907   9.665 -0.9272  0.1749 -3.2985
24855SOL     OW76005   0.925   2.711  12.057  0.2485 -0.6050 -0.1203
24855SOL    HW176006   0.919   2.768  12.134 -2.6534  0.6037 -1.1148
24855SOL    HW276007   0.866   2.638  12.076  0.8927 -1.2359 -0.4882
24856SOL     OW76008   1.241   4.433  10.488  0.2472 -0.3854  0.4455
24856SOL    HW176009   1.155   4.434  10.444  0.2032  2.0342  0.4360
24856SOL    HW276010   1.297   4.382  10.429 -0.3769  0.8816 -1.3552
24857SOL     OW76011   0.177   0.846  11.179 -0.1182 -0.3047  0.0559
24857SOL    HW176012   0.131   0.861  11.096  0.6061 -0.9331 -0.4711
24857SOL    HW276013   0.266   0.820  11.153  0.1515 -0.4071  1.0340
24858SOL     OW76014   6.734   3.735  10.039 -0.1201  0.2297 -0.4146
24858SOL    HW176015   6.710   3.646  10.067  2.1014  0.2982  2.1244
24858SOL    HW276016   6.665   3.790  10.076 -1.1780 -0.3131 -1.4789
24859SOL     OW76017   6.329   3.699  10.343  0.1847 -0.1501  0.2890
24859SOL    HW176018   6.323   3.744  10.258  1.9075 -0.6478 -0.1239
24859SOL    HW276019   6.414   3.724  10.377  0.5155 -1.8350  0.7820
24860SOL     OW76020   0.207   3.008  10.470  0.1689 -0.1694 -0.0813
24860SOL    HW176021   0.295   3.027  10.504  0.3601 -1.7515  0.3743
24860SOL    HW276022   0.221   2.940  10.405 -0.6485  0.1610 -0.6188
24861SOL     OW76023   6.774   4.280  10.103  0.5208  0.1325  0.4380
24861SOL    HW176024   6.734   4.367  10.102  0.8767  0.3057 -0.3397
24861SOL    HW276025   6.857   4.292  10.149 -0.1495 -0.1494  1.7388
24862SOL     OW76026   0.970   5.374   9.427 -0.1082 -0.0595 -0.6668
24862SOL    HW176027   1.060   5.384   9.396 -0.9676  0.3299 -3.2432
24862SOL    HW276028   0.916   5.415   9.359 -2.3561 -1.8653 -0.0961
24863SOL     OW76029   1.336   3.651  10.523  0.0747 -0.6260 -0.9748
24863SOL    HW176030   1.348   3.611  10.609  0.5038 -0.5717 -1.0047
24863SOL    HW276031   1.376   3.589  10.462  0.3106 -0.3848 -1.0695
24864SOL     OW76032   7.381   1.281  10.578  0.0267 -0.6958 -0.1505
24864SOL    HW176033   7.315   1.349  10.592  0.9458  0.1626  0.0864
24864SOL    HW276034   7.369   1.220  10.652 -0.3150 -0.4022  0.0377
24865SOL     OW76035   0.475   3.928  10.774 -0.1060  0.4097 -0.2045
24865SOL    HW176036   0.428   3.856  10.814  0.9313 -0.6913 -0.9002
24865SOL    HW276037   0.482   3.994  10.843 -0.3879 -0.4688  0.6865
24866SOL     OW76038   7.487   4.222  10.605  0.0076  0.3755 -0.2517
24866SOL    HW176039   7.455   4.304  10.643 -1.2058  0.1736 -0.8141
24866SOL    HW276040   7.583   4.227  10.615 -0.1923  0.6391  2.1849
24867SOL     OW76041   7.280   1.609   9.741 -0.2089 -0.2231  0.4236
24867SOL    HW176042   7.327   1.575   9.817  2.2819 -0.9407 -1.3357
24867SOL    HW276043   7.338   1.675   9.704 -2.4591  1.9325  0.4640
24868SOL     OW76044   7.536   4.295  12.325  0.0198 -0.4138 -0.3911
24868SOL    HW176045   7.451   4.292  12.282 -0.1242 -1.0289 -0.0668
24868SOL    HW276046   7.590   4.233  12.276 -0.0763 -0.9403  0.1559
24869SOL     OW76047   0.003   4.023   8.764 -0.1786  0.0637  0.1993
24869SOL    HW176048  -0.065   3.970   8.722  1.2832 -0.7956 -1.2185
24869SOL    HW276049   0.038   3.967   8.833 -0.8880  0.5062  0.9291
24870SOL     OW76050   5.338   1.671  12.198 -0.3838  0.1172  0.1667
24870SOL    HW176051   5.318   1.605  12.133 -1.4777 -0.7984  1.3886
24870SOL    HW276052   5.291   1.643  12.277  0.1184  1.6905  1.0761
24871SOL     OW76053   0.484   2.338  12.410  0.2168  0.2044  0.2852
24871SOL    HW176054   0.549   2.407  12.418  0.0860  0.3601  0.0230
24871SOL    HW276055   0.450   2.347  12.321 -0.4821  0.4120  0.5661
24872SOL     OW76056   0.607   3.851  11.498 -0.1736 -0.3380  1.0322
24872SOL    HW176057   0.621   3.771  11.549 -0.9838 -1.0987  0.0996
24872SOL    HW276058   0.516   3.845  11.470 -0.1461  0.7724  0.6821
24873SOL     OW76059   1.890   4.024   8.596 -0.0303  0.4175 -0.1775
24873SOL    HW176060   1.858   4.114   8.584 -0.8584  0.0205 -1.0783
24873SOL    HW276061   1.817   3.978   8.637  0.6289  0.2898  0.9009
24874SOL     OW76062   7.362   3.885   8.281  0.9958 -0.2475 -0.2092
24874SOL    HW176063   7.348   3.878   8.186 -0.4077 -2.5125  0.1003
24874SOL    HW276064   7.316   3.810   8.318  1.5642  0.5410  2.2955
24875SOL     OW76065   0.690   3.366  10.929  0.5197  0.2489  0.1564
24875SOL    HW176066   0.735   3.286  10.902 -0.0602 -0.2104  0.5183
24875SOL    HW276067   0.653   3.401  10.849  2.2268  1.1064 -0.3023
24876SOL     OW76068   0.152   1.797   9.167 -0.5889 -0.4749 -0.3833
24876SOL    HW176069   0.092   1.785   9.093 -1.4503 -2.0702  0.5050
24876SOL    HW276070   0.111   1.865   9.220  1.9827  3.7037 -3.1529
24877SOL     OW76071   0.177   3.649   9.165 -0.3317 -0.2001 -0.0739
24877SOL    HW176072   0.110   3.620   9.227 -0.2452 -2.0688 -0.7926
24877SOL    HW276073   0.252   3.672   9.220 -0.8224 -0.2033  0.6103
24878SOL     OW76074   7.089   2.185   0.190  0.1134  0.4369 -0.1976
24878SOL    HW176075   7.112   2.225   0.105 -1.8634 -0.1987 -1.0885
24878SOL    HW276076   7.134   2.100   0.189 -0.9422 -0.1378 -1.2212
24879SOL     OW76077   0.678   5.707  10.893  0.4028  1.2259  0.5744
24879SOL    HW176078   0.671   5.794  10.932  1.1081  0.7648  1.7858
24879SOL    HW276079   0.689   5.648  10.968  3.4146  0.4542 -0.3556
24880SOL     OW76080   7.942   3.066   8.652  0.2788 -0.0769 -0.6015
24880SOL    HW176081   7.974   3.153   8.674 -0.1589 -0.0901  0.1099
24880SOL    HW276082   7.854   3.062   8.689 -0.3315 -0.2597 -2.0070
24881SOL     OW76083   0.641   3.382  12.166  0.4702  0.0858 -0.2393
24881SOL    HW176084   0.720   3.328  12.171  0.3111 -0.2639 -1.1571
24881SOL    HW276085   0.671   3.466  12.131  0.2285 -0.5828 -2.1617
24882SOL     OW76086   0.495   1.233   8.805  0.2555 -0.0796 -0.0464
24882SOL    HW176087   0.545   1.285   8.868 -0.3314  1.9495 -1.1846
24882SOL    HW276088   0.425   1.193   8.857 -0.4787  1.8979  0.5743
24883SOL     OW76089   6.376   1.877  11.824  0.4624 -0.3744 -0.1651
24883SOL    HW176090   6.435   1.935  11.775  0.6631 -0.8517 -0.4967
24883SOL    HW276091   6.323   1.835  11.756  0.7040 -1.0017  0.0308
24884SOL     OW76092   7.781   3.921  11.988 -0.2273 -0.2200 -0.5110
24884SOL    HW176093   7.737   3.838  11.969  0.4095 -1.7500  3.6386
24884SOL    HW276094   7.874   3.900  11.986  0.0377  0.8962 -1.0312
24885SOL     OW76095   0.550   1.047  11.071  0.6378 -0.0044  0.4382
24885SOL    HW176096   0.495   1.112  11.028  0.0024 -1.5621 -1.1964
24885SOL    HW276097   0.639   1.068  11.042  1.0098  2.2741  2.7747
24886SOL     OW76098   5.476   1.724   0.486  0.2499 -0.4645  0.1263
24886SOL    HW176099   5.501   1.711   0.395  1.0352  1.0033  0.0936
24886SOL    HW276100   5.538   1.790   0.518 -1.5156  0.8311  1.0291
24887SOL     OW76101   6.717   4.062  12.446  0.7991 -0.0241  0.6508
24887SOL    HW176102   6.716   4.156  12.425 -0.4973 -0.0729  0.4141
24887SOL    HW276103   6.637   4.049  12.497  0.0996 -1.3220 -0.7482
24888SOL     OW76104   7.173   4.544  11.887 -0.1791  0.4006  0.4454
24888SOL    HW176105   7.173   4.603  11.813 -1.0066  0.0594  0.1685
24888SOL    HW276106   7.107   4.579  11.947  0.0213  0.3096  0.7229
24889SOL     OW76107   7.629   5.338  11.001 -0.2046  0.0765  0.2447
24889SOL    HW176108   7.677   5.255  10.997  0.1303  0.2700  0.1753
24889SOL    HW276109   7.697   5.405  10.998 -0.2893  0.3587  2.8335
24890SOL     OW76110   0.733   5.050  11.551 -0.4291  0.7951  0.6693
24890SOL    HW176111   0.685   4.993  11.491 -1.7637  2.1135  0.4288
24890SOL    HW276112   0.810   5.077  11.503  0.7677 -1.5615  1.1497
24891SOL     OW76113   7.115   4.507  12.260  0.2370  0.7455  0.4300
24891SOL    HW176114   7.097   4.549  12.175  1.0504  0.2677  0.0018
24891SOL    HW276115   7.046   4.540  12.318 -1.0422  0.1698 -0.7101
24892SOL     OW76116   6.343   3.372   0.472 -0.6574  0.3777 -0.4505
24892SOL    HW176117   6.303   3.315   0.406 -3.0876  1.2803  0.1418
24892SOL    HW276118   6.424   3.403   0.432  1.0205 -3.6555 -0.6962
24893SOL     OW76119   6.810   1.284   9.456  0.1224  0.3903 -0.0541
24893SOL    HW176120   6.793   1.354   9.519  0.7503  2.7108 -2.3117
24893SOL    HW276121   6.898   1.254   9.476  1.1126  2.4865 -0.9278
24894SOL     OW76122   5.513   2.379  11.866 -0.2513 -0.2890  0.4184
24894SOL    HW176123   5.601   2.415  11.871 -0.9380  1.7070 -0.8142
24894SOL    HW276124   5.460   2.449  11.829 -1.9297 -2.1976 -1.0411
24895SOL     OW76125   7.650   3.518   9.957 -0.4881 -0.5424 -0.3307
24895SOL    HW176126   7.588   3.579   9.917 -1.5663 -0.9115  0.7072
24895SOL    HW276127   7.702   3.484   9.884 -0.4240  0.9771 -1.0312
24896SOL     OW76128   7.095   4.075  11.748  0.2142  0.8214  0.9122
24896SOL    HW176129   7.125   4.068  11.839  0.6092  0.0336  0.7236
24896SOL    HW276130   7.070   4.168  11.739 -0.9878  0.6655  2.1728
24897SOL     OW76131   0.877   0.271  11.822  0.0800  0.8128  0.3038
24897SOL    HW176132   0.827   0.248  11.744 -0.0432  1.0765  0.3033
24897SOL    HW276133   0.944   0.204  11.829  1.5991  2.0581 -1.3723
24898SOL     OW76134   0.527   4.332  11.628 -0.5530  0.2221  0.5388
24898SOL    HW176135   0.456   4.387  11.661 -0.5283 -0.3013  1.4623
24898SOL    HW276136   0.506   4.321  11.535 -1.6997  0.0345  0.8034
24899SOL     OW76137   6.190   2.229   0.338  0.1289  0.3524 -0.2779
24899SOL    HW176138   6.165   2.166   0.406  1.3391  0.0158 -0.1197
24899SOL    HW276139   6.169   2.314   0.375 -1.7566  0.0654 -0.5863
24900SOL     OW76140   7.566   2.656   0.819 -0.6472 -0.0643  0.4719
24900SOL    HW176141   7.493   2.634   0.760  0.5041 -3.1038 -0.0121
24900SOL    HW276142   7.619   2.718   0.769 -1.0936 -0.5555 -0.6581
24901SOL     OW76143   7.844   3.783   9.021 -0.1961  0.4600 -0.1845
24901SOL    HW176144   7.791   3.740   9.089  1.3566 -1.5241 -0.1389
24901SOL    HW276145   7.787   3.852   8.986 -1.5025  0.7284  2.2443
24902SOL     OW76146   4.770   3.898  10.901 -0.2175  0.2483  0.1778
24902SOL    HW176147   4.818   3.913  10.983  0.2451  3.1011 -0.5176
24902SOL    HW276148   4.821   3.830  10.856  2.3664  2.0412  0.1687
24903SOL     OW76149   7.128   3.097  11.644 -0.0216  0.8059 -0.4046
24903SOL    HW176150   7.213   3.141  11.648  0.3860 -0.0569  2.0241
24903SOL    HW276151   7.065   3.166  11.667 -0.1496  1.6711 -3.0731
24904SOL     OW76152   1.066   7.954  11.044  0.3894  0.4466 -0.4243
24904SOL    HW176153   1.015   7.902  11.106 -0.7994  0.9011 -0.9849
24904SOL    HW276154   1.034   8.044  11.056  1.1471  0.7672 -0.7113
24905SOL     OW76155   7.638   3.772  10.157 -0.4056  0.1120 -0.2048
24905SOL    HW176156   7.574   3.757  10.087  0.0418  1.5043 -0.9668
24905SOL    HW276157   7.678   3.856  10.134 -0.1327  0.5368  1.6518
24906SOL     OW76158   0.063   1.649  12.153 -0.2373  0.0619 -0.2126
24906SOL    HW176159   0.130   1.599  12.105  0.4669  1.5460 -0.8376
24906SOL    HW276160   0.018   1.583  12.206 -0.9772 -1.6692 -2.7752
24907SOL     OW76161   7.783   1.758   1.039 -0.1667  0.0007  0.5174
24907SOL    HW176162   7.710   1.696   1.041  0.2463 -0.5519 -0.6144
24907SOL    HW276163   7.781   1.795   0.951 -0.1223  1.2759  1.0287
24908SOL     OW76164   6.642   3.920  12.079  0.2917  0.4557 -0.1049
24908SOL    HW176165   6.724   3.965  12.060  0.3449  0.0634 -0.8532
24908SOL    HW276166   6.578   3.960  12.020  0.1124  0.2630 -0.0439
24909SOL     OW76167   0.071   4.446  11.532  1.0116 -1.0809 -0.6059
24909SOL    HW176168   0.074   4.538  11.507 -1.2999 -0.3228  1.4630
24909SOL    HW276169   0.148   4.433  11.587  0.0304  0.4334  1.2607
24910SOL     OW76170   7.052   1.587   2.677  0.2493  0.6047  0.0301
24910SOL    HW176171   7.099   1.645   2.617 -1.0753  2.2878  0.5622
24910SOL    HW276172   7.098   1.597   2.760 -0.0027  0.9091  0.1312
24911SOL     OW76173   7.703   3.728   0.569 -0.4581  0.0404 -0.3426
24911SOL    HW176174   7.761   3.756   0.640  0.9154 -0.3265 -1.2943
24911SOL    HW276175   7.683   3.809   0.522 -2.3040  0.4855  1.0555
24912SOL     OW76176   7.781   3.268   0.081 -0.1079  0.0851 -0.9044
24912SOL    HW176177   7.729   3.306   0.152  0.2551  0.4121 -0.8112
24912SOL    HW276178   7.871   3.271   0.112 -0.2104 -2.4502 -0.1748
24913SOL     OW76179   7.307   3.962  12.489  0.2787  0.2431 -0.2275
24913SOL    HW176180   7.230   3.915  12.520  0.6127  0.1053  0.4075
24913SOL    HW276181   7.362   3.971  12.566  0.5619  1.0054 -0.5122
24914SOL     OW76182   6.587   4.466   0.364  0.0314  0.2519  0.3783
24914SOL    HW176183   6.548   4.436   0.446  1.3628  0.2812  1.0368
24914SOL    HW276184   6.566   4.560   0.362 -1.5651 -0.0808 -0.2337
24915SOL     OW76185   7.322   3.070   0.345 -0.3170  0.4370  0.3755
24915SOL    HW176186   7.416   3.054   0.331 -0.2274  0.8260  0.5092
24915SOL    HW276187   7.281   2.984   0.334 -0.0327  0.3992 -0.3996
24916SOL     OW76188   6.941   3.292  11.704 -0.4595  0.0525 -0.1248
24916SOL    HW176189   6.935   3.357  11.634 -0.8260  1.5576  1.2519
24916SOL    HW276190   6.854   3.292  11.743 -0.2182 -0.6696  0.4217
24917SOL     OW76191   7.896   4.134  12.399 -0.2859  0.0530  0.3391
24917SOL    HW176192   7.938   4.098  12.477 -0.2098  1.2379  0.8661
24917SOL    HW276193   7.805   4.102  12.404  0.0922 -1.1174  0.0866
24918SOL     OW76194   8.000   2.794  11.718  0.8715 -0.2909  0.2193
24918SOL    HW176195   8.025   2.708  11.750  2.5170  0.4858  1.1693
24918SOL    HW276196   7.985   2.846  11.797  2.7885  1.0606 -0.2388
24919SOL     OW76197   7.428   6.249   9.961 -0.1951  0.1026  0.1544
24919SOL    HW176198   7.335   6.251   9.942 -0.2160  0.6814  0.3038
24919SOL    HW276199   7.468   6.218   9.879 -0.3136  2.2796 -0.7964
24920SOL     OW76200   7.173   1.589   0.166 -0.4313  0.6696  0.2064
24920SOL    HW176201   7.155   1.498   0.145 -0.7918  0.8157 -0.1298
24920SOL    HW276202   7.111   1.610   0.236 -0.4435  0.6979  0.1869
24921SOL     OW76203   0.057   3.029   0.088 -0.3717  0.5760 -0.2052
24921SOL    HW176204   0.087   3.089   0.020 -0.2515  0.5106 -0.2113
24921SOL    HW276205   0.096   2.945   0.064 -1.8933  0.0869 -1.1379
24922SOL     OW76206   7.806   3.550  11.879  0.5292 -0.2424  0.4801
24922SOL    HW176207   7.848   3.608  11.816  2.1094 -2.1992 -0.3793
24922SOL    HW276208   7.879   3.511  11.928 -0.4862 -1.1978  1.2945
24923SOL     OW76209   5.819   4.029   0.001 -0.3053  0.5060 -0.8169
24923SOL    HW176210   5.869   3.975  -0.061 -1.1192 -0.8084 -0.3589
24923SOL    HW276211   5.838   4.119  -0.026  0.9171  0.0018 -1.7389
24924SOL     OW76212   5.501   2.973  11.742 -0.1610  0.2579  0.2285
24924SOL    HW176213   5.472   3.024  11.818 -1.1021  2.6927 -1.6203
24924SOL    HW276214   5.420   2.941  11.702  0.2690 -0.3632 -0.1721
24925SOL     OW76215   0.069   5.775  10.117 -0.0854 -0.1541 -0.3790
24925SOL    HW176216  -0.021   5.753  10.142  0.0636 -0.0173  0.3177
24925SOL    HW276217   0.123   5.726  10.178  0.3044  0.0456 -0.5615
24926SOL     OW76218   7.596   1.932  11.625 -0.8750 -0.0717  0.1541
24926SOL    HW176219   7.561   1.844  11.639 -0.4711 -0.0128  1.6420
24926SOL    HW276220   7.598   1.942  11.530 -0.1093 -2.0182 -0.0839
24927SOL     OW76221   6.265   2.944  10.399 -0.3092  0.5154  0.0679
24927SOL    HW176222   6.249   2.852  10.419  0.9150  0.2220 -0.2497
24927SOL    HW276223   6.299   2.944  10.310  1.3845  1.0934  0.6799
24928SOL     OW76224   6.326   2.971  11.394  0.0791 -0.0767  0.0110
24928SOL    HW176225   6.408   2.922  11.384 -0.3667 -0.9656  0.5653
24928SOL    HW276226   6.347   3.059  11.362  0.7626 -0.7521 -1.5037
24929SOL     OW76227   7.770   5.025  11.357  0.6966 -0.5672 -0.1704
24929SOL    HW176228   7.706   4.955  11.360  1.4276 -1.2360  0.1215
24929SOL    HW276229   7.721   5.104  11.382 -0.1679 -0.9328 -0.6842
24930SOL     OW76230   6.271   5.039  11.535 -0.1906  0.4881  0.3576
24930SOL    HW176231   6.326   5.032  11.457 -1.8160  1.8460 -1.0048
24930SOL    HW276232   6.283   5.129  11.564 -1.2518  0.6436  0.3429
24931SOL     OW76233   6.804   2.686  11.158 -0.5524  0.4874  0.1603
24931SOL    HW176234   6.780   2.760  11.103 -0.2941 -0.4652 -1.2828
24931SOL    HW276235   6.768   2.610  11.113 -1.1171 -0.2630  1.7892
24932SOL     OW76236   1.684   3.634   0.586 -0.5512 -0.2234  0.1177
24932SOL    HW176237   1.605   3.600   0.543 -0.8719 -0.5823  0.9583
24932SOL    HW276238   1.746   3.561   0.583  0.0745  0.3339 -1.2968
24933SOL     OW76239   7.645   4.435   0.299  0.4690 -0.0971  0.3746
24933SOL    HW176240   7.593   4.375   0.245  0.7392 -0.2200  0.2505
24933SOL    HW276241   7.618   4.522   0.270  0.6823 -0.1637 -0.0251
24934SOL     OW76242   7.711   4.546  11.777  0.5868 -0.0375 -0.6442
24934SOL    HW176243   7.634   4.517  11.824  0.8149 -0.4330 -0.5135
24934SOL    HW276244   7.724   4.637  11.806  0.9658 -0.3995  0.3799
24935SOL     OW76245   6.719   6.005  12.402  0.6517  0.0454 -0.0944
24935SOL    HW176246   6.728   5.924  12.352  2.2954 -0.7777  1.4101
24935SOL    HW276247   6.769   5.989  12.482  1.5836  2.7687 -0.0224
24936SOL     OW76248   0.452   4.980   1.945  0.1130 -0.3242 -0.0869
24936SOL    HW176249   0.502   4.900   1.928  0.1757 -0.4463  0.6203
24936SOL    HW276250   0.361   4.955   1.929  0.1108 -0.6085  0.3292
24937SOL     OW76251   0.423   6.027  11.917 -0.2010  0.5304  0.0284
24937SOL    HW176252   0.350   6.052  11.973  0.8854  2.2586  0.7569
24937SOL    HW276253   0.390   5.953  11.866 -1.5939 -0.3950  2.1452
24938SOL     OW76254   5.916   6.800   2.000 -0.0627 -0.3333 -0.2383
24938SOL    HW176255   5.873   6.715   1.990  0.6105 -0.9176  1.4122
24938SOL    HW276256   6.000   6.780   2.041  0.2780  1.0955 -0.1671
24939SOL     OW76257   5.415   4.482   0.359 -0.0643 -0.4250  0.3397
24939SOL    HW176258   5.419   4.567   0.313  0.8126 -1.2566 -1.2200
24939SOL    HW276259   5.332   4.484   0.405 -1.8131 -0.1117 -2.5734
24940SOL     OW76260   0.057   4.964  12.223 -0.2488 -0.0001 -0.9705
24940SOL    HW176261   0.005   4.897  12.268  0.5062  1.3798  2.1889
24940SOL    HW276262   0.148   4.936  12.236  0.0127  0.8011 -1.0119
24941SOL     OW76263   5.528   2.690   0.874  0.0157  0.1157 -0.4033
24941SOL    HW176264   5.618   2.665   0.854  0.7880  1.5327  1.0261
24941SOL    HW276265   5.520   2.678   0.969 -1.5630 -0.6817 -0.5953
24942SOL     OW76266   7.577   5.701   3.666  0.0411 -0.6118  0.0579
24942SOL    HW176267   7.534   5.623   3.630  0.2810 -0.1717 -1.1915
24942SOL    HW276268   7.639   5.729   3.599  0.4343  0.2822  0.7667
24943SOL     OW76269   0.887   5.192  12.358  0.0474  0.1323 -0.5021
24943SOL    HW176270   0.860   5.232  12.440 -0.3154  1.6204 -1.3153
24943SOL    HW276271   0.829   5.116  12.347 -3.2160  2.5781 -1.6430
24944SOL     OW76272   0.431   5.223   0.392  0.6723  0.2811 -0.2106
24944SOL    HW176273   0.347   5.247   0.429  1.4101  1.5545  0.7240
24944SOL    HW276274   0.445   5.286   0.321  1.4119  0.9476  0.5034
24945SOL     OW76275   0.463   2.336   1.270  0.0242 -0.3636  0.2117
24945SOL    HW176276   0.469   2.246   1.236  0.0592  0.2327 -1.4404
24945SOL    HW276277   0.377   2.367   1.243 -0.9398 -0.6039  2.7208
24946SOL     OW76278   6.598   5.264   2.703 -0.3017  0.7971  0.2148
24946SOL    HW176279   6.514   5.219   2.712  0.5235 -0.4916  1.9092
24946SOL    HW276280   6.661   5.195   2.684  0.5241  1.6532 -0.2464
24947SOL     OW76281   7.559   4.078   0.899 -0.1929  0.0851 -0.4200
24947SOL    HW176282   7.469   4.108   0.883 -0.7671 -1.6433 -0.7182
24947SOL    HW276283   7.564   4.068   0.994 -0.6649 -0.7568 -0.4734
24948SOL     OW76284   5.844   4.150   1.678 -0.0713 -0.3463 -0.1923
24948SOL    HW176285   5.765   4.098   1.664 -0.5150  0.5229 -1.1057
24948SOL    HW276286   5.898   4.132   1.601  0.6883 -1.0273  0.4843
24949SOL     OW76287   5.477   4.923   0.573  0.0166  0.0359 -0.7995
24949SOL    HW176288   5.484   4.864   0.647  1.0017 -1.3739 -1.9525
24949SOL    HW276289   5.406   4.888   0.520 -1.1347  1.4227 -0.2275
24950SOL     OW76290   7.108   4.920   2.859 -0.4579 -0.1317  0.3726
24950SOL    HW176291   7.119   4.851   2.924 -0.0170 -0.2515  0.1731
24950SOL    HW276292   7.084   4.997   2.910  0.2406 -0.1347  0.7133
24951SOL     OW76293   6.744   4.165   2.622  0.0298  0.0393  0.0336
24951SOL    HW176294   6.677   4.105   2.656 -0.8052  1.0948  0.3091
24951SOL    HW276295   6.778   4.122   2.544 -1.0932 -0.4431 -0.2028
24952SOL     OW76296   6.894   5.510   9.740 -1.0914 -0.2864  0.6037
24952SOL    HW176297   6.874   5.425   9.699 -2.1141  0.0512  0.3528
24952SOL    HW276298   6.818   5.564   9.718 -0.6417  0.5657  1.1253
24953SOL     OW76299   0.852   3.920  12.491  0.3479  0.5800 -0.3234
24953SOL    HW176300   0.907   3.982  12.442  0.6486  2.6983  2.4117
24953SOL    HW276301   0.762   3.945  12.470  0.4659  0.7736 -0.5980
24954SOL     OW76302   0.968   4.087  11.655 -0.7414 -0.4069  0.0186
24954SOL    HW176303   0.881   4.049  11.670 -0.8330  0.1710  1.0495
24954SOL    HW276304   0.950   4.174  11.620 -0.5321 -1.1544 -2.0872
24955SOL     OW76305   0.731   3.917  11.756  0.7614  0.4304 -0.5150
24955SOL    HW176306   0.646   3.949  11.727  0.0571 -1.3781 -0.5590
24955SOL    HW276307   0.717   3.895  11.849  1.9166  2.4895  0.2163
24956SOL     OW76308   7.496   4.775   2.524  0.1096  0.0894 -0.0516
24956SOL    HW176309   7.445   4.840   2.573  0.6208 -0.4201  1.1943
24956SOL    HW276310   7.558   4.741   2.588 -0.8432 -2.3849 -0.3567
24957SOL     OW76311   7.145   4.605   1.650  0.4884  0.2430  0.2529
24957SOL    HW176312   7.158   4.594   1.744  0.6847  0.1271  0.2130
24957SOL    HW276313   7.054   4.633   1.641 -0.5084 -2.5956  0.2923
24958SOL     OW76314   0.542   3.894   1.563 -0.2328 -0.0049  0.4690
24958SOL    HW176315   0.469   3.936   1.608 -0.0257  0.0366  0.7697
24958SOL    HW276316   0.506   3.813   1.527 -0.7763  0.6665 -0.5644
24959SOL     OW76317   7.312   4.730  12.046 -0.1465 -0.0047 -0.2610
24959SOL    HW176318   7.339   4.641  12.069 -1.2308  0.0142  1.1920
24959SOL    HW276319   7.287   4.724  11.954 -2.2827 -1.7622  0.3498
24960SOL     OW76320   4.742   4.177   0.783  0.1991  0.2950  0.3637
24960SOL    HW176321   4.786   4.165   0.867  0.2940  0.0123  0.2733
24960SOL    HW276322   4.657   4.215   0.805 -0.5335 -1.4992  0.7346
24961SOL     OW76323   0.890   4.126  11.995  0.3184 -0.0031 -0.1924
24961SOL    HW176324   0.812   4.158  11.949 -1.2375 -2.2639  0.6707
24961SOL    HW276325   0.942   4.083  11.927  0.7085  1.2918 -0.7322
24962SOL     OW76326   0.371   6.490  11.687 -0.4527 -0.5773 -0.1114
24962SOL    HW176327   0.288   6.500  11.732  0.2011 -1.4942  1.3933
24962SOL    HW276328   0.427   6.443  11.749  1.8785  1.8089 -0.2196
24963SOL     OW76329   7.841   4.462   2.722 -0.0733 -0.4862 -0.0381
24963SOL    HW176330   7.796   4.476   2.639 -1.5479  0.1244  0.8320
24963SOL    HW276331   7.831   4.369   2.741  0.6628 -0.7203 -0.7397
24964SOL     OW76332   7.664   5.780   1.000 -0.2495  0.6037 -0.1634
24964SOL    HW176333   7.658   5.845   1.070 -1.4832 -1.1393  1.4645
24964SOL    HW276334   7.585   5.794   0.947 -1.0310 -0.1375  0.7663
24965SOL     OW76335   1.694   4.777   0.394  0.0045 -0.4438 -0.3013
24965SOL    HW176336   1.709   4.758   0.302 -0.0249 -0.0481 -0.3875
24965SOL    HW276337   1.706   4.692   0.438  3.2063 -0.0971 -0.2525
24966SOL     OW76338   7.452   5.541   0.831  0.2385 -0.3941  0.1481
24966SOL    HW176339   7.526   5.533   0.891  2.3798  0.4476 -2.2117
24966SOL    HW276340   7.476   5.612   0.772 -2.7477  0.2947 -0.4143
24967SOL     OW76341   0.162   5.089   1.050  0.5445  0.2142 -0.4410
24967SOL    HW176342   0.157   5.177   1.088 -2.2554 -1.0007  2.4541
24967SOL    HW276343   0.119   5.097   0.965 -0.0550  1.5463 -0.0477
24968SOL     OW76344   0.400   4.492  12.310  0.4548  0.1731 -0.3644
24968SOL    HW176345   0.336   4.438  12.263  2.2375 -2.1273 -0.3706
24968SOL    HW276346   0.369   4.493  12.400  0.6930 -1.5327 -0.2160
24969SOL     OW76347   7.854   3.065   0.797  0.0378 -0.1852  0.3533
24969SOL    HW176348   7.882   3.100   0.882 -1.3551 -1.0039  1.1825
24969SOL    HW276349   7.924   3.005   0.772  0.8196  0.6274  0.5515
24970SOL     OW76350   7.321   4.852   1.444 -0.1620 -0.0255  0.0289
24970SOL    HW176351   7.267   4.908   1.387 -1.6555 -1.1380  0.2953
24970SOL    HW276352   7.295   4.763   1.423  0.2437 -0.5257  1.4765
24971SOL     OW76353   6.132   4.607  12.174  0.1528 -0.0139 -0.5742
24971SOL    HW176354   6.198   4.615  12.106 -0.3933  1.9542 -0.9264
24971SOL    HW276355   6.049   4.594  12.127 -0.2741  1.6631 -0.3484
24972SOL     OW76356   0.514   4.824  12.447 -0.5347 -0.4553  0.1214
24972SOL    HW176357   0.596   4.775  12.446  0.2505  0.7967 -0.3269
24972SOL    HW276358   0.481   4.815  12.537 -0.0174 -1.1466  0.2446
24973SOL     OW76359   7.770   6.035  12.362  0.3667  0.1417  0.4154
24973SOL    HW176360   7.824   6.107  12.328 -0.0546  0.2918  0.0627
24973SOL    HW276361   7.692   6.077  12.397 -1.3787 -0.2966 -2.5841
24974SOL     OW76362   6.840   3.306   1.019  0.5087  0.0445 -0.1081
24974SOL    HW176363   6.834   3.210   1.020  0.0694  0.0265 -1.5774
24974SOL    HW276364   6.763   3.335   1.066 -0.1608 -0.3347 -0.9428
24975SOL     OW76365   0.645   3.421   1.182  0.3489 -0.2784  0.3632
24975SOL    HW176366   0.614   3.449   1.096 -0.0615 -1.3773  0.1323
24975SOL    HW276367   0.737   3.396   1.167  0.6401  0.6634  0.5172
24976SOL     OW76368   7.168   5.209   2.275  0.4662 -0.3220  0.1367
24976SOL    HW176369   7.240   5.148   2.256  0.9191  0.3541 -0.3953
24976SOL    HW276370   7.089   5.160   2.256  0.8101 -0.8919  0.1531
24977SOL     OW76371   7.243   4.721   0.339  0.0461 -0.1442  0.1692
24977SOL    HW176372   7.157   4.758   0.359  0.3814  0.4054  0.6040
24977SOL    HW276373   7.233   4.685   0.251 -0.6281 -0.0852  0.2113
24978SOL     OW76374   1.033   4.761   0.893 -0.3105 -0.1389 -0.1917
24978SOL    HW176375   1.019   4.743   0.800 -2.8055 -1.3950  0.3344
24978SOL    HW276376   1.026   4.675   0.935  0.5777  0.4390  1.2151
24979SOL     OW76377   7.210   3.753   0.749 -0.6727  0.1894 -0.3115
24979SOL    HW176378   7.156   3.719   0.677  0.6047 -0.4388 -0.9956
24979SOL    HW276379   7.231   3.843   0.723 -0.7614  0.1879 -0.3895
24980SOL     OW76380   7.458   5.111   1.137  0.2208 -0.5173  0.1291
24980SOL    HW176381   7.475   5.159   1.057  0.9667  1.7920  1.5917
24980SOL    HW276382   7.399   5.167   1.188 -0.4880 -2.0504  1.1115
24981SOL     OW76383   6.400   4.642   0.034 -0.2546  0.2746  0.2114
24981SOL    HW176384   6.321   4.613  -0.011  0.3186 -1.0994  0.0391
24981SOL    HW276385   6.387   4.736   0.048 -2.1711 -0.0342  0.7359
24982SOL     OW76386   7.031   4.375   1.367 -0.0716  0.2588  0.3008
24982SOL    HW176387   7.007   4.308   1.303 -0.2561  0.1770  0.4581
24982SOL    HW276388   6.951   4.392   1.416  0.1389  0.1063  0.7092
24983SOL     OW76389   7.657   5.690   1.404 -0.7886  0.0101 -0.6817
24983SOL    HW176390   7.718   5.764   1.401 -0.0863 -0.4821  0.7458
24983SOL    HW276391   7.701   5.621   1.355  0.8000 -1.0019  1.9836
24984SOL     OW76392   7.882   5.210   0.303  0.2238  0.1019 -0.0312
24984SOL    HW176393   7.897   5.115   0.300 -0.0702  0.0724 -1.5185
24984SOL    HW276394   7.969   5.249   0.301  0.3391 -0.1272  0.4019
24985SOL     OW76395   6.243   7.643   3.658  0.1518 -0.1595 -0.6046
24985SOL    HW176396   6.232   7.673   3.749 -0.3693 -1.3084 -0.2681
24985SOL    HW276397   6.337   7.644   3.643  0.1911  0.9810 -0.3912
24986SOL     OW76398   6.446   2.116  12.108 -0.3701 -0.5092 -0.6508
24986SOL    HW176399   6.369   2.065  12.084 -0.9561  1.2435 -2.8966
24986SOL    HW276400   6.411   2.186  12.164 -0.1929 -0.4386 -0.6297
24987SOL     OW76401   0.333   4.742  12.031  0.1274 -0.1113  0.7048
24987SOL    HW176402   0.428   4.744  12.017  0.2279  0.1641  1.3827
24987SOL    HW276403   0.321   4.778  12.119 -0.6733  0.6876  0.2935
24988SOL     OW76404   7.964   4.410   1.964  0.7249  0.2424 -0.4368
24988SOL    HW176405   8.006   4.405   2.050  0.4816 -1.4466 -0.3863
24988SOL    HW276406   7.909   4.332   1.960 -0.5156  1.1346 -1.4969
24989SOL     OW76407   7.631   5.206  12.480  0.0145  0.3492  0.0960
24989SOL    HW176408   7.608   5.290  12.519 -2.1831  0.1212 -0.5984
24989SOL    HW276409   7.556   5.183  12.425  0.6421 -1.9671  0.0915
24990SOL     OW76410   0.534   4.942   1.240  0.2275 -0.2764  0.5174
24990SOL    HW176411   0.523   5.027   1.282 -0.0464 -0.4368  0.7709
24990SOL    HW276412   0.483   4.882   1.293  2.2868 -1.0517  1.7066
24991SOL     OW76413   6.735   4.488   1.283  0.5183  0.6158  0.0064
24991SOL    HW176414   6.693   4.405   1.260 -0.2665  0.7786  0.8105
24991SOL    HW276415   6.756   4.479   1.375 -1.2169  1.9708  0.6000
24992SOL     OW76416   7.398   6.035  12.373  0.3175  0.1662 -0.2571
24992SOL    HW176417   7.374   6.049  12.281  0.0350 -1.4521 -0.4716
24992SOL    HW276418   7.446   6.114  12.398  0.7098  0.4900 -1.9043
24993SOL     OW76419   1.234   5.841   0.629 -0.2768  0.2675  0.0688
24993SOL    HW176420   1.303   5.902   0.655 -1.5011  1.7655 -0.0035
24993SOL    HW276421   1.160   5.864   0.684 -0.0918 -2.9184  1.8761
24994SOL     OW76422   7.718   3.837   1.934  0.3612 -0.4192 -0.0323
24994SOL    HW176423   7.740   3.854   2.026 -0.7758 -1.6628  0.5100
24994SOL    HW276424   7.625   3.815   1.935 -0.0981  1.1873 -1.7446
24995SOL     OW76425   7.047   5.408   1.702  0.0994 -0.1529 -0.4289
24995SOL    HW176426   7.055   5.473   1.772  0.0933 -0.5117 -0.0915
24995SOL    HW276427   7.120   5.348   1.717  0.6924  0.3131 -1.3191
24996SOL     OW76428   0.849   5.437   2.265 -0.1096  0.1673  0.5010
24996SOL    HW176429   0.770   5.399   2.304 -0.2890  0.1443  0.1192
24996SOL    HW276430   0.871   5.510   2.323 -0.2085 -0.0437  0.8046
24997SOL     OW76431   7.967   3.584   2.439 -0.1895 -0.3905  0.4980
24997SOL    HW176432   8.018   3.664   2.429 -1.2149  0.1075 -0.9832
24997SOL    HW276433   7.991   3.552   2.526  0.8226  1.0955  0.8094
24998SOL     OW76434   6.384   4.161   2.919 -0.2100  0.3402 -1.0334
24998SOL    HW176435   6.405   4.143   2.827  2.7548 -0.3539 -0.3175
24998SOL    HW276436   6.448   4.227   2.945  0.4825 -1.0758  1.0895
24999SOL     OW76437   6.318   5.021   2.232 -0.4632  0.2317  0.2084
24999SOL    HW176438   6.262   4.976   2.168 -0.2552  1.4395 -0.8741
24999SOL    HW276439   6.328   5.109   2.196  2.4990 -0.0639  0.0916
25000SOL     OW76440   7.768   6.546   3.330  0.2726  0.0304  0.2224
25000SOL    HW176441   7.681   6.523   3.363 -0.1649  2.5282  0.9610
25000SOL    HW276442   7.813   6.461   3.322 -1.9249 -1.2569  0.5782
25001SOL     OW76443   6.923   5.167   1.558 -0.5034 -0.3852 -0.4004
25001SOL    HW176444   6.952   5.082   1.592  2.1006  0.5027 -0.1368
25001SOL    HW276445   6.927   5.225   1.634 -0.0927  0.4105 -1.0118
25002SOL     OW76446   6.744   6.370   0.466 -0.7199 -1.1201  0.2407
25002SOL    HW176447   6.674   6.319   0.509 -0.3004 -1.7947  0.1423
25002SOL    HW276448   6.723   6.461   0.486 -1.0443 -1.3728  1.1091
25003SOL     OW76449   1.428   4.373   1.791 -0.1226  0.3957 -0.3032
25003SOL    HW176450   1.376   4.353   1.869  0.1175 -1.0393 -0.4965
25003SOL    HW276451   1.394   4.315   1.724 -0.0941  1.3798 -1.1953
25004SOL     OW76452   0.358   3.904   2.266  0.7296  0.0339  0.1602
25004SOL    HW176453   0.427   3.900   2.199  1.0744  1.1225  0.4368
25004SOL    HW276454   0.381   3.980   2.320 -0.3208  0.0087  0.6657
25005SOL     OW76455   7.432   3.912   2.942 -0.3666 -0.4661 -0.3531
25005SOL    HW176456   7.526   3.904   2.959 -0.2521 -1.6802 -1.3712
25005SOL    HW276457   7.422   3.884   2.850 -1.5453  0.9944 -0.7063
25006SOL     OW76458   7.679   2.477   0.459 -0.0908 -0.2681  0.6009
25006SOL    HW176459   7.610   2.543   0.465  0.3468  0.0952  1.9040
25006SOL    HW276460   7.638   2.396   0.490 -0.7319 -0.7407 -1.3317
25007SOL     OW76461   6.525   4.425   2.909 -0.0713 -0.4247 -0.1584
25007SOL    HW176462   6.540   4.484   2.982 -1.1297  0.6137 -0.7505
25007SOL    HW276463   6.555   4.473   2.832 -1.4393 -0.4175 -0.7092
25008SOL     OW76464   6.753   5.272   4.581 -0.1998 -0.0051 -0.2953
25008SOL    HW176465   6.675   5.327   4.570  0.1551  0.5251 -0.2010
25008SOL    HW276466   6.786   5.260   4.492 -1.6023 -2.0603 -0.6045
25009SOL     OW76467   1.235   5.249   0.545  0.1076 -0.0200  0.1427
25009SOL    HW176468   1.158   5.230   0.492 -0.9184  1.3802  1.0448
25009SOL    HW276469   1.305   5.265   0.482 -0.5705 -0.4096 -0.7250
25010SOL     OW76470   2.344   6.928   2.261  0.1581  0.0487  0.2386
25010SOL    HW176471   2.330   6.835   2.240  0.6661 -0.4414  1.9317
25010SOL    HW276472   2.332   6.973   2.177 -1.5946 -1.3563 -0.3317
25011SOL     OW76473   6.881   4.709   1.629 -0.2588 -0.1679  0.7548
25011SOL    HW176474   6.830   4.699   1.709 -2.7419 -2.9148 -0.9567
25011SOL    HW276475   6.819   4.746   1.566  1.5593  1.6846 -0.0408
25012SOL     OW76476   0.076   4.606   3.455 -0.1248  0.2599 -0.1875
25012SOL    HW176477   0.038   4.582   3.371 -0.0565  0.2003 -0.2015
25012SOL    HW276478   0.016   4.672   3.490 -0.8881 -0.6738  0.3233
25013SOL     OW76479   7.520   4.464   4.526  0.5651 -0.8044  0.5658
25013SOL    HW176480   7.462   4.425   4.591 -0.4625  0.8062  0.6689
25013SOL    HW276481   7.556   4.542   4.569  0.7166 -0.3130 -0.4217
25014SOL     OW76482   6.662   5.821   4.067 -0.5349 -0.4793 -0.5426
25014SOL    HW176483   6.751   5.820   4.032  0.2772 -1.2839  1.4202
25014SOL    HW276484   6.652   5.908   4.105  0.0418 -0.9241  0.6755
25015SOL     OW76485   0.889   6.050   1.918 -0.2860  0.2448 -0.0007
25015SOL    HW176486   0.858   6.008   1.998  0.9955 -1.1170 -0.1711
25015SOL    HW276487   0.822   6.030   1.853 -1.0031  0.7774  0.5650
25016SOL     OW76488   0.013   5.461   2.211  0.4333  0.1061 -0.3147
25016SOL    HW176489   0.025   5.382   2.263 -0.9738 -1.0191 -1.6175
25016SOL    HW276490   0.099   5.478   2.173  1.0107 -0.1395  0.8264
25017SOL     OW76491   0.193   0.609   1.423 -0.6977  0.3109  0.2147
25017SOL    HW176492   0.136   0.675   1.384 -0.3052  0.3474 -0.3176
25017SOL    HW276493   0.280   0.648   1.420 -0.3844 -0.4145 -0.5577
25018SOL     OW76494   0.104   3.935   0.723  0.2842 -0.2207  0.3319
25018SOL    HW176495   0.141   3.864   0.775  0.7073  1.2873  2.1933
25018SOL    HW276496   0.159   4.011   0.744 -0.6369  0.8534 -0.9813
25019SOL     OW76497   7.256   5.969   2.541  0.2111 -0.0528  0.7169
25019SOL    HW176498   7.242   5.913   2.617 -2.6514 -0.1751  0.2268
25019SOL    HW276499   7.319   6.034   2.570 -0.4124 -0.3812  3.0406
25020SOL     OW76500   5.967   5.580   3.568 -0.1877 -0.5049 -0.3052
25020SOL    HW176501   5.940   5.488   3.570  0.0482 -0.5674  0.1404
25020SOL    HW276502   5.886   5.629   3.569 -0.3164 -0.6816  1.3884
25021SOL     OW76503   0.520   5.878   2.133  0.1157 -0.2186  0.5446
25021SOL    HW176504   0.441   5.916   2.170 -0.2266 -2.3694  2.2718
25021SOL    HW276505   0.509   5.783   2.145  1.8984 -0.7553 -1.3751
25022SOL     OW76506   7.610   3.426   2.857 -0.2261 -0.1055  0.4422
25022SOL    HW176507   7.609   3.422   2.761 -0.6803  1.9858  0.3161
25022SOL    HW276508   7.549   3.358   2.885  0.3444 -1.1267 -0.7123
25023SOL     OW76509   6.134   4.709   2.532 -0.2748  0.1292 -0.4859
25023SOL    HW176510   6.067   4.673   2.591 -0.3331 -1.9441 -1.6980
25023SOL    HW276511   6.091   4.713   2.447  0.2834  1.6017 -0.7194
25024SOL     OW76512   7.237   3.717   3.039 -0.0836 -0.2658 -0.4182
25024SOL    HW176513   7.219   3.652   2.971  1.8964 -1.5038  0.1735
25024SOL    HW276514   7.282   3.788   2.993 -0.2233 -0.3382 -0.6696
25025SOL     OW76515   7.114   2.865   2.701  0.6634  0.1464  0.2778
25025SOL    HW176516   7.073   2.843   2.617 -0.6948  0.7597  0.7400
25025SOL    HW276517   7.041   2.864   2.763  1.4843  0.6491  1.2651
25026SOL     OW76518   0.305   4.114   4.291 -0.1742 -0.1728 -0.2971
25026SOL    HW176519   0.381   4.172   4.290 -1.0019  0.9810  0.7896
25026SOL    HW276520   0.342   4.027   4.307  0.9251  0.3536  0.1494
25027SOL     OW76521   7.726   3.587   3.444 -0.5077  0.3672 -0.2999
25027SOL    HW176522   7.747   3.532   3.520  1.1132  1.0159 -0.2315
25027SOL    HW276523   7.653   3.641   3.473 -1.5392 -1.0764 -0.0617
25028SOL     OW76524   7.485   6.189   3.365  0.0164  0.7217  0.3859
25028SOL    HW176525   7.403   6.141   3.379  0.4758 -0.3815 -0.5777
25028SOL    HW276526   7.480   6.219   3.274  1.5434 -1.1425 -0.3763
25029SOL     OW76527   7.435   4.907   5.097 -0.0713  0.6415 -0.2321
25029SOL    HW176528   7.511   4.950   5.058  0.0915  2.0330  1.5164
25029SOL    HW276529   7.362   4.967   5.080 -0.2453  0.6328  0.4441
25030SOL     OW76530   6.985   5.162   4.057 -0.4211 -0.0532  0.6081
25030SOL    HW176531   7.032   5.236   4.096 -0.3050  0.7336 -0.9681
25030SOL    HW276532   7.047   5.124   3.995 -0.2740 -1.8699  1.7911
25031SOL     OW76533   1.018   4.750   0.614 -0.2344 -0.1661 -0.0258
25031SOL    HW176534   1.062   4.802   0.547 -1.4899  2.8558  1.2815
25031SOL    HW276535   0.928   4.744   0.584 -0.9042  1.5441  1.4016
25032SOL     OW76536   7.682   5.573   3.170 -0.4093  0.3461 -0.6247
25032SOL    HW176537   7.677   5.484   3.136  0.8127 -0.0531  0.2180
25032SOL    HW276538   7.772   5.584   3.199 -0.7419  1.5897  0.0359
25033SOL     OW76539   0.313   4.756   3.120  0.5976  0.1130 -0.2664
25033SOL    HW176540   0.246   4.809   3.077  0.5765 -0.4917 -0.9996
25033SOL    HW276541   0.297   4.767   3.214 -0.3164  0.2380 -0.4322
25034SOL     OW76542   6.043   2.964   3.252  0.2641  0.0645 -0.4889
25034SOL    HW176543   6.093   2.902   3.199 -1.2264 -1.4438 -0.2237
25034SOL    HW276544   6.101   3.039   3.263  1.1451 -0.1666 -3.0371
25035SOL     OW76545   0.479   4.837   0.385  0.1869 -0.1873  0.6745
25035SOL    HW176546   0.520   4.901   0.444  0.7089 -1.0216  1.2471
25035SOL    HW276547   0.438   4.890   0.317  1.8915  0.7114  0.2802
25036SOL     OW76548   6.643   6.797   3.330 -0.0664 -0.8582 -0.1179
25036SOL    HW176549   6.709   6.864   3.317  0.0930 -0.5548  1.8435
25036SOL    HW276550   6.687   6.715   3.311  0.9530 -0.6645  1.2210
25037SOL     OW76551   6.964   4.236   2.917 -0.0902  0.4824  0.1936
25037SOL    HW176552   7.001   4.151   2.940 -2.5642 -0.6747  0.2164
25037SOL    HW276553   6.989   4.293   2.989  0.5688 -0.5376  0.8007
25038SOL     OW76554   7.373   5.425   0.593 -0.1566 -0.1562 -1.1850
25038SOL    HW176555   7.400   5.334   0.586  0.9548  0.1027 -0.4973
25038SOL    HW276556   7.400   5.452   0.680 -1.8478  0.4173 -0.7903
25039SOL     OW76557   0.627   4.005   1.866 -0.2954  0.3666  0.2202
25039SOL    HW176558   0.553   4.015   1.807 -0.9269 -1.3074  0.6721
25039SOL    HW276559   0.704   4.021   1.812 -0.8760 -0.6943 -0.9512
25040SOL     OW76560   7.522   4.905   3.762  0.1654  0.0034  0.1087
25040SOL    HW176561   7.541   4.827   3.814 -0.6093 -0.1416  0.1895
25040SOL    HW276562   7.433   4.890   3.729  0.8354 -0.1784 -1.7323
25041SOL     OW76563   7.317   4.887   1.066  0.2614  0.2824 -0.0059
25041SOL    HW176564   7.361   4.959   1.111  0.6961 -0.4341  0.7389
25041SOL    HW276565   7.382   4.855   1.003 -0.1275  0.8797 -0.7351
25042SOL     OW76566   7.661   5.120   2.854  0.4934 -0.5379  0.5351
25042SOL    HW176567   7.742   5.121   2.802  0.3001 -0.6143  0.2290
25042SOL    HW276568   7.591   5.133   2.790  0.2888 -0.0411  0.8561
25043SOL     OW76569   6.934   3.795   3.070  0.1159  0.5126  0.1251
25043SOL    HW176570   6.984   3.768   3.147 -2.1642  1.0352  1.8936
25043SOL    HW276571   6.857   3.839   3.105 -1.4922 -0.0251 -2.4439
25044SOL     OW76572   6.896   6.036   3.643 -0.4749 -0.0234 -0.0443
25044SOL    HW176573   6.958   5.998   3.580  0.9001 -1.5734  2.0881
25044SOL    HW276574   6.908   5.984   3.722 -3.0548  1.0118  1.1349
25045SOL     OW76575   7.241   2.311   0.970 -0.5274  0.2058 -0.1408
25045SOL    HW176576   7.155   2.291   1.007 -0.7471  0.1781 -0.6696
25045SOL    HW276577   7.267   2.392   1.014  0.5599 -1.3439  2.3539
25046SOL     OW76578   7.099   6.524   2.826 -0.3003 -0.2584  0.1788
25046SOL    HW176579   7.066   6.447   2.781  1.7595 -0.8945 -0.3721
25046SOL    HW276580   7.131   6.581   2.756 -0.6888  0.5655  0.6495
25047SOL     OW76581   6.910   7.037   2.800 -0.4684 -0.0078 -0.1789
25047SOL    HW176582   6.977   7.057   2.735 -1.2251  0.8343 -0.7337
25047SOL    HW276583   6.893   6.943   2.790  0.6259 -0.2349 -0.0093
25048SOL     OW76584   7.527   5.064   2.349 -0.1823 -0.3094  0.0229
25048SOL    HW176585   7.557   5.001   2.415  0.2512  0.0556  0.1744
25048SOL    HW276586   7.483   5.133   2.399 -1.4052 -0.8900 -0.2007
25049SOL     OW76587   7.450   5.378   2.161 -0.1422  0.1103 -0.3574
25049SOL    HW176588   7.402   5.404   2.082  1.6368 -0.8391 -1.8183
25049SOL    HW276589   7.542   5.377   2.134  0.6214  0.6235  1.9926
25050SOL     OW76590   1.241   4.668   3.541  0.4485 -0.2682  0.0329
25050SOL    HW176591   1.325   4.679   3.498  0.3371 -2.5617 -0.9249
25050SOL    HW276592   1.237   4.575   3.562 -0.8547  0.2085  2.2271
25051SOL     OW76593   7.031   5.757   3.059  0.5181  0.3537  0.6984
25051SOL    HW176594   7.074   5.707   3.129  2.0429 -1.9696 -1.6927
25051SOL    HW276595   7.028   5.696   2.985 -0.1486  2.9617 -1.5730
25052SOL     OW76596   5.393   7.896   2.724  0.2802 -0.0998  0.4775
25052SOL    HW176597   5.484   7.901   2.753  0.7053  0.4574 -0.8814
25052SOL    HW276598   5.389   7.814   2.674 -0.3029 -0.7690  1.5796
25053SOL     OW76599   6.782   6.143   2.778  0.0421 -0.1830 -0.1885
25053SOL    HW176600   6.826   6.081   2.836 -0.9678 -0.7927 -0.0310
25053SOL    HW276601   6.723   6.088   2.725 -2.0438  0.7390  1.0241
25054SOL     OW76602   0.424   3.088   2.882  0.1187  0.1677 -0.2091
25054SOL    HW176603   0.372   3.167   2.901 -0.7049 -0.8000  1.7735
25054SOL    HW276604   0.441   3.094   2.788 -2.5655  1.1765 -0.7250
25055SOL     OW76605   7.471   3.643   1.879  0.0832  0.3693  0.7045
25055SOL    HW176606   7.383   3.608   1.886 -0.0172  0.4581 -0.0805
25055SOL    HW276607   7.500   3.652   1.970 -0.6516  0.1975  0.9633
25056SOL     OW76608   6.803   2.991   2.569  0.0059 -0.0987 -0.0463
25056SOL    HW176609   6.755   3.071   2.548  0.7736  0.2471 -0.4909
25056SOL    HW276610   6.839   3.007   2.657  0.1409  0.0318 -0.1260
25057SOL     OW76611   7.337   4.796   3.186  0.3771  0.1977  0.7129
25057SOL    HW176612   7.267   4.730   3.192 -1.5141  2.1892  3.2520
25057SOL    HW276613   7.401   4.769   3.251  0.5108 -0.0983  0.4577
25058SOL     OW76614   0.305   3.942   4.622  0.2352  0.0350  0.2123
25058SOL    HW176615   0.307   4.029   4.662  0.5893 -0.0134  0.3091
25058SOL    HW276616   0.213   3.926   4.603  0.2217  0.6103 -0.2094
25059SOL     OW76617   0.345   4.211   4.714  0.1108 -0.4428  0.1538
25059SOL    HW176618   0.273   4.274   4.711  0.4375 -0.0903 -1.0276
25059SOL    HW276619   0.415   4.253   4.662  1.3675 -0.5355  1.7041
25060SOL     OW76620   0.872   4.167   3.471 -0.0728  0.4725  0.2609
25060SOL    HW176621   0.880   4.231   3.541  0.4049  2.0942 -1.2119
25060SOL    HW276622   0.784   4.131   3.481  0.2482  0.0569  2.1311
25061SOL     OW76623   6.107   4.436   5.745  0.2248 -0.3960 -0.3133
25061SOL    HW176624   6.071   4.364   5.797  0.2352 -1.6785 -2.0015
25061SOL    HW276625   6.077   4.418   5.656 -0.3904  2.1087 -0.6937
25062SOL     OW76626   0.525   4.195   3.775  0.1810 -0.3323  0.1248
25062SOL    HW176627   0.610   4.189   3.817 -0.2580  0.1864  1.1218
25062SOL    HW276628   0.462   4.187   3.847 -0.6877 -2.8389 -0.7918
25063SOL     OW76629   7.452   5.558   4.219  0.0788 -0.6254  0.2162
25063SOL    HW176630   7.546   5.558   4.205  0.0993 -2.5542 -0.0071
25063SOL    HW276631   7.422   5.643   4.188  1.3869 -1.0089 -2.3078
25064SOL     OW76632   7.526   5.120   4.714  0.3834  0.1873  0.3299
25064SOL    HW176633   7.505   5.055   4.647  0.4758 -0.4591  0.9151
25064SOL    HW276634   7.443   5.166   4.730  0.8500  2.0026 -1.9133
25065SOL     OW76635   6.325   4.676   3.396 -0.4328  0.2183 -0.1021
25065SOL    HW176636   6.360   4.590   3.420  0.0107 -0.1363 -1.9218
25065SOL    HW276637   6.231   4.661   3.384 -0.6520  0.3842  1.1999
25066SOL     OW76638   7.397   4.086   4.200 -0.2980 -0.2627 -0.2575
25066SOL    HW176639   7.371   4.158   4.258 -0.2378 -1.1824  0.9510
25066SOL    HW276640   7.320   4.069   4.146 -0.4763  0.3554 -0.2139
25067SOL     OW76641   7.280   6.477   2.039  0.6551 -0.1362  0.0173
25067SOL    HW176642   7.243   6.402   2.085 -0.5074 -0.8075 -1.8598
25067SOL    HW276643   7.351   6.441   1.987 -0.0514 -0.0219 -1.0663
25068SOL     OW76644   7.860   6.709   4.981  0.0500 -0.6650  0.2735
25068SOL    HW176645   7.770   6.736   4.962 -0.4509 -0.9654  2.0339
25068SOL    HW276646   7.857   6.614   4.983  0.7408 -0.7320 -1.0662
25069SOL     OW76647   7.139   4.193   3.987  0.4169 -0.0148  0.1650
25069SOL    HW176648   7.164   4.232   3.904  1.0332 -1.0115 -0.1395
25069SOL    HW276649   7.114   4.103   3.964  0.5908 -0.2972  1.0528
25070SOL     OW76650   7.126   3.422   5.483 -0.0677 -0.1365 -0.3350
25070SOL    HW176651   7.054   3.461   5.434 -0.8604 -1.3085 -0.1452
25070SOL    HW276652   7.192   3.491   5.488 -1.3026  1.0782 -0.2231
25071SOL     OW76653   7.544   3.699   3.606 -0.3752  0.1980 -0.0273
25071SOL    HW176654   7.522   3.680   3.697 -1.8986  0.3109 -0.3337
25071SOL    HW276655   7.493   3.778   3.585 -1.4196 -0.8100 -1.4554
25072SOL     OW76656   0.688   4.477   3.196  0.4652 -0.2330  0.2731
25072SOL    HW176657   0.647   4.564   3.195  0.9876  0.0123  0.0942
25072SOL    HW276658   0.781   4.494   3.213  0.5899 -0.7517  0.1263
25073SOL     OW76659   7.114   5.332   6.372 -0.5903 -0.0251 -0.1202
25073SOL    HW176660   7.141   5.422   6.353  0.9910 -0.4302  0.0864
25073SOL    HW276661   7.153   5.313   6.457  0.6926 -1.5063 -0.9773
25074SOL     OW76662   6.249   4.344   5.303 -0.4029 -0.0969 -0.0782
25074SOL    HW176663   6.167   4.364   5.260 -0.5585 -2.6519 -1.1617
25074SOL    HW276664   6.315   4.347   5.233  0.5763  2.3263  0.8431
25075SOL     OW76665   7.171   3.996   4.955  0.1637  0.6924 -0.1614
25075SOL    HW176666   7.191   4.051   5.031  1.4807 -0.8356  0.6788
25075SOL    HW276667   7.237   3.927   4.959 -1.9716 -1.5013 -0.6073
25076SOL     OW76668   6.882   5.908   3.284 -0.1315 -0.3146  0.4372
25076SOL    HW176669   6.910   5.850   3.213 -0.5842 -0.5737  0.4698
25076SOL    HW276670   6.935   5.882   3.359 -0.7067 -1.0527  0.5980
25077SOL     OW76671   7.487   5.813   4.597 -0.1505  0.6897 -0.2520
25077SOL    HW176672   7.478   5.732   4.547  0.3728 -0.1660  0.9936
25077SOL    HW276673   7.576   5.808   4.634 -1.1188  0.3879  2.2386
25078SOL     OW76674   6.804   4.588   4.582 -0.5606  0.0868  0.0101
25078SOL    HW176675   6.790   4.665   4.636 -0.0126 -0.3742  0.8289
25078SOL    HW276676   6.894   4.598   4.548 -0.2235 -0.5292  0.6998
25079SOL     OW76677   7.321   4.259   3.781 -0.7141  0.0763  0.7625
25079SOL    HW176678   7.348   4.171   3.806 -1.3947  0.1098  1.6569
25079SOL    HW276679   7.395   4.314   3.805 -0.6857 -0.1201  1.1305
25080SOL     OW76680   7.400   3.482   3.423 -0.3824 -0.6471 -1.1176
25080SOL    HW176681   7.465   3.413   3.436  1.7990  1.1788 -1.7147
25080SOL    HW276682   7.431   3.554   3.477 -2.2655  0.1454 -1.0022
25081SOL     OW76683   6.749   3.907   4.505  0.9744  0.0157  0.0963
25081SOL    HW176684   6.733   3.826   4.553  2.7688 -1.0011 -0.9222
25081SOL    HW276685   6.693   3.901   4.427 -1.0423  1.1316  1.3497
25082SOL     OW76686   7.587   1.180   4.157 -0.3301 -0.1057  0.3219
25082SOL    HW176687   7.539   1.258   4.185  0.0145 -0.2281  1.3119
25082SOL    HW276688   7.664   1.177   4.215 -0.4391 -1.2747  0.4317
25083SOL     OW76689   0.033   3.411   3.902  0.0829  0.0916  0.3854
25083SOL    HW176690   0.123   3.443   3.903  0.8648 -1.9347  0.9763
25083SOL    HW276691   0.002   3.424   3.992 -0.3545  1.1217  0.0917
25084SOL     OW76692   7.817   5.012   2.229 -0.5427 -0.1465  0.4354
25084SOL    HW176693   7.804   4.986   2.320 -1.3897 -0.5239  0.2129
25084SOL    HW276694   7.814   4.930   2.180 -0.8883  0.1344 -0.0162
25085SOL     OW76695   6.925   4.229   4.461  0.5520 -0.3901  0.2869
25085SOL    HW176696   6.934   4.256   4.370  0.6103 -0.8819  0.1470
25085SOL    HW276697   6.955   4.138   4.463 -1.4976 -1.1061  0.3810
25086SOL     OW76698   0.187   3.541   3.557  0.1305  0.2033 -0.3581
25086SOL    HW176699   0.191   3.637   3.559 -1.0329  0.2812 -0.6003
25086SOL    HW276700   0.267   3.512   3.601 -0.5045  1.3290  1.6977
25087SOL     OW76701   7.928   5.459   5.798 -0.1391  0.2871 -0.2452
25087SOL    HW176702   7.957   5.393   5.861  2.3950  1.0535 -0.5092
25087SOL    HW276703   7.872   5.411   5.737 -1.4834 -0.7702  1.7032
25088SOL     OW76704   0.169   5.376   5.660 -0.1653  0.6444  0.2381
25088SOL    HW176705   0.094   5.412   5.706 -0.6837 -0.5728  0.3626
25088SOL    HW276706   0.179   5.287   5.693  1.4753  0.8387  0.3904
25089SOL     OW76707   0.779   5.845   2.892 -0.4792  0.3292 -0.5186
25089SOL    HW176708   0.827   5.764   2.871  0.3781  0.8941 -0.8054
25089SOL    HW276709   0.778   5.848   2.988 -0.2677  0.1221 -0.5088
25090SOL     OW76710   6.416   5.040   3.709  0.4233  0.2799 -0.0897
25090SOL    HW176711   6.328   5.060   3.742 -0.6525 -1.0359 -1.9155
25090SOL    HW276712   6.462   5.002   3.784 -1.2475 -0.8338  0.4282
25091SOL     OW76713   0.416   5.599   4.121  0.1828  0.0795 -0.3961
25091SOL    HW176714   0.334   5.551   4.118 -1.2612  2.2192  1.4087
25091SOL    HW276715   0.430   5.617   4.214  2.0110  0.8870 -0.7747
25092SOL     OW76716   7.468   4.932   4.062 -0.5738  0.5377 -0.0171
25092SOL    HW176717   7.498   4.841   4.053  1.1470  1.0852 -0.1535
25092SOL    HW276718   7.431   4.936   4.151  2.0654  0.3687  1.2018
25093SOL     OW76719   6.103   5.390   5.434 -0.9521  0.1143  0.2363
25093SOL    HW176720   6.060   5.350   5.359 -1.5244  0.6844  0.2537
25093SOL    HW276721   6.035   5.395   5.501  0.1729 -2.7785  1.7619
25094SOL     OW76722   6.937   3.839   4.213 -0.8144  0.2395  0.2433
25094SOL    HW176723   6.856   3.882   4.185 -1.2358 -1.0226 -0.5728
25094SOL    HW276724   6.913   3.746   4.222  1.3192 -1.0002 -3.9786
25095SOL     OW76725   7.767   4.324   5.165 -0.0514  0.1389  0.1572
25095SOL    HW176726   7.760   4.264   5.090 -0.8113  0.3141  0.0740
25095SOL    HW276727   7.858   4.352   5.165 -0.1834  0.6952 -1.1654
25096SOL     OW76728   7.292   3.122   3.870  0.0111  0.1951 -0.5041
25096SOL    HW176729   7.218   3.099   3.928 -0.4303 -0.2551 -1.2266
25096SOL    HW276730   7.337   3.039   3.855  0.9090  0.5315  0.2443
25097SOL     OW76731   0.638   1.481   3.350  0.1899 -0.6220 -0.5653
25097SOL    HW176732   0.700   1.545   3.313 -0.4384 -0.5651 -1.5521
25097SOL    HW276733   0.552   1.516   3.328 -0.2234 -0.5768  1.0165
25098SOL     OW76734   6.555   3.886   3.900 -0.1186  0.3022  0.3648
25098SOL    HW176735   6.559   3.796   3.932 -2.5039 -1.2127 -2.9581
25098SOL    HW276736   6.468   3.917   3.926  0.7396  1.7561  1.6050
25099SOL     OW76737   6.043   5.108   4.880  0.1267 -0.9350  0.0161
25099SOL    HW176738   5.951   5.112   4.855 -0.2227 -0.1423  1.3214
25099SOL    HW276739   6.070   5.018   4.860 -1.1771 -1.4346  0.4211
25100SOL     OW76740   7.090   5.440   5.150 -0.3956 -0.1082  0.1186
25100SOL    HW176741   7.120   5.431   5.240 -0.5791 -2.2109  0.0171
25100SOL    HW276742   7.004   5.482   5.157  0.2688  1.1866  0.7794
25101SOL     OW76743   6.857   5.431   3.096  0.3140 -0.7190 -0.5663
25101SOL    HW176744   6.841   5.337   3.096  0.5553 -0.7635  0.0938
25101SOL    HW276745   6.921   5.445   3.166 -0.3334  0.0366 -0.1075
25102SOL     OW76746   0.380   5.098   3.236  0.2037  0.1857 -0.3330
25102SOL    HW176747   0.345   5.082   3.324  0.7449 -0.3195 -0.2042
25102SOL    HW276748   0.413   5.188   3.240 -0.0071  0.2554 -0.1028
25103SOL     OW76749   7.711   6.335   4.336 -0.3011 -0.2342 -0.6149
25103SOL    HW176750   7.617   6.315   4.328 -0.4201 -0.3130  0.7410
25103SOL    HW276751   7.715   6.430   4.343 -0.5766 -0.3593  2.2124
25104SOL     OW76752   6.197   4.980   5.298  0.1000 -0.1715 -0.0364
25104SOL    HW176753   6.104   4.956   5.301 -0.2903  1.0593 -1.1794
25104SOL    HW276754   6.206   5.031   5.217  1.7770 -0.2484  0.0607
25105SOL     OW76755   1.349   4.145   1.399 -0.5035  0.3967  0.2822
25105SOL    HW176756   1.266   4.107   1.370 -1.0357  1.1852  0.6971
25105SOL    HW276757   1.324   4.198   1.476  0.1341  1.7682 -0.4188
25106SOL     OW76758   0.416   5.510   5.261  1.1468  0.0604  0.2666
25106SOL    HW176759   0.461   5.497   5.345 -0.5348 -0.5401  1.1308
25106SOL    HW276760   0.415   5.423   5.221  0.8467  0.0900  0.2106
25107SOL     OW76761   0.353   4.106   1.883  0.0256 -0.3792 -0.0399
25107SOL    HW176762   0.307   4.024   1.867 -2.0372  1.0374 -2.0238
25107SOL    HW276763   0.390   4.129   1.797  0.7282  0.6606  0.5198
25108SOL     OW76764   1.144   4.418   4.841  0.5897  0.0906  0.7660
25108SOL    HW176765   1.162   4.499   4.890  0.2397  0.9919 -0.5240
25108SOL    HW276766   1.182   4.349   4.895 -0.2668  0.9458  2.5839
25109SOL     OW76767   4.964   4.948   4.597  0.8844  0.2026 -0.2433
25109SOL    HW176768   4.890   4.896   4.631 -0.3502  3.1420  2.0164
25109SOL    HW276769   4.924   5.010   4.536  1.6993  0.8746 -0.1155
25110SOL     OW76770   7.994   5.394   5.314 -0.0232  0.5105  0.0254
25110SOL    HW176771   7.991   5.473   5.369  1.0489 -0.3935  1.4698
25110SOL    HW276772   7.964   5.324   5.372  4.4338 -1.1023  0.7876
25111SOL     OW76773   7.264   4.995   6.108 -0.5751 -0.5771  0.4488
25111SOL    HW176774   7.184   5.010   6.158 -0.5173  1.4595  0.0057
25111SOL    HW276775   7.254   4.907   6.073 -2.3772 -0.5625  0.8342
25112SOL     OW76776   6.893   3.058   4.767  0.3698 -0.2651  0.2288
25112SOL    HW176777   6.921   3.108   4.844 -0.9385 -0.5873  0.9388
25112SOL    HW276778   6.941   3.097   4.694 -1.9479  3.3797  0.4167
25113SOL     OW76779   7.087   4.732   4.703  0.3431 -0.4897 -0.4117
25113SOL    HW176780   7.171   4.748   4.745 -0.0534 -1.8872  1.0324
25113SOL    HW276781   7.074   4.807   4.645  1.8979  0.4745  0.4154
25114SOL     OW76782   7.412   6.388   5.471  0.3115 -0.5303  0.2000
25114SOL    HW176783   7.341   6.378   5.408 -0.5524  0.6076  0.9498
25114SOL    HW276784   7.450   6.474   5.451 -0.1138 -0.0560  1.3254
25115SOL     OW76785   0.139   4.236   5.237 -0.4341 -0.0647 -0.6127
25115SOL    HW176786   0.119   4.146   5.212  1.0910 -0.4795 -0.4491
25115SOL    HW276787   0.234   4.243   5.227 -0.1692  0.7545  1.8185
25116SOL     OW76788   7.445   5.568   2.934 -0.1614  0.6249 -0.2580
25116SOL    HW176789   7.492   5.505   2.989 -0.5652  0.7338  0.2161
25116SOL    HW276790   7.457   5.535   2.844  1.1271  0.8566 -0.1851
25117SOL     OW76791   6.901   4.481   3.492 -0.6801 -0.1404  0.3657
25117SOL    HW176792   6.884   4.454   3.583 -0.3155 -1.5455  0.0385
25117SOL    HW276793   6.843   4.425   3.440 -1.1866  0.9449 -0.2554
25118SOL     OW76794   6.651   3.192   5.387 -0.3497 -1.0258  0.2462
25118SOL    HW176795   6.681   3.142   5.311  0.0643 -2.0252  1.0319
25118SOL    HW276796   6.557   3.171   5.394 -0.2970 -1.2618  0.2540
25119SOL     OW76797   7.291   4.675   5.156  0.7893 -0.0345 -0.1474
25119SOL    HW176798   7.338   4.592   5.149 -0.3456 -0.5721 -1.9467
25119SOL    HW276799   7.358   4.741   5.138  1.6166 -0.5513  0.9041
25120SOL     OW76800   5.620   4.478   4.268  0.2031  0.0866 -0.2783
25120SOL    HW176801   5.580   4.547   4.322  1.8096  0.6367  0.2610
25120SOL    HW276802   5.703   4.516   4.238  0.6558 -1.2554 -0.7986
25121SOL     OW76803   6.391   4.102   5.574  0.3287 -0.1907  0.3739
25121SOL    HW176804   6.358   4.150   5.650  2.4682 -1.9540  2.5559
25121SOL    HW276805   6.317   4.049   5.546  0.3488 -2.0732  3.4761
25122SOL     OW76806   5.222   5.077   5.986 -0.0801  0.1397  0.4134
25122SOL    HW176807   5.173   4.996   5.994  2.0533 -1.1449  1.2865
25122SOL    HW276808   5.182   5.123   5.912 -0.6097 -2.2314 -0.8499
25123SOL     OW76809   0.510   6.209   3.331 -0.1562  0.0517 -0.0551
25123SOL    HW176810   0.422   6.187   3.302 -0.0214  0.7716 -1.0708
25123SOL    HW276811   0.515   6.305   3.323  0.8371 -0.0147 -0.3973
25124SOL     OW76812   6.814   4.608   5.834  0.2666  0.1782  0.2193
25124SOL    HW176813   6.806   4.531   5.889  0.4022  0.0059 -0.0010
25124SOL    HW276814   6.738   4.662   5.856  0.2457  0.0448  0.4698
25125SOL     OW76815   7.948   4.936   7.762  0.6265  0.2861 -0.1776
25125SOL    HW176816   7.978   5.024   7.786 -0.8640  0.8264 -0.1878
25125SOL    HW276817   7.910   4.947   7.675  1.8345 -0.7156 -0.8569
25126SOL     OW76818   5.667   5.072   7.832  0.3570 -0.1238  0.3769
25126SOL    HW176819   5.758   5.051   7.813  0.2938 -0.2533  0.2175
25126SOL    HW276820   5.619   4.990   7.817 -0.0724  0.4146 -1.4252
25127SOL     OW76821   0.019   6.334   6.205 -0.1849 -0.5611 -0.3350
25127SOL    HW176822  -0.007   6.356   6.116  2.5882 -0.9384 -1.3350
25127SOL    HW276823   0.035   6.240   6.204 -1.4197 -0.8341  0.9899
25128SOL     OW76824   6.595   6.306   6.902 -0.1245 -0.0568 -0.4416
25128SOL    HW176825   6.557   6.225   6.937 -0.6212  0.5095  0.3590
25128SOL    HW276826   6.665   6.327   6.965 -1.6071  1.4579  0.7844
25129SOL     OW76827   0.064   4.790   5.587 -0.2161  0.1060 -0.2057
25129SOL    HW176828  -0.016   4.842   5.592 -0.7421 -0.3862 -2.4666
25129SOL    HW276829   0.098   4.790   5.677 -2.0911  1.3245  0.5692
25130SOL     OW76830   6.920   5.455   6.818 -0.3822 -0.3227 -0.0157
25130SOL    HW176831   6.833   5.491   6.801 -0.4294 -0.1768  0.5089
25130SOL    HW276832   6.963   5.522   6.870  0.3493 -0.0209 -0.9837
25131SOL     OW76833   7.869   4.779   4.990 -0.2146  0.2869 -0.7162
25131SOL    HW176834   7.885   4.796   5.083 -0.3565  0.1442 -0.6638
25131SOL    HW276835   7.837   4.862   4.956 -2.5145 -0.2595 -0.0965
25132SOL     OW76836   7.910   2.438   8.264 -0.2373 -0.3258  0.2591
25132SOL    HW176837   7.939   2.509   8.207 -0.3405 -1.8890 -1.8627
25132SOL    HW276838   7.986   2.416   8.317 -0.3730  1.6981  1.3905
25133SOL     OW76839   7.157   4.658   5.391  0.7775  0.2021 -0.3043
25133SOL    HW176840   7.214   4.658   5.314 -0.0241  0.0970 -0.9059
25133SOL    HW276841   7.096   4.730   5.376 -0.5220 -0.9314 -0.6423
25134SOL     OW76842   0.610   4.119   7.100  0.3317 -0.1419 -0.1701
25134SOL    HW176843   0.555   4.042   7.087 -1.6456  1.4972 -2.5347
25134SOL    HW276844   0.678   4.091   7.161 -1.6331 -3.0557  0.8715
25135SOL     OW76845   7.297   4.380   4.994  0.2623 -0.0366  0.7347
25135SOL    HW176846   7.283   4.339   5.079  2.8594  0.6835  1.6235
25135SOL    HW276847   7.383   4.422   5.002  0.2962  0.6177 -2.0396
25136SOL     OW76848   7.584   4.506   7.823 -0.4029 -0.0039  0.3810
25136SOL    HW176849   7.676   4.526   7.840  0.0619 -0.8832 -0.9844
25136SOL    HW276850   7.579   4.494   7.728 -1.3767 -2.5789  0.6874
25137SOL     OW76851   7.484   3.613   4.231 -0.4456 -0.0511 -0.6755
25137SOL    HW176852   7.413   3.574   4.179 -1.1157  0.0026  0.1688
25137SOL    HW276853   7.507   3.693   4.185 -1.1158  0.0609 -0.8210
25138SOL     OW76854   5.588   4.564   5.606 -0.0790 -0.4134  0.6277
25138SOL    HW176855   5.597   4.645   5.656 -2.1061 -0.8507  1.7780
25138SOL    HW276856   5.498   4.563   5.576  0.7467 -0.7474 -2.1287
25139SOL     OW76857   7.539   6.135   5.955 -0.0886  0.4307  0.0762
25139SOL    HW176858   7.629   6.113   5.980 -0.1823 -1.5750 -1.1248
25139SOL    HW276859   7.489   6.126   6.036  0.4111 -0.9355  0.2646
25140SOL     OW76860   6.452   4.539   7.250  0.4974  0.4542 -0.1558
25140SOL    HW176861   6.533   4.504   7.288  0.6117  0.4912 -0.3647
25140SOL    HW276862   6.389   4.468   7.257  1.0659 -0.2555 -1.7186
25141SOL     OW76863   2.034   7.719   5.561  0.1278 -0.5906 -0.1141
25141SOL    HW176864   2.047   7.631   5.597  1.5147 -0.8665 -1.2304
25141SOL    HW276865   1.939   7.730   5.561 -0.1502 -2.5323 -0.9443
25142SOL     OW76866   7.594   4.757   4.622  0.2693 -0.1620 -0.4861
25142SOL    HW176867   7.520   4.806   4.587 -0.5341 -2.9511 -3.0930
25142SOL    HW276868   7.565   4.728   4.708  0.3829  2.8356  0.6871
25143SOL     OW76869   1.261   6.257   9.350  0.3368  0.1258  0.1997
25143SOL    HW176870   1.290   6.173   9.315  1.9814  1.4858 -1.9907
25143SOL    HW276871   1.171   6.242   9.378  0.5616 -2.3148 -0.2056
25144SOL     OW76872   5.829   4.797   8.028 -0.3587  0.0730 -0.1378
25144SOL    HW176873   5.811   4.888   8.052 -0.7555 -0.2962  1.0318
25144SOL    HW276874   5.782   4.784   7.945 -1.3103  0.5792  0.3097
25145SOL     OW76875   6.229   4.586   8.373 -0.3035 -0.6258 -0.0109
25145SOL    HW176876   6.253   4.625   8.289 -2.0864  1.1350  0.2128
25145SOL    HW276877   6.307   4.594   8.428  0.8897 -1.8258 -1.4505
25146SOL     OW76878   1.166   2.225   5.334 -0.3368 -0.7725  0.4580
25146SOL    HW176879   1.232   2.287   5.363 -0.4053 -1.2513  1.7301
25146SOL    HW276880   1.212   2.166   5.274  0.0853 -0.3671  0.3840
25147SOL     OW76881   7.520   4.530   5.089 -0.2358  0.2502 -0.2403
25147SOL    HW176882   7.549   4.601   5.033  1.8181  1.0088  1.6500
25147SOL    HW276883   7.588   4.463   5.081 -1.0903 -0.6399 -0.3864
25148SOL     OW76884   6.886   3.910   7.114  0.0831 -1.1092  0.8066
25148SOL    HW176885   6.980   3.920   7.099 -0.2215  2.2234  0.3209
25148SOL    HW276886   6.855   3.863   7.037  0.9941  0.5051 -0.6342
25149SOL     OW76887   6.860   4.190   6.453  0.3761 -0.3302 -0.1829
25149SOL    HW176888   6.830   4.124   6.391  0.4842 -0.0628 -0.5183
25149SOL    HW276889   6.789   4.254   6.457  0.0974 -0.6680  0.4454
25150SOL     OW76890   0.223   5.235   7.283  0.7263 -0.3281  0.1226
25150SOL    HW176891   0.259   5.158   7.239 -1.8468 -1.1286 -0.7083
25150SOL    HW276892   0.195   5.293   7.212 -1.6163 -0.7311  0.6441
25151SOL     OW76893   7.779   6.009   6.836  0.0052  0.0986  0.4008
25151SOL    HW176894   7.786   6.104   6.826  0.9523 -0.1000 -1.1441
25151SOL    HW276895   7.827   5.989   6.916  2.4056  0.6442 -0.8426
25152SOL     OW76896   7.348   3.956   6.213  0.0529 -0.2610 -0.2192
25152SOL    HW176897   7.276   3.953   6.149  0.6371 -2.0500 -0.8718
25152SOL    HW276898   7.315   4.008   6.285 -2.1346 -1.4699 -0.2673
25153SOL     OW76899   6.251   4.677   6.726  0.9274 -0.1690  0.5019
25153SOL    HW176900   6.293   4.732   6.793  1.8827 -0.0079 -0.1975
25153SOL    HW276901   6.161   4.668   6.756  1.2163  0.2605  1.5822
25154SOL     OW76902   1.421   6.664   7.160 -0.2718 -0.1087  0.7493
25154SOL    HW176903   1.495   6.672   7.099  0.0662 -1.6087  0.9207
25154SOL    HW276904   1.400   6.571   7.159 -2.1959  0.2911  0.6952
25155SOL     OW76905   7.927   6.878   7.446 -0.0547 -0.3162  0.3224
25155SOL    HW176906   7.963   6.889   7.358  0.3797 -1.9906  0.2471
25155SOL    HW276907   7.849   6.934   7.447  0.4044  0.3892 -0.8248
25156SOL     OW76908   7.517   3.661   5.917  0.2307  0.0368  0.7299
25156SOL    HW176909   7.506   3.593   5.983 -2.3217  0.1036  0.4752
25156SOL    HW276910   7.587   3.629   5.860  0.4556 -1.3973  1.7837
25157SOL     OW76911   1.806   5.930   5.479  0.5628  0.0185  0.3313
25157SOL    HW176912   1.863   5.969   5.413  1.7400 -3.3445 -0.8665
25157SOL    HW276913   1.727   5.905   5.431  0.9101 -1.3208  0.4082
25158SOL     OW76914   7.326   5.954   7.447  0.1106 -0.1189  0.1002
25158SOL    HW176915   7.261   5.897   7.406 -0.4276 -1.1113  2.2028
25158SOL    HW276916   7.409   5.906   7.438 -0.1561 -0.7563  0.8741
25159SOL     OW76917   6.968   5.277   8.181  0.0152 -0.3312  0.1475
25159SOL    HW176918   6.879   5.288   8.147 -0.0614 -0.5672  0.2724
25159SOL    HW276919   6.984   5.183   8.177  0.6552 -0.1988 -0.8784
25160SOL     OW76920   7.093   5.648   7.778  0.3109  0.1029 -0.1097
25160SOL    HW176921   7.081   5.612   7.866 -0.0763  0.0848 -0.1710
25160SOL    HW276922   7.169   5.707   7.787 -0.8216  1.5192  0.6672
25161SOL     OW76923   7.710   5.098   6.964 -0.0991 -0.0855 -0.3354
25161SOL    HW176924   7.685   5.159   7.033  1.6862 -0.2213  0.4882
25161SOL    HW276925   7.658   5.020   6.982 -0.9426  0.4998 -0.2095
25162SOL     OW76926   5.843   5.266   6.510 -0.5291 -0.1689  0.7492
25162SOL    HW176927   5.905   5.202   6.546  2.3981  1.3902 -1.0569
25162SOL    HW276928   5.794   5.217   6.444  2.3243 -0.5422 -1.3067
25163SOL     OW76929   6.805   3.215   6.734  0.1334  0.1435  0.4267
25163SOL    HW176930   6.723   3.228   6.782  0.9109  1.9763  1.3221
25163SOL    HW276931   6.833   3.302   6.708  0.4444 -0.6530 -2.3108
25164SOL     OW76932   1.242   4.491   6.512 -0.2387 -0.1820  0.4567
25164SOL    HW176933   1.294   4.485   6.432 -2.4692 -1.4276 -1.0003
25164SOL    HW276934   1.251   4.405   6.553  1.5660  0.7071  2.0860
25165SOL     OW76935   7.093   5.792   7.361 -0.3497  0.4234  0.4547
25165SOL    HW176936   7.140   5.717   7.325 -1.3602  0.4961 -1.1460
25165SOL    HW276937   7.082   5.851   7.286 -0.8430  1.5217  1.3529
25166SOL     OW76938   0.603   3.769   5.017  0.6517 -0.0032 -0.2107
25166SOL    HW176939   0.638   3.685   5.045 -0.8454 -0.7959 -0.6230
25166SOL    HW276940   0.598   3.821   5.097  3.0830  0.3041 -0.2006
25167SOL     OW76941   5.946   6.031   4.842 -0.7651 -0.1231 -0.3128
25167SOL    HW176942   5.959   6.000   4.931 -2.2908 -3.2814 -1.0674
25167SOL    HW276943   5.851   6.041   4.833 -0.5252  2.5399 -0.9440
25168SOL     OW76944   6.728   6.023   7.241 -0.3153  0.1000  0.1998
25168SOL    HW176945   6.700   6.112   7.264 -1.4752 -0.7678  2.3750
25168SOL    HW276946   6.734   5.977   7.324  0.4205 -1.8457 -0.8676
25169SOL     OW76947   6.556   5.248   5.633  0.1810 -0.1171  0.6198
25169SOL    HW176948   6.582   5.324   5.580  0.9033 -0.4400  0.5095
25169SOL    HW276949   6.487   5.206   5.581  0.7065 -0.2874  0.0488
25170SOL     OW76950   7.208   3.496   7.677 -0.0158  0.3692 -0.3790
25170SOL    HW176951   7.254   3.487   7.594  0.4730 -0.4408 -0.0267
25170SOL    HW276952   7.275   3.526   7.739 -0.5998  2.0262 -0.4815
25171SOL     OW76953   7.115   4.755   5.655 -0.3066  0.1105 -0.7743
25171SOL    HW176954   7.148   4.680   5.703  0.3397 -0.6363 -2.3095
25171SOL    HW276955   7.179   4.769   5.585 -1.0111  1.3710 -1.2071
25172SOL     OW76956   1.020   5.431   7.975 -0.1375  0.1871 -0.5789
25172SOL    HW176957   1.024   5.354   8.031 -1.0001  0.8716  0.4706
25172SOL    HW276958   1.000   5.503   8.035 -1.3370  0.9135 -1.8007
25173SOL     OW76959   7.732   4.041   6.030  0.0656  0.5879 -0.0964
25173SOL    HW176960   7.652   4.009   5.987  1.0146 -1.1444 -0.6528
25173SOL    HW276961   7.764   3.965   6.080  1.1549  1.3830  0.4387
25174SOL     OW76962   0.237   1.956   7.229  0.3374  0.2962 -0.2308
25174SOL    HW176963   0.197   2.042   7.234  0.1380  0.1624  1.0084
25174SOL    HW276964   0.165   1.895   7.248  0.3822 -0.1808 -1.5082
25175SOL     OW76965   6.821   6.260   7.060 -0.5347  0.0295 -0.0702
25175SOL    HW176966   6.831   6.185   7.120 -1.1086 -0.7374 -0.9024
25175SOL    HW276967   6.896   6.315   7.079 -0.3072 -0.5618  0.8451
25176SOL     OW76968   6.764   7.103   7.378 -0.4209  0.9027 -0.8248
25176SOL    HW176969   6.807   7.119   7.462  0.3806 -0.4153 -0.9552
25176SOL    HW276970   6.676   7.074   7.401 -0.0024 -0.0625 -0.4009
25177SOL     OW76971   6.316   3.720   5.338  0.4898 -0.8060 -0.2144
25177SOL    HW176972   6.270   3.737   5.256  0.1510 -0.0609  0.1257
25177SOL    HW276973   6.247   3.707   5.402  0.5925  2.7385  0.8443
25178SOL     OW76974   0.298   4.894   7.495 -0.5570  0.1462  0.1489
25178SOL    HW176975   0.358   4.824   7.469 -1.1615 -0.5819  0.6889
25178SOL    HW276976   0.292   4.950   7.417 -1.3626 -1.3020 -0.8739
25179SOL     OW76977   7.027   5.100   6.204 -0.6340  0.2979  0.0015
25179SOL    HW176978   7.096   5.158   6.237 -0.2359 -1.3223  2.3067
25179SOL    HW276979   6.998   5.140   6.123  1.8457  1.9593 -0.1691
25180SOL     OW76980   7.943   6.646   6.606  0.5734 -0.7125  0.7940
25180SOL    HW176981   7.863   6.682   6.567  2.9735  1.8474 -2.3744
25180SOL    HW276982   7.961   6.567   6.555 -0.1223 -1.5491  1.8176
25181SOL     OW76983   7.911   6.039   7.090  0.0608 -0.4436  0.1336
25181SOL    HW176984   7.956   6.121   7.110 -0.4698  0.2484 -1.3727
25181SOL    HW276985   7.866   6.016   7.171 -0.3014  1.1006  0.4048
25182SOL     OW76986   7.939   4.385   6.679  0.1290 -0.3929  0.5711
25182SOL    HW176987   7.899   4.394   6.765  0.3728  0.5728  0.5943
25182SOL    HW276988   8.027   4.351   6.697 -0.3739 -1.7419  0.5750
25183SOL     OW76989   6.562   4.058   5.215 -0.1046  0.4940  0.7385
25183SOL    HW176990   6.469   4.038   5.218  0.1202 -0.5495  2.6078
25183SOL    HW276991   6.570   4.144   5.258 -0.1326  0.2289  1.2757
25184SOL     OW76992   7.342   5.465   6.976  0.2131 -0.2669  0.0517
25184SOL    HW176993   7.328   5.555   6.948  1.2245  0.1682  0.9060
25184SOL    HW276994   7.302   5.412   6.906 -2.1813  0.8282  0.4856
25185SOL     OW76995   7.509   5.756   7.398  0.1282 -0.3910 -0.6844
25185SOL    HW176996   7.523   5.714   7.483 -0.8263 -2.8980 -1.6622
25185SOL    HW276997   7.507   5.683   7.336 -0.7947  1.2216 -2.6451
25186SOL     OW76998   6.942   4.456   5.657  0.3006  0.5365 -0.3385
25186SOL    HW176999   7.030   4.441   5.692  0.1847 -1.4046 -0.7247
25186SOL    HW277000   6.901   4.516   5.718  1.3293  0.1132  0.8034
25187SOL     OW77001   0.329   4.908   8.726  0.0734 -0.3612 -0.0859
25187SOL    HW177002   0.289   4.985   8.766 -0.1555 -0.7224  0.3907
25187SOL    HW277003   0.391   4.876   8.791  1.3466  0.3260 -0.9107
25188SOL     OW77004   5.929   5.171   8.313  0.2249  0.3909  0.0112
25188SOL    HW177005   5.896   5.125   8.235  2.2553  1.6821 -1.7019
25188SOL    HW277006   5.855   5.170   8.373 -1.3832 -0.8421 -1.8379
25189SOL     OW77007   7.456   5.789   6.484  0.8646  0.1754  0.1337
25189SOL    HW177008   7.528   5.789   6.546  0.1031 -0.3950  1.0408
25189SOL    HW277009   7.408   5.709   6.503  1.5620 -0.9269 -2.3393
25190SOL     OW77010   6.684   4.589   6.598 -0.1676 -0.3462 -0.2298
25190SOL    HW177011   6.652   4.516   6.650 -1.5681  1.0324  0.9353
25190SOL    HW277012   6.757   4.553   6.548 -1.7074 -2.8975 -0.8035
25191SOL     OW77013   7.351   5.184   7.088 -0.3504  0.2912  0.1048
25191SOL    HW177014   7.283   5.149   7.145 -0.8116 -5.5646 -3.2161
25191SOL    HW277015   7.306   5.247   7.032 -2.1403 -0.6200  0.4417
25192SOL     OW77016   7.121   4.024   6.781 -0.6711 -0.1417 -0.0819
25192SOL    HW177017   7.030   4.054   6.779 -0.9861 -1.0507  0.1585
25192SOL    HW277018   7.136   3.996   6.871 -0.0536  0.2631 -0.0461
25193SOL     OW77019   1.562   6.220   9.799 -0.1715 -0.0085 -0.5336
25193SOL    HW177020   1.603   6.185   9.879  0.6430 -0.0759 -0.9755
25193SOL    HW277021   1.535   6.142   9.751  0.3573 -0.0010 -0.8489
25194SOL     OW77022   6.927   3.632   8.326  0.1556 -0.0070  0.1198
25194SOL    HW177023   6.977   3.554   8.350 -0.7237 -0.0660  1.9713
25194SOL    HW277024   6.928   3.686   8.405  0.4406  1.7015 -1.0223
25195SOL     OW77025   7.208   4.790   7.486  0.7390 -0.4604 -0.2763
25195SOL    HW177026   7.184   4.835   7.567 -1.8693 -0.8029 -0.7639
25195SOL    HW277027   7.126   4.750   7.456  2.0986 -2.1559 -1.9684
25196SOL     OW77028   2.070   7.763   7.878  0.2049  0.0142  0.1167
25196SOL    HW177029   2.108   7.812   7.951 -0.0630  0.8535 -0.2879
25196SOL    HW277030   1.976   7.769   7.891  0.1689 -0.5980  0.1807
25197SOL     OW77031   0.934   6.331   8.105  0.0564 -0.4035 -0.3923
25197SOL    HW177032   1.011   6.293   8.064 -0.2530 -1.8415  0.2788
25197SOL    HW277033   0.865   6.323   8.039  0.2551  0.0417 -0.6588
25198SOL     OW77034   7.509   5.894   9.539 -0.0436 -0.0221  0.4761
25198SOL    HW177035   7.413   5.896   9.534 -0.0295  0.9780  0.4456
25198SOL    HW277036   7.533   5.807   9.507 -0.9307 -0.1980  0.2698
25199SOL     OW77037   0.749   6.268   8.903 -0.0324 -0.0806 -0.4502
25199SOL    HW177038   0.835   6.303   8.878  0.4483  0.8883  2.1604
25199SOL    HW277039   0.700   6.345   8.934 -0.4290 -1.0986  1.6299
25200SOL     OW77040   5.853   5.417   8.562 -0.5375  0.2929 -0.3760
25200SOL    HW177041   5.856   5.504   8.603 -2.2629 -0.2368  0.9506
25200SOL    HW277042   5.813   5.433   8.476 -0.1930  0.8799 -0.4415
25201SOL     OW77043   7.835   6.389   9.076 -0.2535 -0.4716  0.6317
25201SOL    HW177044   7.887   6.468   9.060 -0.4984 -0.7235 -1.9570
25201SOL    HW277045   7.745   6.421   9.088 -0.4596 -0.3361 -1.0435
25202SOL     OW77046   6.770   3.301   7.840  0.3985 -0.8440  0.0365
25202SOL    HW177047   6.835   3.362   7.805  0.4106 -0.6976  0.3093
25202SOL    HW277048   6.729   3.348   7.913 -1.6803 -0.0325 -1.5711
25203SOL     OW77049   1.276   5.591   8.082  0.1025  0.1426  0.4621
25203SOL    HW177050   1.186   5.588   8.051 -0.3437 -1.4294  1.7477
25203SOL    HW277051   1.327   5.554   8.010 -0.8021 -2.5959  1.0841
25204SOL     OW77052   7.216   6.070   5.507  0.0976 -0.6265  0.2121
25204SOL    HW177053   7.284   6.004   5.519  1.0908  0.3164  0.0132
25204SOL    HW277054   7.250   6.148   5.552 -0.5700  0.0355 -0.3909
25205SOL     OW77055   1.472   6.122   8.535 -0.5286 -0.0379  0.4818
25205SOL    HW177056   1.532   6.072   8.591  0.1378  0.6484  0.4016
25205SOL    HW277057   1.529   6.164   8.471 -1.1969 -0.0699 -0.1406
25206SOL     OW77058   0.632   3.626   6.816  0.2727  0.3640  0.1127
25206SOL    HW177059   0.660   3.569   6.744 -0.2842  0.9084 -0.5531
25206SOL    HW277060   0.676   3.591   6.893  0.3651 -0.6407 -0.3760
25207SOL     OW77061   0.095   6.044   6.098 -0.1113 -0.1809 -0.7126
25207SOL    HW177062   0.135   5.958   6.114  0.5687 -0.3588 -2.9949
25207SOL    HW277063   0.053   6.035   6.012 -0.4116  1.6336 -0.7845
25208SOL     OW77064   7.242   3.170   6.746 -0.5866 -0.8165  0.0481
25208SOL    HW177065   7.313   3.126   6.793  0.1235 -0.1490 -0.3644
25208SOL    HW277066   7.162   3.141   6.790  0.0504  0.0097  1.8537
25209SOL     OW77067   0.038   5.856   7.457  0.1329  0.1621 -0.3960
25209SOL    HW177068   0.069   5.942   7.429 -1.7802  1.2856  0.7333
25209SOL    HW277069   0.014   5.812   7.376  0.0836  1.1269 -0.9203
25210SOL     OW77070   7.097   4.379   8.767  0.3435  0.1208 -0.2187
25210SOL    HW177071   7.145   4.425   8.836 -0.1099 -2.8623  2.2737
25210SOL    HW277072   7.166   4.337   8.714  0.6293  0.3513 -0.0322
25211SOL     OW77073   7.478   7.073   9.406 -0.0066  0.0119 -0.0510
25211SOL    HW177074   7.472   7.102   9.498  0.0910  0.1412 -0.0846
25211SOL    HW277075   7.543   7.003   9.408 -0.6230 -0.5596  0.1125
25212SOL     OW77076   0.305   6.066   9.165  0.2748 -0.1873 -0.1490
25212SOL    HW177077   0.231   6.076   9.225 -0.2032 -0.1305 -0.7314
25212SOL    HW277078   0.265   6.070   9.078  0.7543 -1.6255 -0.4697
25213SOL     OW77079   7.686   3.829   6.943 -0.0241  0.1510  0.0796
25213SOL    HW177080   7.648   3.887   6.876 -0.6517 -0.9310 -0.5342
25213SOL    HW277081   7.714   3.751   6.894 -1.7813 -1.2830  1.2227
25214SOL     OW77082   7.618   2.608   9.034 -0.0130  0.2681  0.5793
25214SOL    HW177083   7.553   2.590   8.966 -1.5192  1.0100  1.7653
25214SOL    HW277084   7.665   2.685   9.002  1.3660 -1.1333 -0.9847
25215SOL     OW77085   7.184   3.613   4.571 -0.4452 -0.0172 -0.0730
25215SOL    HW177086   7.189   3.647   4.482 -1.8858  0.8212  0.1274
25215SOL    HW277087   7.090   3.607   4.589 -0.1844  0.3523  1.5702
25216SOL     OW77088   0.589   6.676   6.905  0.0182 -0.7999  0.2130
25216SOL    HW177089   0.684   6.680   6.907  0.1520 -2.8179 -0.2597
25216SOL    HW277090   0.561   6.767   6.917  1.9737 -0.2183  0.7207
25217SOL     OW77091   0.441   5.929   7.744 -0.1185  0.1465 -0.4304
25217SOL    HW177092   0.414   5.871   7.673  1.5730  0.3255 -1.2756
25217SOL    HW277093   0.429   6.017   7.708  0.8528  0.2351 -0.5475
25218SOL     OW77094   7.506   6.622   8.899  0.0325  0.3619  0.2889
25218SOL    HW177095   7.587   6.663   8.868  1.3490 -1.0679  1.7066
25218SOL    HW277096   7.467   6.687   8.957 -1.4595  2.2797 -2.6227
25219SOL     OW77097   1.212   4.711   6.639  0.0666 -0.4828  0.5908
25219SOL    HW177098   1.234   4.625   6.603  0.5783 -0.1188  0.0165
25219SOL    HW277099   1.297   4.751   6.659 -0.1352  0.1661  0.1948
25220SOL     OW77100   5.969   4.607   8.675  0.3707  0.1138 -0.0056
25220SOL    HW177101   5.926   4.682   8.634  0.6574 -0.1015 -0.7055
25220SOL    HW277102   5.921   4.531   8.642 -0.1834  0.0014  1.0239
25221SOL     OW77103   0.371   3.690   6.994 -0.1972 -0.0011 -0.1755
25221SOL    HW177104   0.442   3.681   6.930  0.1376 -1.2576  0.3505
25221SOL    HW277105   0.415   3.691   7.079 -0.7528  0.0194  0.1186
25222SOL     OW77106   5.809   5.924   7.935 -0.6368 -0.1993  0.2553
25222SOL    HW177107   5.821   6.016   7.911  3.1687 -0.5447  0.2263
25222SOL    HW277108   5.750   5.889   7.868  0.5183  1.4980 -1.7619
25223SOL     OW77109   7.855   7.108   8.324  0.1349 -0.4272  0.1168
25223SOL    HW177110   7.944   7.104   8.362  0.2272  0.5380  0.0278
25223SOL    HW277111   7.866   7.157   8.243 -0.7493  1.3195  0.9919
25224SOL     OW77112   0.379   3.861   8.710 -0.1157  0.2048 -0.3179
25224SOL    HW177113   0.397   3.767   8.713  1.2048  0.3866 -1.5426
25224SOL    HW277114   0.341   3.876   8.624  0.6009  0.9260 -0.5265
25225SOL     OW77115   7.438   4.156   7.261 -0.3187 -0.0109  0.3754
25225SOL    HW177116   7.481   4.103   7.194  1.1245  0.0325  1.2196
25225SOL    HW277117   7.392   4.224   7.212  1.0196  0.2623 -0.5917
25226SOL     OW77118   7.873   5.705   9.723 -0.1150 -0.1405  1.2822
25226SOL    HW177119   7.872   5.799   9.739 -0.2678  0.5417 -1.9147
25226SOL    HW277120   7.782   5.678   9.727 -0.0990 -0.1067  1.9254
25227SOL     OW77121   7.944   3.863   7.565 -0.1324  0.3425  0.0374
25227SOL    HW177122   7.941   3.785   7.510  0.5135 -0.5156  1.1772
25227SOL    HW277123   8.010   3.844   7.631  0.6404  2.1899 -0.1283
25228SOL     OW77124   0.068   5.307   7.488  0.1929  0.0690  0.1702
25228SOL    HW177125   0.154   5.314   7.445 -0.6791  1.6765 -1.4467
25228SOL    HW277126   0.014   5.260   7.425 -0.5880  0.7351  0.3226
25229SOL     OW77127   7.425   2.121   8.555 -0.0913  0.0061 -0.0053
25229SOL    HW177128   7.356   2.079   8.608  1.1064 -0.0479  1.5982
25229SOL    HW277129   7.490   2.052   8.542  0.4862  0.5366  0.0399
25230SOL     OW77130   6.497   6.882   8.900 -0.0301 -0.0872 -0.1847
25230SOL    HW177131   6.478   6.948   8.834  0.0299  1.4642  1.2659
25230SOL    HW277132   6.575   6.914   8.945  1.2171 -2.1892 -0.6934
25231SOL     OW77133   7.807   4.954   7.488 -0.9819  0.1096 -0.0205
25231SOL    HW177134   7.758   4.989   7.413  1.5567 -0.8892 -2.3013
25231SOL    HW277135   7.899   4.964   7.464 -0.0657 -2.2422  2.0123
25232SOL     OW77136   6.050   5.231   9.564  0.1257 -0.2060 -0.0189
25232SOL    HW177137   6.011   5.144   9.559  1.2217 -0.9730  2.9049
25232SOL    HW277138   5.976   5.291   9.557 -0.6918 -1.3163 -1.7122
25233SOL     OW77139   7.412   4.581   7.537 -0.0021  0.3669  0.3527
25233SOL    HW177140   7.504   4.606   7.549 -0.4832  2.3455  0.2476
25233SOL    HW277141   7.367   4.663   7.517 -1.8012 -0.5705  0.3311
25234SOL     OW77142   7.369   6.263   9.093  0.3022  0.1630 -0.3340
25234SOL    HW177143   7.362   6.232   9.183  0.9830 -0.4996 -0.4952
25234SOL    HW277144   7.358   6.184   9.040  1.5017  0.2733 -0.7726
25235SOL     OW77145   6.613   4.035   8.843  0.0241 -0.8156  0.5523
25235SOL    HW177146   6.642   4.124   8.827 -0.0162 -0.8570  0.2466
25235SOL    HW277147   6.659   3.982   8.778 -1.4957 -0.7509 -0.6317
25236SOL     OW77148   7.866   4.706   9.946 -0.7929  0.6513  0.1538
25236SOL    HW177149   7.930   4.678   9.881 -1.1723  1.2619 -0.5033
25236SOL    HW277150   7.788   4.728   9.894 -1.9475 -1.1762  1.0238
25237SOL     OW77151   1.660   5.891   5.057 -0.8267 -0.1484  0.0237
25237SOL    HW177152   1.588   5.938   5.014  0.0374  0.3055 -0.9702
25237SOL    HW277153   1.681   5.944   5.133 -0.1922  0.8435 -0.8148
25238SOL     OW77154   7.841   6.087   9.220 -0.5164 -0.4267  0.3555
25238SOL    HW177155   7.830   6.172   9.177 -0.1648 -0.0728  0.9549
25238SOL    HW277156   7.821   6.023   9.151 -1.1201  0.1364 -0.0061
25239SOL     OW77157   1.006   4.640   7.881 -0.5692 -0.3959  0.4830
25239SOL    HW177158   0.981   4.601   7.798 -1.1093 -0.3306  0.6152
25239SOL    HW277159   1.008   4.566   7.942 -0.4119 -0.4033  0.4705
25240SOL     OW77160   6.607   3.949   8.564  0.0293  0.0374 -0.5172
25240SOL    HW177161   6.516   3.973   8.582 -0.2956 -1.9433  0.9026
25240SOL    HW277162   6.607   3.853   8.565  2.1704 -0.0193 -0.3687
25241SOL     OW77163   5.245   6.082   7.891  0.2267 -0.2328  0.1162
25241SOL    HW177164   5.322   6.132   7.920  0.6529  0.5282 -2.1250
25241SOL    HW277165   5.282   5.998   7.862  0.2755  0.1903 -1.1048
25242SOL     OW77166   7.069   6.615   9.636  0.0431 -0.1477 -0.3117
25242SOL    HW177167   7.158   6.590   9.662  0.5039  2.3481  0.7585
25242SOL    HW277168   7.012   6.562   9.692  0.8054 -1.8079 -1.0406
25243SOL     OW77169   0.621   5.344   8.028 -0.6319 -0.1130 -0.1201
25243SOL    HW177170   0.703   5.304   7.998  0.8046  1.4575  1.4787
25243SOL    HW277171   0.605   5.416   7.967 -0.3800  0.0845  0.0482
25244SOL     OW77172   7.793   4.253   9.022 -0.1932 -0.4122  0.4431
25244SOL    HW177173   7.848   4.268   8.945 -0.5012 -1.8982 -0.1112
25244SOL    HW277174   7.789   4.337   9.067  0.8671  0.2103 -0.6003
25245SOL     OW77175   1.215   6.563   8.479 -0.1102  0.5030 -0.4126
25245SOL    HW177176   1.235   6.477   8.442 -0.9946 -0.1573  0.5848
25245SOL    HW277177   1.299   6.596   8.508  0.1248 -0.4255  0.0101
25246SOL     OW77178   1.446   7.119   8.850 -0.0167 -0.8703 -0.6779
25246SOL    HW177179   1.511   7.069   8.898  0.8802  0.4908 -0.4198
25246SOL    HW277180   1.380   7.054   8.825 -0.3355 -1.6967  2.0141
25247SOL     OW77181   7.544   6.118  10.436 -0.3018 -0.6721  0.2570
25247SOL    HW177182   7.500   6.054  10.379  0.3448 -0.7211 -0.1949
25247SOL    HW277183   7.477   6.142  10.500 -0.9214 -0.9109 -0.2833
25248SOL     OW77184   6.770   3.842   7.354 -0.4239  0.3806 -0.1239
25248SOL    HW177185   6.830   3.889   7.412 -0.2264  1.0708 -0.8615
25248SOL    HW277186   6.783   3.883   7.268 -0.6132 -0.6969 -0.6904
25249SOL     OW77187   0.423   3.972   6.745 -0.8115  0.6549 -0.0143
25249SOL    HW177188   0.363   3.994   6.675 -2.3214 -1.6889  0.4281
25249SOL    HW277189   0.367   3.946   6.818  0.7230 -0.2184  0.9170
25250SOL     OW77190   0.974   6.085   7.439 -0.4512  0.1783  0.1103
25250SOL    HW177191   0.980   6.123   7.352 -0.9528  0.7660  0.3175
25250SOL    HW277192   1.048   6.122   7.487 -1.1554  1.2403  0.4230
25251SOL     OW77193   0.709   5.843   7.815 -0.0100  0.1341 -0.6017
25251SOL    HW177194   0.676   5.778   7.878  1.1410 -2.1667 -2.2534
25251SOL    HW277195   0.632   5.869   7.765 -0.7195  1.1232  0.9000
25252SOL     OW77196   7.130   5.285   9.915 -0.2839  0.3691  0.3317
25252SOL    HW177197   7.177   5.311   9.836 -1.1167  1.8230  0.2745
25252SOL    HW277198   7.163   5.345   9.983  2.4500 -2.5715  1.8614
25253SOL     OW77199   1.085   4.931   9.405 -0.4140  0.0136  0.3566
25253SOL    HW177200   1.071   4.902   9.495 -0.5756 -1.5561 -0.1471
25253SOL    HW277201   1.179   4.952   9.400  0.5176 -3.6613 -0.0677
25254SOL     OW77202   6.976   5.680   7.025 -0.3541 -0.0191  0.1214
25254SOL    HW177203   6.971   5.642   7.113  2.6437  1.7163  1.1762
25254SOL    HW277204   6.928   5.763   7.032 -0.5438 -0.1110 -0.0595
25255SOL     OW77205   0.038   5.110   8.978 -0.5374  0.4799 -0.1844
25255SOL    HW177206   0.001   5.177   9.036 -1.2014 -0.7685  0.8801
25255SOL    HW277207  -0.019   5.034   8.990  0.4696 -0.4331 -1.0120
25256SOL     OW77208   6.417   7.276   6.325 -0.1525 -0.1421  0.2669
25256SOL    HW177209   6.436   7.192   6.284 -0.6397 -0.4391  0.6387
25256SOL    HW277210   6.479   7.337   6.284  0.7857 -0.8384  0.6113
25257SOL     OW77211   0.641   4.834   8.156 -0.1648 -0.1805 -0.0308
25257SOL    HW177212   0.558   4.788   8.167 -1.0470  1.2822 -0.3757
25257SOL    HW277213   0.701   4.787   8.214 -0.8249 -2.1735 -0.8530
25258SOL     OW77214   7.268   5.496   9.095 -0.3008 -0.5808 -0.3093
25258SOL    HW177215   7.280   5.507   9.001 -0.2733 -0.2517 -0.2705
25258SOL    HW277216   7.192   5.439   9.103  0.1069 -1.1606 -0.5348
25259SOL     OW77217   0.336   3.677   9.370  0.1918 -0.0853 -0.3135
25259SOL    HW177218   0.291   3.615   9.428  0.9320  0.7491  1.2137
25259SOL    HW277219   0.421   3.637   9.353  0.9998  0.8049  1.3467
25260SOL     OW77220   7.123   4.772  11.658  0.3347  0.1188 -0.0402
25260SOL    HW177221   7.119   4.721  11.577 -0.3590 -1.9140  1.1865
25260SOL    HW277222   7.039   4.818  11.661 -0.1630 -0.7719  0.0900
25261SOL     OW77223   6.679   7.130   9.198  0.2043 -0.2967 -0.4409
25261SOL    HW177224   6.722   7.068   9.140 -0.1095 -1.9188  0.9908
25261SOL    HW277225   6.727   7.124   9.280 -0.7525  0.2685  0.1856
25262SOL     OW77226   5.974   6.710   0.152  0.0620 -0.0597  0.4648
25262SOL    HW177227   5.977   6.640   0.087 -3.4891 -0.5457  0.6627
25262SOL    HW277228   5.969   6.790   0.100  0.1109 -0.2332  0.1890
25263SOL     OW77229   7.571   5.290   9.809 -0.0096 -0.5302  0.0182
25263SOL    HW177230   7.603   5.380   9.811  1.8495 -1.1008 -1.3590
25263SOL    HW277231   7.620   5.245   9.878  0.6755 -0.9489 -0.7277
25264SOL     OW77232   1.011   5.879   9.820  0.1056 -0.1623 -0.2524
25264SOL    HW177233   0.960   5.814   9.771  1.0171 -2.0753  1.2042
25264SOL    HW277234   0.949   5.915   9.883 -0.3617  0.3011 -0.9541
25265SOL     OW77235   7.690   6.890   9.421 -0.4523 -0.1724  0.0070
25265SOL    HW177236   7.725   6.897   9.510 -2.5048 -0.4802  0.8860
25265SOL    HW277237   7.646   6.805   9.419 -0.6147 -0.0853 -1.2625
25266SOL     OW77238   7.962   4.980  10.015 -0.0171  0.7676 -0.3994
25266SOL    HW177239   7.911   4.982  10.096  1.7450 -0.1448  0.8221
25266SOL    HW277240   7.960   4.889   9.988  0.1966  0.8926 -0.8442
25267SOL     OW77241   0.049   3.934   9.148  0.2919 -0.6813 -0.0558
25267SOL    HW177242   0.004   3.863   9.102  0.1337 -0.8048  0.2834
25267SOL    HW277243   0.125   3.954   9.094  0.7044 -1.5664  0.1743
25268SOL     OW77244   0.550   5.342  11.561  0.1272 -0.5686  0.7965
25268SOL    HW177245   0.520   5.302  11.642 -1.4633 -0.5697  0.2590
25268SOL    HW277246   0.529   5.278  11.493 -0.2280  0.1472  0.2028
25269SOL     OW77247   7.351   4.448   8.104 -0.3182  0.4381 -0.0838
25269SOL    HW177248   7.276   4.391   8.122 -0.3181  0.2671 -0.6011
25269SOL    HW277249   7.338   4.477   8.013  0.9756 -0.7213 -0.6617
25270SOL     OW77250   7.183   5.099  10.270 -0.0915 -0.3067 -0.3085
25270SOL    HW177251   7.229   5.080  10.189  0.1166 -0.5623 -0.1352
25270SOL    HW277252   7.158   5.191  10.263  1.5397  0.2112  0.1120
25271SOL     OW77253   6.954   6.639  11.507  0.4328  0.0623 -0.0054
25271SOL    HW177254   7.028   6.696  11.526 -0.8520  1.3448  1.3427
25271SOL    HW277255   6.930   6.600  11.591 -2.4128  2.2121  0.3355
25272SOL     OW77256   7.857   3.431   9.127  0.7389 -0.7979  0.0134
25272SOL    HW177257   7.854   3.477   9.043 -1.3108 -1.3102 -0.2472
25272SOL    HW277258   7.765   3.416   9.149  1.2815 -2.8498  1.1369
25273SOL     OW77259   7.195   3.261   9.122 -0.2047 -0.0262 -0.2223
25273SOL    HW177260   7.245   3.268   9.203  1.9064 -0.4735 -1.4073
25273SOL    HW277261   7.168   3.350   9.101 -1.7138 -0.0344  1.4758
25274SOL     OW77262   6.740   6.085  10.221  0.4739 -0.0753 -0.2089
25274SOL    HW177263   6.785   6.001  10.236  1.7823  0.6879  0.2849
25274SOL    HW277264   6.681   6.067  10.148 -1.6776 -2.2811  1.8786
25275SOL     OW77265   7.484   2.446  10.529 -0.1192 -1.1148  0.3014
25275SOL    HW177266   7.446   2.532  10.514  0.6433 -0.6434  0.9712
25275SOL    HW277267   7.453   2.421  10.616  1.8338 -0.2657  1.3219
25276SOL     OW77268   6.583   2.704  11.858  0.5307  0.3047 -0.1289
25276SOL    HW177269   6.523   2.779  11.864  1.5542  1.3010 -1.5880
25276SOL    HW277270   6.666   2.737  11.894  0.4986 -0.7510  0.9798
25277SOL     OW77271   7.838   4.937  10.239  0.5163  0.1754 -0.4309
25277SOL    HW177272   7.896   4.866  10.265  1.0460  0.8592  0.3023
25277SOL    HW277273   7.750   4.904  10.257  0.7997  0.0138  0.7041
25278SOL     OW77274   7.210   4.139   9.093 -0.1843 -0.2432  0.1040
25278SOL    HW177275   7.263   4.152   9.015  0.1035  0.6052  0.4259
25278SOL    HW277276   7.132   4.093   9.062 -0.3143  0.5451 -0.7672
25279SOL     OW77277   0.337   3.209   9.136  0.0103  0.5911  0.0595
25279SOL    HW177278   0.262   3.268   9.142 -0.2224  0.5017 -1.4600
25279SOL    HW277279   0.298   3.124   9.115  0.3454 -0.1351  2.1610
25280SOL     OW77280   1.783   2.784   9.790  0.0295 -0.1372 -0.1765
25280SOL    HW177281   1.839   2.842   9.737  0.7048  0.1520  0.8314
25280SOL    HW277282   1.840   2.754   9.860  0.0902 -3.1036 -1.3624
25281SOL     OW77283   7.149   2.659   9.558  0.1173  0.6321 -0.5388
25281SOL    HW177284   7.125   2.748   9.532 -0.6413  0.0751 -1.8342
25281SOL    HW277285   7.243   2.665   9.579  0.2238  1.5972 -1.2142
25282SOL     OW77286   6.958   3.105   9.067  0.2385 -0.0273  0.6148
25282SOL    HW177287   7.036   3.159   9.084  1.4569 -2.0756  2.0176
25282SOL    HW277288   6.982   3.051   8.992  0.7965 -1.6306  1.8745
25283SOL     OW77289   0.124   5.435   9.316  0.2867 -0.0729 -0.2173
25283SOL    HW177290   0.082   5.472   9.393  0.9198 -0.2146  0.2010
25283SOL    HW277291   0.183   5.504   9.285  1.5143 -0.7239  0.5999
25284SOL     OW77292   7.462   5.711  10.075  0.1348  0.2178 -0.3669
25284SOL    HW177293   7.494   5.626  10.105 -0.4164  0.0362 -0.2854
25284SOL    HW277294   7.498   5.720   9.986  0.0309 -0.1899 -0.4520
25285SOL     OW77295   7.606   3.783   8.728 -0.0181  0.3078 -0.3611
25285SOL    HW177296   7.646   3.844   8.790  0.4599 -1.9024  1.6620
25285SOL    HW277297   7.512   3.792   8.742  0.0890 -0.4339  1.0609
25286SOL     OW77298   6.715   5.576  12.456 -0.2832 -0.2341  0.0369
25286SOL    HW177299   6.775   5.632  12.407 -0.3161 -0.2323 -0.0020
25286SOL    HW277300   6.754   5.569  12.543  1.4228 -2.7588 -0.8153
25287SOL     OW77301   1.059   3.103   8.570 -0.4248 -0.2699  0.6004
25287SOL    HW177302   0.983   3.150   8.603 -0.8805 -0.6752  0.1630
25287SOL    HW277303   1.129   3.122   8.632 -0.4837  1.2930  0.2192
25288SOL     OW77304   7.574   3.194   9.523  0.3535 -0.5496  0.1249
25288SOL    HW177305   7.575   3.279   9.567  1.8951  0.2461 -1.3096
25288SOL    HW277306   7.652   3.149   9.558 -0.2490 -1.2447  0.6017
25289SOL     OW77307   7.986   3.572   9.336  0.1231 -0.0344  0.3190
25289SOL    HW177308   7.920   3.519   9.292 -1.2840  0.0305  2.2323
25289SOL    HW277309   7.953   3.662   9.329  0.9522  0.2535 -0.2320
25290SOL     OW77310   6.921   3.814  10.478  0.5264 -0.2553 -0.0022
25290SOL    HW177311   7.010   3.800  10.446  0.3343  1.0891 -1.2283
25290SOL    HW277312   6.919   3.906  10.503 -0.8501  0.0554 -1.1464
25291SOL     OW77313   0.177   3.941  11.349 -0.0890 -0.0071  0.0449
25291SOL    HW177314   0.133   3.921  11.267  0.2866  0.2555 -0.2244
25291SOL    HW277315   0.130   4.017  11.384  1.1186  1.2910 -1.0304
25292SOL     OW77316   7.065   3.045  10.168  0.1627  0.2448  0.4616
25292SOL    HW177317   7.022   2.960  10.179  0.6429  0.1316  1.6330
25292SOL    HW277318   7.042   3.072  10.080 -1.5468 -0.2411  0.7141
25293SOL     OW77319   7.373   3.401   8.316 -0.2884 -0.1105  0.3597
25293SOL    HW177320   7.450   3.457   8.311  0.3108 -0.8903  0.6713
25293SOL    HW277321   7.310   3.450   8.369 -1.3019  1.9874 -2.5095
25294SOL     OW77322   6.870   4.769  11.028  0.5530 -0.0546  0.5206
25294SOL    HW177323   6.895   4.682  11.057  1.3974 -0.3503 -1.0097
25294SOL    HW277324   6.776   4.763  11.011  0.4382 -0.4061  1.2350
25295SOL     OW77325   0.332   7.005   7.459  0.0524 -0.1440 -0.4762
25295SOL    HW177326   0.254   6.951   7.468  0.5051 -0.6583  0.5795
25295SOL    HW277327   0.401   6.956   7.504  0.4057  1.4475  0.8590
25296SOL     OW77328   0.972   4.310  10.837 -0.4666  0.1827 -0.1509
25296SOL    HW177329   0.993   4.392  10.793  0.2969  0.4833  0.7256
25296SOL    HW277330   0.949   4.336  10.927 -1.3766 -0.4628 -0.1868
25297SOL     OW77331   7.593   5.548   8.604  0.1588 -0.0077  0.0358
25297SOL    HW177332   7.661   5.590   8.657  0.1474 -2.3992  2.1464
25297SOL    HW277333   7.622   5.457   8.596 -2.8181 -1.1548  1.1121
25298SOL     OW77334   6.910   5.366   9.386 -0.3593  0.2429  0.5107
25298SOL    HW177335   6.982   5.311   9.355 -1.1868 -0.2688 -0.5623
25298SOL    HW277336   6.928   5.452   9.348 -0.9818 -0.2043 -0.8828
25299SOL     OW77337   0.166   6.173  11.210 -0.2075 -0.0364 -0.4028
25299SOL    HW177338   0.118   6.090  11.213  0.0180 -0.1823 -0.7687
25299SOL    HW277339   0.200   6.185  11.299  0.0432 -0.5068 -0.4340
25300SOL     OW77340   7.439   5.753  10.520 -0.1261 -0.1649 -0.4717
25300SOL    HW177341   7.392   5.776  10.599  0.4727 -0.1338 -0.1197
25300SOL    HW277342   7.423   5.659  10.508  0.1058 -0.2533 -0.0931
25301SOL     OW77343   6.592   5.629   9.130 -0.3080  0.2026 -0.3245
25301SOL    HW177344   6.587   5.536   9.150  0.6932  0.2645  0.2705
25301SOL    HW277345   6.660   5.636   9.063  0.5761  0.6389  0.6004
25302SOL     OW77346   0.388   4.870   9.557 -0.3043 -0.4666 -0.2138
25302SOL    HW177347   0.473   4.831   9.538 -0.0589  1.0344 -2.6693
25302SOL    HW277348   0.385   4.877   9.652  2.1252 -0.9843 -0.0450
25303SOL     OW77349   0.653   5.762   8.973  0.5915  0.0935  0.4864
25303SOL    HW177350   0.665   5.849   8.936 -0.7926 -0.8386 -2.5058
25303SOL    HW277351   0.741   5.725   8.974  0.8874  0.7104 -0.5980
25304SOL     OW77352   7.787   4.333  10.012  0.1359  0.4851  0.1435
25304SOL    HW177353   7.768   4.326   9.919 -0.5601  1.1610  0.2202
25304SOL    HW277354   7.750   4.418  10.037  1.3601  0.8544  0.7813
25305SOL     OW77355   7.041   4.793   8.782  0.5069 -0.5814 -0.1908
25305SOL    HW177356   7.044   4.875   8.831 -0.6916 -0.8200  0.3230
25305SOL    HW277357   6.991   4.734   8.837 -0.4315 -1.0263 -1.4658
25306SOL     OW77358   7.567   4.208   9.530  0.2025  0.1352  0.1375
25306SOL    HW177359   7.662   4.221   9.522  0.4845 -1.0754  1.1088
25306SOL    HW277360   7.558   4.142   9.598 -1.3220 -0.3812 -0.5222
25307SOL     OW77361   0.085   6.234  10.333 -0.6752  0.1481 -0.1538
25307SOL    HW177362   0.145   6.167  10.300 -0.5938  0.2020 -0.1191
25307SOL    HW277363   0.008   6.228  10.277  0.1759  1.4363 -1.5471
25308SOL     OW77364   7.748   6.797  10.422 -0.1385  0.5802 -0.0556
25308SOL    HW177365   7.652   6.795  10.425 -0.1484 -1.8154  0.0319
25308SOL    HW277366   7.770   6.770  10.333  0.4061 -0.7644  0.4430
25309SOL     OW77367   7.606   3.957   8.197  0.3666 -0.2157 -0.4815
25309SOL    HW177368   7.600   3.946   8.102 -0.9124  1.1150 -0.5952
25309SOL    HW277369   7.520   3.931   8.230  0.3660  0.5313  0.1546
25310SOL     OW77370   7.674   6.415   9.570 -0.0948  0.8237  0.0352
25310SOL    HW177371   7.695   6.489   9.513  1.3149  0.5181  0.1374
25310SOL    HW277372   7.665   6.341   9.510 -0.6729  0.9036  0.0172
25311SOL     OW77373   0.477   4.598   8.709 -0.5968 -0.1252  0.3566
25311SOL    HW177374   0.439   4.625   8.626  0.5626  0.8235  0.1032
25311SOL    HW277375   0.464   4.673   8.767  0.4769  0.0574  0.3836
25312SOL     OW77376   0.460   5.098  10.167  0.3821  0.4724  0.5803
25312SOL    HW177377   0.441   5.185  10.201 -0.3794 -0.4630  2.7385
25312SOL    HW277378   0.530   5.111  10.103 -2.5526  3.2227 -2.4399
25313SOL     OW77379   7.615   4.776  10.325 -0.3082  0.1985 -0.1972
25313SOL    HW177380   7.642   4.766  10.416 -0.7958 -0.8365 -0.1592
25313SOL    HW277381   7.619   4.688  10.289 -1.0098  0.4571 -0.9274
25314SOL     OW77382   7.345   3.886   9.465 -0.3710 -0.7465 -0.0875
25314SOL    HW177383   7.253   3.894   9.441 -1.0437  1.5009  2.6526
25314SOL    HW277384   7.392   3.937   9.400 -1.1116 -1.3242 -1.0997
25315SOL     OW77385   7.269   3.056  10.572 -0.0768  0.3495 -0.8561
25315SOL    HW177386   7.249   3.123  10.507  2.4501  1.1872 -0.8554
25315SOL    HW277387   7.304   3.104  10.646  1.2543 -0.8947 -0.6321
25316SOL     OW77388   1.246   6.751  11.003 -0.1016  0.7867  0.2761
25316SOL    HW177389   1.215   6.821  10.947  0.0862 -0.8444 -2.0072
25316SOL    HW277390   1.286   6.688  10.943  1.2235 -0.5065  2.3846
25317SOL     OW77391   0.360   3.825   9.777 -0.1188 -0.0701 -0.5770
25317SOL    HW177392   0.367   3.789   9.866 -0.2956 -1.1262 -0.9769
25317SOL    HW277393   0.270   3.806   9.751  0.3575 -1.1772 -1.5444
25318SOL     OW77394   6.872   4.922   9.859 -0.1691  0.0054  0.2591
25318SOL    HW177395   6.874   5.010   9.896  1.8743  0.1561 -0.0826
25318SOL    HW277396   6.818   4.929   9.780  0.0321  0.9599  0.2033
25319SOL     OW77397   0.619   6.688  10.292  1.4263 -0.5032  0.1512
25319SOL    HW177398   0.529   6.668  10.317  0.9653  1.5257  0.2793
25319SOL    HW277399   0.662   6.603  10.287 -0.2919 -1.4592  0.8482
25320SOL     OW77400   7.035   3.997  10.102  0.4090 -0.0877  0.3322
25320SOL    HW177401   7.010   3.967  10.189  1.5974  1.0155  1.0805
25320SOL    HW277402   6.962   3.971  10.046  1.0114 -3.8228  0.9692
25321SOL     OW77403   6.666   5.442   9.534 -0.3497  0.4859  0.1278
25321SOL    HW177404   6.739   5.436   9.473  2.5437 -0.9153  3.4094
25321SOL    HW277405   6.665   5.534   9.561  1.0454  0.2964  0.9139
25322SOL     OW77406   7.635   4.202  10.331 -0.0731  0.2477 -0.1106
25322SOL    HW177407   7.662   4.157  10.410 -1.7183 -0.4038  0.1297
25322SOL    HW277408   7.632   4.134  10.264 -1.5730  0.1556  0.0083
25323SOL     OW77409   5.535   3.688   0.695 -0.1864  0.1383  0.0761
25323SOL    HW177410   5.560   3.769   0.650  0.8221 -0.5508 -0.6436
25323SOL    HW277411   5.462   3.653   0.644 -0.3764  0.3844  0.1726
25324SOL     OW77412   0.020   5.609   1.308  0.0405 -0.7330  0.3919
25324SOL    HW177413  -0.029   5.690   1.318  0.8930 -0.2097  0.4467
25324SOL    HW277414   0.111   5.637   1.300  0.1447 -1.5193 -1.8407
25325SOL     OW77415   6.994   6.267  12.386 -0.7433  0.5518  0.0877
25325SOL    HW177416   7.021   6.261  12.294 -2.2904 -0.3798 -0.3437
25325SOL    HW277417   6.961   6.357  12.395  0.1700  0.9141 -0.0206
25326SOL     OW77418   5.565   5.876   0.271 -0.2961 -0.1032 -0.0168
25326SOL    HW177419   5.609   5.941   0.217 -0.4470 -0.6429 -0.7936
25326SOL    HW277420   5.570   5.795   0.222 -0.2805 -0.6512  0.8616
25327SOL     OW77421   0.161   4.349   9.846  0.5155 -0.1695 -0.4594
25327SOL    HW177422   0.247   4.332   9.809  0.0921 -2.2292 -0.6061
25327SOL    HW277423   0.113   4.268   9.834 -0.5455 -0.0369  2.1362
25328SOL     OW77424   6.724   5.307  11.354  0.1948  0.0112  0.3365
25328SOL    HW177425   6.780   5.229  11.355  0.9230  0.5272  1.5227
25328SOL    HW277426   6.697   5.316  11.263 -0.2364 -1.8592  0.2208
25329SOL     OW77427   6.733   4.676  12.192  0.1669 -0.0054 -0.9287
25329SOL    HW177428   6.663   4.614  12.207  0.3466  0.4486  2.6528
25329SOL    HW277429   6.688   4.757  12.166 -0.3234 -0.6146 -2.0411
25330SOL     OW77430   5.660   3.606  11.054  0.4036  0.0415 -0.2366
25330SOL    HW177431   5.677   3.699  11.069  0.3208 -0.1098  0.9414
25330SOL    HW277432   5.592   3.604  10.987  0.8899  0.8052 -0.7696
25331SOL     OW77433   1.364   5.262  11.510  0.3431  0.0012 -0.3589
25331SOL    HW177434   1.431   5.292  11.572  0.9809  1.1360 -1.5502
25331SOL    HW277435   1.361   5.167  11.522  0.2685  0.1921  1.5684
25332SOL     OW77436   0.637   6.718  11.914  0.1038 -0.5762  0.0588
25332SOL    HW177437   0.659   6.640  11.863  0.0351 -1.5761  1.4902
25332SOL    HW277438   0.702   6.719  11.985 -1.4146 -0.7913  1.5169
25333SOL     OW77439   0.483   3.979  10.491  0.1842  0.0645  0.5462
25333SOL    HW177440   0.485   3.987  10.586 -0.8739 -0.2600  0.6107
25333SOL    HW277441   0.431   3.900  10.474  1.7716 -0.8433 -0.2693
25334SOL     OW77442   6.192   5.344  11.725 -0.2219 -0.0673  0.5862
25334SOL    HW177443   6.253   5.416  11.743 -1.4778  1.1066  0.4083
25334SOL    HW277444   6.148   5.371  11.644  1.1350 -2.3606 -1.0366
25335SOL     OW77445   6.167   4.176  11.964 -0.0856  0.2171  0.1072
25335SOL    HW177446   6.237   4.116  11.990  0.1819 -0.0311 -1.1236
25335SOL    HW277447   6.212   4.247  11.919 -0.4785  0.9574  0.8644
25336SOL     OW77448   1.055   7.024   0.010 -0.0265  0.1347  0.3123
25336SOL    HW177449   1.133   7.076  -0.010 -0.4811  0.4156 -0.8134
25336SOL    HW277450   1.004   7.025  -0.071 -0.5331 -1.2294  0.5940
25337SOL     OW77451   7.073   3.536  11.424  0.4433 -0.0533 -0.2738
25337SOL    HW177452   7.074   3.504  11.514  0.3520  0.5398 -0.0554
25337SOL    HW277453   6.991   3.583  11.415 -0.2886 -1.4220 -1.1620
25338SOL     OW77454   6.384   6.898   0.388  0.7019  0.4464  0.7398
25338SOL    HW177455   6.369   6.885   0.481  0.2378 -0.0978  0.5948
25338SOL    HW277456   6.297   6.898   0.349  0.9025  0.4900  0.2830
25339SOL     OW77457   6.581   4.735   0.348  0.2103  0.1281 -0.4210
25339SOL    HW177458   6.523   4.772   0.282 -1.4146  1.2920  1.5449
25339SOL    HW277459   6.581   4.799   0.420  2.5864 -0.6459  0.4026
25340SOL     OW77460   7.732   5.242  11.598  0.2677  0.5005 -0.4153
25340SOL    HW177461   7.767   5.328  11.577 -0.1296  0.3231 -1.9251
25340SOL    HW277462   7.801   5.200  11.650  1.1254  1.1680 -0.9827
25341SOL     OW77463   0.511   4.373  10.336  0.4136 -0.0437 -0.1398
25341SOL    HW177464   0.474   4.285  10.341  0.6092 -0.1363 -0.3091
25341SOL    HW277465   0.579   4.374  10.404 -0.3619  0.3516  0.6458
25342SOL     OW77466   5.427   4.469  11.676 -0.0917 -0.9520  0.2339
25342SOL    HW177467   5.348   4.420  11.652  0.9723 -1.9603 -1.4260
25342SOL    HW277468   5.409   4.558  11.646 -0.7597 -1.0701  0.2617
25343SOL     OW77469   0.193   4.852  11.801  0.0587  0.7278 -0.2393
25343SOL    HW177470   0.166   4.761  11.809  1.3215  0.2360 -1.2121
25343SOL    HW277471   0.231   4.873  11.886 -0.1439  0.3172 -0.0435
25344SOL     OW77472   1.880   5.082  10.860  0.6917  0.3556 -0.5102
25344SOL    HW177473   1.869   5.058  10.768 -2.2854  0.8005 -0.3732
25344SOL    HW277474   1.898   4.999  10.905  1.4474  0.0340 -1.3871
25345SOL     OW77475   6.601   3.941   1.169  0.2362 -0.2284 -0.0665
25345SOL    HW177476   6.606   3.849   1.195 -2.4756 -0.7930 -1.1541
25345SOL    HW277477   6.660   3.948   1.094  2.5815 -0.3266  1.6645
25346SOL     OW77478   0.063   5.553  11.953  0.0510  0.1685  0.5171
25346SOL    HW177479   0.027   5.624  12.006 -0.9982 -0.8960  1.2737
25346SOL    HW277480   0.099   5.491  12.016 -0.6682 -0.8286 -0.0298
25347SOL     OW77481   6.594   5.315  11.065 -0.2678  0.3890 -0.1420
25347SOL    HW177482   6.612   5.228  11.030 -0.0049  0.4853 -0.2483
25347SOL    HW277483   6.521   5.348  11.012  1.0834  1.1368 -1.6232
25348SOL     OW77484   6.519   5.993  11.669  0.4202  0.2481  0.5063
25348SOL    HW177485   6.438   5.947  11.691  0.5926 -1.9289 -2.7068
25348SOL    HW277486   6.585   5.958  11.729  0.2802 -3.0384 -1.0492
25349SOL     OW77487   7.419   2.532   0.458 -0.1698  0.1704 -1.0064
25349SOL    HW177488   7.358   2.469   0.422  0.0159 -1.8516  1.8717
25349SOL    HW277489   7.367   2.585   0.518  0.3605  0.3820 -0.7240
25350SOL     OW77490   0.542   4.765   1.782 -0.0089  0.3626 -0.5542
25350SOL    HW177491   0.589   4.778   1.700  1.9297  1.2071  0.6284
25350SOL    HW277492   0.470   4.706   1.759  1.3543 -0.6347 -2.5494
25351SOL     OW77493   7.506   3.487   0.181  0.0912 -0.0093  0.3456
25351SOL    HW177494   7.422   3.493   0.137  0.2965 -1.0190 -0.2054
25351SOL    HW277495   7.486   3.446   0.266 -0.1070  0.6935  0.6465
25352SOL     OW77496   6.653   5.941  11.438 -0.0982  0.1604 -0.7609
25352SOL    HW177497   6.725   5.892  11.479 -0.4310 -0.9509 -1.4482
25352SOL    HW277498   6.586   5.947  11.506  0.9203  1.9207  0.1552
25353SOL     OW77499   7.592   5.424  11.780  0.5484 -0.0599  0.5172
25353SOL    HW177500   7.643   5.376  11.715 -1.6250 -0.4371 -1.0154
25353SOL    HW277501   7.611   5.381  11.863  2.0562 -0.6891 -0.1322
25354SOL     OW77502   3.890   4.056  12.276 -0.0849  0.2280  0.3430
25354SOL    HW177503   3.883   4.148  12.251  0.3349 -0.2067 -1.5509
25354SOL    HW277504   3.813   4.039  12.330  0.4741  1.9741  1.7792
25355SOL     OW77505   7.878   4.405  12.365  0.3231 -0.3631 -0.2572
25355SOL    HW177506   7.878   4.433  12.274  0.2051 -1.9294 -0.7648
25355SOL    HW277507   7.885   4.310  12.361  4.6668 -0.3408  1.4656
25356SOL     OW77508   7.411   5.515  11.344 -0.3872 -0.1296 -0.7603
25356SOL    HW177509   7.412   5.529  11.250  0.8505 -2.3815 -1.1583
25356SOL    HW277510   7.463   5.587  11.380  0.3021 -0.0105 -1.9597
25357SOL     OW77511   7.471   6.973  11.804 -0.0652 -0.4643 -0.1063
25357SOL    HW177512   7.460   6.880  11.826  0.0554 -0.8858 -1.7020
25357SOL    HW277513   7.430   7.020  11.876  0.3914 -1.7421  1.0342
25358SOL     OW77514   6.636   3.342  11.278  0.1479 -0.4344  0.1393
25358SOL    HW177515   6.688   3.418  11.253  0.7420 -1.1868 -1.0204
25358SOL    HW277516   6.694   3.267  11.260 -0.4956 -1.1655  1.0535
25359SOL     OW77517   7.552   4.073  11.767 -0.1122 -0.5084 -0.0655
25359SOL    HW177518   7.526   3.989  11.803  1.2372 -1.0180 -0.2279
25359SOL    HW277519   7.644   4.063  11.745 -0.2673  0.5665 -1.3975
25360SOL     OW77520   6.967   6.080  10.492  0.6687 -0.9751  0.2687
25360SOL    HW177521   7.019   6.058  10.415  0.1114  0.0988 -0.4490
25360SOL    HW277522   6.915   6.157  10.465 -0.8085 -1.6102  1.1409
25361SOL     OW77523   4.302   5.139   0.543 -0.2587 -0.2979  0.0149
25361SOL    HW177524   4.270   5.230   0.538  0.7238  0.0156 -1.2924
25361SOL    HW277525   4.223   5.087   0.554 -0.8794  0.6947  0.4336
25362SOL     OW77526   7.435   5.122  12.317 -0.2852 -0.0668 -0.1196
25362SOL    HW177527   7.394   5.065  12.382  1.5708 -1.4000 -0.0140
25362SOL    HW277528   7.377   5.117  12.240 -0.6446 -1.4079  0.2056
25363SOL     OW77529   0.042   5.699  11.480  0.2228  0.3182  0.1778
25363SOL    HW177530   0.102   5.628  11.506  1.4699  1.2870  0.0455
25363SOL    HW277531   0.010   5.673  11.394  1.5230  0.4193 -0.3549
25364SOL     OW77532   7.268   4.781  12.318  0.0326  0.0726  0.3603
25364SOL    HW177533   7.305   4.843  12.381  0.6314  1.4084 -1.2406
25364SOL    HW277534   7.295   4.814  12.233 -0.4049 -1.9149 -0.6076
25365SOL     OW77535   7.675   4.836   9.786 -0.1585  0.3094  0.2522
25365SOL    HW177536   7.652   4.919   9.743  0.3036  0.7507  0.8485
25365SOL    HW277537   7.594   4.787   9.787  0.2248 -0.6830 -3.1920
25366SOL     OW77538   4.440   4.357   0.642 -0.0875  0.1342  0.3866
25366SOL    HW177539   4.350   4.371   0.614 -0.2757 -0.8006  0.4903
25366SOL    HW277540   4.491   4.424   0.595 -0.6844 -0.0277 -0.5069
25367SOL     OW77541   5.946   4.640   1.074  0.1808  0.1058 -0.2032
25367SOL    HW177542   5.909   4.610   0.991  0.3039  0.9000 -0.5477
25367SOL    HW277543   6.039   4.617   1.069 -0.2320 -2.0474  0.7337
25368SOL     OW77544   6.111   5.026   7.524  0.3384 -0.0333 -0.4144
25368SOL    HW177545   6.066   5.008   7.606  1.2696 -0.1637  0.0884
25368SOL    HW277546   6.138   4.940   7.492  1.3525  0.1243 -0.0331
25369SOL     OW77547   0.263   4.570  10.773 -0.0542 -0.0582 -0.3326
25369SOL    HW177548   0.293   4.592  10.684  1.9057 -0.5618  0.1604
25369SOL    HW277549   0.327   4.507  10.805 -1.3609 -0.7311  1.0520
25370SOL     OW77550   6.686   4.347  12.377 -0.0122  0.1335 -0.0487
25370SOL    HW177551   6.747   4.372  12.307  0.1468 -3.2822 -1.2820
25370SOL    HW277552   6.603   4.330  12.332  0.2640 -2.7897  0.3749
25371SOL     OW77553   7.893   6.276  12.026 -0.4100 -0.5991 -0.1038
25371SOL    HW177554   7.907   6.351  12.083 -0.3924  0.0432 -0.9319
25371SOL    HW277555   7.804   6.288  11.991 -1.1124 -1.8986  1.0883
25372SOL     OW77556   7.582   6.154   0.786  0.4698 -0.2201  0.4015
25372SOL    HW177557   7.499   6.117   0.816  0.0386 -0.4713 -1.0017
25372SOL    HW277558   7.635   6.165   0.865 -1.2140  0.7589  1.4390
25373SOL     OW77559   0.832   5.625   0.626  0.1146 -0.1371 -0.3691
25373SOL    HW177560   0.788   5.649   0.707  1.7520  3.1467 -0.3105
25373SOL    HW277561   0.913   5.583   0.654  0.1120 -0.1219 -0.3389
25374SOL     OW77562   6.894   3.958   1.852 -0.0549 -0.0884  0.0177
25374SOL    HW177563   6.908   4.037   1.799 -0.1939 -0.2658 -0.2893
25374SOL    HW277564   6.810   3.923   1.821  0.1504 -0.5207 -0.0608
25375SOL     OW77565   6.653   7.802   0.016 -0.4064 -0.3095  0.3260
25375SOL    HW177566   6.674   7.882   0.064 -1.2498  0.5325 -0.6557
25375SOL    HW277567   6.576   7.767   0.060  1.4745 -2.1410  2.4717
25376SOL     OW77568   6.482   6.856   1.291  0.4198  0.3315 -0.1927
25376SOL    HW177569   6.524   6.858   1.377  0.2969 -0.0494 -0.1233
25376SOL    HW277570   6.390   6.839   1.309  0.4751 -0.2202 -0.4264
25377SOL     OW77571   5.388   0.965   0.945 -0.6384  0.1966  0.1022
25377SOL    HW177572   5.376   0.981   0.851  1.1799  0.4113 -0.1246
25377SOL    HW277573   5.329   0.892   0.964  0.3664 -1.1605 -1.6571
25378SOL     OW77574   6.997   4.877   0.536 -0.2214 -0.2601  0.1664
25378SOL    HW177575   6.949   4.822   0.474  0.0217  0.3471 -0.5938
25378SOL    HW277576   6.996   4.964   0.495  1.1447 -0.1415  0.3304
25379SOL     OW77577   7.188   7.140   0.409  0.8273 -0.2574  0.5386
25379SOL    HW177578   7.132   7.204   0.453 -1.3587 -2.0862  0.5960
25379SOL    HW277579   7.152   7.133   0.320  0.8237 -1.5896  0.6207
25380SOL     OW77580   7.196   5.537   0.989 -0.1408 -0.0216  0.3664
25380SOL    HW177581   7.253   5.568   0.918 -0.9595 -0.5777 -0.5673
25380SOL    HW277582   7.109   5.536   0.950 -0.9905  1.7437  2.0423
25381SOL     OW77583   7.686   4.484   2.503  0.2464  0.0001 -0.6175
25381SOL    HW177584   7.617   4.479   2.569 -0.5875 -0.4581 -1.4880
25381SOL    HW277585   7.645   4.530   2.429  0.9536 -0.0616 -1.0573
25382SOL     OW77586   6.255   6.036   4.291  0.0714  0.0674  0.5902
25382SOL    HW177587   6.165   6.049   4.262 -0.4617 -1.7680  1.2916
25382SOL    HW277588   6.291   6.125   4.295 -1.0249  0.6945 -1.7062
25383SOL     OW77589   7.713   6.387   0.712  0.2433  0.2213 -0.2566
25383SOL    HW177590   7.630   6.340   0.707  0.0144  0.5885 -0.0283
25383SOL    HW277591   7.780   6.321   0.694 -0.1806  0.3104 -2.4036
25384SOL     OW77592   0.051   7.838   1.115  0.5704 -0.8238 -0.1313
25384SOL    HW177593   0.048   7.928   1.083  0.0444 -0.9113 -0.3464
25384SOL    HW277594  -0.012   7.836   1.187  0.8842 -0.9179  0.1400
25385SOL     OW77595   0.066   6.614   1.768  0.0593 -0.6393  0.6215
25385SOL    HW177596   0.125   6.539   1.776 -1.2289 -2.1548 -2.6140
25385SOL    HW277597  -0.021   6.578   1.786 -0.6543 -0.1515 -1.5656
25386SOL     OW77598   0.388   7.089   0.635  0.4501  0.4105 -0.5197
25386SOL    HW177599   0.424   7.011   0.594  1.4873  0.4967  0.1956
25386SOL    HW277600   0.386   7.068   0.728 -0.7681  0.6531 -0.4760
25387SOL     OW77601   0.605   0.659  12.303 -0.2817  0.1802  0.6320
25387SOL    HW177602   0.577   0.699  12.386  1.0256 -1.0178  1.6911
25387SOL    HW277603   0.666   0.590  12.329  0.9187  0.4088 -1.3862
25388SOL     OW77604   6.791   1.151   1.568 -0.0596  0.2806  0.2613
25388SOL    HW177605   6.843   1.090   1.621  0.3810  0.4507  0.0371
25388SOL    HW277606   6.705   1.152   1.609 -0.4252 -1.3518 -0.3912
25389SOL     OW77607   0.258   6.935   1.394  0.0588  0.0741  0.5540
25389SOL    HW177608   0.202   6.909   1.467  1.3839 -1.4592  1.0737
25389SOL    HW277609   0.346   6.934   1.430  0.5199  1.8458 -0.4102
25390SOL     OW77610   1.441   7.762   0.230 -0.1832 -0.2572 -0.2480
25390SOL    HW177611   1.375   7.694   0.216 -1.4556  1.1728 -1.5575
25390SOL    HW277612   1.462   7.793   0.142  0.2062  1.1926  0.3323
25391SOL     OW77613   1.305   5.196   0.037 -0.4409 -0.1532  0.0051
25391SOL    HW177614   1.238   5.262   0.019  0.1015  0.4573  0.1882
25391SOL    HW277615   1.256   5.117   0.056 -1.1823  0.6351  1.5911
25392SOL     OW77616   0.206   4.508   0.533 -0.4795  0.4116 -0.2339
25392SOL    HW177617   0.209   4.445   0.461  0.1184 -0.8668  0.8637
25392SOL    HW277618   0.143   4.575   0.505 -0.1255  0.0477 -2.0014
25393SOL     OW77619   7.091   7.157   0.807 -0.0748  0.4982 -0.1881
25393SOL    HW177620   7.035   7.149   0.730 -3.2208 -0.4673  1.9812
25393SOL    HW277621   7.089   7.250   0.829 -0.6202  0.5163 -0.2980
25394SOL     OW77622   0.681   6.062   0.657  0.1790  0.3674  0.5002
25394SOL    HW177623   0.767   6.063   0.615 -0.5906  1.4154 -1.1530
25394SOL    HW277624   0.692   6.006   0.734  1.9852 -0.6018 -0.4088
25395SOL     OW77625   6.325   0.449   2.512  0.4455 -1.1504  0.0839
25395SOL    HW177626   6.355   0.435   2.422 -0.4466 -0.7697 -0.2815
25395SOL    HW277627   6.252   0.509   2.504  0.5648 -0.8528  1.1049
25396SOL     OW77628   7.759   6.183   0.994  0.4312  0.3526 -0.1715
25396SOL    HW177629   7.767   6.119   1.064  0.1970  0.0965 -0.3802
25396SOL    HW277630   7.840   6.235   1.000  1.0655 -0.5570 -0.5963
25397SOL     OW77631   6.140   7.540   2.257  0.3007  0.1188 -0.4196
25397SOL    HW177632   6.170   7.454   2.288 -0.2519  0.0665 -0.0295
25397SOL    HW277633   6.045   7.536   2.261  0.1928  0.0470 -2.3256
25398SOL     OW77634   0.182   6.254   0.912 -0.1778 -0.4273 -0.4797
25398SOL    HW177635   0.171   6.169   0.869 -0.9223 -0.2455 -0.6729
25398SOL    HW277636   0.093   6.281   0.934  0.1863 -0.5584  1.3117
25399SOL     OW77637   0.979   7.096   1.006  0.2135  0.2665  0.2747
25399SOL    HW177638   0.947   7.164   0.946 -1.8815 -0.6083  0.3437
25399SOL    HW277639   1.058   7.062   0.963 -0.5071  0.5542 -1.3504
25400SOL     OW77640   7.792   4.909   0.338  0.0953  0.4752  0.4064
25400SOL    HW177641   7.846   4.832   0.319 -1.8403 -1.1113  0.9176
25400SOL    HW277642   7.799   4.920   0.433 -0.7484  0.0059  0.5346
25401SOL     OW77643   0.985   5.865  11.238 -0.1501  0.2697 -0.0825
25401SOL    HW177644   1.067   5.907  11.265 -0.6003  0.9045  0.2977
25401SOL    HW277645   0.964   5.805  11.309  0.2563 -0.2991 -0.4247
25402SOL     OW77646   0.914   4.961   1.171  0.3120 -0.1332 -0.5150
25402SOL    HW177647   0.921   5.005   1.256 -1.0930  1.8199 -1.3344
25402SOL    HW277648   1.005   4.946   1.145  0.7929  0.5229  0.6904
25403SOL     OW77649   1.145   5.349  11.694 -0.2418 -0.0741  0.0001
25403SOL    HW177650   1.156   5.396  11.777 -0.3486 -0.4643  0.2342
25403SOL    HW277651   1.233   5.316  11.674  0.3044  1.9074 -1.1911
25404SOL     OW77652   6.321   5.407   1.695  0.1722  0.3214 -0.2136
25404SOL    HW177653   6.360   5.334   1.744  0.5450 -0.1171 -1.1410
25404SOL    HW277654   6.232   5.413   1.729 -0.3626 -1.5619 -1.1247
25405SOL     OW77655   1.460   6.258   0.735  0.0981  0.5311 -0.2310
25405SOL    HW177656   1.371   6.287   0.718  0.5214  1.0989 -1.5554
25405SOL    HW277657   1.476   6.283   0.826 -1.5153 -0.7477  0.4580
25406SOL     OW77658   7.483   6.952   1.176  0.0597  0.0378 -0.1977
25406SOL    HW177659   7.534   7.024   1.213  0.1087  0.5520 -1.2344
25406SOL    HW277660   7.396   6.989   1.163  0.3428  0.2658 -1.6917
25407SOL     OW77661   0.410   5.354   0.920  0.3573  0.0238  0.0324
25407SOL    HW177662   0.359   5.386   0.995 -3.3570 -1.0638 -1.7630
25407SOL    HW277663   0.395   5.419   0.851  0.2581 -1.0117 -0.9589
25408SOL     OW77664   6.720   5.877   1.550 -0.1301  0.8988 -0.0761
25408SOL    HW177665   6.807   5.839   1.564 -1.2109 -2.2332 -0.9836
25408SOL    HW277666   6.672   5.857   1.630 -0.7458  0.1442 -0.6112
25409SOL     OW77667   0.169   0.589  12.350  0.4723 -0.1082  0.1948
25409SOL    HW177668   0.126   0.670  12.322  1.3183  0.8277  1.4754
25409SOL    HW277669   0.136   0.574  12.439  0.8150 -0.8073  0.2116
25410SOL     OW77670   6.280   6.558   0.919 -0.0549  0.1047 -0.2570
25410SOL    HW177671   6.192   6.521   0.909 -0.2851  0.3647  0.7710
25410SOL    HW277672   6.336   6.483   0.938 -0.5141  0.2230  1.7844
25411SOL     OW77673   7.510   0.060   1.212  0.3235  0.2260  0.4245
25411SOL    HW177674   7.482  -0.031   1.219  0.7950 -0.1310 -1.6158
25411SOL    HW277675   7.456   0.107   1.276 -1.2892 -1.1823  0.1658
25412SOL     OW77676   7.725   6.119   1.441 -0.4888 -0.3111  0.3008
25412SOL    HW177677   7.773   6.107   1.523  1.8343 -0.1990 -0.9493
25412SOL    HW277678   7.633   6.121   1.467  0.2169  1.8632  3.1704
25413SOL     OW77679   7.401   5.279   2.426  0.7663  0.2862  0.2021
25413SOL    HW177680   7.329   5.264   2.365 -0.5196  0.1985  1.6931
25413SOL    HW277681   7.415   5.373   2.424 -0.3670  0.4815  0.9604
25414SOL     OW77682   6.473   0.059   1.361  0.1750  0.0645 -0.1020
25414SOL    HW177683   6.438  -0.030   1.363  0.4326 -0.0219  0.6736
25414SOL    HW277684   6.420   0.104   1.294 -0.9894 -0.2372  0.5842
25415SOL     OW77685   0.575   4.846   0.797  0.4755 -0.0655  0.5462
25415SOL    HW177686   0.624   4.866   0.877  0.8370  2.8202 -0.2573
25415SOL    HW277687   0.494   4.897   0.805  0.0893 -0.4925 -0.4961
25416SOL     OW77688   0.152   6.020   0.781 -0.0113 -0.2796 -0.1613
25416SOL    HW177689   0.206   5.954   0.737 -0.7294 -1.6697  0.9654
25416SOL    HW277690   0.100   5.971   0.844 -0.0281  1.4639  1.2820
25417SOL     OW77691   7.738   6.464   1.513 -0.6791  0.0099 -0.4185
25417SOL    HW177692   7.713   6.549   1.549 -0.9174 -0.5306  0.7686
25417SOL    HW277693   7.664   6.438   1.459 -1.8044 -0.5917  1.3216
25418SOL     OW77694   0.278   7.556   1.511 -0.0080 -0.8270 -0.1826
25418SOL    HW177695   0.339   7.612   1.560 -0.2089 -0.6676 -0.1111
25418SOL    HW277696   0.247   7.492   1.574 -0.5200 -0.4176 -0.0115
25419SOL     OW77697   0.472   6.297   0.054  0.1668  0.3780  0.2927
25419SOL    HW177698   0.549   6.303   0.110  1.9660 -3.7316 -1.3841
25419SOL    HW277699   0.420   6.226   0.092 -1.0370  0.7564 -0.5859
25420SOL     OW77700   0.617   6.755   1.293  0.1501  0.1858 -0.2250
25420SOL    HW177701   0.556   6.763   1.219 -0.4636  0.1553  0.2752
25420SOL    HW277702   0.576   6.804   1.364  0.0092 -1.0368  0.5580
25421SOL     OW77703   6.440   0.703   1.775  0.0267 -0.6693  0.0560
25421SOL    HW177704   6.379   0.765   1.816  0.7905 -0.4001  0.8288
25421SOL    HW277705   6.463   0.744   1.692  1.7254  0.8947  1.2290
25422SOL     OW77706   1.079   6.669  11.540 -0.2665 -0.5755 -0.8830
25422SOL    HW177707   1.122   6.669  11.454  0.2796 -0.9765 -0.6102
25422SOL    HW277708   1.067   6.577  11.561 -1.1641 -0.4757 -0.8964
25423SOL     OW77709   6.724   6.118   0.826 -0.2021 -0.4631 -0.2168
25423SOL    HW177710   6.652   6.168   0.865  0.4701 -1.2165  2.1287
25423SOL    HW277711   6.719   6.032   0.868 -0.0499 -1.7260 -2.6359
25424SOL     OW77712   7.685   6.501  12.309 -0.2153  0.0026 -0.1067
25424SOL    HW177713   7.772   6.506  12.269 -0.3395  1.4801 -0.2207
25424SOL    HW277714   7.628   6.473  12.237  0.0003  0.0443 -0.2969
25425SOL     OW77715   7.042   7.408   2.844  0.0170  0.0842 -0.3822
25425SOL    HW177716   7.010   7.385   2.756  0.6615  1.7979 -1.1117
25425SOL    HW277717   6.983   7.363   2.904  0.2957 -2.1369 -1.6702
25426SOL     OW77718   1.190   6.835   1.768  0.0977 -0.1651  0.4268
25426SOL    HW177719   1.141   6.753   1.774  1.7241 -1.1667  0.4059
25426SOL    HW277720   1.265   6.815   1.713  0.6452  1.2941  0.5956
25427SOL     OW77721   0.839   6.978  12.136 -0.4779 -0.4945 -0.5174
25427SOL    HW177722   0.803   7.065  12.155  0.7890 -0.5777  3.0060
25427SOL    HW277723   0.933   6.990  12.136 -0.2868 -1.8090 -0.2104
25428SOL     OW77724   7.783   6.642   0.596 -0.4328  0.1099 -0.3651
25428SOL    HW177725   7.780   6.577   0.666 -0.8376  1.3369  0.8044
25428SOL    HW277726   7.847   6.707   0.627 -1.1534  1.0407 -0.7830
25429SOL     OW77727   5.642   5.331   0.145  0.1478 -0.0164 -0.1758
25429SOL    HW177728   5.549   5.333   0.168  0.1208 -0.6459 -0.2133
25429SOL    HW277729   5.648   5.270   0.071  0.8486 -1.6210  1.1278
25430SOL     OW77730   7.539   6.001   1.155 -0.1163  1.1329  0.3370
25430SOL    HW177731   7.480   6.011   1.080  0.3141  1.1522 -0.0095
25430SOL    HW277732   7.485   5.963   1.224 -0.6083  1.4440  0.1285
25431SOL     OW77733   7.863   5.717   2.927  0.2855 -0.4094  0.0602
25431SOL    HW177734   7.912   5.791   2.892 -0.3623  0.4027  0.8210
25431SOL    HW277735   7.825   5.749   3.009 -0.8361 -1.2639 -0.0861
25432SOL     OW77736   6.312   6.693   2.325  0.2997 -0.1192 -0.1008
25432SOL    HW177737   6.372   6.621   2.303 -1.8379 -1.3168 -2.5178
25432SOL    HW277738   6.249   6.653   2.385 -2.5248 -1.3422 -3.5137
25433SOL     OW77739   1.293   6.509   1.856 -0.3712 -0.2248 -0.2817
25433SOL    HW177740   1.245   6.431   1.830  1.4146 -1.0881 -1.1066
25433SOL    HW277741   1.313   6.554   1.774  1.0484 -0.3849 -0.0429
25434SOL     OW77742   6.927   7.501   1.880  0.8464 -0.1601  0.0761
25434SOL    HW177743   6.840   7.541   1.890  1.0421  0.9595 -2.1099
25434SOL    HW277744   6.923   7.423   1.935 -1.5978 -0.2342 -0.0630
25435SOL     OW77745   7.731   5.013   3.638  0.3175  0.3199 -0.0461
25435SOL    HW177746   7.738   5.083   3.703 -1.7298  1.4124 -0.8810
25435SOL    HW277747   7.650   4.967   3.661 -0.7870  1.0997 -2.0454
25436SOL     OW77748   7.097   1.166   2.814  0.0608 -0.2099  0.6593
25436SOL    HW177749   7.176   1.186   2.764  0.6223  0.1161  1.6499
25436SOL    HW277750   7.031   1.225   2.778  0.0167 -1.0829 -0.7593
25437SOL     OW77751   1.925   6.173   2.801  0.2944 -0.1578  0.1592
25437SOL    HW177752   1.944   6.080   2.793 -0.4282 -0.4159  1.1356
25437SOL    HW277753   1.862   6.191   2.731 -2.9874 -1.4674  2.4898
25438SOL     OW77754   7.401   0.459   1.181  0.2285  0.4523  0.4108
25438SOL    HW177755   7.307   0.466   1.199  0.3755 -0.9861  1.9399
25438SOL    HW277756   7.424   0.545   1.144 -1.1933  1.7479  2.3394
25439SOL     OW77757   6.183   6.251   2.515  0.4690 -0.5906  0.2019
25439SOL    HW177758   6.184   6.263   2.420  1.3829 -0.9058  0.1676
25439SOL    HW277759   6.272   6.271   2.543 -0.3399  2.0047  1.3255
25440SOL     OW77760   6.788   7.404   2.315  0.1630  0.0311 -0.1707
25440SOL    HW177761   6.815   7.350   2.390 -0.6555  0.3238  0.3416
25440SOL    HW277762   6.800   7.347   2.239  0.5081 -0.4458  0.2310
25441SOL     OW77763   0.569   5.579   3.476 -0.2144  0.0468 -0.2650
25441SOL    HW177764   0.520   5.608   3.399  0.7997  1.4576 -0.4321
25441SOL    HW277765   0.635   5.648   3.489  0.9002 -1.1493  0.6843
25442SOL     OW77766   6.361   4.960   1.359 -0.0353  0.1154  0.0219
25442SOL    HW177767   6.404   5.028   1.307  1.3440 -0.5844  0.2120
25442SOL    HW277768   6.379   4.878   1.313  1.5778 -0.5739  1.7370
25443SOL     OW77769   6.520   4.607   5.330  0.0097  0.3456  0.3397
25443SOL    HW177770   6.547   4.584   5.419  1.2043  2.6365  0.6688
25443SOL    HW277771   6.493   4.699   5.337 -1.1283  0.1859 -1.4350
25444SOL     OW77772   6.685   4.898   1.502 -0.2166 -0.2547  0.3150
25444SOL    HW177773   6.599   4.858   1.512 -0.5676 -0.7900 -3.3980
25444SOL    HW277774   6.667   4.986   1.471  0.6120  0.3643  1.5321
25445SOL     OW77775   7.048   5.526   4.728  0.2623 -0.1925  0.1920
25445SOL    HW177776   7.065   5.598   4.668 -0.2314 -0.8296 -0.7437
25445SOL    HW277777   6.960   5.543   4.763  0.1610 -0.3202 -0.0004
25446SOL     OW77778   7.209   7.563   3.775  0.3786 -0.0530  0.1139
25446SOL    HW177779   7.298   7.527   3.774  0.1106 -0.7695 -1.6670
25446SOL    HW277780   7.193   7.586   3.866  1.6575 -1.7453  0.8118
25447SOL     OW77781   7.446   5.971   4.187  0.3316 -0.7964  0.5694
25447SOL    HW177782   7.422   5.924   4.107  1.7299 -0.0156 -0.3641
25447SOL    HW277783   7.529   5.931   4.214  1.6421  1.1214 -0.3426
25448SOL     OW77784   0.471   0.631   1.726 -0.2111  0.0772  0.3313
25448SOL    HW177785   0.502   0.551   1.682 -0.7535 -0.0633  0.1985
25448SOL    HW277786   0.382   0.610   1.754  0.6185 -0.3823  2.8872
25449SOL     OW77787   6.684   7.022   1.526  0.0922  0.1275 -0.3366
25449SOL    HW177788   6.666   6.929   1.522  0.2551 -0.0564  2.1708
25449SOL    HW277789   6.755   7.035   1.463 -0.0491 -1.3884 -0.8426
25450SOL     OW77790   5.730   7.694   3.030  0.1824 -0.6422  0.0790
25450SOL    HW177791   5.644   7.719   2.997  0.6038  0.6545 -0.1009
25450SOL    HW277792   5.770   7.776   3.058  1.2331 -1.2638  0.4681
25451SOL     OW77793   7.334   5.034   3.401  0.0892 -0.2072  0.1941
25451SOL    HW177794   7.392   4.959   3.389 -0.3003 -0.4491 -0.2218
25451SOL    HW277795   7.269   5.004   3.464  0.5027  0.1155  0.7770
25452SOL     OW77796   1.525   0.696   2.931  0.2281 -0.2177  1.0755
25452SOL    HW177797   1.608   0.721   2.892  0.2913 -2.4014 -0.3284
25452SOL    HW277798   1.459   0.731   2.871  0.2690 -1.5353  0.2197
25453SOL     OW77799   0.741   5.822   1.621 -0.5550  0.5843  0.5369
25453SOL    HW177800   0.695   5.893   1.576 -0.1127  1.1673  0.9904
25453SOL    HW277801   0.833   5.849   1.623 -0.0575 -0.8243 -0.8611
25454SOL     OW77802   6.742   5.795   1.293  0.1496  0.1604 -0.2891
25454SOL    HW177803   6.656   5.753   1.296 -0.2127  0.9025  0.0541
25454SOL    HW277804   6.750   5.839   1.378  0.6242  0.5697 -0.5438
25455SOL     OW77805   7.416   5.518   3.553  0.6743 -0.5758  0.2150
25455SOL    HW177806   7.329   5.477   3.551 -0.2117  1.1737 -1.9124
25455SOL    HW277807   7.472   5.456   3.506  0.5319 -1.5875  1.3490
25456SOL     OW77808   6.054   6.457   2.240 -0.2678  0.1714  0.4563
25456SOL    HW177809   5.960   6.456   2.226 -0.2845 -0.4584  0.5685
25456SOL    HW277810   6.081   6.546   2.219 -0.9303  0.4365  0.7111
25457SOL     OW77811   0.503   7.936   2.346 -0.4964  0.0337  0.1654
25457SOL    HW177812   0.589   7.970   2.370  0.9913 -2.8366 -0.6463
25457SOL    HW277813   0.520   7.881   2.270 -3.1147 -0.4121 -0.1659
25458SOL     OW77814   7.468   6.938   4.084 -0.5040 -1.1082 -0.3334
25458SOL    HW177815   7.426   6.855   4.061  0.4743 -1.2146 -1.8707
25458SOL    HW277816   7.495   6.926   4.175  1.4417 -3.2957 -1.1136
25459SOL     OW77817   6.663   6.432   1.810 -0.1922  0.0254  0.6957
25459SOL    HW177818   6.696   6.342   1.800 -0.3311 -0.1847  1.9247
25459SOL    HW277819   6.581   6.422   1.859 -0.5578  0.7808  0.2540
25460SOL     OW77820   0.129   7.256   2.636 -0.0879  0.0396 -0.0092
25460SOL    HW177821   0.111   7.332   2.580  1.7642  1.3088  0.9944
25460SOL    HW277822   0.043   7.223   2.660 -0.9386  0.3133 -2.4184
25461SOL     OW77823   0.201   7.141   4.017 -0.4097  0.0871 -0.7226
25461SOL    HW177824   0.232   7.168   3.930 -1.4195 -0.2547 -1.2038
25461SOL    HW277825   0.115   7.103   4.001 -0.1421 -0.9983  0.2908
25462SOL     OW77826   6.417   6.657   3.727 -0.0391  0.1971  0.4148
25462SOL    HW177827   6.430   6.716   3.801  1.7481  1.2132 -0.6352
25462SOL    HW277828   6.368   6.708   3.663  1.3161  0.5346 -0.4060
25463SOL     OW77829   7.875   6.178   2.263 -0.3094 -0.3700  0.1420
25463SOL    HW177830   7.868   6.175   2.167 -0.3979  0.6618  0.1106
25463SOL    HW277831   7.819   6.250   2.289  1.5883  0.9573  0.7718
25464SOL     OW77832   1.414   5.969   1.163  0.5561 -1.1755  0.1826
25464SOL    HW177833   1.406   5.876   1.186  0.3137 -0.9877  0.8789
25464SOL    HW277834   1.334   5.988   1.114  1.6760 -1.9117 -2.0943
25465SOL     OW77835   7.110   4.654   3.531 -0.2758  0.3949  0.2137
25465SOL    HW177836   7.056   4.615   3.463  0.3042 -0.2266  0.0986
25465SOL    HW277837   7.063   4.639   3.613 -0.7393  0.7190  0.0107
25466SOL     OW77838   1.504   5.995   1.484 -0.4845 -0.6340 -0.1843
25466SOL    HW177839   1.432   5.979   1.423 -0.3618 -1.7797 -0.0351
25466SOL    HW277840   1.469   5.972   1.570 -1.3411  2.8766  0.5624
25467SOL     OW77841   7.963   6.344   2.745  0.2363  0.0195  0.5908
25467SOL    HW177842   8.013   6.409   2.695  1.6799 -0.8544  0.8342
25467SOL    HW277843   8.030   6.293   2.792 -0.9766 -0.3722  1.9532
25468SOL     OW77844   7.077   5.535   3.249 -0.2284  0.4151  0.8151
25468SOL    HW177845   7.157   5.490   3.276 -1.2503 -0.2201  3.0093
25468SOL    HW277846   7.029   5.550   3.331 -2.0825  1.3248 -0.3635
25469SOL     OW77847   0.296   5.909   1.369  0.1822  0.2044  0.6772
25469SOL    HW177848   0.245   5.989   1.376  1.6851  1.1984  0.7465
25469SOL    HW277849   0.285   5.865   1.454  0.8929  1.3280  1.3787
25470SOL     OW77850   0.119   3.150   3.292 -0.6580 -0.4602 -0.1811
25470SOL    HW177851   0.155   3.063   3.280  1.2851  0.4932 -1.9466
25470SOL    HW277852   0.035   3.148   3.246 -0.0400 -1.0477 -1.3048
25471SOL     OW77853   7.565   6.303   2.845  0.1873  0.6259  0.3806
25471SOL    HW177854   7.481   6.263   2.822  0.2558  0.1320  0.9471
25471SOL    HW277855   7.631   6.245   2.806  0.2666  1.0088 -0.0577
25472SOL     OW77856   6.856   6.046   2.365  0.5328 -0.2443  0.4271
25472SOL    HW177857   6.879   6.088   2.282 -0.2744  1.8089  1.1699
25472SOL    HW277858   6.892   5.957   2.358  0.7413 -0.0356 -1.9704
25473SOL     OW77859   6.912   5.877   3.985 -0.0566  0.3352 -0.0102
25473SOL    HW177860   6.948   5.822   4.055  2.7103 -0.8202 -2.1701
25473SOL    HW277861   6.984   5.934   3.959 -1.4510  1.6992 -1.0423
25474SOL     OW77862   0.053   7.715   2.101 -0.3013 -0.2904 -0.0403
25474SOL    HW177863  -0.036   7.749   2.100 -0.2539 -0.1462  0.4528
25474SOL    HW277864   0.072   7.695   2.010  0.0672  2.0641 -0.5554
25475SOL     OW77865   6.809   6.398   2.069 -0.1171 -0.3903  0.8827
25475SOL    HW177866   6.822   6.329   2.004  1.1957  0.4759  0.1733
25475SOL    HW277867   6.802   6.478   2.018  0.5740  0.2707  1.7880
25476SOL     OW77868   7.603   6.645   4.007 -0.3773  0.3301 -0.3307
25476SOL    HW177869   7.520   6.679   3.974 -0.6418 -1.8567 -2.1538
25476SOL    HW277870   7.669   6.706   3.973 -0.9776  0.0915 -2.0264
25477SOL     OW77871   5.900   5.290   1.267 -0.3518  0.4557  0.3291
25477SOL    HW177872   5.941   5.217   1.221  0.9378  1.7245 -0.5769
25477SOL    HW277873   5.840   5.247   1.329 -0.4968 -1.3349 -0.9679
25478SOL     OW77874   1.094   0.050   2.599  0.8261  0.1984  0.1755
25478SOL    HW177875   1.026   0.103   2.640  1.2383  0.5468  0.4137
25478SOL    HW277876   1.137   0.006   2.672  0.1645 -0.8752 -0.0510
25479SOL     OW77877   0.903   7.522   2.460 -0.0097 -0.2969 -0.6493
25479SOL    HW177878   0.958   7.466   2.405  0.0497  0.5640 -1.4922
25479SOL    HW277879   0.936   7.610   2.445 -1.0526  0.1382 -0.4969
25480SOL     OW77880   6.992   5.314   2.715 -0.1339  0.0879 -0.4921
25480SOL    HW177881   6.917   5.367   2.744  1.2667  2.5037 -0.9458
25480SOL    HW277882   7.031   5.281   2.796  0.7739  2.5002  0.1458
25481SOL     OW77883   7.953   6.669   0.999  0.4762 -0.0715 -0.4867
25481SOL    HW177884   7.908   6.752   1.014  1.0204  0.5170 -1.9708
25481SOL    HW277885   7.882   6.606   0.985  0.0525  0.0276  0.9774
25482SOL     OW77886   6.656   6.261   3.936 -0.7113 -0.1364 -0.0826
25482SOL    HW177887   6.672   6.211   4.016  0.1604 -0.0812 -0.2076
25482SOL    HW277888   6.743   6.288   3.907 -0.9096 -1.0359 -1.6157
25483SOL     OW77889   0.539   0.719   3.641 -0.2429 -0.0660 -0.1668
25483SOL    HW177890   0.592   0.654   3.594  0.7649  0.0094  0.8076
25483SOL    HW277891   0.469   0.669   3.681 -0.6405 -0.2480 -1.0735
25484SOL     OW77892   7.521   5.854   2.979  0.1190  0.7698 -0.3777
25484SOL    HW177893   7.443   5.890   3.020  1.0293  1.0451  1.2067
25484SOL    HW277894   7.510   5.759   2.985  1.6230  0.6546  3.6303
25485SOL     OW77895   7.080   6.338   2.190  0.1501 -0.1744 -0.0246
25485SOL    HW177896   7.005   6.396   2.205 -0.2022 -0.3040 -1.1631
25485SOL    HW277897   7.042   6.261   2.148  0.9829 -0.0348 -1.0658
25486SOL     OW77898   6.130   6.603   1.466 -0.0313 -0.3115  0.0500
25486SOL    HW177899   6.163   6.676   1.412  1.1081  0.0829  1.2300
25486SOL    HW277900   6.139   6.527   1.409 -1.0584  0.4208 -1.1383
25487SOL     OW77901   7.416   6.638   0.995 -0.2494  0.0243 -0.0028
25487SOL    HW177902   7.337   6.692   0.990 -0.2465 -0.0417 -0.9151
25487SOL    HW277903   7.402   6.568   0.932 -0.6946 -1.6826  1.8744
25488SOL     OW77904   6.824   5.163   3.068 -0.0729 -0.0247 -0.3777
25488SOL    HW177905   6.801   5.108   2.994 -0.7765  0.6200 -0.6539
25488SOL    HW277906   6.760   5.141   3.136  0.4480 -0.4731 -0.0281
25489SOL     OW77907   0.060   5.911   1.908  0.0874 -0.2091  0.6994
25489SOL    HW177908   0.125   5.850   1.943 -0.1925 -1.2198 -0.4478
25489SOL    HW277909  -0.024   5.874   1.934 -0.0574  0.4346  1.1508
25490SOL     OW77910   7.988   5.194   0.828 -0.3313 -0.1037 -0.3277
25490SOL    HW177911   7.905   5.181   0.873  0.0712 -1.0266  0.1725
25490SOL    HW277912   8.009   5.286   0.843  0.5483 -0.7059  2.7505
25491SOL     OW77913   6.360   0.305   3.662  0.1765  0.3512  0.6666
25491SOL    HW177914   6.348   0.222   3.618  1.8864  1.0167 -1.2234
25491SOL    HW277915   6.412   0.284   3.740  3.2143 -0.1383 -1.3033
25492SOL     OW77916   7.379   6.284   3.101 -0.5832 -0.2361  0.0978
25492SOL    HW177917   7.463   6.298   3.058 -0.7270 -1.4756 -0.6278
25492SOL    HW277918   7.329   6.363   3.082  1.2994  1.8222  2.8663
25493SOL     OW77919   7.076   0.303   1.003 -0.5270  0.2317 -0.1452
25493SOL    HW177920   7.106   0.357   1.077 -1.0646  1.3446 -0.7078
25493SOL    HW277921   7.119   0.219   1.016 -1.2545  0.1065  1.9171
25494SOL     OW77922   7.656   7.827   2.797 -0.1646 -0.1973 -0.1663
25494SOL    HW177923   7.717   7.759   2.824  1.4980  0.8765 -1.0144
25494SOL    HW277924   7.650   7.885   2.872  0.5000  0.0993 -0.3301
25495SOL     OW77925   0.178   4.889   4.494  0.8985  0.3650 -0.2011
25495SOL    HW177926   0.239   4.962   4.481  0.5938  0.7901  0.6883
25495SOL    HW277927   0.100   4.929   4.533  1.2419 -0.6207  1.5941
25496SOL     OW77928   5.512   6.213   1.288  0.0374  0.0887 -0.4988
25496SOL    HW177929   5.430   6.260   1.276 -0.0331  0.1470  0.1594
25496SOL    HW277930   5.573   6.279   1.322  0.3685  0.0530 -1.0135
25497SOL     OW77931   6.547   0.317   4.704  0.1142  0.6260 -0.5678
25497SOL    HW177932   6.488   0.268   4.762  0.4862  1.2838  0.4080
25497SOL    HW277933   6.586   0.250   4.648  0.1098 -0.1245  0.2843
25498SOL     OW77934   7.105   7.067   4.883 -0.0478 -0.2387  0.0621
25498SOL    HW177935   7.074   7.006   4.816  1.1975 -2.7802  1.6494
25498SOL    HW277936   7.025   7.112   4.912 -1.0891 -1.3308 -0.9543
25499SOL     OW77937   7.596   6.226   5.649 -0.1521  0.0222  0.4744
25499SOL    HW177938   7.534   6.159   5.676  0.9397 -0.9273  0.7078
25499SOL    HW277939   7.543   6.292   5.604 -1.6918  0.5165  2.8485
25500SOL     OW77940   7.548   6.872   2.412  0.4194  0.1609 -0.1176
25500SOL    HW177941   7.613   6.865   2.342  0.1450 -1.9411 -0.2492
25500SOL    HW277942   7.466   6.892   2.368  0.4899  0.1561 -0.2505
25501SOL     OW77943   0.560   4.050   5.158  0.0839  0.9633  0.0752
25501SOL    HW177944   0.516   4.100   5.227 -1.4817  0.2675 -0.3887
25501SOL    HW277945   0.524   4.085   5.076  0.0120  0.0240 -0.3009
25502SOL     OW77946   0.704   7.359   4.424 -0.1240 -0.1858  0.1695
25502SOL    HW177947   0.694   7.298   4.350 -4.3704  1.3946 -0.8673
25502SOL    HW277948   0.656   7.317   4.495  0.4920  0.1129  0.7675
25503SOL     OW77949   7.530   6.073   2.600  1.1078  0.9848 -0.4626
25503SOL    HW177950   7.535   6.017   2.677  0.0126  0.6579 -0.6195
25503SOL    HW277951   7.622   6.091   2.578  1.5900 -2.0157 -1.3219
25504SOL     OW77952   7.206   6.334   5.274  0.6432  0.0514 -0.0661
25504SOL    HW177953   7.124   6.359   5.231  0.5213 -1.3748 -0.6974
25504SOL    HW277954   7.182   6.260   5.330  1.5809 -0.6804 -0.6093
25505SOL     OW77955   1.124   7.906   5.379 -0.1491  0.4625  0.0021
25505SOL    HW177956   1.171   7.870   5.304  1.0788  2.9222 -0.5156
25505SOL    HW277957   1.192   7.926   5.444 -1.1524 -1.3353  1.7406
25506SOL     OW77958   0.724   7.093   2.612 -0.1650  0.2957 -0.0924
25506SOL    HW177959   0.789   7.133   2.669 -0.9400  0.3608  0.7689
25506SOL    HW277960   0.642   7.100   2.661 -0.2841 -2.6827  0.2813
25507SOL     OW77961   6.204   7.486   4.348 -0.4621 -0.1442  0.0720
25507SOL    HW177962   6.165   7.573   4.340  1.2020  0.4685 -2.6299
25507SOL    HW277963   6.159   7.434   4.281  3.7897  0.9696 -4.2580
25508SOL     OW77964   1.419   7.917   5.434  0.0346 -0.2895  0.0837
25508SOL    HW177965   1.509   7.906   5.404 -0.0635 -0.5263 -0.1241
25508SOL    HW277966   1.422   7.996   5.488  0.1912  0.1809 -0.5995
25509SOL     OW77967   0.710   6.023   8.855 -0.1377 -0.3457  0.1089
25509SOL    HW177968   0.712   6.117   8.872  0.6932 -0.2385 -0.5220
25509SOL    HW277969   0.708   6.016   8.759 -2.7418 -0.9541  0.1317
25510SOL     OW77970   7.876   4.311   4.455 -0.1249 -0.2612 -0.5147
25510SOL    HW177971   7.875   4.393   4.504 -0.2647 -0.3766 -0.3253
25510SOL    HW277972   7.957   4.315   4.404  0.7220 -0.7447  0.7456
25511SOL     OW77973   6.070   6.287   4.405 -0.3322  0.0452  0.2754
25511SOL    HW177974   6.036   6.375   4.418 -0.0088 -0.0291  1.8000
25511SOL    HW277975   5.993   6.230   4.409 -0.4730  0.2062 -0.1373
25512SOL     OW77976   0.944   7.060   4.135 -0.0757  0.0381  0.4946
25512SOL    HW177977   1.004   7.000   4.091  0.5710 -0.4637  2.0094
25512SOL    HW277978   0.862   7.051   4.086  0.1425 -1.7080  0.3816
25513SOL     OW77979   7.718   7.106   4.195 -0.2688  0.4095 -0.0818
25513SOL    HW177980   7.641   7.054   4.217 -0.8250  1.2304 -0.0275
25513SOL    HW277981   7.765   7.117   4.278 -0.1763  0.0459 -0.0853
25514SOL     OW77982   2.342   7.904   4.322 -0.3455 -0.2823 -0.4438
25514SOL    HW177983   2.427   7.877   4.358  0.2283  0.9421 -0.8246
25514SOL    HW277984   2.323   7.837   4.256 -0.5404 -1.5348  0.8498
25515SOL     OW77985   0.612   7.559   2.333  0.1228  0.4681 -0.5222
25515SOL    HW177986   0.702   7.533   2.352 -0.2457  0.2043  1.0428
25515SOL    HW277987   0.576   7.487   2.281  0.7921  0.5373 -1.0830
25516SOL     OW77988   0.166   4.048   6.625 -1.0241  0.5836 -0.3263
25516SOL    HW177989   0.169   3.985   6.698  1.4165  1.2341  0.2260
25516SOL    HW277990   0.088   4.024   6.576 -0.2935 -2.7768 -0.0523
25517SOL     OW77991   0.450   4.462   7.305 -0.1525 -0.1718 -0.0727
25517SOL    HW177992   0.472   4.551   7.332  1.4940 -0.3792 -0.6226
25517SOL    HW277993   0.512   4.443   7.235 -1.9826 -0.9278 -1.5743
25518SOL     OW77994   0.029   1.192   7.065  0.4541 -0.0953  0.3912
25518SOL    HW177995  -0.062   1.214   7.043  0.4705  0.0657  0.4789
25518SOL    HW277996   0.080   1.266   7.031  0.9778 -1.8073 -2.9493
25519SOL     OW77997   0.882   5.903   3.864 -0.0705  0.0093  0.1873
25519SOL    HW177998   0.966   5.864   3.841  0.4283  0.4863  1.1727
25519SOL    HW277999   0.900   5.957   3.940 -1.1519  0.6034  0.0429
25520SOL     OW78000   7.138   6.574   4.500  0.2954  0.3417  0.2995
25520SOL    HW178001   7.053   6.535   4.523  0.9116 -1.2297  0.0816
25520SOL    HW278002   7.166   6.620   4.579 -0.4103  0.2277  0.6237
25521SOL     OW78003   0.239   5.760   3.655 -0.6106 -0.7144  0.3851
25521SOL    HW178004   0.170   5.772   3.589  0.2707 -0.8774 -0.5985
25521SOL    HW278005   0.307   5.710   3.609  0.4275 -0.0273  1.1368
25522SOL     OW78006   0.297   6.059   3.320 -0.0284  0.6099 -0.1788
25522SOL    HW178007   0.351   5.992   3.363  0.2039  1.2402  0.5473
25522SOL    HW278008   0.247   6.098   3.392 -1.8768 -0.3154 -0.9019
25523SOL     OW78009   0.546   6.251   4.835  0.0012 -0.1579  0.2161
25523SOL    HW178010   0.568   6.180   4.895 -0.1467  0.8637  1.5150
25523SOL    HW278011   0.523   6.325   4.892  2.3250  1.6594 -0.9986
25524SOL     OW78012   6.304   4.523   6.049 -0.3394  0.7548 -0.4820
25524SOL    HW178013   6.334   4.610   6.077 -0.0901  0.6406 -0.3911
25524SOL    HW278014   6.327   4.465   6.122 -2.6211  0.9860  0.5002
25525SOL     OW78015   7.538   3.965   4.819 -0.6318  0.4739  0.0777
25525SOL    HW178016   7.451   3.952   4.781  0.2523  0.9502 -2.2861
25525SOL    HW278017   7.591   3.895   4.782 -0.4417 -1.3116  3.3570
25526SOL     OW78018   0.173   7.141   4.923  0.4236 -0.0279  0.0749
25526SOL    HW178019   0.107   7.075   4.903  0.5605  0.1408 -0.9824
25526SOL    HW278020   0.248   7.118   4.869 -0.3986  2.3845 -2.3173
25527SOL     OW78021   1.044   6.447   5.314 -0.2745 -0.3103 -0.3547
25527SOL    HW178022   0.975   6.512   5.304 -0.2320 -0.3324 -0.8170
25527SOL    HW278023   1.117   6.494   5.355 -0.6600 -0.3584  0.4062
25528SOL     OW78024   1.266   0.041   5.991 -0.4834 -0.1285 -0.1340
25528SOL    HW178025   1.267   0.079   5.903  1.7438 -0.0785 -0.1409
25528SOL    HW278026   1.250  -0.052   5.977 -2.8394  0.2487 -0.3448
25529SOL     OW78027   0.509   5.148   1.623  0.5180 -0.1535  0.2951
25529SOL    HW178028   0.566   5.071   1.633 -1.3822 -1.3876  2.8015
25529SOL    HW278029   0.514   5.192   1.707  0.0013  1.3618 -0.4373
25530SOL     OW78030   0.355   6.814   6.478  1.0091 -0.5334 -0.6760
25530SOL    HW178031   0.276   6.820   6.532  2.4634  0.0233  1.5150
25530SOL    HW278032   0.326   6.767   6.399 -1.1689 -1.6548  0.6748
25531SOL     OW78033   7.799   7.515   7.042 -0.2972  0.6645  0.0148
25531SOL    HW178034   7.833   7.604   7.053 -1.3846  0.9283  1.4869
25531SOL    HW278035   7.724   7.525   6.984 -0.0676  0.6089 -0.2959
25532SOL     OW78036   7.146   3.906   3.997  0.2307  0.2390  0.0190
25532SOL    HW178037   7.135   3.812   3.980  1.8029 -0.5480  2.7822
25532SOL    HW278038   7.087   3.925   4.070  1.8923  0.7183  1.2898
25533SOL     OW78039   1.042   7.682   3.008 -0.2824  0.8014  0.3183
25533SOL    HW178040   0.966   7.713   3.056 -0.0239  1.6199  0.2124
25533SOL    HW278041   1.009   7.662   2.920 -0.2859  1.6441  0.1188
25534SOL     OW78042   7.548   4.816   5.755  0.2991  0.3140  0.0722
25534SOL    HW178043   7.598   4.831   5.835 -0.2978  0.9820  0.3329
25534SOL    HW278044   7.486   4.889   5.751 -1.3427 -1.0179  0.2956
25535SOL     OW78045   6.896   5.424   5.851  0.0513  0.5718  0.1078
25535SOL    HW178046   6.966   5.426   5.916 -0.4848 -0.0455  0.7144
25535SOL    HW278047   6.824   5.377   5.893 -0.1727 -0.2027 -1.0715
25536SOL     OW78048   2.148   6.562   4.235  0.9042  0.1006 -0.0413
25536SOL    HW178049   2.199   6.603   4.164  1.5407 -0.5300  0.0401
25536SOL    HW278050   2.168   6.614   4.312 -0.4081  1.2792 -0.4579
25537SOL     OW78051   0.472   6.683   5.316 -0.1883  0.2108 -0.2611
25537SOL    HW178052   0.433   6.719   5.396 -1.7467 -1.7414 -0.0530
25537SOL    HW278053   0.413   6.710   5.246  0.1690  0.3941 -0.4912
25538SOL     OW78054   0.373   6.163   5.786 -0.0598  0.0791  0.1692
25538SOL    HW178055   0.373   6.068   5.775  1.3983  0.1046 -0.2191
25538SOL    HW278056   0.422   6.178   5.867  1.5130  0.5635 -0.8201
25539SOL     OW78057   7.216   6.639   6.234  0.0039  0.2864  0.2859
25539SOL    HW178058   7.223   6.669   6.325 -0.5597 -0.4499  0.5854
25539SOL    HW278059   7.303   6.603   6.214  0.0571  0.2148  0.6306
25540SOL     OW78060   7.107   7.900   4.657 -0.4557 -0.1595  0.7791
25540SOL    HW178061   7.156   7.819   4.666 -2.1233 -1.2450  0.6721
25540SOL    HW278062   7.016   7.871   4.644 -0.8507  1.6704 -1.0178
25541SOL     OW78063   7.798   0.801   6.196  0.0218  0.2357  0.0577
25541SOL    HW178064   7.722   0.858   6.207 -0.0963  0.3994 -1.4236
25541SOL    HW278065   7.771   0.736   6.132 -0.0269 -1.9171  2.1044
25542SOL     OW78066   0.705   6.212   3.926  0.7410  0.2820  0.4716
25542SOL    HW178067   0.691   6.207   3.831  1.9571 -0.5302  0.3061
25542SOL    HW278068   0.780   6.155   3.942 -0.7114 -1.2704  2.2272
25543SOL     OW78069   7.246   5.021   3.933 -0.3218 -0.3809 -0.2200
25543SOL    HW178070   7.332   4.995   3.964  0.1675  1.5374  0.1390
25543SOL    HW278071   7.260   5.104   3.888 -1.7159 -0.9233 -1.7671
25544SOL     OW78072   7.765   4.521   4.027  0.0754 -0.5437 -0.4721
25544SOL    HW178073   7.821   4.445   4.009  0.1063 -0.2736 -1.5696
25544SOL    HW278074   7.795   4.553   4.112  1.0606 -0.8760 -0.6836
25545SOL     OW78075   7.802   0.728   6.556  0.3271  0.1117 -0.1597
25545SOL    HW178076   7.757   0.809   6.580 -0.5706  0.7676 -3.5923
25545SOL    HW278077   7.895   0.749   6.565  0.0925  1.4000 -0.6053
25546SOL     OW78078   6.389   6.950   2.440  0.3159 -0.0125  0.8743
25546SOL    HW178079   6.438   7.000   2.374 -0.9760  0.3872  0.1978
25546SOL    HW278080   6.350   6.878   2.391 -0.3680  0.0851  1.2745
25547SOL     OW78081   0.426   4.889   4.978 -0.1985 -0.0339 -0.0400
25547SOL    HW178082   0.389   4.955   4.919  0.3326  0.3022 -0.0084
25547SOL    HW278083   0.406   4.806   4.936 -2.2310  0.0475  0.6908
25548SOL     OW78084   1.460   6.727   4.374  0.9945  0.0014  0.6896
25548SOL    HW178085   1.524   6.756   4.310  2.0082 -0.0008  1.6690
25548SOL    HW278086   1.472   6.632   4.380  0.6059 -0.0582  0.5703
25549SOL     OW78087   7.253   7.565   6.821  0.9357 -0.3782 -0.1459
25549SOL    HW178088   7.272   7.626   6.893 -1.4212 -0.8396  0.9629
25549SOL    HW278089   7.283   7.480   6.853 -0.4761 -0.6546  0.5195
25550SOL     OW78090   7.864   6.083   4.841 -0.1787  0.1585 -0.0185
25550SOL    HW178091   7.924   6.085   4.767 -0.0712 -0.4539  0.0492
25550SOL    HW278092   7.917   6.056   4.915 -0.9119 -2.3633 -0.3406
25551SOL     OW78093   7.662   0.150   5.245 -0.3920 -0.4820 -0.2723
25551SOL    HW178094   7.582   0.113   5.208 -0.4352  0.1716 -0.8693
25551SOL    HW278095   7.684   0.222   5.186  0.9589 -1.0103 -0.4616
25552SOL     OW78096   6.337   7.739   5.246 -0.4627  0.1709  0.1556
25552SOL    HW178097   6.379   7.822   5.268 -1.1715  0.3796  0.7866
25552SOL    HW278098   6.260   7.765   5.195 -2.7697  0.2430  3.3909
25553SOL     OW78099   0.350   7.443   3.843  0.2008 -0.3224 -0.2006
25553SOL    HW178100   0.379   7.467   3.931  3.1414  0.3183 -1.2366
25553SOL    HW278101   0.421   7.389   3.808 -0.7471 -0.3256 -2.2934
25554SOL     OW78102   6.631   7.767   5.780  0.1600  0.1534 -0.1285
25554SOL    HW178103   6.585   7.684   5.767 -1.2076  0.4095  2.4906
25554SOL    HW278104   6.624   7.784   5.874  2.7300  1.9399 -0.1689
25555SOL     OW78105   7.025   4.582   3.773  0.7705  0.1269 -0.4005
25555SOL    HW178106   7.013   4.618   3.861  0.0090  0.5004 -0.6490
25555SOL    HW278107   7.018   4.487   3.784 -0.9709  0.2352 -0.2758
25556SOL     OW78108   7.779   6.397   2.985 -0.6582  0.2110  0.1686
25556SOL    HW178109   7.694   6.372   2.948 -1.2106  1.4109  0.5652
25556SOL    HW278110   7.842   6.378   2.915 -1.5554  1.4815 -1.0370
25557SOL     OW78111   7.860   7.491   6.008 -0.3740  0.1315  0.3765
25557SOL    HW178112   7.866   7.515   6.101 -0.3554 -1.2734  0.7598
25557SOL    HW278113   7.776   7.445   6.001  0.6416 -1.7747  0.1971
25558SOL     OW78114   0.710   7.321   5.264  0.1012 -0.1560 -0.0221
25558SOL    HW178115   0.694   7.296   5.173  1.2988 -2.1509  0.2762
25558SOL    HW278116   0.785   7.381   5.259 -0.5166  0.6101 -0.4156
25559SOL     OW78117   7.884   6.814   5.239 -0.2573  0.1801  0.1880
25559SOL    HW178118   7.873   6.796   5.145 -0.8700 -1.5664  0.5552
25559SOL    HW278119   7.923   6.901   5.242  0.5348 -0.0593 -1.7147
25560SOL     OW78120   7.564   7.034   4.631  0.1034 -0.0202 -0.5513
25560SOL    HW178121   7.657   7.011   4.622  0.7423  1.2818  1.8075
25560SOL    HW278122   7.542   7.008   4.721 -1.0606  2.0188 -0.1864
25561SOL     OW78123   0.520   0.072   6.304 -0.2123 -0.5344  0.0149
25561SOL    HW178124   0.561   0.077   6.218 -1.1056 -1.8095 -0.5140
25561SOL    HW278125   0.456   0.144   6.305 -0.3909 -0.6829 -0.4978
25562SOL     OW78126   7.718   1.889   4.902 -0.3433  0.1328  0.2841
25562SOL    HW178127   7.676   1.973   4.919 -0.9214  0.0529 -0.6603
25562SOL    HW278128   7.792   1.910   4.844 -0.6695 -0.0284 -0.2042
25563SOL     OW78129   7.473   7.637   5.639  0.4191 -0.0284  0.4024
25563SOL    HW178130   7.495   7.730   5.625  0.2786  0.4586  2.9128
25563SOL    HW278131   7.516   7.615   5.722  0.8548 -2.3952 -0.3878
25564SOL     OW78132   7.825   5.570   6.715 -0.5420 -0.1921  0.1112
25564SOL    HW178133   7.792   5.484   6.740  0.2157 -0.0857  1.5815
25564SOL    HW278134   7.759   5.631   6.748  0.6273 -0.0290  2.3533
25565SOL     OW78135   7.777   5.248   6.429  0.3292  0.4308  0.8893
25565SOL    HW178136   7.841   5.183   6.400  1.2772  1.2267  1.1174
25565SOL    HW278137   7.696   5.199   6.442  0.5354 -0.3677 -0.6980
25566SOL     OW78138   7.818   0.901   8.281  0.3130  0.4418 -0.9143
25566SOL    HW178139   7.775   0.815   8.275  0.6456  0.1953  0.0208
25566SOL    HW278140   7.882   0.891   8.352  1.1664  1.1258 -1.5598
25567SOL     OW78141   1.795   5.868   6.634 -0.1264  0.3706  1.2150
25567SOL    HW178142   1.762   5.958   6.626  1.1719  1.0299  2.6582
25567SOL    HW278143   1.721   5.813   6.611 -0.7328  1.7984 -0.5628
25568SOL     OW78144   0.215   6.731   4.003  0.0320 -0.2202  0.3950
25568SOL    HW178145   0.213   6.638   3.980 -2.2109 -0.0228 -0.4798
25568SOL    HW278146   0.213   6.777   3.919 -0.8990  0.5790  0.8310
25569SOL     OW78147   6.788   6.497   5.981  0.2436 -0.7444 -0.1235
25569SOL    HW178148   6.837   6.547   6.046 -1.0215 -0.1221  0.4045
25569SOL    HW278149   6.778   6.557   5.907 -1.8005  0.0829  0.7497
25570SOL     OW78150   7.167   7.283   8.338 -0.0183  0.2245  0.8870
25570SOL    HW178151   7.124   7.251   8.418  0.3544 -1.1877  0.5607
25570SOL    HW278152   7.158   7.211   8.276  1.6790  0.3679  0.4046
25571SOL     OW78153   7.823   4.704   5.895  0.0220  0.5652  0.2153
25571SOL    HW178154   7.900   4.651   5.917  0.8880  1.4962 -0.4957
25571SOL    HW278155   7.822   4.705   5.799 -0.5268  1.0733  0.2231
25572SOL     OW78156   7.451   7.406   7.488  0.2137  0.1667  0.5528
25572SOL    HW178157   7.413   7.488   7.520 -1.4440  0.7363 -2.5004
25572SOL    HW278158   7.529   7.393   7.543 -0.4800  2.7655  2.3590
25573SOL     OW78159   1.415   7.074   6.402  0.0803  0.2507 -0.0308
25573SOL    HW178160   1.455   7.023   6.331 -1.1406  0.3136 -0.7978
25573SOL    HW278161   1.452   7.037   6.482  1.3852  0.0902 -0.6866
25574SOL     OW78162   1.219   7.061   6.204 -0.2183  0.1699 -0.2161
25574SOL    HW178163   1.293   7.080   6.261  0.3945 -0.9229 -0.6135
25574SOL    HW278164   1.190   6.974   6.231 -2.9575  1.4682  1.5910
25575SOL     OW78165   1.254   5.385   6.269  0.3592 -0.2419  0.7143
25575SOL    HW178166   1.240   5.422   6.182 -3.6005  0.0253  1.2600
25575SOL    HW278167   1.280   5.294   6.253 -0.1873 -0.1607 -0.7960
25576SOL     OW78168   1.789   7.963   5.911 -0.1059  0.2069  0.2793
25576SOL    HW178169   1.730   7.893   5.881  0.3888 -0.0965  0.0041
25576SOL    HW278170   1.747   7.998   5.990 -0.0229 -0.8568  0.8158
25577SOL     OW78171   1.586   4.653   6.222  0.2934 -0.1053  0.2507
25577SOL    HW178172   1.603   4.562   6.246  0.5883  0.2524  1.4786
25577SOL    HW278173   1.651   4.672   6.154 -0.8774 -1.2959 -1.2758
25578SOL     OW78174   7.189   0.643   7.303  0.5870 -0.4848 -0.0349
25578SOL    HW178175   7.250   0.709   7.337  0.7814 -2.0551  3.0961
25578SOL    HW278176   7.104   0.669   7.337  0.4779 -1.1850  0.2540
25579SOL     OW78177   1.794   0.452   8.747  0.1502 -0.3114 -0.5475
25579SOL    HW178178   1.739   0.525   8.775  1.5387  0.8564 -0.7532
25579SOL    HW278179   1.848   0.489   8.677  2.2375 -0.9708  0.6501
25580SOL     OW78180   0.353   7.893   7.550  0.1041 -0.0741  0.3748
25580SOL    HW178181   0.402   7.835   7.492  0.1256 -0.3167  0.6351
25580SOL    HW278182   0.420   7.943   7.597  0.1256 -0.7690  1.1054
25581SOL     OW78183   1.120   7.991   4.968  0.5767  0.1444  0.2727
25581SOL    HW178184   1.102   8.059   4.903  0.8045  1.2615  1.3412
25581SOL    HW278185   1.209   7.961   4.948 -0.0649 -0.9043 -1.1089
25582SOL     OW78186   0.271   6.710   5.082 -0.0096 -0.4254  0.3067
25582SOL    HW178187   0.345   6.755   5.041 -0.1345 -1.0710 -0.6544
25582SOL    HW278188   0.275   6.620   5.048 -0.1283 -1.0008  1.7013
25583SOL     OW78189   6.906   7.072   5.999 -0.5859 -0.2019 -0.1953
25583SOL    HW178190   6.930   7.071   6.091 -1.5625 -0.9060  0.0723
25583SOL    HW278191   6.842   7.143   5.991  0.4851  0.7377 -0.6156
25584SOL     OW78192   0.150   6.949   5.158 -0.3390 -0.4842  0.1672
25584SOL    HW178193   0.142   7.008   5.083  0.8138 -0.9366 -0.3173
25584SOL    HW278194   0.187   6.868   5.123  2.5087  0.0865  1.5317
25585SOL     OW78195   7.595   4.318   5.744  0.4468  0.2763 -0.3672
25585SOL    HW178196   7.573   4.321   5.837  1.5825 -1.1257 -0.0152
25585SOL    HW278197   7.559   4.400   5.708 -0.4230  0.6216  1.1903
25586SOL     OW78198   1.065   6.676   4.091  0.1011 -0.1867  0.1218
25586SOL    HW178199   1.109   6.711   4.169 -0.5097 -1.9746  1.3121
25586SOL    HW278200   1.130   6.687   4.021  0.1356  2.7821  0.5000
25587SOL     OW78201   0.149   4.370   8.165  0.2548  0.1969  0.0895
25587SOL    HW178202   0.204   4.427   8.219 -0.0939  1.9655 -1.3145
25587SOL    HW278203   0.179   4.385   8.076  0.5891 -2.3997 -0.3086
25588SOL     OW78204   6.124   6.201   5.255  0.0914  0.5527 -0.0773
25588SOL    HW178205   6.146   6.133   5.319 -0.2470 -0.3131 -0.8725
25588SOL    HW278206   6.034   6.226   5.276  0.4013  1.1501  0.5593
25589SOL     OW78207   7.786   6.909   6.756 -0.0781 -0.2718 -0.0220
25589SOL    HW178208   7.697   6.882   6.733 -0.7456  1.5022  0.3544
25589SOL    HW278209   7.794   6.998   6.721  1.5549 -0.3930 -0.0394
25590SOL     OW78210   6.664   5.912   7.471  0.1849  0.1826  0.0647
25590SOL    HW178211   6.608   5.967   7.526 -0.1697  0.7399 -0.8306
25590SOL    HW278212   6.629   5.823   7.482 -1.1180  0.5673 -0.7356
25591SOL     OW78213   0.030   4.488   5.196 -0.1518  0.3367 -0.2710
25591SOL    HW178214   0.070   4.403   5.214 -2.0213 -0.4071  0.7370
25591SOL    HW278215   0.050   4.541   5.272 -0.7005  0.0973  0.0483
25592SOL     OW78216   7.498   0.917   8.372  0.2367 -0.1983 -0.6739
25592SOL    HW178217   7.550   0.843   8.343  0.2797  0.2031 -1.6659
25592SOL    HW278218   7.409   0.883   8.380  0.6337 -0.9048  1.0964
25593SOL     OW78219   0.757   7.132   6.164  0.0115 -0.0646 -0.2607
25593SOL    HW178220   0.673   7.086   6.173 -0.2679  0.7277  1.8903
25593SOL    HW278221   0.756   7.195   6.236  1.4413  1.6069 -1.6415
25594SOL     OW78222   0.670   0.624   7.165  0.0727  0.1978 -0.1979
25594SOL    HW178223   0.687   0.678   7.242 -0.5621  1.2193 -0.7574
25594SOL    HW278224   0.580   0.593   7.177  0.2648 -0.3597 -0.1223
25595SOL     OW78225   1.336   7.387   6.613 -0.1057 -0.5824  0.2603
25595SOL    HW178226   1.413   7.407   6.559 -0.4343  1.6984  0.5405
25595SOL    HW278227   1.299   7.473   6.634 -2.2992 -1.5948  0.7843
25596SOL     OW78228   7.840   7.725   8.030 -0.1325 -0.6317  0.6256
25596SOL    HW178229   7.755   7.755   8.063  0.0378  1.6577 -0.7790
25596SOL    HW278230   7.898   7.731   8.106 -0.8724 -0.6858  1.2098
25597SOL     OW78231   7.234   6.432   7.812 -0.1246  0.0647  0.4347
25597SOL    HW178232   7.187   6.508   7.778  1.9711  1.0242 -0.4969
25597SOL    HW278233   7.212   6.361   7.751  0.7032  0.8580 -0.8370
25598SOL     OW78234   7.935   3.985   6.482 -0.3648  0.3824  0.3030
25598SOL    HW178235   7.894   3.904   6.513  0.2633  0.4128  1.2779
25598SOL    HW278236   7.873   4.053   6.506 -0.5143  0.2729  0.2337
25599SOL     OW78237   0.758   6.850   5.612  0.1286 -0.2536 -0.6044
25599SOL    HW178238   0.742   6.760   5.640  2.1318 -0.5707 -0.3442
25599SOL    HW278239   0.682   6.872   5.558 -1.0541 -1.6098  0.4160
25600SOL     OW78240   6.707   6.024   5.627 -0.3998  0.1991  0.7311
25600SOL    HW178241   6.656   6.069   5.560 -0.8127  0.6657  1.3520
25600SOL    HW278242   6.798   6.043   5.605 -0.4863 -0.4774 -0.2671
25601SOL     OW78243   5.921   0.210   7.357 -0.1689  0.4221  0.0714
25601SOL    HW178244   5.966   0.130   7.329 -1.6548 -0.3783 -0.1519
25601SOL    HW278245   5.914   0.263   7.278 -2.1840 -0.7621 -0.6256
25602SOL     OW78246   0.851   5.760   6.608  0.4389 -0.2039 -0.3254
25602SOL    HW178247   0.805   5.775   6.526  1.5184 -2.9875 -1.5620
25602SOL    HW278248   0.942   5.743   6.583  0.9331 -0.5404  1.5115
25603SOL     OW78249   0.858   7.461   6.121  0.3991  0.9824 -0.1868
25603SOL    HW178250   0.938   7.447   6.172 -0.2887 -0.6411  0.5140
25603SOL    HW278251   0.795   7.495   6.185 -1.4018 -3.8707  1.0212
25604SOL     OW78252   5.760   6.947   6.427 -0.2515  0.7284  0.1172
25604SOL    HW178253   5.716   6.882   6.482  1.7049 -0.5732  0.2558
25604SOL    HW278254   5.779   6.900   6.346  0.5022  1.3658 -0.0824
25605SOL     OW78255   1.199   6.472   4.570 -0.1589 -0.5764 -0.3965
25605SOL    HW178256   1.277   6.472   4.626 -0.9417  0.9938  0.7915
25605SOL    HW278257   1.192   6.382   4.538  1.0074 -1.2444  1.1006
25606SOL     OW78258   0.225   6.928   6.156 -0.1267  0.3729  0.1151
25606SOL    HW178259   0.198   6.925   6.248  0.1773  0.9281  0.2293
25606SOL    HW278260   0.143   6.922   6.107 -0.1535 -1.9472  0.3671
25607SOL     OW78261   1.009   0.518   5.678  0.0248 -0.1040  0.3170
25607SOL    HW178262   0.952   0.527   5.753 -0.1515 -0.6087  0.2444
25607SOL    HW278263   1.073   0.589   5.687  0.5229 -0.6712  1.3944
25608SOL     OW78264   6.800   4.831   7.773  0.6223  0.0255 -0.1643
25608SOL    HW178265   6.808   4.918   7.812 -0.1820  0.0655 -0.0615
25608SOL    HW278266   6.767   4.776   7.844  0.6244 -0.2424 -0.3717
25609SOL     OW78267   7.228   4.551   7.770 -0.8328 -0.3737 -0.2206
25609SOL    HW178268   7.174   4.620   7.731 -1.3271 -0.8383 -0.3673
25609SOL    HW278269   7.305   4.546   7.714 -1.3947 -0.8232 -0.9612
25610SOL     OW78270   0.914   5.902   6.062 -0.0046  0.2386 -0.0852
25610SOL    HW178271   0.826   5.882   6.032 -0.1631 -0.0307  0.5329
25610SOL    HW278272   0.952   5.956   5.993 -1.1315  1.5244  0.2447
25611SOL     OW78273   1.313   6.927   8.493  0.3004 -0.2578 -0.6449
25611SOL    HW178274   1.249   6.981   8.537  1.0123  0.2782 -0.2474
25611SOL    HW278275   1.320   6.965   8.405  0.1072 -0.2935 -0.6756
25612SOL     OW78276   0.152   7.824   6.274 -0.4603 -0.1398 -0.3690
25612SOL    HW178277   0.212   7.752   6.252 -1.2986 -0.5451 -1.4205
25612SOL    HW278278   0.118   7.802   6.360  0.4559 -0.2043 -0.0108
25613SOL     OW78279   0.134   7.539   7.425 -0.6223 -0.3494 -0.1269
25613SOL    HW178280   0.088   7.456   7.436 -0.3972 -0.6081 -1.0275
25613SOL    HW278281   0.226   7.516   7.432 -0.5976  0.2902  2.4544
25614SOL     OW78282   7.657   6.694   6.521  0.2062 -0.4326  0.3257
25614SOL    HW178283   7.618   6.699   6.433  0.4258  0.5196  0.2708
25614SOL    HW278284   7.583   6.708   6.580 -0.1818 -2.3835  0.3595
25615SOL     OW78285   0.872   6.869   8.381  0.5654 -0.5088  0.6691
25615SOL    HW178286   0.800   6.885   8.320 -0.6982 -1.0926  1.9543
25615SOL    HW278287   0.872   6.946   8.438  2.2456  0.4101 -0.4701
25616SOL     OW78288   7.493   4.947   6.259  0.1139  0.9004 -0.6847
25616SOL    HW178289   7.411   4.972   6.217  0.3923  1.5875 -0.8290
25616SOL    HW278290   7.556   4.939   6.187  0.4638  1.5636 -0.4589
25617SOL     OW78291   7.183   7.763   5.919 -0.5046  0.1956 -0.0323
25617SOL    HW178292   7.134   7.832   5.873 -1.7081 -0.1011  0.7795
25617SOL    HW278293   7.210   7.703   5.850 -1.7426  0.0890 -0.4391
25618SOL     OW78294   0.724   6.917   5.277 -0.2450 -0.0976  0.4646
25618SOL    HW178295   0.818   6.927   5.295 -0.0159 -1.0654 -0.1081
25618SOL    HW278296   0.716   6.829   5.242 -1.6435 -0.7277  2.2166
25619SOL     OW78297   1.376   7.474   7.080 -0.1263  0.6416 -0.7614
25619SOL    HW178298   1.305   7.538   7.079 -0.0302  0.9438  2.2434
25619SOL    HW278299   1.355   7.417   7.154  2.2171  0.1178 -0.4289
25620SOL     OW78300   0.945   5.671   7.238  0.0068 -0.0536  0.0931
25620SOL    HW178301   0.927   5.757   7.276  1.3182 -0.3631  1.4990
25620SOL    HW278302   0.998   5.626   7.304 -0.8442 -2.0414 -0.5101
25621SOL     OW78303   0.223   5.545   7.883  0.3577 -0.1275 -0.2302
25621SOL    HW178304   0.187   5.585   7.804 -1.8073  0.6553  1.0408
25621SOL    HW278305   0.244   5.455   7.858 -1.9049 -0.4318 -1.3250
25622SOL     OW78306   7.317   3.829   4.718 -0.3448 -0.0106  0.1160
25622SOL    HW178307   7.358   3.800   4.799 -2.1793 -0.4041  0.9639
25622SOL    HW278308   7.286   3.748   4.677 -0.3493  0.2739 -0.4496
25623SOL     OW78309   1.111   7.771   6.257  0.1604  0.0612  0.4500
25623SOL    HW178310   1.075   7.771   6.169 -0.7639 -2.6355  0.7480
25623SOL    HW278311   1.204   7.788   6.244 -0.1519  0.9255 -0.9027
25624SOL     OW78312   0.008   7.756   8.276  0.3681 -0.2599 -0.1513
25624SOL    HW178313  -0.015   7.788   8.364  0.8151 -1.3846  0.3964
25624SOL    HW278314   0.092   7.712   8.288  0.8255  0.2803 -1.3224
25625SOL     OW78315   0.589   7.287   5.485 -0.1622 -0.0829  0.3999
25625SOL    HW178316   0.641   7.295   5.405  0.8958  1.2238  1.1703
25625SOL    HW278317   0.506   7.329   5.464 -0.7958 -1.8088 -0.7150
25626SOL     OW78318   1.083   0.039   7.506  0.3639  0.0934 -0.1515
25626SOL    HW178319   1.122   0.062   7.422  1.3139 -1.4368 -0.1720
25626SOL    HW278320   1.153   0.051   7.570 -0.1695  0.6494  0.3339
25627SOL     OW78321   0.424   6.598   8.062  0.4163  0.0015 -0.6324
25627SOL    HW178322   0.457   6.564   8.146  0.7164 -1.1603 -1.1972
25627SOL    HW278323   0.331   6.577   8.063 -0.0800  2.0022  0.3449
25628SOL     OW78324   1.237   6.681   3.867 -0.8718  0.2032  0.3309
25628SOL    HW178325   1.315   6.630   3.889 -0.9617 -0.1483 -0.1442
25628SOL    HW278326   1.261   6.771   3.888  0.3001  0.3526 -1.3883
25629SOL     OW78327   6.134   7.324   6.920  0.1560 -0.3671  0.2161
25629SOL    HW178328   6.071   7.316   6.848  1.8512  0.6374 -1.4905
25629SOL    HW278329   6.214   7.283   6.887  1.1544  0.5988  1.3069
25630SOL     OW78330   1.205   6.966   9.090 -0.0438 -0.1790 -0.5194
25630SOL    HW178331   1.148   6.924   9.025  0.5433 -0.2480 -0.9973
25630SOL    HW278332   1.190   7.060   9.076 -0.9079 -0.2035  0.1484
25631SOL     OW78333   5.079   6.167   9.575  0.4130 -0.6418 -0.2281
25631SOL    HW178334   5.029   6.088   9.557 -0.0157 -0.2610 -0.7112
25631SOL    HW278335   5.019   6.239   9.556  0.0218 -0.1830  2.3671
25632SOL     OW78336   1.750   6.676   9.146  0.2338  0.1772  0.2936
25632SOL    HW178337   1.661   6.711   9.156  0.2797 -0.0598  1.8339
25632SOL    HW278338   1.804   6.752   9.127 -0.0496  0.5958  1.1027
25633SOL     OW78339   1.285   7.470  10.646  0.2949 -0.1917  0.5935
25633SOL    HW178340   1.336   7.540  10.686  0.2322 -0.0553  0.4395
25633SOL    HW278341   1.263   7.503  10.559  1.4578 -0.9713 -0.0201
25634SOL     OW78342   0.647   0.703   9.547  0.1737  0.3090 -0.1896
25634SOL    HW178343   0.642   0.671   9.637  0.3042 -1.2867 -0.7118
25634SOL    HW278344   0.663   0.624   9.494  1.3267  1.3659 -1.5003
25635SOL     OW78345   5.479   5.867   7.261 -0.7050  0.1998 -0.1711
25635SOL    HW178346   5.497   5.961   7.261 -1.6318  0.3834 -0.0745
25635SOL    HW278347   5.407   5.857   7.324  0.2084 -0.7377  0.7739
25636SOL     OW78348   0.247   6.666   8.914  0.1742  0.0583 -0.0332
25636SOL    HW178349   0.270   6.573   8.922  0.4368  0.0161 -1.1681
25636SOL    HW278350   0.275   6.690   8.826  0.4079  1.3057  0.3685
25637SOL     OW78351   0.522   7.043   6.286  0.6047  0.0541 -0.1232
25637SOL    HW178352   0.510   6.953   6.319 -0.1970 -0.4762 -1.7800
25637SOL    HW278353   0.439   7.066   6.246  1.2677  0.9831 -1.0314
25638SOL     OW78354   5.472   0.604   8.901  0.6189  0.0113  0.4338
25638SOL    HW178355   5.557   0.599   8.946  0.7219  0.1704  0.2580
25638SOL    HW278356   5.409   0.619   8.971  0.6724 -0.6331  0.6274
25639SOL     OW78357   7.038   6.618   8.634 -0.1834 -0.2723 -0.7126
25639SOL    HW178358   7.134   6.624   8.640 -0.2813 -0.1623  1.6491
25639SOL    HW278359   7.012   6.699   8.590  0.6944  0.9020  0.8162
25640SOL     OW78360   0.265   0.302  10.029  0.4118 -0.7172  0.1448
25640SOL    HW178361   0.201   0.280  10.097 -2.0815  2.1208 -1.0554
25640SOL    HW278362   0.322   0.368  10.070  0.0539 -0.3337  0.0259
25641SOL     OW78363   1.684   6.860   8.640 -0.3111 -0.1711 -0.4368
25641SOL    HW178364   1.600   6.828   8.671 -0.9263  0.9030 -0.9355
25641SOL    HW278365   1.663   6.941   8.593  1.1666  1.1546  1.0233
25642SOL     OW78366   7.754   5.446   7.038 -0.2901  0.1860 -0.2649
25642SOL    HW178367   7.804   5.488   7.108 -0.7857 -0.1548  0.3007
25642SOL    HW278368   7.709   5.374   7.081 -2.0966  1.0981 -0.5389
25643SOL     OW78369   7.151   7.130   9.017 -0.5183  0.9369 -0.6865
25643SOL    HW178370   7.217   7.092   9.074 -1.4704  0.8757  0.4354
25643SOL    HW278371   7.199   7.192   8.962  0.7136 -0.3666 -1.1083
25644SOL     OW78372   6.836   6.768   8.858 -0.2177 -0.6685  0.4004
25644SOL    HW178373   6.764   6.731   8.808 -0.1909 -0.8405  0.4895
25644SOL    HW278374   6.913   6.719   8.831  0.3939  1.2887 -1.7299
25645SOL     OW78375   7.096   6.049   7.734 -0.5295  0.0404  0.2374
25645SOL    HW178376   7.024   6.111   7.743 -0.2343  0.6593 -1.3198
25645SOL    HW278377   7.071   5.993   7.660  0.7895  0.6316 -0.7182
25646SOL     OW78378   0.365   5.900   8.784 -0.4633 -0.6161 -0.2015
25646SOL    HW178379   0.405   5.979   8.748 -0.9098  0.7013  1.9862
25646SOL    HW278380   0.308   5.932   8.855 -1.5345 -2.8200  0.0250
25647SOL     OW78381   6.964   6.329   7.359  0.2650 -0.3924 -0.3919
25647SOL    HW178382   6.961   6.352   7.452  0.0433  1.1052 -0.7520
25647SOL    HW278383   6.877   6.295   7.340 -0.7406  2.1601 -0.7159
25648SOL     OW78384   7.831   5.974   9.688 -0.2469 -0.2482 -0.1731
25648SOL    HW178385   7.859   5.966   9.597  0.1572 -1.3824  0.0330
25648SOL    HW278386   7.849   6.065   9.711 -0.8699  0.1994 -1.3847
25649SOL     OW78387   5.632   7.496  10.081 -0.4080  0.1575  0.3600
25649SOL    HW178388   5.579   7.416  10.076  1.9431 -1.5410  0.5166
25649SOL    HW278389   5.658   7.514   9.991 -0.3717  0.3169  0.4025
25650SOL     OW78390   7.862   7.827   8.778 -0.4528  0.5603 -0.3453
25650SOL    HW178391   7.845   7.896   8.842 -0.7019  0.5826 -0.4343
25650SOL    HW278392   7.932   7.775   8.818 -0.1693  0.9415 -0.3392
25651SOL     OW78393   0.874   6.337   5.492  0.1011  0.1713 -0.0947
25651SOL    HW178394   0.921   6.368   5.569  1.1757 -2.1159  0.2652
25651SOL    HW278395   0.925   6.369   5.417  0.4532  0.3199  0.2063
25652SOL     OW78396   6.797   6.048   8.592 -0.0105 -0.4821  0.2078
25652SOL    HW178397   6.878   6.000   8.607  0.4506  0.2956  0.3039
25652SOL    HW278398   6.737   5.984   8.556  0.7985 -0.9684 -0.3091
25653SOL     OW78399   7.557   6.639   5.655 -0.1265  0.0770 -0.0492
25653SOL    HW178400   7.611   6.713   5.683 -0.0311 -0.7652  2.1414
25653SOL    HW278401   7.599   6.563   5.694 -0.5982 -1.0849 -1.7246
25654SOL     OW78402   0.170   6.073   8.927 -0.5037 -0.2231 -0.5156
25654SOL    HW178403   0.117   6.150   8.909 -3.4525 -1.2826  2.5209
25654SOL    HW278404   0.125   6.002   8.881  0.6868 -0.5913 -1.1644
25655SOL     OW78405   7.213   7.725   7.859  0.2516 -0.3658  0.0425
25655SOL    HW178406   7.178   7.746   7.773 -0.6439  0.8962  0.6753
25655SOL    HW278407   7.264   7.802   7.884  0.3042 -0.6131  0.7385
25656SOL     OW78408   0.892   6.494   8.780 -0.0594 -0.0653 -0.0572
25656SOL    HW178409   0.959   6.449   8.728  0.3932  0.7014 -0.1511
25656SOL    HW278410   0.883   6.580   8.738 -3.1624 -1.1180 -1.8183
25657SOL     OW78411   7.572   6.080   9.752  0.9597  0.2274  0.2152
25657SOL    HW178412   7.628   6.017   9.797 -1.3738 -1.8344  0.3922
25657SOL    HW278413   7.539   6.032   9.676 -0.7411  1.2874  0.2528
25658SOL     OW78414   0.225   7.723   9.098 -0.2702  1.2460 -0.1009
25658SOL    HW178415   0.307   7.766   9.122  0.4296  0.6258 -1.2461
25658SOL    HW278416   0.249   7.630   9.090 -0.4471  1.3504 -2.8559
25659SOL     OW78417   0.832   1.283   8.424  0.3009 -0.1701  0.6597
25659SOL    HW178418   0.828   1.376   8.404  0.7619 -0.2552  0.1596
25659SOL    HW278419   0.751   1.266   8.473 -0.1266  0.3432  0.1475
25660SOL     OW78420   7.546   5.618   9.502  0.1725 -0.0746 -0.2634
25660SOL    HW178421   7.462   5.572   9.495 -0.7353  1.1081  1.9748
25660SOL    HW278422   7.603   5.556   9.546 -0.5251  0.2262  1.1307
25661SOL     OW78423   0.781   7.088   6.977 -0.1389 -0.1330 -0.2443
25661SOL    HW178424   0.717   7.027   7.013  0.0765 -1.7946 -2.4231
25661SOL    HW278425   0.737   7.173   6.977 -1.4488 -0.7803  0.4495
25662SOL     OW78426   7.720   7.805   9.440  0.1073  0.0554 -0.3072
25662SOL    HW178427   7.659   7.753   9.387  0.4017  0.7048 -1.2922
25662SOL    HW278428   7.690   7.895   9.429 -0.7570  0.0994  1.8466
25663SOL     OW78429   7.723   7.328   9.353  0.1323 -0.2096  0.3396
25663SOL    HW178430   7.777   7.402   9.380  0.0674  0.3848 -1.0718
25663SOL    HW278431   7.646   7.368   9.311 -0.0098 -1.0678 -0.2469
25664SOL     OW78432   7.617   6.264  10.187  0.0128 -0.5891  0.2023
25664SOL    HW178433   7.565   6.272  10.107  0.5086 -1.7425 -0.2536
25664SOL    HW278434   7.553   6.250  10.256 -0.3277 -1.3664 -0.2617
25665SOL     OW78435   0.281   6.356   6.530 -0.2096  0.1799  0.3656
25665SOL    HW178436   0.267   6.354   6.625 -1.0818 -1.1749  0.2363
25665SOL    HW278437   0.197   6.381   6.494 -0.1776 -0.3411 -0.0841
25666SOL     OW78438   7.316   5.868   8.309 -0.4826 -0.3186 -0.6020
25666SOL    HW178439   7.306   5.949   8.358 -2.6745 -1.3194  0.7584
25666SOL    HW278440   7.400   5.832   8.340 -0.2415  0.6752 -0.0695
25667SOL     OW78441   7.351   7.072   9.184 -0.1686  0.1118 -0.0352
25667SOL    HW178442   7.387   7.074   9.273 -0.7735  1.7398  0.2079
25667SOL    HW278443   7.392   7.146   9.140 -0.4751 -0.2073 -0.8814
25668SOL     OW78444   0.522   6.955   8.056 -0.0400 -0.0675  0.6346
25668SOL    HW178445   0.510   6.899   8.132  0.3378 -0.6579  0.2680
25668SOL    HW278446   0.603   7.002   8.073  0.5585 -0.9110  0.1726
25669SOL     OW78447   0.808   5.555  10.229  0.3529 -0.0705 -0.0526
25669SOL    HW178448   0.860   5.525  10.304  0.9722 -0.7109 -0.7177
25669SOL    HW278449   0.854   5.520  10.153  0.7729  2.0647 -0.8620
25670SOL     OW78450   0.351   0.854   5.906  0.5176 -0.2548 -0.1327
25670SOL    HW178451   0.321   0.835   5.995 -0.3137  0.7656 -0.1826
25670SOL    HW278452   0.439   0.890   5.917 -0.0233  0.9350  0.3657
25671SOL     OW78453   7.970   7.217   8.084  0.5110  0.0668  0.2536
25671SOL    HW178454   8.039   7.159   8.051 -1.1827 -0.8598 -1.9419
25671SOL    HW278455   8.010   7.304   8.084  1.1696 -0.1218 -2.9604
25672SOL     OW78456   6.957   7.482   9.436 -0.1959 -0.7151 -0.5482
25672SOL    HW178457   7.002   7.540   9.498 -0.2609 -0.5003 -0.7007
25672SOL    HW278458   6.866   7.509   9.439 -0.2818 -1.0205 -0.3861
25673SOL     OW78459   7.541   7.465  11.548  0.0409  0.0808  0.3184
25673SOL    HW178460   7.507   7.380  11.519  1.2459 -0.4002  0.2151
25673SOL    HW278461   7.564   7.510  11.467  0.5167  0.0060  0.4085
25674SOL     OW78462   7.790   5.947   7.998  0.3484  0.0303  0.2586
25674SOL    HW178463   7.765   6.036   8.025 -1.1153 -0.0968 -0.5722
25674SOL    HW278464   7.850   5.960   7.925 -0.1391  0.3459 -0.0918
25675SOL     OW78465   6.873   6.875   9.914  0.1359  0.3184 -0.2287
25675SOL    HW178466   6.838   6.964   9.925 -0.1375 -0.0607  2.4734
25675SOL    HW278467   6.870   6.837  10.001  2.6100 -1.5227 -0.8587
25676SOL     OW78468   0.203   7.253   7.245  0.6830 -0.4652  0.0432
25676SOL    HW178469   0.118   7.263   7.201  0.3518  2.3771  1.1066
25676SOL    HW278470   0.268   7.270   7.176  0.2517  0.7573 -0.0922
25677SOL     OW78471   0.994   0.693   9.175 -0.0706  0.2828  0.4677
25677SOL    HW178472   1.075   0.707   9.126 -1.1010 -0.0395 -1.3860
25677SOL    HW278473   0.966   0.605   9.152 -0.9932  0.4133  1.0241
25678SOL     OW78474   0.936   6.208   7.161  0.4764  0.0334 -0.1177
25678SOL    HW178475   0.905   6.166   7.081  1.4857  0.0538 -0.5364
25678SOL    HW278476   0.909   6.299   7.152  0.7743  0.0837 -0.5452
25679SOL     OW78477   0.164   5.768   9.817 -0.3084  0.2229  0.0785
25679SOL    HW178478   0.123   5.763   9.903 -2.8696  1.3047 -0.9631
25679SOL    HW278479   0.134   5.689   9.772 -1.8635  1.2918 -0.8809
25680SOL     OW78480   6.621   7.687   9.757  0.0402  0.0840  0.1320
25680SOL    HW178481   6.695   7.748   9.762 -0.0167  0.1428  0.2759
25680SOL    HW278482   6.617   7.648   9.844  0.0113 -0.0501  0.0703
25681SOL     OW78483   6.709   7.336  10.618 -0.7695 -0.2097  0.7496
25681SOL    HW178484   6.790   7.387  10.617 -0.6889 -0.1582 -2.7084
25681SOL    HW278485   6.736   7.249  10.647  0.2030  0.2000  1.1155
25682SOL     OW78486   7.370   6.056   7.704 -1.1018  0.3182 -0.9133
25682SOL    HW178487   7.360   6.013   7.620 -0.0111  0.0980 -0.9446
25682SOL    HW278488   7.280   6.068   7.736 -1.4691 -1.2014 -1.2859
25683SOL     OW78489   7.007   6.885   8.566  0.5594  0.0208  0.0160
25683SOL    HW178490   7.014   6.947   8.493  1.7742 -0.3867 -0.2438
25683SOL    HW278491   6.948   6.927   8.628 -0.4421  0.4109 -1.1557
25684SOL     OW78492   0.804   7.076   8.111 -0.2554  0.3082 -0.1413
25684SOL    HW178493   0.887   7.029   8.116  0.0826  0.9846  2.1222
25684SOL    HW278494   0.824   7.156   8.062  0.6067  0.6905  0.7784
25685SOL     OW78495   0.352   5.550   8.366 -0.3982 -0.2056  0.1020
25685SOL    HW178496   0.340   5.602   8.286  1.5652  0.5628  0.2480
25685SOL    HW278497   0.393   5.469   8.336  2.2998  0.9322  0.4597
25686SOL     OW78498   7.020   5.961   8.889 -0.0652 -0.0801 -0.3821
25686SOL    HW178499   7.091   5.984   8.829  0.7892 -0.4323  0.4844
25686SOL    HW278500   6.974   6.044   8.905  0.9303  0.4007  0.0525
25687SOL     OW78501   7.082   6.230   8.303  0.3328 -0.5821  0.4408
25687SOL    HW178502   7.011   6.252   8.364 -1.1830 -1.6895 -0.8315
25687SOL    HW278503   7.041   6.233   8.217  1.6392 -1.9791 -0.2741
25688SOL     OW78504   1.986   0.245   8.154  0.1083  0.4096  0.4356
25688SOL    HW178505   2.064   0.210   8.198 -0.5375 -1.8090 -0.0521
25688SOL    HW278506   2.011   0.249   8.062 -0.0743  0.5450  0.3930
25689SOL     OW78507   0.319   1.525   9.009 -0.3415 -0.7096 -0.6869
25689SOL    HW178508   0.323   1.542   8.914 -0.9016  1.3015 -0.3991
25689SOL    HW278509   0.385   1.583   9.046 -0.0146 -1.6055  0.1600
25690SOL     OW78510   0.836   7.576   8.781 -0.0915 -0.3814 -0.2752
25690SOL    HW178511   0.854   7.612   8.694  1.2837 -2.5350 -0.9624
25690SOL    HW278512   0.760   7.519   8.768 -2.1752  1.9493  0.7762
25691SOL     OW78513   0.418   5.742   6.953  0.2972 -0.0514  0.3385
25691SOL    HW178514   0.377   5.656   6.960 -1.6588  0.6278 -1.4198
25691SOL    HW278515   0.454   5.744   6.864  1.7912  0.3831  0.9229
25692SOL     OW78516   0.737   6.174  10.173  0.0114 -0.2871 -0.1327
25692SOL    HW178517   0.699   6.157  10.260 -0.3115 -0.9541 -0.3962
25692SOL    HW278518   0.676   6.235  10.132  0.4763  0.5111  0.3186
25693SOL     OW78519   0.002   7.743   9.253 -0.1234 -0.3461 -0.2638
25693SOL    HW178520   0.031   7.816   9.308 -0.6724  1.4938 -2.2625
25693SOL    HW278521   0.063   7.744   9.179 -1.5258 -0.3866 -1.4531
25694SOL     OW78522   6.921   6.849   8.146 -0.0711  0.5653  0.3847
25694SOL    HW178523   6.825   6.847   8.136 -0.1219  1.0667  0.7016
25694SOL    HW278524   6.938   6.787   8.217 -0.2678  1.2184  1.0171
25695SOL     OW78525   7.722   4.833  10.603  0.2597 -0.2579 -0.3755
25695SOL    HW178526   7.689   4.918  10.632 -0.4147 -0.0098 -1.7822
25695SOL    HW278527   7.736   4.784  10.684  1.6128  1.5105  0.5180
25696SOL     OW78528   0.338   6.684  11.968  0.5951  0.3827 -0.7298
25696SOL    HW178529   0.361   6.680  12.061  0.3648 -0.8956 -0.7050
25696SOL    HW278530   0.419   6.663  11.922  0.3404 -0.6166 -0.7502
25697SOL     OW78531   0.545   5.719  10.639 -0.0189 -0.3075 -0.3759
25697SOL    HW178532   0.476   5.785  10.641 -0.0337 -0.3119 -0.6514
25697SOL    HW278533   0.563   5.699  10.731 -0.8955 -0.8397 -0.3112
25698SOL     OW78534   0.080   7.409  10.199 -0.2450  0.2817  0.3945
25698SOL    HW178535  -0.014   7.422  10.189 -0.4655 -0.8161  0.7709
25698SOL    HW278536   0.108   7.369  10.117  0.0335  1.2246  0.0198
25699SOL     OW78537   0.686   7.407   0.468 -0.3541 -0.3080  0.0761
25699SOL    HW178538   0.637   7.421   0.550 -3.9641 -2.2535 -1.4963
25699SOL    HW278539   0.710   7.315   0.470 -1.3769 -0.6436 -1.4114
25700SOL     OW78540   7.957   6.670  10.515 -0.1320 -0.0866 -0.3180
25700SOL    HW178541   7.879   6.706  10.473  0.9977  0.5704 -1.9704
25700SOL    HW278542   7.936   6.670  10.608 -2.4318 -0.7873 -0.7698
25701SOL     OW78543   0.442   5.291  10.374 -0.4841  1.1277  0.2160
25701SOL    HW178544   0.497   5.366  10.349  0.2664  0.8020  0.8756
25701SOL    HW278545   0.385   5.325  10.443 -0.5525  1.2456  0.1028
25702SOL     OW78546   7.132   7.993  10.473 -0.3342  0.1729 -0.1001
25702SOL    HW178547   7.196   7.946  10.420 -0.2549  0.6358 -0.4303
25702SOL    HW278548   7.172   8.079  10.488  0.1625 -0.3362  1.7181
25703SOL     OW78549   7.912   6.323  11.290 -0.1921 -0.5343 -0.0991
25703SOL    HW178550   7.887   6.242  11.246 -0.1889 -0.6359  0.0857
25703SOL    HW278551   7.994   6.349  11.248 -1.1881  0.4360 -1.5427
25704SOL     OW78552   7.720   7.231   7.955  0.1457 -0.2154  0.2253
25704SOL    HW178553   7.666   7.165   7.999 -1.2400  1.0549  0.4850
25704SOL    HW278554   7.806   7.224   7.998 -0.3016 -1.0859  1.0090
25705SOL     OW78555   6.321   5.265  12.257 -0.1755 -0.0384 -0.3744
25705SOL    HW178556   6.398   5.308  12.294  0.2741 -1.3233  0.2633
25705SOL    HW278557   6.292   5.205  12.326 -1.9449  0.6422 -0.4891
25706SOL     OW78558   0.421   5.785   0.077 -0.1776  0.2288 -0.2320
25706SOL    HW178559   0.369   5.840   0.135  1.3256  1.1557  0.3124
25706SOL    HW278560   0.495   5.756   0.132  0.1793 -0.5868 -1.1152
25707SOL     OW78561   7.795   7.447  10.135 -0.6108 -0.1097  0.6361
25707SOL    HW178562   7.774   7.529  10.178 -0.6757  0.1925  0.0319
25707SOL    HW278563   7.720   7.430  10.077 -0.5341 -0.5198  0.6544
25708SOL     OW78564   7.996   5.543   9.531 -0.0911 -0.7263  0.4979
25708SOL    HW178565   7.978   5.455   9.564 -1.6961 -0.9869 -0.9298
25708SOL    HW278566   7.966   5.602   9.600 -1.0259 -1.2867  0.5881
25709SOL     OW78567   7.226   7.163  11.187  0.2372  0.0782 -0.3522
25709SOL    HW178568   7.166   7.111  11.240  0.9204  0.2704  0.6436
25709SOL    HW278569   7.295   7.101  11.162  1.2904  0.5429  1.2108
25710SOL     OW78570   5.485   7.284  10.049 -0.5603 -0.7559  0.2501
25710SOL    HW178571   5.415   7.329  10.000 -1.6461  0.0488  2.3814
25710SOL    HW278572   5.461   7.192  10.045 -2.0441 -0.4538  1.2986
25711SOL     OW78573   2.428   7.398  11.539  0.2996  0.1062  0.1208
25711SOL    HW178574   2.339   7.414  11.571  0.0483  1.0799 -1.0276
25711SOL    HW278575   2.484   7.454  11.593 -0.0115  1.0126 -0.4913
25712SOL     OW78576   7.459   7.109  10.505  0.7459  0.0581 -0.6677
25712SOL    HW178577   7.402   7.060  10.565  1.5374 -1.8184 -1.3695
25712SOL    HW278578   7.533   7.050  10.490  2.5523  2.1558 -0.3197
25713SOL     OW78579   0.264   5.948   8.453  0.9313  0.4422  0.1267
25713SOL    HW178580   0.221   5.937   8.369 -1.5707  2.2418  1.0766
25713SOL    HW278581   0.263   5.861   8.492  0.8078 -0.1128 -1.0727
25714SOL     OW78582   1.934   6.856  10.509  0.2501 -0.2129 -0.5503
25714SOL    HW178583   2.008   6.850  10.568  0.4857  0.1690 -0.7974
25714SOL    HW278584   1.919   6.767  10.478 -0.1896 -0.4943  0.4558
25715SOL     OW78585   1.244   7.564  11.415 -0.1415  0.4845  0.4265
25715SOL    HW178586   1.248   7.475  11.380 -0.2695 -0.5816  2.9002
25715SOL    HW278587   1.150   7.584  11.417 -0.2741 -0.1028  1.5019
25716SOL     OW78588   6.717   6.315   9.266  0.2366  0.0782  0.7839
25716SOL    HW178589   6.808   6.286   9.273 -0.3748 -1.8146  1.4094
25716SOL    HW278590   6.702   6.367   9.345  0.8955  0.8167  0.4367
25717SOL     OW78591   7.545   5.789   8.415 -0.1378 -0.4112  0.5009
25717SOL    HW178592   7.579   5.719   8.470  1.1495  0.0492  0.3321
25717SOL    HW278593   7.599   5.786   8.336 -1.6419 -0.7600 -0.5594
25718SOL     OW78594   0.581   7.053   9.650  0.2714  0.4881  0.0806
25718SOL    HW178595   0.649   7.089   9.593 -0.8970  1.2710 -0.8658
25718SOL    HW278596   0.571   6.962   9.620  1.8645 -0.0938  1.1846
25719SOL     OW78597   1.716   6.988   9.269  0.5266  0.3197 -0.6299
25719SOL    HW178598   1.684   7.001   9.358  1.3875  1.0558 -0.4146
25719SOL    HW278599   1.719   7.076   9.232 -1.6364 -0.1156 -2.0557
25720SOL     OW78600   6.516   5.449   8.847 -0.1918 -0.3309  0.4165
25720SOL    HW178601   6.581   5.519   8.854 -1.6061  1.2335 -1.0375
25720SOL    HW278602   6.558   5.383   8.792  0.8351 -0.2302  1.0500
25721SOL     OW78603   7.428   7.932   8.927 -0.0156  0.0822 -0.1788
25721SOL    HW178604   7.480   7.910   8.850  0.6997  0.8171  0.0811
25721SOL    HW278605   7.352   7.978   8.892  0.7602  1.2470 -0.4113
25722SOL     OW78606   0.524   6.762  10.014  0.0461  0.0064 -0.0526
25722SOL    HW178607   0.605   6.729  10.054 -0.2562  1.3218  1.7849
25722SOL    HW278608   0.455   6.708  10.053 -0.0196 -0.9420 -1.4209
25723SOL     OW78609   0.070   6.205   9.543 -0.0117 -0.1196 -0.1290
25723SOL    HW178610   0.087   6.156   9.463 -0.1641 -0.4195  0.0207
25723SOL    HW278611   0.089   6.143   9.614  1.5231  0.5695  0.1143
25724SOL     OW78612   7.864   7.038  11.457  0.1103  0.3939 -0.0148
25724SOL    HW178613   7.771   7.047  11.434  0.4438  2.1315 -0.8525
25724SOL    HW278614   7.892   6.956  11.416 -0.4595  1.1049 -1.9097
25725SOL     OW78615   6.477   6.070  10.093 -0.0609  0.1313 -0.2144
25725SOL    HW178616   6.471   6.137  10.025  1.5545  0.8576  0.2935
25725SOL    HW278617   6.388   6.061  10.126 -0.8281 -0.0013 -2.1725
25726SOL     OW78618   7.654   7.822  10.547 -0.1364 -0.0815 -0.2292
25726SOL    HW178619   7.602   7.891  10.588 -0.2824  0.6917 -1.6385
25726SOL    HW278620   7.738   7.864  10.527  0.1928 -0.6486 -0.0618
25727SOL     OW78621   1.392   5.685   7.797 -0.1465 -0.6135 -0.4667
25727SOL    HW178622   1.353   5.769   7.822 -1.1785 -0.6079 -1.8978
25727SOL    HW278623   1.478   5.685   7.837  0.4548  1.7813 -1.5611
25728SOL     OW78624   0.033   0.289  10.190 -0.1753 -0.2054  0.4920
25728SOL    HW178625  -0.046   0.234  10.187 -0.4999  0.1406  2.0022
25728SOL    HW278626   0.083   0.256  10.264  1.4001 -0.7469 -0.7541
25729SOL     OW78627   7.218   5.443  10.137 -0.5866 -0.3693 -0.1485
25729SOL    HW178628   7.302   5.462  10.177 -0.1618 -0.3006 -1.0505
25729SOL    HW278629   7.154   5.458  10.207  0.1056  0.0340  0.4102
25730SOL     OW78630   0.578   6.129  10.388 -0.4007  0.4434  0.1175
25730SOL    HW178631   0.522   6.065  10.345  1.5799 -1.2728 -0.0579
25730SOL    HW278632   0.576   6.106  10.481 -1.3273  1.4947  0.3848
25731SOL     OW78633   0.731   5.995  10.911 -0.1401  0.1118  0.2082
25731SOL    HW178634   0.668   6.066  10.920 -0.1804 -0.0699  1.6261
25731SOL    HW278635   0.783   6.019  10.834 -1.8824  0.2732 -0.9810
25732SOL     OW78636   5.319   5.715   8.800  0.1700 -0.6880 -0.7134
25732SOL    HW178637   5.368   5.711   8.882  1.4453  1.2841 -1.2941
25732SOL    HW278638   5.247   5.775   8.819 -0.8151 -1.9109 -0.4692
25733SOL     OW78639   7.517   7.000  10.127  0.3803 -0.0526 -0.4289
25733SOL    HW178640   7.587   7.040  10.179 -1.7016  2.8990  0.3627
25733SOL    HW278641   7.440   7.004  10.183 -0.7672 -2.0165 -1.7381
25734SOL     OW78642   0.519   6.211   9.148 -0.1936  0.6758 -0.0879
25734SOL    HW178643   0.588   6.147   9.135 -0.1423  0.4026  1.3356
25734SOL    HW278644   0.439   6.160   9.155 -0.3963  0.9086 -0.6381
25735SOL     OW78645   0.137   7.166  10.993 -0.1550  0.5328  0.0680
25735SOL    HW178646   0.220   7.208  11.017  1.0162 -1.5459 -0.1843
25735SOL    HW278647   0.115   7.204  10.908 -1.0704  3.2660  1.3776
25736SOL     OW78648   0.138   4.936   9.513  0.1482 -0.1190 -0.1743
25736SOL    HW178649   0.123   4.953   9.606 -1.7088 -0.2137 -0.4199
25736SOL    HW278650   0.232   4.919   9.507  0.0896 -1.6897  1.9359
25737SOL     OW78651   0.597   5.911   8.605  0.3653 -0.4784  1.2549
25737SOL    HW178652   0.652   5.834   8.621  0.7110 -0.4545  0.2685
25737SOL    HW278653   0.508   5.876   8.595  0.1722 -0.5091  2.9340
25738SOL     OW78654   1.142   7.440  12.286  0.0367  0.4744 -0.3270
25738SOL    HW178655   1.112   7.350  12.294  2.2557 -0.2183  1.0597
25738SOL    HW278656   1.067   7.493  12.314 -0.0003 -1.1387  3.1043
25739SOL     OW78657   6.788   0.148  11.073  0.2981  0.4243 -0.5368
25739SOL    HW178658   6.815   0.079  11.012  0.1948  0.4936 -0.6585
25739SOL    HW278659   6.794   0.229  11.023 -0.8440  0.3647 -0.7828
25740SOL     OW78660   0.255   7.504   7.932  0.1426 -0.3078 -0.1959
25740SOL    HW178661   0.253   7.531   7.840 -0.0771  1.2384  0.2455
25740SOL    HW278662   0.346   7.517   7.959  0.2730 -1.0344 -0.2509
25741SOL     OW78663   0.447   7.489  11.798 -0.1427 -0.2420  0.4918
25741SOL    HW178664   0.493   7.468  11.879  1.1307  0.3203 -0.0606
25741SOL    HW278665   0.489   7.435  11.731  0.6717  1.2605 -0.2699
25742SOL     OW78666   7.486   6.833  10.418 -0.2269 -0.8235  0.1703
25742SOL    HW178667   7.397   6.863  10.399 -0.5527  0.0640  2.6370
25742SOL    HW278668   7.474   6.749  10.463  0.0250 -0.0825  1.7064
25743SOL     OW78669   1.492   4.417   9.738  0.0923 -0.0274  0.3678
25743SOL    HW178670   1.583   4.446   9.733  1.2993 -3.5830 -3.0612
25743SOL    HW278671   1.491   4.350   9.807 -0.6830  1.8030  2.2421
25744SOL     OW78672   0.831   5.952   9.411  0.3195  0.2049  0.2378
25744SOL    HW178673   0.898   5.883   9.418 -0.9110 -1.5310 -2.9910
25744SOL    HW278674   0.770   5.933   9.483  0.7370 -1.2567  0.2472
25745SOL     OW78675   0.321   5.890  10.512 -0.1524  0.2969  0.4206
25745SOL    HW178676   0.279   5.963  10.557 -0.3504 -0.4417  1.4793
25745SOL    HW278677   0.338   5.922  10.424  1.6739  2.3508  1.4280
25746SOL     OW78678   7.107   5.934   9.178  0.3190  0.2563 -0.0330
25746SOL    HW178679   7.173   5.866   9.190  1.1198  1.1026  0.4997
25746SOL    HW278680   7.076   5.922   9.088 -0.4896 -1.5938  0.4278
25747SOL     OW78681   0.834   6.456  11.306  0.4212  0.2769  0.0930
25747SOL    HW178682   0.877   6.400  11.241 -1.5681 -1.8035  0.4283
25747SOL    HW278683   0.802   6.532  11.256  0.0246 -0.6700 -1.1499
25748SOL     OW78684   0.365   6.577  10.352 -0.0984  0.2571 -0.5640
25748SOL    HW178685   0.297   6.565  10.418  0.6631  3.0089  0.8790
25748SOL    HW278686   0.318   6.583  10.269 -1.4613  0.4733  0.1934
25749SOL     OW78687   0.003   7.506   8.610  0.1714 -0.1160 -0.0637
25749SOL    HW178688  -0.071   7.460   8.569 -0.2552  0.0319  0.5209
25749SOL    HW278689  -0.036   7.584   8.648  0.1264 -1.2589  2.4492
25750SOL     OW78690   6.428   0.940  11.102  0.0540 -0.7963  0.0320
25750SOL    HW178691   6.507   0.910  11.059  0.0328 -2.1821  0.9126
25750SOL    HW278692   6.376   0.861  11.116 -1.9545  0.1968 -1.4101
25751SOL     OW78693   7.703   7.704  11.330  0.6536 -0.7285  0.5412
25751SOL    HW178694   7.744   7.650  11.262  0.0788 -1.3136  0.6591
25751SOL    HW278695   7.673   7.782  11.284  1.1500 -0.6740  0.3031
25752SOL     OW78696   0.385   7.612  12.237 -0.1952 -0.3470  0.1998
25752SOL    HW178697   0.312   7.641  12.182 -0.9912 -0.7324  1.0409
25752SOL    HW278698   0.358   7.527  12.271  0.1474  0.0271  1.4542
25753SOL     OW78699   0.913   7.107  10.188  0.5342  0.0858  0.0684
25753SOL    HW178700   0.989   7.164  10.178  0.4625  0.3691  1.0861
25753SOL    HW278701   0.950   7.019  10.190  0.7892  0.1908  0.0607
25754SOL     OW78702   6.558   6.580   8.908 -0.2888  0.3975  0.0098
25754SOL    HW178703   6.539   6.670   8.934  0.5719  0.6109 -0.0784
25754SOL    HW278704   6.635   6.556   8.959 -0.1317 -0.0687 -0.4429
25755SOL     OW78705   7.280   0.885  10.770  0.1125 -0.3440  0.3680
25755SOL    HW178706   7.357   0.839  10.802 -0.7839 -2.8017 -0.8086
25755SOL    HW278707   7.212   0.818  10.765 -1.0789  0.9149 -2.1332
25756SOL     OW78708   7.509   6.451  12.118 -0.2746  0.6012  0.0003
25756SOL    HW178709   7.466   6.370  12.093  1.8596 -0.6205  0.0321
25756SOL    HW278710   7.440   6.505  12.157 -1.6094 -1.4533  0.5877
25757SOL     OW78711   1.065   6.335   8.653 -0.3048  0.3001 -0.1108
25757SOL    HW178712   1.063   6.266   8.586  0.3100  0.8240 -0.6668
25757SOL    HW278713   1.157   6.353   8.667 -0.4620  1.0329  0.0159
25758SOL     OW78714   0.537   7.559  11.433  0.3017 -1.3434 -0.7779
25758SOL    HW178715   0.619   7.582  11.477  0.1757 -0.5716 -0.9381
25758SOL    HW278716   0.479   7.634  11.448  0.1488 -1.1987 -1.9903
25759SOL     OW78717   0.150   5.174  10.091 -0.0115  0.6789  0.2188
25759SOL    HW178718   0.238   5.158  10.058  0.1232 -2.0295  1.5529
25759SOL    HW278719   0.100   5.096  10.065 -1.2642  0.8805  1.8223
25760SOL     OW78720   0.812   6.500  10.111  0.0898 -0.0660  0.1988
25760SOL    HW178721   0.784   6.580  10.065  0.1400 -0.3618 -0.3556
25760SOL    HW278722   0.816   6.433  10.043  1.7420 -0.1382  0.3229
25761SOL     OW78723   6.781   5.643  10.677 -0.0654  0.0727 -0.3095
25761SOL    HW178724   6.745   5.631  10.589  0.4403 -0.8080 -0.4036
25761SOL    HW278725   6.711   5.613  10.736  0.8444 -2.7311 -0.5172
25762SOL     OW78726   6.874   6.441  12.134  0.3494  0.1530  0.6403
25762SOL    HW178727   6.815   6.366  12.143 -1.2393  1.1835 -0.7052
25762SOL    HW278728   6.961   6.402  12.121 -0.1138 -1.4039  1.9140
25763SOL     OW78729   6.517   4.899  10.271  0.2456 -0.3136 -0.1996
25763SOL    HW178730   6.589   4.933  10.219  0.8911 -0.4061  0.6018
25763SOL    HW278731   6.505   4.964  10.340  0.2903 -0.8181  0.2968
25764SOL     OW78732   7.787   7.715  12.284  0.4014 -0.4797  0.1204
25764SOL    HW178733   7.859   7.665  12.246 -0.2032 -1.0904 -0.2432
25764SOL    HW278734   7.722   7.649  12.309 -0.5289  0.1360 -0.6187
25765SOL     OW78735   7.504   0.274  12.170 -0.4542 -0.5420  0.1201
25765SOL    HW178736   7.543   0.260  12.256 -0.2376  0.8013  0.2648
25765SOL    HW278737   7.565   0.332  12.124  0.2280 -2.4837 -1.5473
25766SOL     OW78738   1.154   0.822   0.819 -0.7530 -0.7197  0.1420
25766SOL    HW178739   1.115   0.735   0.802 -1.5349 -0.7679  1.9424
25766SOL    HW278740   1.217   0.806   0.889 -0.4704  0.0803  0.0709
25767SOL     OW78741   0.675   7.171  11.910 -0.2368 -0.8630 -0.3366
25767SOL    HW178742   0.705   7.081  11.901  2.9898  0.0497  0.0351
25767SOL    HW278743   0.751   7.224  11.887 -2.4522  1.8728 -2.1562
25768SOL     OW78744   7.333   5.895  12.115 -0.8128 -0.5077 -0.6327
25768SOL    HW178745   7.423   5.863  12.123 -0.6540 -0.8477 -2.9688
25768SOL    HW278746   7.302   5.858  12.032 -2.3057  1.4657 -1.0302
25769SOL     OW78747   1.486   7.440  10.355 -0.4926  0.5538 -0.3941
25769SOL    HW178748   1.545   7.452  10.429  0.6404  0.2103 -1.2241
25769SOL    HW278749   1.408   7.491  10.378 -0.9116 -0.9426  1.8162
25770SOL     OW78750   7.609   6.638   0.040  0.7445  0.1648  0.5177
25770SOL    HW178751   7.625   6.591  -0.042  1.8683 -0.7842  1.2480
25770SOL    HW278752   7.550   6.580   0.089  0.5963  0.4249  0.6459
25771SOL     OW78753   7.216   7.026   0.114 -0.2880  0.0445  0.6506
25771SOL    HW178754   7.300   6.980   0.116 -0.4569 -0.5943 -2.2380
25771SOL    HW278755   7.153   6.961   0.083 -1.1673  1.3156 -0.3770
25772SOL     OW78756   0.134   5.699  11.743  0.3134 -0.0079 -0.0796
25772SOL    HW178757   0.086   5.670  11.665 -0.4640  1.2981 -0.1200
25772SOL    HW278758   0.086   5.660  11.816  0.6367 -0.6775 -0.2191
25773SOL     OW78759   6.512   6.278   0.018 -0.3460  0.5121 -0.0585
25773SOL    HW178760   6.425   6.240   0.007 -1.0079  0.3936  4.1329
25773SOL    HW278761   6.560   6.214   0.071  1.7181  1.4106 -0.7286
25774SOL     OW78762   0.915   6.598   1.080  0.0148 -0.7801  0.0824
25774SOL    HW178763   0.847   6.662   1.055  0.7075 -0.2745 -0.5502
25774SOL    HW278764   0.894   6.576   1.171 -1.8174 -1.6924 -0.4980
25775SOL     OW78765   7.214   0.282  11.103 -0.3820 -0.2695 -0.3148
25775SOL    HW178766   7.185   0.202  11.060 -1.4622 -1.1045  1.7867
25775SOL    HW278767   7.206   0.263  11.197 -0.9456  2.3835  0.2721
25776SOL     OW78768   0.875   6.028  12.045  0.5211 -0.0119  0.1826
25776SOL    HW178769   0.952   6.037  11.989  1.5309 -0.0197  1.5100
25776SOL    HW278770   0.813   5.977  11.993  1.0054  0.8644 -1.2931
25777SOL     OW78771   6.516   6.425  11.294  0.4609 -0.2571  0.2873
25777SOL    HW178772   6.553   6.338  11.306  0.7353 -0.4568 -1.6218
25777SOL    HW278773   6.589   6.485  11.312  0.4296 -0.4402  1.0356
25778SOL     OW78774   2.320   6.719  10.431  0.1769 -0.1216  0.7352
25778SOL    HW178775   2.284   6.754  10.513 -1.1783  0.2173  0.0157
25778SOL    HW278776   2.306   6.787  10.367  0.2213 -0.8247 -0.0389
25779SOL     OW78777   7.498   5.948  11.850  0.0075  0.6843 -0.0302
25779SOL    HW178778   7.486   5.856  11.829  0.7092  0.8324 -1.1321
25779SOL    HW278779   7.587   5.953  11.885 -0.3776  0.7987  0.9766
25780SOL     OW78780   7.281   6.488  10.431  0.1399 -0.6140 -0.1799
25780SOL    HW178781   7.309   6.486  10.339 -0.3767 -1.3835 -0.3303
25780SOL    HW278782   7.209   6.551  10.433 -0.3995 -1.2115 -0.4742
25781SOL     OW78783   5.997   5.800   0.274  0.0530 -0.0831 -0.4134
25781SOL    HW178784   6.040   5.776   0.191  0.4446 -1.1945  0.0894
25781SOL    HW278785   5.967   5.717   0.310 -0.2818  0.4111  0.4825
25782SOL     OW78786   7.397   6.272  11.195 -0.2481 -0.0637 -0.7751
25782SOL    HW178787   7.453   6.227  11.257 -2.2349 -2.2744 -0.4536
25782SOL    HW278788   7.422   6.364  11.203  2.5848 -0.7980  0.0183
25783SOL     OW78789   0.717   4.177  12.282 -0.4415 -0.4284 -0.7890
25783SOL    HW178790   0.688   4.238  12.351  2.8093  0.8332 -0.3582
25783SOL    HW278791   0.660   4.101  12.292 -1.3542  0.4965  2.0494
25784SOL     OW78792   7.236   5.731  11.630  0.3128  0.3322  0.5931
25784SOL    HW178793   7.244   5.663  11.563  0.1835 -0.4850  1.4084
25784SOL    HW278794   7.191   5.803  11.585  0.2794 -0.1803 -0.2166
25785SOL     OW78795   7.657   6.394  10.496 -0.5184  0.2132 -0.1082
25785SOL    HW178796   7.633   6.315  10.447  0.8976 -0.3423  0.0320
25785SOL    HW278797   7.690   6.454  10.429  1.2087 -0.4635  0.0787
25786SOL     OW78798   1.702   6.554  12.268  0.0042 -0.4784  0.1104
25786SOL    HW178799   1.789   6.513  12.267  0.3560  0.2004  1.1592
25786SOL    HW278800   1.641   6.482  12.249  0.8809 -0.6440 -2.4130
25787SOL     OW78801   7.845   6.610  11.216  0.4166  0.1175  0.3447
25787SOL    HW178802   7.842   6.615  11.121 -1.4190  0.4855  0.3784
25787SOL    HW278803   7.826   6.519  11.236 -2.3836  0.6241  0.3631
25788SOL     OW78804   1.777   6.365  11.561 -0.0463  0.1433  0.5787
25788SOL    HW178805   1.862   6.328  11.585 -0.5011  0.5164  2.9208
25788SOL    HW278806   1.791   6.399  11.472  1.8181 -1.0723  0.3378
25789SOL     OW78807   7.813   7.841   0.669  0.2465  0.3241  0.3664
25789SOL    HW178808   7.806   7.884   0.754  0.7499  1.5065 -0.1639
25789SOL    HW278809   7.906   7.825   0.658  0.0261 -1.2956  0.7215
25790SOL     OW78810   7.826   5.175  12.281  0.5372 -0.2789 -0.5187
25790SOL    HW178811   7.890   5.106  12.298 -0.5496 -1.1435  0.2167
25790SOL    HW278812   7.759   5.163  12.349 -0.6344  0.3004 -1.5317
25791SOL     OW78813   6.302   6.499  11.658 -0.5454  0.6659 -0.5966
25791SOL    HW178814   6.340   6.411  11.661 -1.5233  0.2348 -0.4107
25791SOL    HW278815   6.375   6.557  11.678 -0.5663 -0.3030  3.1666
25792SOL     OW78816   0.241   4.730   0.083 -0.6670  0.0136  0.3746
25792SOL    HW178817   0.261   4.808   0.134  0.9625 -0.4958  0.5679
25792SOL    HW278818   0.179   4.759   0.017 -0.7284  1.2745  0.9675
25793SOL     OW78819   4.551   7.039  11.069 -0.4253 -0.0033 -0.3042
25793SOL    HW178820   4.603   6.987  11.007 -1.2336 -0.6284 -0.4643
25793SOL    HW278821   4.477   6.983  11.092 -0.4631  0.4608  0.7611
25794SOL     OW78822   1.116   5.705   0.970  0.6764  0.6142  0.2556
25794SOL    HW178823   1.058   5.631   0.953  0.4011  1.1800 -1.5000
25794SOL    HW278824   1.143   5.695   1.061 -1.8613  0.1124  1.0137
25795SOL     OW78825   7.208   7.504  12.442  0.1688  0.2726 -0.2455
25795SOL    HW178826   7.117   7.472  12.443 -0.0979  0.9883 -0.8074
25795SOL    HW278827   7.260   7.425  12.425 -0.3044 -0.2151  0.4886
25796SOL     OW78828   7.712   7.754   0.446 -0.0181  0.3802  0.1425
25796SOL    HW178829   7.628   7.721   0.477  0.1749 -0.8508 -0.5689
25796SOL    HW278830   7.754   7.790   0.524 -0.5078 -0.5230  0.8460
25797SOL     OW78831   0.150   4.937   9.780  0.5169  0.0757  0.1950
25797SOL    HW178832   0.245   4.935   9.792  0.7490 -3.4670 -0.9613
25797SOL    HW278833   0.115   4.916   9.867  1.0518 -2.2765 -0.0967
25798SOL     OW78834   0.039   6.100  11.846 -0.3137  0.0242 -0.9077
25798SOL    HW178835   0.090   6.040  11.900 -0.9748 -0.6663 -1.0398
25798SOL    HW278836  -0.032   6.129  11.903 -0.5280 -0.0447 -1.1391
25799SOL     OW78837   7.522   5.300  10.767 -0.2368  0.0712  0.2968
25799SOL    HW178838   7.456   5.370  10.764 -2.2131 -1.6681  0.5191
25799SOL    HW278839   7.562   5.309  10.853 -1.7819 -0.1340  1.0876
25800SOL     OW78840   0.602   7.085  11.414 -0.6392  0.1505 -0.0182
25800SOL    HW178841   0.532   7.040  11.368 -0.6682  0.3475 -0.1688
25800SOL    HW278842   0.679   7.029  11.400 -0.6682  0.1597 -0.2289
25801SOL     OW78843   0.907   5.765  10.706  0.2258 -0.5625 -0.0085
25801SOL    HW178844   0.826   5.779  10.754 -0.9232 -1.5936 -1.5522
25801SOL    HW278845   0.915   5.841  10.649  1.1288  0.2373  1.1565
25802SOL     OW78846   1.409   6.974  10.779  0.0160 -0.3631  0.4247
25802SOL    HW178847   1.393   7.068  10.779 -1.8495 -0.5937 -2.0149
25802SOL    HW278848   1.323   6.935  10.792  0.5684 -1.7474  0.0981
25803SOL     OW78849   7.008   6.688  10.331 -0.1093  0.1126 -0.0688
25803SOL    HW178850   6.937   6.660  10.390  0.2103 -1.4401 -0.3738
25803SOL    HW278851   7.059   6.750  10.383 -2.1549  1.9881 -0.1251
25804SOL     OW78852   7.554   4.844  11.411 -0.2518 -0.0495 -0.0664
25804SOL    HW178853   7.563   4.889  11.494 -0.3164  0.6011 -0.4067
25804SOL    HW278854   7.464   4.814  11.409  0.1468 -1.3692  0.7398
25805SOL     OW78855   6.905   6.250   0.643  0.3603  0.0451  0.0777
25805SOL    HW178856   6.840   6.284   0.581  0.2346 -2.6604 -1.4195
25805SOL    HW278857   6.855   6.192   0.701  0.9871  0.1891  0.7684
25806SOL     OW78858   7.207   7.888  10.764 -0.6638  0.2558 -0.2685
25806SOL    HW178859   7.168   7.897  10.677 -1.3340 -0.8868 -0.1077
25806SOL    HW278860   7.257   7.807  10.759 -0.9461  0.0305  0.5025
25807SOL     OW78861   7.404   0.254   0.747  0.1275  0.7737 -0.6916
25807SOL    HW178862   7.438   0.187   0.805  2.1582  2.3876  0.1239
25807SOL    HW278863   7.440   0.232   0.661 -1.1449 -0.4370 -0.9393
25808SOL     OW78864   5.224   4.287  11.281 -0.1352  0.0963  0.3547
25808SOL    HW178865   5.234   4.344  11.205  1.4945  1.1326  1.2677
25808SOL    HW278866   5.314   4.270  11.310 -0.6913 -0.6059  1.7898
25809SOL     OW78867   2.446   0.143   0.175  0.2302  0.1442 -0.1992
25809SOL    HW178868   2.415   0.194   0.250 -1.1818 -1.3813  0.3006
25809SOL    HW278869   2.430   0.199   0.099 -0.6568  0.7128  0.3941
25810SOL     OW78870   7.223   0.475   1.939 -0.1784 -0.1354 -0.5391
25810SOL    HW178871   7.215   0.417   2.014 -0.1035 -1.0697 -1.2285
25810SOL    HW278872   7.271   0.551   1.971  0.0759 -0.6386  0.2855
25811SOL     OW78873   0.974   5.555  12.298  0.4433 -0.1064  0.0874
25811SOL    HW178874   0.991   5.596  12.383  1.0686  1.0398 -0.5689
25811SOL    HW278875   0.896   5.600  12.265  0.9411  0.3497 -0.4905
25812SOL     OW78876   1.583   0.965   0.498 -0.0679 -0.1346 -0.3802
25812SOL    HW178877   1.529   0.917   0.561  0.0760 -1.0179 -0.9109
25812SOL    HW278878   1.543   0.946   0.413  1.5972 -1.5587 -0.8969
25813SOL     OW78879   6.833   1.281   2.426 -0.1444 -0.3020  0.5212
25813SOL    HW178880   6.830   1.209   2.364  0.2405 -0.6173  0.8666
25813SOL    HW278881   6.744   1.318   2.425 -0.7678 -1.7118  1.4389
25814SOL     OW78882   0.203   5.676   0.926 -0.1883 -0.5889 -0.0309
25814SOL    HW178883   0.159   5.744   0.979  0.8960 -0.0031  0.1493
25814SOL    HW278884   0.259   5.725   0.867  2.0415 -1.3461  1.3542
25815SOL     OW78885   1.015   6.866   2.013  0.0345 -0.5611  0.0138
25815SOL    HW178886   1.022   6.947   1.962 -0.6414 -0.3903  0.1777
25815SOL    HW278887   1.103   6.829   2.012  0.2749  0.0081 -0.3423
25816SOL     OW78888   0.938   7.500  11.461  0.4588 -0.3408 -0.4175
25816SOL    HW178889   0.870   7.565  11.481  1.9996  1.1682  0.2083
25816SOL    HW278890   0.902   7.447  11.390 -0.6296  1.6149 -1.3919
25817SOL     OW78891   0.269   5.996   1.101  0.4128 -0.3852  0.1121
25817SOL    HW178892   0.256   5.981   1.194 -0.6159  0.4450  0.1105
25817SOL    HW278893   0.364   6.006   1.091  0.7178 -2.2970  0.7713
25818SOL     OW78894   7.616   0.941   1.390  0.5303 -0.2829  0.5333
25818SOL    HW178895   7.657   0.927   1.476  1.2165 -0.0055  0.2586
25818SOL    HW278896   7.653   0.872   1.334 -0.1265 -0.6359  0.5244
25819SOL     OW78897   0.569   0.180  12.396 -1.0904 -0.0638 -0.4415
25819SOL    HW178898   0.478   0.188  12.367 -1.9863 -1.1446  1.7961
25819SOL    HW278899   0.563   0.182  12.492  1.4303  1.3440 -0.2363
25820SOL     OW78900   2.046   6.660  12.009 -0.5051  0.3320  0.3375
25820SOL    HW178901   1.986   6.642  11.937  0.0480  2.0856 -0.6128
25820SOL    HW278902   2.088   6.743  11.986  0.5335  0.3662  2.1334
25821SOL     OW78903   0.012   0.381   0.774  0.1974  0.0140  0.3940
25821SOL    HW178904  -0.028   0.374   0.688  1.1260 -1.4590  0.0669
25821SOL    HW278905  -0.058   0.417   0.829 -0.4463  0.8482 -0.9140
25822SOL     OW78906   0.248   1.051   2.078 -0.0797 -0.1217  0.0905
25822SOL    HW178907   0.227   1.060   2.171 -1.3168  2.1100 -0.3363
25822SOL    HW278908   0.259   0.957   2.065 -1.8601 -0.6847  2.0844
25823SOL     OW78909   7.724   0.789   1.204 -0.4432 -0.4619  0.1400
25823SOL    HW178910   7.752   0.710   1.250  2.0620  0.8714  1.0738
25823SOL    HW278911   7.800   0.816   1.152 -1.3410  1.1692 -0.4258
25824SOL     OW78912   0.598   0.509   1.382  0.0811  0.6210 -0.0245
25824SOL    HW178913   0.625   0.500   1.290  0.5281  0.4683  0.1196
25824SOL    HW278914   0.562   0.424   1.405  0.0390  0.6356 -0.0371
25825SOL     OW78915   7.914   0.580   1.261  0.5258  0.1672  0.3482
25825SOL    HW178916   7.935   0.488   1.278  2.0774  0.0966 -1.5735
25825SOL    HW278917   7.924   0.623   1.346  0.4364 -1.3224  1.1363
25826SOL     OW78918   7.705   0.195   0.712  0.0232 -0.3447  0.4699
25826SOL    HW178919   7.721   0.117   0.765 -0.1324  1.0271  2.6671
25826SOL    HW278920   7.689   0.265   0.776  0.7780  1.6358 -1.3692
25827SOL     OW78921   7.673   1.859   2.244  0.2500 -0.2545  0.0141
25827SOL    HW178922   7.646   1.898   2.160 -1.2579 -0.9459  0.1330
25827SOL    HW278923   7.596   1.869   2.301  0.7093 -1.1368  0.8262
25828SOL     OW78924   6.785   0.258  12.298  0.5415  0.4333 -0.8163
25828SOL    HW178925   6.848   0.327  12.319  2.2989 -1.6417  1.2939
25828SOL    HW278926   6.708   0.278  12.351  0.8548  1.0088 -0.5716
25829SOL     OW78927   6.309   7.001   5.230 -0.2308  0.4248  0.1893
25829SOL    HW178928   6.253   6.931   5.197 -0.0424  0.3232  0.0808
25829SOL    HW278929   6.354   7.035   5.153 -1.7725  2.0089 -0.0740
25830SOL     OW78930   6.494   6.203   1.417 -0.1536 -0.1343  0.2101
25830SOL    HW178931   6.459   6.114   1.411  0.0651 -0.3981  2.2500
25830SOL    HW278932   6.422   6.259   1.390 -0.1455 -0.9143 -1.5728
25831SOL     OW78933   6.831   0.303   0.851  0.2036  0.3846 -0.1205
25831SOL    HW178934   6.919   0.294   0.887 -0.1999 -2.1951  0.4489
25831SOL    HW278935   6.774   0.312   0.927 -0.1980  0.0296 -0.3724
25832SOL     OW78936   0.263   0.044   3.189  0.6866  0.8010  0.1296
25832SOL    HW178937   0.312   0.097   3.127  1.8039  0.1723  0.4524
25832SOL    HW278938   0.285  -0.046   3.167  1.0574  0.5632  1.3934
25833SOL     OW78939   7.611   7.751   3.923  0.2581 -0.6041  0.2597
25833SOL    HW178940   7.680   7.818   3.917  0.5134 -0.8754  0.1680
25833SOL    HW278941   7.574   7.746   3.835 -1.1036  0.8230  0.6899
25834SOL     OW78942   1.899   7.367   2.693  0.3631  0.0608  0.6953
25834SOL    HW178943   1.821   7.320   2.664  0.4795  0.1448  0.2475
25834SOL    HW278944   1.911   7.436   2.629 -0.0324  0.9561  1.5627
25835SOL     OW78945   6.692   1.452   4.445  0.0177 -0.0952  0.3072
25835SOL    HW178946   6.685   1.358   4.431  1.6431 -0.5937  2.4135
25835SOL    HW278947   6.784   1.467   4.465 -0.2176  1.9426  0.0830
25836SOL     OW78948   7.778   6.167   2.727 -0.1467  0.4335  0.1081
25836SOL    HW178949   7.843   6.097   2.726 -0.8090 -0.1848 -1.3651
25836SOL    HW278950   7.829   6.247   2.716  0.5666  0.1731  1.3025
25837SOL     OW78951   7.709   6.446   2.308 -0.2255  0.5534  0.0662
25837SOL    HW178952   7.791   6.480   2.344 -0.4650  3.1240 -1.5848
25837SOL    HW278953   7.640   6.492   2.357 -0.7902 -1.9184  1.7588
25838SOL     OW78954   6.819   0.106   3.704  0.1477 -0.3110  0.2877
25838SOL    HW178955   6.751   0.112   3.771 -0.2219  1.2270 -0.1884
25838SOL    HW278956   6.897   0.078   3.751  0.0421  1.2737  1.4855
25839SOL     OW78957   5.678   7.556   3.990 -0.6989  0.3397 -0.1152
25839SOL    HW178958   5.649   7.487   3.930  0.6289 -1.6807  1.4126
25839SOL    HW278959   5.659   7.521   4.077  2.5069  0.6626  0.8101
25840SOL     OW78960   7.924   0.426   3.472 -0.0609  0.3328 -0.0587
25840SOL    HW178961   7.879   0.362   3.528 -1.3592  0.5887 -0.7714
25840SOL    HW278962   7.868   0.433   3.394  1.4337  0.3847 -1.1582
25841SOL     OW78963   6.605   0.560   1.382  0.3576 -0.0651 -1.0982
25841SOL    HW178964   6.530   0.501   1.394  1.4454 -1.1720  0.7850
25841SOL    HW278965   6.584   0.637   1.435  0.5177 -0.3564 -0.6054
25842SOL     OW78966   0.295   0.725   3.214  0.3520 -0.6175 -0.0071
25842SOL    HW178967   0.297   0.706   3.308 -0.1962  0.2272  0.1871
25842SOL    HW278968   0.236   0.800   3.206 -0.0282 -1.0062 -1.0817
25843SOL     OW78969   6.418   1.183   2.937 -0.3062 -0.2822 -0.0751
25843SOL    HW178970   6.495   1.129   2.954 -0.8612 -1.0167  0.1405
25843SOL    HW278971   6.454   1.269   2.914  0.5855 -0.7218 -0.3703
25844SOL     OW78972   0.205   7.971   1.599  0.5225 -0.1253  0.0809
25844SOL    HW178973   0.280   7.940   1.649  1.0725 -0.4664 -0.9235
25844SOL    HW278974   0.215   7.930   1.513 -1.1833 -0.7031  0.1317
25845SOL     OW78975   7.309   7.148   4.148  0.1198  0.6664 -0.0427
25845SOL    HW178976   7.304   7.109   4.235  1.3351 -0.1411 -0.3179
25845SOL    HW278977   7.372   7.093   4.100 -0.6820  0.9617 -1.4974
25846SOL     OW78978   7.212   0.453   1.594  0.2385 -0.0152  0.6816
25846SOL    HW178979   7.241   0.387   1.657 -0.7522 -0.2103  0.9562
25846SOL    HW278980   7.124   0.423   1.568 -0.2021  1.1693  0.7747
25847SOL     OW78981   6.354   0.771   3.115 -0.3243  0.1779  0.0309
25847SOL    HW178982   6.342   0.708   3.044 -1.3684 -0.2932  0.6239
25847SOL    HW278983   6.270   0.774   3.160  0.4970  0.0361  1.6233
25848SOL     OW78984   6.534   7.978   4.330 -0.0428 -0.4820 -0.3696
25848SOL    HW178985   6.542   7.892   4.371 -1.3701 -0.1527  0.6513
25848SOL    HW278986   6.440   7.996   4.330  0.1445  0.6418 -1.2856
25849SOL     OW78987   0.743   6.259   1.993  0.2795  0.1454 -0.1100
25849SOL    HW178988   0.715   6.288   1.907  2.0618  1.4111 -0.3175
25849SOL    HW278989   0.801   6.185   1.975  0.6803  0.4327 -0.0086
25850SOL     OW78990   6.626   7.880   2.784  0.4009  0.4618  0.4331
25850SOL    HW178991   6.533   7.868   2.804  0.2723  1.1363  0.2841
25850SOL    HW278992   6.628   7.958   2.728  0.9058 -0.4772 -0.9069
25851SOL     OW78993   7.453   0.937   6.213  0.5087 -0.5150  0.0851
25851SOL    HW178994   7.480   0.967   6.300  0.2183  0.1060 -0.0296
25851SOL    HW278995   7.422   0.848   6.227  1.6118 -0.8593  0.4013
25852SOL     OW78996   5.367   0.210   4.909 -0.2493 -0.1099 -0.0168
25852SOL    HW178997   5.414   0.126   4.912  0.5462  0.2112 -2.2217
25852SOL    HW278998   5.293   0.194   4.850 -1.2282  0.2397  1.0702
25853SOL     OW78999   7.079   7.979   5.756 -0.3148 -0.6275 -0.7037
25853SOL    HW179000   7.161   7.986   5.705 -1.0414  1.3709 -1.7281
25853SOL    HW279001   7.016   8.031   5.706 -1.9515 -1.2813  0.6062
25854SOL     OW79002   5.827   7.818   4.809  0.8457  0.1330  0.0041
25854SOL    HW179003   5.852   7.818   4.716 -1.6155 -0.7936 -0.7409
25854SOL    HW279004   5.842   7.728   4.837  0.9343  0.2473  0.3276
25855SOL     OW79005   6.969   6.390   5.124  0.2130 -0.0907  0.2318
25855SOL    HW179006   6.883   6.387   5.166  1.3610 -0.0342  2.7757
25855SOL    HW279007   6.981   6.482   5.100 -1.4529 -0.4999 -2.6630
25856SOL     OW79008   7.667   7.523   3.046  0.2567 -0.1116 -0.1687
25856SOL    HW179009   7.659   7.464   2.971 -1.5437 -0.5802  0.3480
25856SOL    HW279010   7.582   7.518   3.090  0.5245  1.8173  0.6748
25857SOL     OW79011   6.922   7.000   5.139  0.1335 -0.1033 -0.9241
25857SOL    HW179012   6.940   7.070   5.202  2.4695  0.1812 -1.8166
25857SOL    HW279013   6.826   6.998   5.133 -0.1734  0.2035  2.1786
25858SOL     OW79014   5.040   0.095   2.609 -0.0302 -0.0363 -0.0285
25858SOL    HW179015   4.968   0.157   2.618 -0.8336 -0.8636 -0.5534
25858SOL    HW279016   5.117   0.143   2.638 -0.7930  0.8631  0.5557
25859SOL     OW79017   0.024   0.529   4.810  0.6367 -0.1390 -0.2393
25859SOL    HW179018   0.099   0.470   4.818  0.0656 -1.1530 -1.8234
25859SOL    HW279019  -0.052   0.473   4.826  0.1626  0.9440  1.6843
25860SOL     OW79020   6.962   7.707   3.835  0.3323  0.0829  0.4169
25860SOL    HW179021   6.950   7.643   3.906 -0.0153 -0.7679 -0.3962
25860SOL    HW279022   7.035   7.672   3.783  0.0223  0.2552 -0.1382
25861SOL     OW79023   6.334   0.185   4.832 -0.0600  0.2055 -0.6436
25861SOL    HW179024   6.352   0.126   4.906  0.4917 -0.1877 -1.0807
25861SOL    HW279025   6.262   0.239   4.862 -0.8367 -0.9526 -0.3627
25862SOL     OW79026   0.067   7.908   4.029  0.2838  0.5239 -0.0859
25862SOL    HW179027   0.069   7.829   4.083  0.0963  0.0359 -0.7783
25862SOL    HW279028   0.159   7.928   4.012  0.3146  0.1372 -0.3668
25863SOL     OW79029   1.026   1.064   3.776  0.1965  0.3487  0.3091
25863SOL    HW179030   1.050   1.050   3.684  1.6497 -1.4484  0.9037
25863SOL    HW279031   0.933   1.087   3.773 -0.0690 -0.7215 -1.5241
25864SOL     OW79032   6.166   7.571   5.977 -0.4071 -1.1018  0.7348
25864SOL    HW179033   6.216   7.527   6.046 -2.9980 -1.5089  2.4572
25864SOL    HW279034   6.098   7.509   5.953 -0.1385 -0.5778 -1.5919
25865SOL     OW79035   6.266   0.002   4.360 -0.2982 -0.9862 -0.9270
25865SOL    HW179036   6.187   0.056   4.359 -1.1023 -2.1163 -1.0918
25865SOL    HW279037   6.305   0.018   4.446 -0.0795  0.4319 -1.2619
25866SOL     OW79038   6.675   7.751   4.371  0.3314  0.1860  0.0006
25866SOL    HW179039   6.671   7.662   4.406  2.5426  0.8907  2.3526
25866SOL    HW279040   6.753   7.752   4.316  0.5446  0.7655  0.3085
25867SOL     OW79041   0.425   7.248   4.128  0.0710  0.0261 -0.1795
25867SOL    HW179042   0.365   7.194   4.076 -0.3931 -0.3883  0.7674
25867SOL    HW279043   0.428   7.205   4.213  0.1075  1.1943  0.4318
25868SOL     OW79044   7.626   7.480   3.913  0.1010  0.5776 -0.5095
25868SOL    HW179045   7.643   7.568   3.878  4.2039  0.5292  0.8644
25868SOL    HW279046   7.663   7.482   4.001 -1.0939 -2.1194  0.1440
25869SOL     OW79047   7.664   0.058   6.390 -0.0342  0.5451 -0.3549
25869SOL    HW179048   7.692  -0.015   6.335  0.3134  0.7488 -0.4510
25869SOL    HW279049   7.726   0.058   6.463  0.2862  1.0689 -0.6268
25870SOL     OW79050   6.582   6.805   5.896  0.4052 -0.0416  0.7829
25870SOL    HW179051   6.495   6.782   5.927 -0.3341 -2.5549 -2.5075
25870SOL    HW279052   6.575   6.896   5.868 -1.9811 -0.8179 -1.5166
25871SOL     OW79053   7.851   0.043   4.325  0.2313  0.7946  0.0260
25871SOL    HW179054   7.803   0.089   4.256  1.3698  0.8102 -0.7853
25871SOL    HW279055   7.943   0.058   4.304  0.6182 -0.7996  0.4559
25872SOL     OW79056   7.446   7.502   4.652  0.6211 -0.0629  0.2015
25872SOL    HW179057   7.443   7.419   4.605  1.2803  0.6689 -1.2031
25872SOL    HW279058   7.500   7.485   4.729 -0.3799 -1.2642  0.6568
25873SOL     OW79059   7.819   7.843   5.544 -0.3309 -0.3425  0.1126
25873SOL    HW179060   7.913   7.844   5.563 -0.4243  0.5083  0.5688
25873SOL    HW279061   7.814   7.816   5.452  0.4866  1.5007 -0.5151
25874SOL     OW79062   7.269   7.403   5.311 -0.0223  0.3294  0.1555
25874SOL    HW179063   7.208   7.458   5.262 -0.8245  0.5699  1.3826
25874SOL    HW279064   7.215   7.359   5.376  0.3345 -3.0213 -1.5957
25875SOL     OW79065   7.814   7.530   7.851 -0.0656  0.9797  0.3471
25875SOL    HW179066   7.853   7.600   7.902  1.6476  0.5949 -0.3626
25875SOL    HW279067   7.791   7.463   7.915  0.3280  1.2847  0.8129
25876SOL     OW79068   7.374   6.870   6.416  0.5415 -0.1784  0.3097
25876SOL    HW179069   7.419   6.941   6.461 -0.1394  1.5820 -1.6027
25876SOL    HW279070   7.410   6.872   6.327 -0.2860 -1.5136 -0.0907
25877SOL     OW79071   1.446   7.378   6.376 -0.4250 -0.4463  0.1451
25877SOL    HW179072   1.352   7.374   6.357 -0.2263 -0.3782 -0.8913
25877SOL    HW279073   1.473   7.286   6.383 -1.2301 -0.5644  4.1042
25878SOL     OW79074   7.147   7.157   5.900  0.8679  0.1371  0.3513
25878SOL    HW179075   7.061   7.115   5.908  1.6388 -2.3101 -2.3150
25878SOL    HW279076   7.164   7.194   5.986 -2.2229 -0.4926  1.3747
25879SOL     OW79077   1.802   1.191   6.243 -0.2448  0.6181 -0.2097
25879SOL    HW179078   1.804   1.192   6.147 -1.1755 -0.7292 -0.2732
25879SOL    HW279079   1.876   1.246   6.269  0.7504  0.0633 -1.7031
25880SOL     OW79080   1.125   6.812   6.046  0.1743 -0.2147 -0.0031
25880SOL    HW179081   1.127   6.774   6.134  1.3629  0.4036  0.2627
25880SOL    HW279082   1.069   6.889   6.054  2.0984  1.1745  0.8277
25881SOL     OW79083   7.199   7.654   6.377 -0.0828  0.6234  0.1286
25881SOL    HW179084   7.257   7.720   6.416  1.3616 -1.3163  1.4666
25881SOL    HW279085   7.139   7.630   6.447  0.0915 -0.2350 -0.0078
25882SOL     OW79086   0.240   1.236   7.823  0.0570 -0.2732  0.6383
25882SOL    HW179087   0.300   1.174   7.782 -1.2918 -1.3546  0.2341
25882SOL    HW279088   0.197   1.280   7.750  0.5626  0.7305  0.9227
25883SOL     OW79089   0.458   7.625   6.657 -0.2997  0.0564  0.3990
25883SOL    HW179090   0.549   7.613   6.631 -0.1277 -1.2230  1.4551
25883SOL    HW279091   0.423   7.688   6.595  0.8941 -0.5720 -0.9740
25884SOL     OW79092   7.551   0.677   7.932 -0.0532 -0.0881  0.3914
25884SOL    HW179093   7.487   0.639   7.871 -0.3924  1.5925 -0.3893
25884SOL    HW279094   7.589   0.602   7.978 -3.1498 -1.1431  1.4869
25885SOL     OW79095   1.294   7.860   8.868 -0.1299  0.1155 -0.0039
25885SOL    HW179096   1.263   7.910   8.943  1.1429  1.3428 -0.2387
25885SOL    HW279097   1.377   7.902   8.844 -0.7873  0.1768 -2.4620
25886SOL     OW79098   7.933   0.780   8.006 -0.0508 -0.4258  0.3380
25886SOL    HW179099   8.009   0.739   8.048  1.4388 -0.0457 -1.7827
25886SOL    HW279100   7.910   0.721   7.935  0.4217  1.0084 -1.0883
25887SOL     OW79101   6.765   7.285   7.170 -0.3199 -0.2236 -0.3880
25887SOL    HW179102   6.743   7.233   7.093 -2.7547 -0.6437  0.4990
25887SOL    HW279103   6.773   7.221   7.241 -1.9418  0.4357  0.4310
25888SOL     OW79104   0.434   0.020   7.875  0.3517 -0.5121  0.6597
25888SOL    HW179105   0.390  -0.062   7.850  0.6401 -0.3922 -0.2869
25888SOL    HW279106   0.527   0.001   7.863  0.3857  0.1601 -0.2394
25889SOL     OW79107   1.885   1.282   8.993  0.5291  0.3370  0.5297
25889SOL    HW179108   1.979   1.284   8.972 -0.0408  0.4581 -2.2607
25889SOL    HW279109   1.854   1.198   8.960 -0.5132  0.6088  0.7847
25890SOL     OW79110   1.211   0.958   7.263  0.1689  0.0200  0.0693
25890SOL    HW179111   1.210   0.906   7.344 -0.7180 -0.1002 -0.0101
25890SOL    HW279112   1.304   0.966   7.241  0.3195 -3.0177 -0.8751
25891SOL     OW79113   7.966   5.986   5.094 -0.3560  0.0033  0.2656
25891SOL    HW179114   8.027   5.979   5.168 -0.1703 -0.5083  0.0715
25891SOL    HW279115   8.022   5.978   5.017 -0.8369 -2.0932  0.0916
25892SOL     OW79116   7.716   7.164   6.461 -0.1750 -0.5277  0.1020
25892SOL    HW179117   7.798   7.134   6.421 -0.3643  0.3497 -0.9887
25892SOL    HW279118   7.741   7.192   6.549  0.5524 -0.9755  0.0443
25893SOL     OW79119   7.414   0.691   6.296  0.2246  0.2403 -0.5151
25893SOL    HW179120   7.499   0.652   6.318  0.4772  1.4855  0.8831
25893SOL    HW279121   7.359   0.673   6.372 -0.2145  0.9468 -0.6549
25894SOL     OW79122   0.981   1.314   8.042  0.2423  0.1228  0.5007
25894SOL    HW179123   1.020   1.271   8.118  1.7493  2.3258  1.0925
25894SOL    HW279124   1.009   1.262   7.967  0.6062 -0.8416  1.2958
25895SOL     OW79125   7.133   1.426   8.332  0.3765  0.4668 -0.4798
25895SOL    HW179126   7.048   1.453   8.298 -0.1481 -0.4844  0.0459
25895SOL    HW279127   7.114   1.353   8.391  1.2447  1.9608  1.8242
25896SOL     OW79128   0.767   7.898   9.177  0.5293  0.1408  0.2112
25896SOL    HW179129   0.858   7.870   9.186  1.2975  2.3771 -0.0956
25896SOL    HW279130   0.742   7.926   9.265  0.4922  0.5173  0.0815
25897SOL     OW79131   0.359   0.642   9.317 -0.4426 -0.0622 -0.1484
25897SOL    HW179132   0.332   0.725   9.278  0.9374  0.5515  0.1417
25897SOL    HW279133   0.284   0.583   9.303 -1.9389  1.5521  0.7238
25898SOL     OW79134   7.664   7.692   9.939  0.3771 -0.1339  0.4688
25898SOL    HW179135   7.648   7.703   9.845  1.2653 -0.9115  0.2210
25898SOL    HW279136   7.758   7.679   9.947  0.2175 -0.8624  1.3982
25899SOL     OW79137   7.456   0.207   9.029  0.3364 -0.1504 -0.3628
25899SOL    HW179138   7.536   0.242   8.991  0.7441  0.5836  1.1161
25899SOL    HW279139   7.470   0.112   9.032  0.8940 -0.0807 -0.6579
25900SOL     OW79140   7.809   0.813  11.016  0.5257 -0.0072  0.0959
25900SOL    HW179141   7.735   0.865  11.049  0.3955  0.0160 -0.2317
25900SOL    HW279142   7.839   0.859  10.938  0.1578 -0.6265 -0.4267
25901SOL     OW79143   7.479   1.305   6.770 -0.2136  0.2625  0.3626
25901SOL    HW179144   7.486   1.225   6.822 -1.0353 -0.0991 -0.0627
25901SOL    HW279145   7.430   1.366   6.826  1.1976  0.8087  1.0534
25902SOL     OW79146   0.558   5.717   7.556  0.9035  0.1235  0.0815
25902SOL    HW179147   0.618   5.711   7.481  1.7039  1.0204  0.6258
25902SOL    HW279148   0.473   5.737   7.517  0.9392 -1.1099 -0.7026
25903SOL     OW79149   1.039   0.647   6.756 -0.0058 -0.1035 -0.2982
25903SOL    HW179150   1.090   0.727   6.743 -0.6432  0.1532 -1.2875
25903SOL    HW279151   1.043   0.602   6.672 -1.2607 -0.1641 -0.3411
25904SOL     OW79152   7.959   1.449   8.909  0.6289  0.2329  0.5018
25904SOL    HW179153   7.998   1.422   8.826  0.1529 -0.7097  0.5644
25904SOL    HW279154   7.964   1.544   8.908  0.1397  0.2751 -0.8589
25905SOL     OW79155   0.508   0.933   8.745  0.2285  0.3723  0.2930
25905SOL    HW179156   0.497   1.017   8.790 -0.5363  1.4433 -1.7771
25905SOL    HW279157   0.603   0.921   8.739  0.4591 -0.6672  3.5292
25906SOL     OW79158   0.836   7.728   8.540  0.0485 -0.0394 -0.5662
25906SOL    HW179159   0.822   7.822   8.525  0.3951  0.2684  0.8315
25906SOL    HW279160   0.806   7.686   8.460 -0.7542  1.2182 -0.9646
25907SOL     OW79161   5.724   1.443   9.682 -0.1802  0.2169 -0.3173
25907SOL    HW179162   5.656   1.473   9.743 -0.8889  0.6012 -1.2626
25907SOL    HW279163   5.703   1.351   9.668 -0.6679  0.3962 -0.7981
25908SOL     OW79164   7.272   0.523   9.437 -0.0636 -0.1915  0.4307
25908SOL    HW179165   7.221   0.565   9.506  0.2724 -0.6582  0.9695
25908SOL    HW279166   7.336   0.589   9.411 -0.4636  0.1360  0.2665
25909SOL     OW79167   7.389   0.323   7.974 -0.1423  0.2749  0.8106
25909SOL    HW179168   7.356   0.362   7.892 -0.2663 -1.2535  0.1041
25909SOL    HW279169   7.356   0.381   8.043 -1.1705  0.8499 -0.1333
25910SOL     OW79170   1.552   1.728   8.662  0.4068  0.1518  0.0217
25910SOL    HW179171   1.623   1.712   8.599  1.2336  3.4489 -0.0458
25910SOL    HW279172   1.597   1.741   8.746 -0.4557 -1.1592  0.7308
25911SOL     OW79173   6.613   0.313   8.116  0.7493  0.4132 -0.0183
25911SOL    HW179174   6.665   0.293   8.038 -0.7882  0.0780 -1.0035
25911SOL    HW279175   6.554   0.238   8.125  0.1400  0.9782  0.8153
25912SOL     OW79176   1.039   1.072   9.257 -0.4683 -0.7259  0.0851
25912SOL    HW179177   1.074   0.996   9.304 -1.4486 -2.1029 -1.2798
25912SOL    HW279178   0.953   1.042   9.226 -0.3763  0.5390 -1.4867
25913SOL     OW79179   0.278   0.119   9.189 -0.1223  0.5356 -0.0556
25913SOL    HW179180   0.314   0.208   9.187  2.3824 -0.4248 -1.2906
25913SOL    HW279181   0.316   0.080   9.268  2.3286 -0.7073 -1.7293
25914SOL     OW79182   6.981   6.903   7.603  0.1203 -0.0155  0.3383
25914SOL    HW179183   7.042   6.915   7.530  1.1364 -1.2160  0.9419
25914SOL    HW279184   6.980   6.987   7.649  1.6805 -0.0924  0.5577
25915SOL     OW79185   1.046   7.522   7.543 -0.2185  0.2246  0.2158
25915SOL    HW179186   1.057   7.457   7.473 -1.0755 -1.3342  1.4739
25915SOL    HW279187   1.025   7.604   7.496  1.1531 -0.2884 -1.4191
25916SOL     OW79188   6.420   7.407   9.948 -0.3867 -0.2687  0.1239
25916SOL    HW179189   6.515   7.412   9.961 -0.4776 -0.3452  0.8524
25916SOL    HW279190   6.383   7.430  10.033 -1.0294 -0.0972 -0.1920
25917SOL     OW79191   0.419   0.510  10.798  0.3044  0.6278 -0.1909
25917SOL    HW179192   0.408   0.481  10.708  1.2494 -1.4460  0.2991
25917SOL    HW279193   0.356   0.581  10.808 -0.4286  0.3299 -2.2214
25918SOL     OW79194   0.199   1.320  12.082 -0.2234  0.2976  0.3683
25918SOL    HW179195   0.156   1.236  12.066  1.4921 -0.6546  0.5317
25918SOL    HW279196   0.205   1.360  11.995  0.6224 -0.6193 -0.0260
25919SOL     OW79197   7.562   1.041   8.816 -0.4513 -0.1756 -0.3217
25919SOL    HW179198   7.493   1.002   8.761 -0.0253 -0.3123 -0.7635
25919SOL    HW279199   7.526   1.126   8.841 -0.3761  0.1839 -1.3801
25920SOL     OW79200   1.013   0.994  11.480 -0.2909  0.2413 -0.3686
25920SOL    HW179201   0.979   0.918  11.433 -0.3831 -0.2541  0.4785
25920SOL    HW279202   0.935   1.048  11.496 -0.2187  0.5387 -1.0108
25921SOL     OW79203   7.377   7.679  10.705 -0.3880 -0.1326 -0.3757
25921SOL    HW179204   7.448   7.684  10.769 -0.4767 -0.0406 -0.2836
25921SOL    HW279205   7.415   7.714  10.625 -0.5192  0.5254 -0.1596
25922SOL     OW79206   6.492   0.760  11.509  0.6400  0.5339 -0.2493
25922SOL    HW179207   6.498   0.666  11.491  1.2020  0.4365  0.3715
25922SOL    HW279208   6.583   0.788  11.520  0.5392  1.3453 -1.3369
25923SOL     OW79209   6.486   7.680  10.080 -0.7697 -0.2460  0.3696
25923SOL    HW179210   6.503   7.765  10.039  1.2066 -0.9307 -0.3493
25923SOL    HW279211   6.538   7.681  10.160 -0.7718 -0.7768  0.3797
25924SOL     OW79212   0.073   7.917   9.449  0.0701 -0.1789 -0.0781
25924SOL    HW179213   0.097   8.009   9.457 -0.9694  0.0452  0.6546
25924SOL    HW279214   0.074   7.884   9.539 -0.0118 -0.7646 -0.2881
25925SOL     OW79215   7.619   7.636   9.667 -0.4567 -0.4437  0.2142
25925SOL    HW179216   7.664   7.705   9.620  0.4056 -1.2169 -0.1160
25925SOL    HW279217   7.550   7.607   9.607 -0.1370 -0.6006 -0.0754
25926SOL     OW79218   7.559   0.914  11.110 -0.1264 -0.6125 -0.2088
25926SOL    HW179219   7.473   0.941  11.079 -0.8621 -0.2022  1.9844
25926SOL    HW279220   7.617   0.987  11.090 -0.5315 -0.4212 -0.6951
25927SOL     OW79221   0.666   0.794  12.082  0.0393 -0.5942 -0.8998
25927SOL    HW179222   0.678   0.738  12.005 -0.3124 -1.6176 -0.2295
25927SOL    HW279223   0.638   0.734  12.151  1.6715  0.0838  0.4062
25928SOL     OW79224   7.704   0.946  10.775  0.6941 -0.3789 -0.1668
25928SOL    HW179225   7.691   0.858  10.810  0.5423  0.0476  0.8672
25928SOL    HW279226   7.648   1.002  10.828  0.7640  0.3448 -0.8344
25929SOL     OW79227   0.019   7.239  11.297 -0.1174  0.4358  0.0311
25929SOL    HW179228   0.058   7.197  11.221 -2.4645  0.5910 -1.3585
25929SOL    HW279229  -0.060   7.188  11.316 -0.0702  0.9394  1.8070
25930SOL     OW79230   7.465   7.525   8.965 -0.6947  0.2010  0.0872
25930SOL    HW179231   7.526   7.584   8.921  0.8744 -0.2199  1.5771
25930SOL    HW279232   7.382   7.572   8.966 -0.4117  0.8319 -1.9381
25931SOL     OW79233   6.792   1.480   9.659  0.5088  0.0603 -0.0668
25931SOL    HW179234   6.805   1.418   9.731  0.5159 -0.4167 -0.4769
25931SOL    HW279235   6.876   1.525   9.651  0.8305 -0.5942 -0.4350
25932SOL     OW79236   7.096   0.600  10.012 -0.1582 -0.2661 -0.2132
25932SOL    HW179237   7.172   0.610  10.069 -0.1459 -1.9493  0.1035
25932SOL    HW279238   7.058   0.688  10.008 -1.0888 -0.3018  3.7223
25933SOL     OW79239   6.694   7.504   9.419 -0.3921 -0.6776  0.1220
25933SOL    HW179240   6.639   7.426   9.418 -0.8691 -0.4318 -2.9760
25933SOL    HW279241   6.633   7.576   9.437 -0.2491 -0.8111  1.2181
25934SOL     OW79242   6.929   7.902  11.255  0.0992 -0.1572  0.8617
25934SOL    HW179243   6.971   7.832  11.205  2.1610  0.2815  1.8696
25934SOL    HW279244   6.890   7.959  11.188  2.0581 -0.0302 -0.2530
25935SOL     OW79245   0.134   7.808  11.590 -0.2417  1.0293  0.1471
25935SOL    HW179246   0.102   7.732  11.640  0.6161  0.5403 -0.0240
25935SOL    HW279247   0.123   7.882  11.650 -1.2477  0.8012  0.2547
25936SOL     OW79248   6.738   7.678  11.356 -0.1705 -0.4678  0.5571
25936SOL    HW179249   6.728   7.686  11.261 -0.7663 -0.8408  0.5805
25936SOL    HW279250   6.823   7.718  11.375  0.3968 -1.2454 -0.2590
25937SOL     OW79251   6.568   6.188   8.960  0.0490  0.4765 -0.0476
25937SOL    HW179252   6.494   6.194   8.900  0.3851  1.6100 -0.3725
25937SOL    HW279253   6.531   6.207   9.046 -0.4776 -1.3743  0.1713
25938SOL     OW79254   0.790   1.505   0.980 -0.0712  0.1789  0.7567
25938SOL    HW179255   0.707   1.550   0.997  0.2430  1.1258 -0.0908
25938SOL    HW279256   0.848   1.574   0.947  1.3958 -0.2546  2.3007
25939SOL     OW79257   0.185   0.896   9.255  0.2410  0.0931  0.6574
25939SOL    HW179258   0.100   0.939   9.240 -0.2950 -0.3041  2.3460
25939SOL    HW279259   0.207   0.858   9.171  0.0949  2.5260 -0.5663
25940SOL     OW79260   0.069   7.300   0.925  0.2469 -0.0533 -0.0621
25940SOL    HW179261   0.078   7.236   0.995  0.4091 -0.8087 -0.7550
25940SOL    HW279262  -0.021   7.333   0.933  0.6968  0.9192  1.3536
25941SOL     OW79263   7.448   0.161   0.424  0.3077  1.4207  0.1973
25941SOL    HW179264   7.418   0.081   0.467  0.4580  0.9073 -0.6387
25941SOL    HW279265   7.543   0.160   0.434  0.3615  1.2036 -0.2947
25942SOL     OW79266   3.111   1.433   0.459  0.3041 -0.1913  0.2876
25942SOL    HW179267   3.125   1.460   0.549 -0.8926  0.2967  0.3522
25942SOL    HW279268   3.108   1.337   0.462 -0.0746 -0.1649  0.8325
25943SOL     OW79269   6.435   0.451  11.854  0.3664  0.0202  0.6993
25943SOL    HW179270   6.506   0.394  11.824 -0.4385 -1.6009  1.7357
25943SOL    HW279271   6.360   0.424  11.802  0.3735  1.4497 -0.1016
25944SOL     OW79272   7.867   0.406   0.536 -0.2265  0.3012  0.2401
25944SOL    HW179273   7.864   0.321   0.492 -0.7213  0.2684  0.3272
25944SOL    HW279274   7.777   0.440   0.529 -0.0110  0.8682  0.1090
25945SOL     OW79275   0.008   1.679   0.447  0.0670  0.1683  0.2624
25945SOL    HW179276   0.087   1.734   0.447  0.7224 -0.7523  0.6413
25945SOL    HW279277   0.012   1.633   0.363  1.0975 -1.4820  1.1744
25946SOL     OW79278   1.644   6.895   1.396 -0.1101  0.2502  0.2779
25946SOL    HW179279   1.678   6.965   1.340  1.4519 -0.3891  0.3786
25946SOL    HW279280   1.703   6.822   1.381 -0.3686 -0.3161  1.8708
25947SOL     OW79281   0.313   7.639   0.838 -0.3672  0.0303  0.0937
25947SOL    HW179282   0.246   7.640   0.768  0.5582  0.1708 -0.8175
25947SOL    HW279283   0.263   7.652   0.918 -1.4384  0.2041 -0.5704
25948SOL     OW79284   7.208   1.240  12.218 -0.3719 -0.2141 -0.8674
25948SOL    HW179285   7.291   1.209  12.183 -0.9721 -1.0272 -1.6193
25948SOL    HW279286   7.174   1.300  12.151 -0.1592  0.5209 -0.3298
25949SOL     OW79287   0.054   0.134   0.460  0.4936  0.4264 -1.0898
25949SOL    HW179288   0.122   0.068   0.453  2.1335  1.7417  1.1380
25949SOL    HW279289  -0.002   0.119   0.384  1.6041 -2.5426 -1.4393
25950SOL     OW79290   0.980   0.162   0.706  0.6068 -0.0755 -0.2733
25950SOL    HW179291   0.916   0.138   0.639  0.3859 -1.9203  0.5428
25950SOL    HW279292   1.037   0.225   0.663  1.2420 -2.1217 -2.6315
25951SOL     OW79293   7.085   7.998   0.754  0.4117  0.6962  0.3294
25951SOL    HW179294   7.108   7.949   0.833  1.0638 -1.2174 -0.9739
25951SOL    HW279295   7.168   8.028   0.719  0.1502  1.2857  0.1967
25952SOL     OW79296   7.901   7.309   0.026  0.2912  0.9472  0.3408
25952SOL    HW179297   7.955   7.230   0.036  0.4089  1.1217  1.1175
25952SOL    HW279298   7.815   7.276   0.001  0.9424  0.7041 -1.8366
25953SOL     OW79299   7.756   1.162  11.816 -0.0139 -0.3980 -0.2098
25953SOL    HW179300   7.766   1.220  11.740 -0.0381  0.2096  0.2437
25953SOL    HW279301   7.679   1.108  11.795 -2.1072  2.0001  0.7378
25954SOL     OW79302   0.607   7.774  12.251  0.3452 -0.2468 -0.2343
25954SOL    HW179303   0.595   7.850  12.195 -1.2950 -0.1469  0.2061
25954SOL    HW279304   0.536   7.714  12.227  1.8663 -1.8826 -0.8959
25955SOL     OW79305   7.862   0.761  10.098  0.2434  0.3548  0.1352
25955SOL    HW179306   7.936   0.701  10.095 -0.0244 -0.0099  0.6806
25955SOL    HW279307   7.785   0.705  10.086  0.0772  0.8081 -1.0936
25956SOL     OW79308   6.924   0.335  11.830 -0.2250  0.2417 -0.0055
25956SOL    HW179309   6.958   0.417  11.794  1.8209 -0.4410  0.2516
25956SOL    HW279310   6.907   0.281  11.753 -1.0499  0.6845 -0.1488
25957NA      NA79311   0.523   0.674   4.192  0.2510 -0.5819  0.2216
25958NA      NA79312   1.415   0.974  10.228 -0.4127  0.0315 -0.3531
25959NA      NA79313   7.852   0.399  11.697  0.1259  0.2064 -0.2354
25960NA      NA79314   1.567   0.310  10.798  0.0724  0.0750 -0.2365
25961NA      NA79315   0.957   2.155   2.289 -0.1318  0.1503  0.5472
25962NA      NA79316   1.732   2.161   4.905  0.0383  0.3921 -0.0662
25963NA      NA79317   0.852   3.153   4.026  0.4447  0.5610 -0.0107
25964NA      NA79318   1.267   4.007   7.796  0.0104  0.4288  0.0112
25965NA      NA79319   0.043   4.248   7.416  0.1229  0.3690 -0.9466
25966NA      NA79320   6.004   4.651   5.781  0.2552 -0.0591 -0.2275
25967NA      NA79321   2.003   4.964  12.208 -0.2483 -0.0317  0.1544
25968NA      NA79322   0.714   7.290   5.688 -0.5661 -0.0105 -0.4474
25969NA      NA79323   1.347   7.399   8.026 -0.2502 -0.1570 -0.3348
25970NA      NA79324   1.668   7.165  10.144  0.4570 -0.0513  0.1001
25971NA      NA79325   1.095   5.983   8.777 -0.0882  0.2242  0.2556
25972NA      NA79326   7.986   7.407  11.678  0.3376  0.0344 -0.3864
25973NA      NA79327   3.788   0.434   0.153 -0.0206  0.1276  0.0483
25974NA      NA79328   4.460   7.174   8.656  0.1057  0.2308 -0.1103
25975NA      NA79329   1.909   2.746   0.898 -0.0278 -0.4808  0.0866
25976NA      NA79330   1.751   2.926   6.557  0.2062 -0.0347  0.4408
25977NA      NA79331   2.416   5.684   9.488  0.2302 -0.0005 -0.1214
25978NA      NA79332   5.354   6.146   9.553  0.5360 -0.0083 -0.0676
25979NA      NA79333   3.722   6.417  11.495  0.3224  0.5665  0.2378
25980NA      NA79334   3.372   0.015   1.863 -0.0137 -0.2519 -0.2564
25981NA      NA79335   6.429   3.314   1.456  0.0893  0.2151 -0.2478
25982NA      NA79336   4.803   2.090   6.481  0.1195  0.3645 -0.0972
25983NA      NA79337   3.857   3.669   7.732  0.1791 -0.0300 -0.1662
25984NA      NA79338   4.605   6.253   3.943 -0.4925  0.6785 -0.1310
25985NA      NA79339   3.179   5.867   5.399 -0.1926  0.1995  0.1054
25986NA      NA79340   2.573   0.687   3.998  0.2860 -0.0521  0.1416
25987NA      NA79341   4.029   0.669  10.972  0.1163  0.0878 -0.0274
25988NA      NA79342   4.747   0.088   0.070  0.1069 -0.1392 -0.0820
25989NA      NA79343   5.874   7.666   4.066 -0.0209  0.3018  0.0670
25990NA      NA79344   7.104   0.332   2.343 -0.0205 -0.2490 -0.4375
25991NA      NA79345   5.712   1.586   7.225 -0.2083  0.4344  0.7200
25992NA      NA79346   5.493   1.854  12.104  0.1205 -0.0204  0.4661
25993NA      NA79347   6.440   1.046  12.482  0.0024  0.2161 -0.0919
25994NA      NA79348   5.619   3.552   5.998  0.3779 -0.1044  0.2683
25995NA      NA79349   5.442   3.106   4.341 -0.1132  0.1355  0.2445
25996NA      NA79350   4.730   3.646   1.010  0.7611  0.3065 -0.2888
25997NA      NA79351   5.829   4.065   0.239  0.0753 -0.0347  0.2477
25998NA      NA79352   5.422   6.545   0.976 -0.4440  0.0665  0.2336
25999NA      NA79353   5.311   7.326   2.870  0.3237  0.7567  0.1762
26000NA      NA79354   7.480   1.487   4.463 -0.1745  0.3113  0.1269
26001NA      NA79355   0.160   1.358   9.323 -0.0454  0.5285 -0.1654
26002NA      NA79356   6.681   3.821   5.640 -0.0347  0.3663 -0.8352
26003NA      NA79357   0.630   4.430   2.617  0.6238  0.4381  0.1865
26004NA      NA79358   7.606   0.502   5.455 -0.3682 -0.0702  0.2077
   8.00000   8.00000  12.50000
