Protein in water
78874
    1DC     O5'    1   3.006   4.364   3.340
    1DC     H5T    2   3.067   4.325   3.406
    1DC     C5'    3   2.885   4.290   3.335
    1DC    H5'1    4   2.813   4.345   3.275
    1DC    H5'2    5   2.845   4.282   3.436
    1DC     C4'    6   2.895   4.148   3.275
    1DC     H4'    7   2.794   4.113   3.257
    1DC     O4'    8   2.968   4.140   3.153
    1DC     C1'    9   3.039   4.016   3.147
    1DC     H1'   10   3.008   3.959   3.060
    1DC      N1   11   3.187   4.038   3.142
    1DC      C6   12   3.247   4.150   3.194
    1DC      H6   13   3.187   4.222   3.250
    1DC      C5   14   3.380   4.170   3.178
    1DC      H5   15   3.426   4.257   3.223
    1DC      C4   16   3.454   4.072   3.109
    1DC      N4   17   3.581   4.088   3.089
    1DC     H41   18   3.629   4.161   3.140
    1DC     H42   19   3.634   4.011   3.048
    1DC      N3   20   3.398   3.965   3.054
    1DC      C2   21   3.266   3.943   3.075
    1DC      O2   22   3.219   3.838   3.030
    1DC     C3'   23   2.960   4.048   3.369
    1DC     H3'   24   3.049   4.092   3.415
    1DC     C2'   25   3.000   3.938   3.273
    1DC    H2'1   26   3.083   3.880   3.312
    1DC    H2'2   27   2.915   3.873   3.252
    1DC     O3'   28   2.867   4.000   3.464
    2DG       P   29   2.915   3.980   3.615
    2DG     O1P   30   2.793   3.946   3.692
    2DG     O2P   31   2.993   4.099   3.652
    2DG     O5'   32   3.007   3.850   3.600
    2DG     C5'   33   2.946   3.723   3.589
    2DG    H5'1   34   2.863   3.729   3.519
    2DG    H5'2   35   2.907   3.694   3.687
    2DG     C4'   36   3.042   3.614   3.540
    2DG     H4'   37   2.984   3.523   3.528
    2DG     O4'   38   3.102   3.646   3.416
    2DG     C1'   39   3.229   3.582   3.411
    2DG     H1'   40   3.231   3.512   3.329
    2DG      N9   41   3.338   3.681   3.393
    2DG      C8   42   3.333   3.817   3.408
    2DG      H8   43   3.246   3.869   3.447
    2DG      N7   44   3.442   3.877   3.371
    2DG      C5   45   3.530   3.773   3.341
    2DG      C6   46   3.667   3.774   3.300
    2DG      O6   47   3.739   3.870   3.272
    2DG      N1   48   3.721   3.648   3.287
    2DG      H1   49   3.820   3.642   3.265
    2DG      C2   50   3.652   3.534   3.306
    2DG      N2   51   3.718   3.424   3.288
    2DG     H21   52   3.818   3.428   3.269
    2DG     H22   53   3.670   3.336   3.294
    2DG      N3   54   3.522   3.527   3.336
    2DG      C4   55   3.467   3.651   3.356
    2DG     C3'   56   3.154   3.581   3.636
    2DG     H3'   57   3.197   3.672   3.679
    2DG     C2'   58   3.250   3.509   3.543
    2DG    H2'1   59   3.352   3.515   3.580
    2DG    H2'2   60   3.220   3.404   3.533
    2DG     O3'   61   3.106   3.490   3.732
    3DA       P   62   3.172   3.479   3.876
    3DA     O1P   63   3.084   3.384   3.946
    3DA     O2P   64   3.194   3.614   3.929
    3DA     O5'   65   3.314   3.411   3.844
    3DA     C5'   66   3.322   3.272   3.816
    3DA    H5'1   67   3.248   3.249   3.739
    3DA    H5'2   68   3.295   3.218   3.907
    3DA     C4'   69   3.458   3.219   3.767
    3DA     H4'   70   3.445   3.113   3.751
    3DA     O4'   71   3.503   3.275   3.644
    3DA     C1'   72   3.643   3.299   3.653
    3DA     H1'   73   3.697   3.260   3.567
    3DA      N9   74   3.674   3.444   3.658
    3DA      C8   75   3.596   3.550   3.697
    3DA      H8   76   3.498   3.538   3.742
    3DA      N7   77   3.649   3.667   3.670
    3DA      C5   78   3.774   3.634   3.616
    3DA      C6   79   3.886   3.706   3.567
    3DA      N6   80   3.897   3.837   3.562
    3DA     H61   81   3.830   3.891   3.617
    3DA     H62   82   3.988   3.876   3.544
    3DA      N1   83   3.994   3.641   3.521
    3DA      C2   84   3.995   3.509   3.525
    3DA      H2   85   4.085   3.462   3.488
    3DA      N3   86   3.898   3.428   3.565
    3DA      C4   87   3.791   3.498   3.611
    3DA     C3'   88   3.570   3.231   3.869
    3DA     H3'   89   3.562   3.324   3.927
    3DA     C2'   90   3.692   3.229   3.779
    3DA    H2'1   91   3.777   3.279   3.824
    3DA    H2'2   92   3.719   3.126   3.755
    3DA     O3'   93   3.572   3.114   3.947
    4DC       P   94   3.618   3.118   4.099
    4DC     O1P   95   3.595   2.980   4.147
    4DC     O2P   96   3.549   3.231   4.162
    4DC     O5'   97   3.776   3.150   4.085
    4DC     C5'   98   3.871   3.046   4.067
    4DC    H5'1   99   3.836   2.981   3.987
    4DC    H5'2  100   3.874   2.988   4.160
    4DC     C4'  101   4.013   3.093   4.034
    4DC     H4'  102   4.074   3.004   4.020
    4DC     O4'  103   4.021   3.168   3.912
    4DC     C1'  104   4.126   3.264   3.922
    4DC     H1'  105   4.201   3.247   3.845
    4DC      N1  106   4.076   3.404   3.910
    4DC      C6  107   3.948   3.438   3.945
    4DC      H6  108   3.882   3.364   3.989
    4DC      C5  109   3.905   3.565   3.925
    4DC      H5  110   3.804   3.593   3.950
    4DC      C4  111   3.999   3.661   3.877
    4DC      N4  112   3.963   3.784   3.861
    4DC     H41  113   3.872   3.813   3.891
    4DC     H42  114   4.031   3.853   3.830
    4DC      N3  115   4.123   3.629   3.845
    4DC      C2  116   4.163   3.501   3.860
    4DC      O2  117   4.280   3.474   3.829
    4DC     C3'  118   4.084   3.174   4.143
    4DC     H3'  119   4.015   3.244   4.191
    4DC     C2'  120   4.190   3.245   4.059
    4DC    H2'1  121   4.219   3.339   4.104
    4DC    H2'2  122   4.277   3.180   4.048
    4DC     O3'  123   4.153   3.090   4.234
    5DT       P  124   4.197   3.142   4.379
    5DT     O1P  125   4.260   3.028   4.449
    5DT     O2P  126   4.085   3.215   4.440
    5DT     O5'  127   4.315   3.247   4.349
    5DT     C5'  128   4.445   3.202   4.319
    5DT    H5'1  129   4.438   3.130   4.237
    5DT    H5'2  130   4.486   3.149   4.404
    5DT     C4'  131   4.542   3.313   4.279
    5DT     H4'  132   4.638   3.266   4.257
    5DT     O4'  133   4.498   3.380   4.161
    5DT     C1'  134   4.534   3.517   4.170
    5DT     H1'  135   4.596   3.544   4.084
    5DT      N1  136   4.417   3.609   4.171
    5DT      C6  137   4.294   3.572   4.223
    5DT      H6  138   4.283   3.477   4.273
    5DT      C5  139   4.186   3.653   4.209
    5DT      C7  140   4.053   3.607   4.265
    5DT     H71  141   3.998   3.692   4.306
    5DT     H72  142   3.992   3.562   4.187
    5DT     H73  143   4.067   3.534   4.346
    5DT      C4  144   4.199   3.784   4.144
    5DT      O4  145   4.109   3.863   4.118
    5DT      N3  146   4.327   3.817   4.107
    5DT      H3  147   4.341   3.913   4.078
    5DT      C2  148   4.437   3.737   4.118
    5DT      O2  149   4.548   3.777   4.081
    5DT     C3'  150   4.569   3.419   4.385
    5DT     H3'  151   4.478   3.444   4.440
    5DT     C2'  152   4.616   3.533   4.297
    5DT    H2'1  153   4.600   3.630   4.345
    5DT    H2'2  154   4.722   3.522   4.274
    5DT     O3'  155   4.677   3.380   4.469
    6DC       P  156   4.693   3.437   4.617
    6DC     O1P  157   4.812   3.369   4.672
    6DC     O2P  158   4.563   3.423   4.685
    6DC     O5'  159   4.726   3.591   4.594
    6DC     C5'  160   4.859   3.632   4.568
    6DC    H5'1  161   4.895   3.577   4.482
    6DC    H5'2  162   4.921   3.608   4.654
    6DC     C4'  163   4.874   3.781   4.537
    6DC     H4'  164   4.980   3.801   4.523
    6DC     O4'  165   4.805   3.818   4.418
    6DC     C1'  166   4.760   3.952   4.431
    6DC     H1'  167   4.804   4.015   4.352
    6DC      N1  168   4.612   3.965   4.422
    6DC      C6  169   4.526   3.864   4.457
    6DC      H6  170   4.565   3.772   4.499
    6DC      C5  171   4.392   3.880   4.442
    6DC      H5  172   4.324   3.801   4.470
    6DC      C4  173   4.346   4.006   4.395
    6DC      N4  174   4.219   4.027   4.376
    6DC     H41  175   4.149   3.961   4.406
    6DC     H42  176   4.187   4.119   4.348
    6DC      N3  177   4.427   4.107   4.368
    6DC      C2  178   4.560   4.089   4.381
    6DC      O2  179   4.633   4.185   4.357
    6DC     C3'  180   4.825   3.872   4.648
    6DC     H3'  181   4.730   3.836   4.688
    6DC     C2'  182   4.807   4.000   4.568
    6DC    H2'1  183   4.734   4.066   4.616
    6DC    H2'2  184   4.902   4.052   4.559
    6DC     O3'  185   4.925   3.889   4.748
    7DT       P  186   4.883   3.937   4.895
    7DT     O1P  187   5.004   3.932   4.980
    7DT     O2P  188   4.763   3.864   4.934
    7DT     O5'  189   4.848   4.091   4.870
    7DT     C5'  190   4.949   4.186   4.847
    7DT    H5'1  191   5.012   4.150   4.767
    7DT    H5'2  192   5.009   4.196   4.938
    7DT     C4'  193   4.894   4.324   4.810
    7DT     H4'  194   4.980   4.386   4.786
    7DT     O4'  195   4.808   4.323   4.696
    7DT     C1'  196   4.697   4.408   4.719
    7DT     H1'  197   4.693   4.484   4.641
    7DT      N1  198   4.566   4.336   4.717
    7DT      C6  199   4.553   4.205   4.756
    7DT      H6  200   4.636   4.153   4.802
    7DT      C5  201   4.436   4.138   4.739
    7DT      C7  202   4.429   3.992   4.782
    7DT     H71  203   4.325   3.962   4.796
    7DT     H72  204   4.474   3.929   4.706
    7DT     H73  205   4.482   3.977   4.876
    7DT      C4  206   4.318   4.207   4.687
    7DT      O4  207   4.208   4.161   4.665
    7DT      N3  208   4.337   4.340   4.659
    7DT      H3  209   4.255   4.392   4.634
    7DT      C2  210   4.455   4.409   4.673
    7DT      O2  211   4.460   4.528   4.643
    7DT     C3'  212   4.822   4.394   4.925
    7DT     H3'  213   4.774   4.321   4.992
    7DT     C2'  214   4.719   4.479   4.852
    7DT    H2'1  215   4.628   4.486   4.910
    7DT    H2'2  216   4.758   4.579   4.834
    7DT     O3'  217   4.912   4.482   4.990
    8DA       P  218   4.895   4.514   5.146
    8DA     O1P  219   5.000   4.614   5.176
    8DA     O2P  220   4.897   4.385   5.217
    8DA     O5'  221   4.754   4.591   5.149
    8DA     C5'  222   4.754   4.730   5.122
    8DA    H5'1  223   4.819   4.748   5.037
    8DA    H5'2  224   4.797   4.781   5.209
    8DA     C4'  225   4.620   4.796   5.092
    8DA     H4'  226   4.642   4.899   5.066
    8DA     O4'  227   4.551   4.744   4.979
    8DA     C1'  228   4.412   4.766   5.000
    8DA     H1'  229   4.372   4.831   4.922
    8DA      N9  230   4.339   4.639   4.995
    8DA      C8  231   4.383   4.512   5.024
    8DA      H8  232   4.483   4.493   5.061
    8DA      N7  233   4.296   4.419   4.998
    8DA      C5  234   4.182   4.490   4.960
    8DA      C6  235   4.049   4.456   4.926
    8DA      N6  236   4.003   4.333   4.918
    8DA     H61  237   4.064   4.255   4.941
    8DA     H62  238   3.909   4.314   4.886
    8DA      N1  239   3.961   4.552   4.897
    8DA      C2  240   4.000   4.678   4.901
    8DA      H2  241   3.924   4.751   4.877
    8DA      N3  242   4.120   4.727   4.929
    8DA      C4  243   4.207   4.625   4.959
    8DA     C3'  244   4.525   4.804   5.210
    8DA     H3'  245   4.523   4.710   5.266
    8DA     C2'  246   4.394   4.832   5.136
    8DA    H2'1  247   4.309   4.791   5.190
    8DA    H2'2  248   4.381   4.940   5.123
    8DA     O3'  249   4.562   4.918   5.285
    9DC       P  250   4.532   4.932   5.441
    9DC     O1P  251   4.590   5.064   5.475
    9DC     O2P  252   4.580   4.810   5.510
    9DC     O5'  253   4.372   4.938   5.449
    9DC     C5'  254   4.302   5.059   5.427
    9DC    H5'1  255   4.347   5.110   5.341
    9DC    H5'2  256   4.314   5.122   5.515
    9DC     C4'  257   4.152   5.042   5.398
    9DC     H4'  258   4.114   5.140   5.372
    9DC     O4'  259   4.128   4.957   5.287
    9DC     C1'  260   3.999   4.899   5.301
    9DC     H1'  261   3.934   4.937   5.222
    9DC      N1  262   4.000   4.751   5.293
    9DC      C6  263   4.110   4.677   5.329
    9DC      H6  264   4.197   4.726   5.371
    9DC      C5  265   4.108   4.542   5.312
    9DC      H5  266   4.194   4.483   5.339
    9DC      C4  267   3.989   4.483   5.263
    9DC      N4  268   3.985   4.355   5.241
    9DC     H41  269   4.067   4.298   5.257
    9DC     H42  270   3.899   4.312   5.208
    9DC      N3  271   3.880   4.553   5.232
    9DC      C2  272   3.884   4.687   5.248
    9DC      O2  273   3.782   4.753   5.222
    9DC     C3'  274   4.067   4.990   5.514
    9DC     H3'  275   4.118   4.908   5.566
    9DC     C2'  276   3.944   4.943   5.437
    9DC    H2'1  277   3.894   4.862   5.490
    9DC    H2'2  278   3.875   5.026   5.423
    9DC     O3'  279   4.029   5.097   5.599
   10DG       P  280   3.975   5.072   5.748
   10DG     O1P  281   3.942   5.207   5.798
   10DG     O2P  282   4.073   4.991   5.821
   10DG     O5'  283   3.837   4.992   5.727
   10DG     C5'  284   3.713   5.062   5.716
   10DG    H5'1  285   3.720   5.130   5.631
   10DG    H5'2  286   3.700   5.121   5.807
   10DG     C4'  287   3.587   4.978   5.697
   10DG     H4'  288   3.504   5.048   5.690
   10DG     O4'  289   3.588   4.902   5.576
   10DG     C1'  290   3.522   4.778   5.600
   10DG     H1'  291   3.441   4.763   5.529
   10DG      N9  292   3.614   4.663   5.583
   10DG      C8  293   3.749   4.653   5.605
   10DG      H8  294   3.807   4.734   5.647
   10DG      N7  295   3.800   4.539   5.569
   10DG      C5  296   3.689   4.463   5.531
   10DG      C6  297   3.675   4.325   5.490
   10DG      O6  298   3.761   4.239   5.473
   10DG      N1  299   3.544   4.288   5.468
   10DG      H1  300   3.528   4.191   5.444
   10DG      C2  301   3.438   4.370   5.483
   10DG      N2  302   3.320   4.318   5.467
   10DG     H21  303   3.311   4.218   5.450
   10DG     H22  304   3.240   4.375   5.488
   10DG      N3  305   3.445   4.499   5.517
   10DG      C4  306   3.574   4.538   5.541
   10DG     C3'  307   3.550   4.886   5.815
   10DG     H3'  308   3.639   4.841   5.860
   10DG     C2'  309   3.465   4.784   5.741
   10DG    H2'1  310   3.469   4.687   5.790
   10DG    H2'2  311   3.362   4.818   5.736
   10DG     O3'  312   3.469   4.958   5.908
   11DG       P  313   3.442   4.903   6.058
   11DG     O1P  314   3.344   4.996   6.121
   11DG     O2P  315   3.571   4.880   6.125
   11DG     O5'  316   3.366   4.763   6.032
   11DG     C5'  317   3.228   4.759   6.001
   11DG    H5'1  318   3.208   4.827   5.917
   11DG    H5'2  319   3.172   4.795   6.088
   11DG     C4'  320   3.173   4.621   5.964
   11DG     H4'  321   3.066   4.631   5.948
   11DG     O4'  322   3.229   4.565   5.845
   11DG     C1'  323   3.232   4.423   5.859
   11DG     H1'  324   3.170   4.374   5.783
   11DG      N9  325   3.369   4.371   5.845
   11DG      C8  326   3.489   4.430   5.875
   11DG      H8  327   3.496   4.529   5.920
   11DG      N7  328   3.592   4.358   5.842
   11DG      C5  329   3.536   4.237   5.800
   11DG      C6  330   3.595   4.114   5.758
   11DG      O6  331   3.714   4.086   5.742
   11DG      N1  332   3.503   4.014   5.735
   11DG      H1  333   3.540   3.923   5.712
   11DG      C2  334   3.369   4.030   5.745
   11DG      N2  335   3.295   3.924   5.731
   11DG     H21  336   3.338   3.833   5.721
   11DG     H22  337   3.197   3.935   5.748
   11DG      N3  338   3.309   4.144   5.776
   11DG      C4  339   3.399   4.244   5.804
   11DG     C3'  340   3.191   4.517   6.074
   11DG     H3'  341   3.289   4.527   6.121
   11DG     C2'  342   3.178   4.387   5.997
   11DG    H2'1  343   3.236   4.308   6.044
   11DG    H2'2  344   3.074   4.356   5.989
   11DG     O3'  345   3.084   4.526   6.166
   12DA       P  346   3.102   4.476   6.315
   12DA     O1P  347   2.972   4.504   6.378
   12DA     O2P  348   3.222   4.543   6.369
   12DA     O5'  349   3.122   4.317   6.298
   12DA     C5'  350   3.008   4.233   6.286
   12DA    H5'1  351   2.941   4.275   6.211
   12DA    H5'2  352   2.956   4.236   6.382
   12DA     C4'  353   3.031   4.085   6.250
   12DA     H4'  354   2.932   4.039   6.249
   12DA     O4'  355   3.090   4.064   6.121
   12DA     C1'  356   3.171   3.947   6.127
   12DA     H1'  357   3.145   3.876   6.048
   12DA      N9  358   3.315   3.979   6.113
   12DA      C8  359   3.381   4.096   6.143
   12DA      H8  360   3.330   4.182   6.185
   12DA      N7  361   3.508   4.095   6.114
   12DA      C5  362   3.529   3.964   6.068
   12DA      C6  363   3.641   3.890   6.023
   12DA      N6  364   3.762   3.940   6.005
   12DA     H61  365   3.779   4.038   6.018
   12DA     H62  366   3.837   3.880   5.971
   12DA      N1  367   3.630   3.761   5.992
   12DA      C2  368   3.511   3.705   6.001
   12DA      H2  369   3.507   3.600   5.974
   12DA      N3  370   3.396   3.760   6.038
   12DA      C4  371   3.413   3.891   6.071
   12DA     C3'  372   3.112   4.005   6.351
   12DA     H3'  373   3.201   4.061   6.381
   12DA     C2'  374   3.146   3.885   6.263
   12DA    H2'1  375   3.233   3.831   6.300
   12DA    H2'2  376   3.061   3.816   6.258
   12DA     O3'  377   3.031   3.966   6.460
   13DA       P  378   3.094   3.925   6.601
   13DA     O1P  379   2.980   3.893   6.689
   13DA     O2P  380   3.191   4.029   6.640
   13DA     O5'  381   3.171   3.788   6.565
   13DA     C5'  382   3.099   3.667   6.548
   13DA    H5'1  383   3.022   3.684   6.474
   13DA    H5'2  384   3.051   3.643   6.643
   13DA     C4'  385   3.182   3.545   6.506
   13DA     H4'  386   3.112   3.462   6.496
   13DA     O4'  387   3.244   3.560   6.379
   13DA     C1'  388   3.374   3.502   6.383
   13DA     H1'  389   3.388   3.432   6.300
   13DA      N9  390   3.478   3.607   6.372
   13DA      C8  391   3.467   3.741   6.397
   13DA      H8  392   3.378   3.786   6.439
   13DA      N7  393   3.571   3.811   6.363
   13DA      C5  394   3.663   3.713   6.324
   13DA      C6  395   3.799   3.715   6.284
   13DA      N6  396   3.871   3.824   6.274
   13DA     H61  397   3.828   3.913   6.293
   13DA     H62  398   3.968   3.822   6.244
   13DA      N1  399   3.862   3.601   6.257
   13DA      C2  400   3.795   3.488   6.267
   13DA      H2  401   3.851   3.399   6.246
   13DA      N3  402   3.667   3.469   6.301
   13DA      C4  403   3.607   3.588   6.330
   13DA     C3'  404   3.286   3.500   6.608
   13DA     H3'  405   3.331   3.586   6.659
   13DA     C2'  406   3.384   3.428   6.516
   13DA    H2'1  407   3.485   3.430   6.556
   13DA    H2'2  408   3.353   3.324   6.502
   13DA     O3'  409   3.226   3.406   6.696
   14DG       P  410   3.285   3.377   6.842
   14DG     O1P  411   3.203   3.267   6.897
   14DG     O2P  412   3.288   3.503   6.918
   14DG     O5'  413   3.434   3.323   6.816
   14DG     C5'  414   3.456   3.186   6.787
   14DG    H5'1  415   3.390   3.157   6.706
   14DG    H5'2  416   3.429   3.128   6.876
   14DG     C4'  417   3.600   3.151   6.748
   14DG     H4'  418   3.602   3.044   6.731
   14DG     O4'  419   3.642   3.214   6.627
   14DG     C1'  420   3.780   3.245   6.635
   14DG     H1'  421   3.835   3.198   6.552
   14DG      N9  422   3.805   3.390   6.628
   14DG      C8  423   3.724   3.495   6.664
   14DG      H8  424   3.625   3.480   6.706
   14DG      N7  425   3.778   3.613   6.645
   14DG      C5  426   3.907   3.584   6.597
   14DG      C6  427   4.018   3.667   6.559
   14DG      O6  428   4.026   3.789   6.553
   14DG      N1  429   4.131   3.597   6.525
   14DG      H1  430   4.213   3.651   6.502
   14DG      C2  431   4.138   3.462   6.523
   14DG      N2  432   4.255   3.410   6.495
   14DG     H21  433   4.335   3.471   6.480
   14DG     H22  434   4.260   3.310   6.490
   14DG      N3  435   4.038   3.379   6.551
   14DG      C4  436   3.925   3.447   6.589
   14DG     C3'  437   3.706   3.179   6.854
   14DG     H3'  438   3.684   3.273   6.907
   14DG     C2'  439   3.831   3.190   6.768
   14DG    H2'1  440   3.905   3.254   6.814
   14DG    H2'2  441   3.874   3.091   6.752
   14DG     O3'  442   3.722   3.068   6.941
   15DG       P  443   3.776   3.087   7.090
   15DG     O1P  444   3.776   2.951   7.149
   15DG     O2P  445   3.698   3.194   7.154
   15DG     O5'  446   3.931   3.130   7.068
   15DG     C5'  447   4.030   3.031   7.045
   15DG    H5'1  448   3.994   2.965   6.967
   15DG    H5'2  449   4.041   2.973   7.137
   15DG     C4'  450   4.170   3.080   7.003
   15DG     H4'  451   4.229   2.990   6.988
   15DG     O4'  452   4.172   3.153   6.881
   15DG     C1'  453   4.276   3.249   6.885
   15DG     H1'  454   4.346   3.236   6.802
   15DG      N9  455   4.225   3.388   6.876
   15DG      C8  456   4.100   3.435   6.907
   15DG      H8  457   4.021   3.371   6.946
   15DG      N7  458   4.085   3.562   6.884
   15DG      C5  459   4.212   3.605   6.845
   15DG      C6  460   4.265   3.734   6.814
   15DG      O6  461   4.208   3.843   6.809
   15DG      N1  462   4.399   3.735   6.783
   15DG      H1  463   4.439   3.824   6.759
   15DG      C2  464   4.476   3.624   6.781
   15DG      N2  465   4.603   3.642   6.756
   15DG     H21  466   4.638   3.737   6.743
   15DG     H22  467   4.665   3.563   6.756
   15DG      N3  468   4.434   3.500   6.807
   15DG      C4  469   4.300   3.497   6.840
   15DG     C3'  470   4.245   3.162   7.107
   15DG     H3'  471   4.178   3.233   7.157
   15DG     C2'  472   4.348   3.231   7.018
   15DG    H2'1  473   4.380   3.326   7.061
   15DG    H2'2  474   4.435   3.167   7.004
   15DG     O3'  475   4.315   3.078   7.196
   16DG       P  476   4.359   3.128   7.342
   16DG     O1P  477   4.429   3.012   7.403
   16DG     O2P  478   4.241   3.187   7.409
   16DG     O5'  479   4.469   3.242   7.312
   16DG     C5'  480   4.605   3.205   7.294
   16DG    H5'1  481   4.611   3.128   7.216
   16DG    H5'2  482   4.640   3.161   7.387
   16DG     C4'  483   4.704   3.316   7.258
   16DG     H4'  484   4.801   3.266   7.248
   16DG     O4'  485   4.677   3.379   7.133
   16DG     C1'  486   4.702   3.519   7.146
   16DG     H1'  487   4.767   3.556   7.067
   16DG      N9  488   4.579   3.601   7.140
   16DG      C8  489   4.451   3.569   7.175
   16DG      H8  490   4.421   3.472   7.212
   16DG      N7  491   4.368   3.668   7.160
   16DG      C5  492   4.446   3.775   7.115
   16DG      C6  493   4.416   3.912   7.085
   16DG      O6  494   4.309   3.973   7.088
   16DG      N1  495   4.528   3.986   7.052
   16DG      H1  496   4.512   4.083   7.031
   16DG      C2  497   4.653   3.935   7.045
   16DG      N2  498   4.750   4.018   7.021
   16DG     H21  499   4.730   4.117   7.011
   16DG     H22  500   4.841   3.978   7.010
   16DG      N3  501   4.686   3.809   7.070
   16DG      C4  502   4.577   3.733   7.105
   16DG     C3'  503   4.723   3.422   7.366
   16DG     H3'  504   4.629   3.442   7.418
   16DG     C2'  505   4.770   3.540   7.282
   16DG    H2'1  506   4.741   3.634   7.327
   16DG    H2'2  507   4.878   3.538   7.269
   16DG     O3'  508   4.829   3.381   7.452
   17DC       P  509   4.842   3.432   7.604
   17DC     O1P  510   4.967   3.370   7.654
   17DC     O2P  511   4.715   3.405   7.674
   17DC     O5'  512   4.867   3.589   7.586
   17DC     C5'  513   4.996   3.633   7.548
   17DC    H5'1  514   5.027   3.576   7.460
   17DC    H5'2  515   5.065   3.612   7.630
   17DC     C4'  516   5.010   3.781   7.512
   17DC     H4'  517   5.116   3.795   7.491
   17DC     O4'  518   4.939   3.816   7.394
   17DC     C1'  519   4.892   3.950   7.407
   17DC     H1'  520   4.925   4.009   7.321
   17DC      N1  521   4.743   3.960   7.413
   17DC      C6  522   4.664   3.856   7.455
   17DC      H6  523   4.709   3.764   7.491
   17DC      C5  524   4.529   3.869   7.451
   17DC      H5  525   4.465   3.788   7.480
   17DC      C4  526   4.476   3.994   7.406
   17DC      N4  527   4.348   4.009   7.398
   17DC     H41  528   4.291   3.926   7.405
   17DC     H42  529   4.311   4.092   7.354
   17DC      N3  530   4.551   4.096   7.370
   17DC      C2  531   4.685   4.081   7.375
   17DC      O2  532   4.756   4.178   7.347
   17DC     C3'  533   4.974   3.880   7.622
   17DC     H3'  534   4.884   3.848   7.674
   17DC     C2'  535   4.951   4.004   7.536
   17DC    H2'1  536   4.884   4.074   7.586
   17DC    H2'2  537   5.046   4.054   7.515
   17DC     O3'  538   5.086   3.900   7.707
   18DA       P  539   5.068   3.945   7.859
   18DA     O1P  540   5.205   3.962   7.912
   18DA     O2P  541   4.973   3.854   7.924
   18DA     O5'  542   5.003   4.091   7.841
   18DA     C5'  543   5.087   4.201   7.810
   18DA    H5'1  544   5.146   4.177   7.722
   18DA    H5'2  545   5.154   4.214   7.895
   18DA     C4'  546   5.016   4.334   7.786
   18DA     H4'  547   5.094   4.409   7.771
   18DA     O4'  548   4.937   4.333   7.669
   18DA     C1'  549   4.823   4.415   7.692
   18DA     H1'  550   4.812   4.490   7.613
   18DA      N9  551   4.700   4.333   7.692
   18DA      C8  552   4.681   4.200   7.720
   18DA      H8  553   4.762   4.135   7.752
   18DA      N7  554   4.558   4.159   7.702
   18DA      C5  555   4.490   4.276   7.664
   18DA      C6  556   4.357   4.309   7.631
   18DA      N6  557   4.257   4.224   7.620
   18DA     H61  558   4.278   4.125   7.619
   18DA     H62  559   4.166   4.257   7.589
   18DA      N1  560   4.322   4.436   7.607
   18DA      C2  561   4.416   4.529   7.610
   18DA      H2  562   4.384   4.630   7.588
   18DA      N3  563   4.545   4.514   7.636
   18DA      C4  564   4.575   4.383   7.662
   18DA     C3'  565   4.931   4.383   7.904
   18DA     H3'  566   4.872   4.300   7.944
   18DA     C2'  567   4.844   4.482   7.827
   18DA    H2'1  568   4.750   4.501   7.877
   18DA    H2'2  569   4.898   4.576   7.812
   18DA     O3'  570   5.010   4.447   8.003
   19DT       P  571   4.952   4.482   8.150
   19DT     O1P  572   5.055   4.560   8.221
   19DT     O2P  573   4.895   4.360   8.213
   19DT     O5'  574   4.831   4.581   8.121
   19DT     C5'  575   4.853   4.720   8.105
   19DT    H5'1  576   4.918   4.736   8.019
   19DT    H5'2  577   4.902   4.758   8.195
   19DT     C4'  578   4.723   4.798   8.085
   19DT     H4'  579   4.750   4.903   8.072
   19DT     O4'  580   4.656   4.756   7.967
   19DT     C1'  581   4.516   4.765   7.988
   19DT     H1'  582   4.471   4.829   7.912
   19DT      N1  583   4.448   4.632   7.981
   19DT      C6  584   4.514   4.515   8.013
   19DT      H6  585   4.616   4.519   8.047
   19DT      C5  586   4.452   4.395   8.004
   19DT      C7  587   4.530   4.269   8.036
   19DT     H71  588   4.489   4.184   7.981
   19DT     H72  589   4.635   4.281   8.008
   19DT     H73  590   4.523   4.248   8.143
   19DT      C4  591   4.313   4.386   7.959
   19DT      O4  592   4.245   4.284   7.951
   19DT      N3  593   4.254   4.507   7.931
   19DT      H3  594   4.157   4.505   7.901
   19DT      C2  595   4.314   4.631   7.942
   19DT      O2  596   4.248   4.733   7.923
   19DT     C3'  597   4.624   4.791   8.203
   19DT     H3'  598   4.618   4.690   8.243
   19DT     C2'  599   4.499   4.831   8.125
   19DT    H2'1  600   4.409   4.797   8.173
   19DT    H2'2  601   4.495   4.939   8.113
   19DT     O3'  602   4.655   4.889   8.302
   20DC       P  603   4.585   4.895   8.447
   20DC     O1P  604   4.640   5.018   8.507
   20DC     O2P  605   4.601   4.769   8.521
   20DC     O5'  606   4.430   4.919   8.423
   20DC     C5'  607   4.377   5.049   8.403
   20DC    H5'1  608   4.430   5.097   8.321
   20DC    H5'2  609   4.389   5.108   8.494
   20DC     C4'  610   4.228   5.041   8.369
   20DC     H4'  611   4.193   5.141   8.344
   20DC     O4'  612   4.209   4.957   8.256
   20DC     C1'  613   4.084   4.892   8.267
   20DC     H1'  614   4.021   4.923   8.183
   20DC      N1  615   4.096   4.743   8.265
   20DC      C6  616   4.212   4.676   8.294
   20DC      H6  617   4.297   4.731   8.333
   20DC      C5  618   4.220   4.542   8.276
   20DC      H5  619   4.311   4.489   8.297
   20DC      C4  620   4.102   4.475   8.232
   20DC      N4  621   4.104   4.347   8.211
   20DC     H41  622   4.191   4.299   8.208
   20DC     H42  623   4.021   4.302   8.174
   20DC      N3  624   3.987   4.537   8.213
   20DC      C2  625   3.983   4.671   8.226
   20DC      O2  626   3.876   4.728   8.203
   20DC     C3'  627   4.141   4.987   8.481
   20DC     H3'  628   4.191   4.905   8.533
   20DC     C2'  629   4.022   4.938   8.399
   20DC    H2'1  630   3.970   4.858   8.450
   20DC    H2'2  631   3.953   5.021   8.380
   20DC     O3'  632   4.100   5.092   8.568
   21DT       P  633   4.067   5.067   8.723
   21DT     O1P  634   4.021   5.197   8.776
   21DT     O2P  635   4.180   4.998   8.788
   21DT     O5'  636   3.939   4.967   8.720
   21DT     C5'  637   3.810   5.018   8.689
   21DT    H5'1  638   3.820   5.085   8.603
   21DT    H5'2  639   3.777   5.078   8.774
   21DT     C4'  640   3.698   4.919   8.657
   21DT     H4'  641   3.611   4.980   8.637
   21DT     O4'  642   3.717   4.844   8.538
   21DT     C1'  643   3.644   4.721   8.548
   21DT     H1'  644   3.572   4.713   8.466
   21DT      N1  645   3.737   4.605   8.542
   21DT      C6  646   3.871   4.619   8.572
   21DT      H6  647   3.909   4.716   8.602
   21DT      C5  648   3.956   4.514   8.565
   21DT      C7  649   4.103   4.539   8.596
   21DT     H71  650   4.165   4.466   8.543
   21DT     H72  651   4.132   4.639   8.566
   21DT     H73  652   4.120   4.527   8.703
   21DT      C4  653   3.908   4.382   8.527
   21DT      O4  654   3.973   4.278   8.522
   21DT      N3  655   3.774   4.377   8.496
   21DT      H3  656   3.738   4.286   8.469
   21DT      C2  657   3.684   4.480   8.507
   21DT      O2  658   3.564   4.458   8.489
   21DT     C3'  659   3.659   4.819   8.767
   21DT     H3'  660   3.748   4.768   8.804
   21DT     C2'  661   3.572   4.727   8.683
   21DT    H2'1  662   3.562   4.628   8.727
   21DT    H2'2  663   3.473   4.770   8.669
   21DT     O3'  664   3.583   4.880   8.872
   22DG       P  665   3.575   4.817   9.021
   22DG     O1P  666   3.501   4.912   9.107
   22DG     O2P  667   3.710   4.771   9.060
   22DG     O5'  668   3.483   4.687   9.003
   22DG     C5'  669   3.343   4.698   8.980
   22DG    H5'1  670   3.327   4.765   8.896
   22DG    H5'2  671   3.296   4.740   9.069
   22DG     C4'  672   3.276   4.564   8.947
   22DG     H4'  673   3.170   4.581   8.932
   22DG     O4'  674   3.330   4.511   8.826
   22DG     C1'  675   3.336   4.370   8.835
   22DG     H1'  676   3.278   4.325   8.754
   22DG      N9  677   3.477   4.323   8.823
   22DG      C8  678   3.594   4.390   8.850
   22DG      H8  679   3.596   4.492   8.888
   22DG      N7  680   3.702   4.322   8.824
   22DG      C5  681   3.653   4.197   8.782
   22DG      C6  682   3.721   4.075   8.745
   22DG      O6  683   3.841   4.050   8.735
   22DG      N1  684   3.634   3.971   8.723
   22DG      H1  685   3.676   3.882   8.698
   22DG      C2  686   3.499   3.981   8.728
   22DG      N2  687   3.430   3.872   8.709
   22DG     H21  688   3.479   3.784   8.692
   22DG     H22  689   3.330   3.879   8.703
   22DG      N3  690   3.432   4.092   8.757
   22DG      C4  691   3.515   4.197   8.784
   22DG     C3'  692   3.292   4.457   9.055
   22DG     H3'  693   3.392   4.463   9.098
   22DG     C2'  694   3.277   4.331   8.970
   22DG    H2'1  695   3.329   4.247   9.015
   22DG    H2'2  696   3.172   4.306   8.958
   22DG     O3'  697   3.189   4.464   9.154
   23DC       P  698   3.216   4.415   9.304
   23DC     O1P  699   3.092   4.439   9.383
   23DC     O2P  700   3.341   4.477   9.349
   23DC     O5'  701   3.236   4.256   9.293
   23DC     C5'  702   3.124   4.171   9.274
   23DC    H5'1  703   3.065   4.209   9.191
   23DC    H5'2  704   3.064   4.174   9.364
   23DC     C4'  705   3.157   4.024   9.246
   23DC     H4'  706   3.062   3.971   9.244
   23DC     O4'  707   3.217   4.007   9.119
   23DC     C1'  708   3.300   3.892   9.123
   23DC     H1'  709   3.270   3.819   9.046
   23DC      N1  710   3.444   3.926   9.102
   23DC      C6  711   3.494   4.052   9.127
   23DC      H6  712   3.429   4.129   9.165
   23DC      C5  713   3.625   4.078   9.103
   23DC      H5  714   3.664   4.177   9.121
   23DC      C4  715   3.707   3.972   9.057
   23DC      N4  716   3.833   3.993   9.037
   23DC     H41  717   3.867   4.087   9.046
   23DC     H42  718   3.890   3.923   8.992
   23DC      N3  719   3.662   3.850   9.034
   23DC      C2  720   3.530   3.826   9.056
   23DC      O2  721   3.488   3.712   9.036
   23DC     C3'  722   3.244   3.952   9.350
   23DC     H3'  723   3.331   4.012   9.375
   23DC     C2'  724   3.280   3.832   9.262
   23DC    H2'1  725   3.370   3.782   9.297
   23DC    H2'2  726   3.198   3.761   9.259
   23DC     O3'  727   3.169   3.913   9.465
   24DG       P  728   3.239   3.861   9.600
   24DG     O1P  729   3.131   3.830   9.697
   24DG     O2P  730   3.342   3.958   9.642
   24DG     O5'  731   3.313   3.724   9.563
   24DG     C5'  732   3.240   3.605   9.536
   24DG    H5'1  733   3.172   3.623   9.453
   24DG    H5'2  734   3.181   3.578   9.624
   24DG     C4'  735   3.330   3.487   9.499
   24DG     H4'  736   3.269   3.398   9.493
   24DG     O4'  737   3.391   3.507   9.371
   24DG     C1'  738   3.523   3.455   9.374
   24DG     H1'  739   3.542   3.386   9.291
   24DG      N9  740   3.623   3.566   9.365
   24DG      C8  741   3.611   3.699   9.397
   24DG      H8  742   3.521   3.741   9.439
   24DG      N7  743   3.718   3.770   9.373
   24DG      C5  744   3.808   3.677   9.321
   24DG      C6  745   3.945   3.690   9.277
   24DG      O6  746   4.016   3.790   9.270
   24DG      N1  747   4.003   3.569   9.245
   24DG      H1  748   4.099   3.573   9.214
   24DG      C2  749   3.938   3.451   9.246
   24DG      N2  750   4.006   3.346   9.211
   24DG     H21  751   4.102   3.359   9.180
   24DG     H22  752   3.952   3.262   9.195
   24DG      N3  753   3.812   3.434   9.284
   24DG      C4  754   3.752   3.551   9.320
   24DG     C3'  755   3.442   3.459   9.601
   24DG     H3'  756   3.489   3.553   9.631
   24DG     C2'  757   3.534   3.381   9.507
   24DG    H2'1  758   3.636   3.378   9.541
   24DG    H2'2  759   3.497   3.279   9.494
   24DG     O3'  760   3.399   3.382   9.713
   25DC       P  761   3.479   3.378   9.853
   25DC     O1P  762   3.409   3.284   9.943
   25DC     O2P  763   3.506   3.516   9.901
   25DC     O5'  764   3.623   3.315   9.819
   25DC     C5'  765   3.636   3.179   9.783
   25DC    H5'1  766   3.567   3.159   9.701
   25DC    H5'2  767   3.609   3.117   9.870
   25DC     C4'  768   3.777   3.139   9.737
   25DC     H4'  769   3.779   3.031   9.718
   25DC     O4'  770   3.810   3.205   9.616
   25DC     C1'  771   3.949   3.235   9.614
   25DC     H1'  772   3.995   3.193   9.524
   25DC      N1  773   3.974   3.383   9.616
   25DC      C6  774   3.876   3.475   9.645
   25DC      H6  775   3.779   3.441   9.677
   25DC      C5  776   3.902   3.607   9.633
   25DC      H5  777   3.823   3.680   9.651
   25DC      C4  778   4.032   3.646   9.591
   25DC      N4  779   4.061   3.770   9.570
   25DC     H41  780   3.986   3.837   9.559
   25DC     H42  781   4.150   3.788   9.525
   25DC      N3  782   4.129   3.560   9.571
   25DC      C2  783   4.102   3.428   9.583
   25DC      O2  784   4.197   3.350   9.572
   25DC     C3'  785   3.889   3.171   9.835
   25DC     H3'  786   3.874   3.271   9.876
   25DC     C2'  787   4.007   3.168   9.739
   25DC    H2'1  788   4.093   3.222   9.780
   25DC    H2'2  789   4.034   3.065   9.715
   25DC     O3'  790   3.905   3.073   9.936
   25DC     H3T  791   3.932   3.116  10.018
   26G      O5'  792   5.057   3.971   9.230
   26G      H5T  793   4.994   3.986   9.156
   26G      C5'  794   5.138   3.859   9.198
   26G     H5'1  795   5.235   3.868   9.246
   26G     H5'2  796   5.154   3.859   9.091
   26G      C4'  797   5.075   3.725   9.236
   26G      H4'  798   5.156   3.653   9.240
   26G      O4'  799   5.008   3.727   9.362
   26G      C1'  800   4.890   3.648   9.353
   26G      H1'  801   4.888   3.573   9.431
   26G       N9  802   4.767   3.729   9.365
   26G       C8  803   4.747   3.864   9.354
   26G       H8  804   4.825   3.933   9.325
   26G       N7  805   4.626   3.903   9.388
   26G       C5  806   4.558   3.783   9.414
   26G       C6  807   4.422   3.756   9.452
   26G       O6  808   4.330   3.833   9.477
   26G       N1  809   4.395   3.621   9.467
   26G       H1  810   4.300   3.596   9.486
   26G       C2  811   4.488   3.524   9.451
   26G       N2  812   4.450   3.401   9.469
   26G      H21  813   4.351   3.380   9.485
   26G      H22  814   4.515   3.328   9.453
   26G       N3  815   4.617   3.544   9.424
   26G       C4  816   4.645   3.676   9.402
   26G      C3'  817   4.975   3.672   9.133
   26G      H3'  818   4.911   3.752   9.098
   26G      C2'  819   4.895   3.575   9.219
   26G     H2'1  820   4.795   3.559   9.178
   26G      O2'  821   4.963   3.451   9.239
   26G     HO'2  822   4.970   3.412   9.151
   26G      O3'  823   5.041   3.604   9.026
   27C        P  824   4.967   3.593   8.885
   27C      O1P  825   5.057   3.522   8.791
   27C      O2P  826   4.920   3.728   8.852
   27C      O5'  827   4.844   3.498   8.920
   27C      C5'  828   4.861   3.357   8.926
   27C     H5'1  829   4.947   3.333   8.989
   27C     H5'2  830   4.881   3.320   8.826
   27C      C4'  831   4.739   3.282   8.980
   27C      H4'  832   4.771   3.180   9.000
   27C      O4'  833   4.686   3.338   9.100
   27C      C1'  834   4.544   3.329   9.098
   27C      H1'  835   4.509   3.275   9.185
   27C       N1  836   4.474   3.461   9.097
   27C       C6  837   4.535   3.577   9.054
   27C       H6  838   4.632   3.574   9.007
   27C       C5  839   4.471   3.696   9.068
   27C       H5  840   4.518   3.786   9.033
   27C       C4  841   4.341   3.694   9.125
   27C       N4  842   4.277   3.806   9.144
   27C      H41  843   4.314   3.890   9.105
   27C      H42  844   4.181   3.800   9.177
   27C       N3  845   4.281   3.584   9.167
   27C       C2  846   4.344   3.466   9.149
   27C       O2  847   4.285   3.364   9.183
   27C      C3'  848   4.625   3.272   8.880
   27C      H3'  849   4.615   3.366   8.825
   27C      C2'  850   4.505   3.250   8.973
   27C     H2'1  851   4.414   3.289   8.927
   27C      O2'  852   4.488   3.113   9.010
   27C     HO'2  853   4.448   3.074   8.931
   27C      O3'  854   4.643   3.160   8.794
   28G        P  855   4.589   3.166   8.645
   28G      O1P  856   4.621   3.034   8.586
   28G      O2P  857   4.639   3.290   8.584
   28G      O5'  858   4.432   3.170   8.676
   28G      C5'  859   4.359   3.049   8.680
   28G     H5'1  860   4.406   2.979   8.748
   28G     H5'2  861   4.358   3.006   8.580
   28G      C4'  862   4.214   3.067   8.726
   28G      H4'  863   4.171   2.968   8.740
   28G      O4'  864   4.200   3.140   8.847
   28G      C1'  865   4.081   3.219   8.835
   28G      H1'  866   4.009   3.195   8.914
   28G       N9  867   4.108   3.364   8.841
   28G       C8  868   4.220   3.436   8.807
   28G       H8  869   4.307   3.392   8.762
   28G       N7  870   4.211   3.563   8.837
   28G       C5  871   4.080   3.579   8.884
   28G       C6  872   4.004   3.694   8.926
   28G       O6  873   4.039   3.811   8.940
   28G       N1  874   3.873   3.664   8.956
   28G       H1  875   3.810   3.741   8.974
   28G       C2  876   3.820   3.541   8.947
   28G       N2  877   3.692   3.530   8.970
   28G      H21  878   3.636   3.614   8.981
   28G      H22  879   3.650   3.441   8.951
   28G       N3  880   3.886   3.430   8.916
   28G       C4  881   4.016   3.456   8.883
   28G      C3'  882   4.133   3.135   8.617
   28G      H3'  883   4.188   3.218   8.572
   28G      C2'  884   4.016   3.184   8.702
   28G     H2'1  885   3.968   3.271   8.657
   28G      O2'  886   3.922   3.079   8.722
   28G     HO'2  887   3.896   3.056   8.631
   28G      O3'  888   4.093   3.037   8.523
   29C        P  889   4.036   3.081   8.381
   29C      O1P  890   4.000   2.955   8.313
   29C      O2P  891   4.133   3.175   8.322
   29C      O5'  892   3.904   3.158   8.425
   29C      C5'  893   3.780   3.091   8.431
   29C     H5'1  894   3.787   3.003   8.495
   29C     H5'2  895   3.754   3.058   8.331
   29C      C4'  896   3.666   3.180   8.480
   29C      H4'  897   3.580   3.116   8.497
   29C      O4'  898   3.693   3.250   8.602
   29C      C1'  899   3.629   3.378   8.595
   29C      H1'  900   3.560   3.388   8.678
   29C       N1  901   3.724   3.491   8.600
   29C       C6  902   3.853   3.481   8.554
   29C       H6  903   3.886   3.390   8.506
   29C       C5  904   3.937   3.587   8.564
   29C       H5  905   4.038   3.578   8.527
   29C       C4  906   3.883   3.708   8.614
   29C       N4  907   3.958   3.815   8.615
   29C      H41  908   4.040   3.812   8.558
   29C      H42  909   3.916   3.902   8.646
   29C       N3  910   3.760   3.720   8.660
   29C       C2  911   3.679   3.613   8.653
   29C       O2  912   3.564   3.624   8.697
   29C      C3'  913   3.621   3.282   8.376
   29C      H3'  914   3.707   3.324   8.325
   29C      C2'  915   3.550   3.384   8.465
   29C     H2'1  916   3.551   3.483   8.419
   29C      O2'  917   3.417   3.341   8.493
   29C     HO'2  918   3.389   3.305   8.408
   29C      O3'  919   3.528   3.220   8.289
   30A        P  920   3.506   3.272   8.141
   30A      O1P  921   3.413   3.174   8.084
   30A      O2P  922   3.639   3.293   8.082
   30A      O5'  923   3.431   3.412   8.169
   30A      C5'  924   3.291   3.417   8.190
   30A     H5'1  925   3.265   3.346   8.268
   30A     H5'2  926   3.241   3.386   8.098
   30A      C4'  927   3.239   3.556   8.230
   30A      H4'  928   3.135   3.543   8.259
   30A      O4'  929   3.309   3.608   8.343
   30A      C1'  930   3.328   3.748   8.325
   30A      H1'  931   3.286   3.803   8.410
   30A       N9  932   3.471   3.787   8.316
   30A       C8  933   3.581   3.714   8.275
   30A       H8  934   3.573   3.615   8.233
   30A       N7  935   3.695   3.775   8.295
   30A       C5  936   3.657   3.900   8.345
   30A       C6  937   3.726   4.016   8.387
   30A       N6  938   3.856   4.031   8.390
   30A      H61  939   3.912   3.960   8.346
   30A      H62  940   3.896   4.120   8.419
   30A       N1  941   3.659   4.123   8.432
   30A       C2  942   3.527   4.116   8.434
   30A       H2  943   3.478   4.204   8.473
   30A       N3  944   3.448   4.015   8.402
   30A       C4  945   3.521   3.909   8.356
   30A      C3'  946   3.238   3.661   8.119
   30A      H3'  947   3.323   3.647   8.051
   30A      C2'  948   3.251   3.790   8.201
   30A     H2'1  949   3.304   3.866   8.144
   30A      O2'  950   3.124   3.838   8.245
   30A     HO'2  951   3.070   3.838   8.165
   30A      O3'  952   3.111   3.657   8.052
   31G        P  953   3.090   3.725   7.908
   31G      O1P  954   2.943   3.731   7.886
   31G      O2P  955   3.176   3.656   7.811
   31G      O5'  956   3.141   3.874   7.932
   31G      C5'  957   3.047   3.978   7.946
   31G     H5'1  958   2.974   3.950   8.022
   31G     H5'2  959   2.997   3.987   7.849
   31G      C4'  960   3.100   4.116   7.980
   31G      H4'  961   3.014   4.179   8.003
   31G      O4'  962   3.189   4.118   8.090
   31G      C1'  963   3.277   4.227   8.070
   31G      H1'  964   3.265   4.301   8.149
   31G       N9  965   3.418   4.184   8.068
   31G       C8  966   3.473   4.062   8.037
   31G       H8  967   3.413   3.978   8.003
   31G       N7  968   3.602   4.056   8.055
   31G       C5  969   3.636   4.187   8.093
   31G       C6  970   3.763   4.248   8.125
   31G       O6  971   3.875   4.199   8.134
   31G       N1  972   3.752   4.383   8.151
   31G       H1  973   3.839   4.433   8.165
   31G       C2  974   3.636   4.451   8.151
   31G       N2  975   3.640   4.580   8.174
   31G      H21  976   3.730   4.625   8.182
   31G      H22  977   3.554   4.630   8.166
   31G       N3  978   3.516   4.399   8.130
   31G       C4  979   3.524   4.265   8.099
   31G      C3'  980   3.172   4.180   7.862
   31G      H3'  981   3.244   4.110   7.818
   31G      C2'  982   3.243   4.293   7.936
   31G     H2'1  983   3.332   4.326   7.882
   31G      O2'  984   3.156   4.402   7.962
   31G     HO'2  985   3.121   4.426   7.874
   31G      O3'  986   3.078   4.229   7.769
   32A        P  987   3.119   4.259   7.620
   32A      O1P  988   2.994   4.294   7.549
   32A      O2P  989   3.201   4.148   7.571
   32A      O5'  990   3.214   4.387   7.638
   32A      C5'  991   3.163   4.518   7.646
   32A     H5'1  992   3.082   4.521   7.719
   32A     H5'2  993   3.123   4.543   7.548
   32A      C4'  994   3.269   4.621   7.685
   32A      H4'  995   3.217   4.715   7.706
   32A      O4'  996   3.346   4.586   7.801
   32A      C1'  997   3.480   4.631   7.784
   32A      H1'  998   3.510   4.697   7.866
   32A       N9  999   3.578   4.520   7.782
   32A       C8 1000   3.561   4.388   7.745
   32A       H8 1001   3.468   4.350   7.704
   32A       N7 1002   3.665   4.313   7.767
   32A       C5 1003   3.762   4.404   7.811
   32A       C6 1004   3.899   4.395   7.847
   32A       N6 1005   3.970   4.284   7.848
   32A      H61 1006   3.927   4.201   7.811
   32A      H62 1007   4.068   4.286   7.874
   32A       N1 1008   3.967   4.504   7.884
   32A       C2 1009   3.903   4.619   7.886
   32A       H2 1010   3.962   4.705   7.916
   32A       N3 1011   3.775   4.644   7.858
   32A       C4 1012   3.710   4.530   7.819
   32A      C3' 1013   3.369   4.651   7.573
   32A      H3' 1014   3.397   4.559   7.521
   32A      C2' 1015   3.486   4.709   7.654
   32A     H2'1 1016   3.580   4.694   7.601
   32A      O2' 1017   3.461   4.846   7.680
   32A     HO'2 1018   3.420   4.873   7.596
   32A      O3' 1019   3.317   4.752   7.487
   33U        P 1020   3.363   4.758   7.334
   33U      O1P 1021   3.286   4.869   7.272
   33U      O2P 1022   3.357   4.622   7.281
   33U      O5' 1023   3.516   4.802   7.351
   33U      C5' 1024   3.552   4.938   7.359
   33U     H5'1 1025   3.488   4.987   7.431
   33U     H5'2 1026   3.535   4.984   7.262
   33U      C4' 1027   3.698   4.961   7.400
   33U      H4' 1028   3.710   5.066   7.424
   33U      O4' 1029   3.741   4.885   7.513
   33U      C1' 1030   3.880   4.854   7.499
   33U      H1' 1031   3.937   4.899   7.580
   33U       N1 1032   3.907   4.708   7.499
   33U       C6 1033   3.812   4.614   7.465
   33U       H6 1034   3.715   4.646   7.427
   33U       C5 1035   3.837   4.482   7.481
   33U       H5 1036   3.762   4.408   7.456
   33U       C4 1037   3.965   4.434   7.528
   33U       O4 1038   3.996   4.318   7.552
   33U       N3 1039   4.057   4.533   7.552
   33U       H3 1040   4.149   4.501   7.579
   33U       C2 1041   4.035   4.668   7.539
   33U       O2 1042   4.127   4.747   7.563
   33U      C3' 1043   3.797   4.930   7.288
   33U      H3' 1044   3.770   4.836   7.239
   33U      C2' 1045   3.927   4.917   7.368
   33U     H2'1 1046   3.998   4.853   7.316
   33U      O2' 1047   3.984   5.044   7.396
   33U     HO'2 1048   3.992   5.087   7.309
   33U      O3' 1049   3.801   5.040   7.199
   34G        P 1050   3.835   5.020   7.046
   34G      O1P 1051   3.832   5.157   6.989
   34G      O2P 1052   3.745   4.916   6.993
   34G      O5' 1053   3.987   4.972   7.057
   34G      C5' 1054   4.089   5.069   7.064
   34G     H5'1 1055   4.062   5.145   7.137
   34G     H5'2 1056   4.097   5.117   6.966
   34G      C4' 1057   4.226   5.014   7.103
   34G      H4' 1058   4.293   5.099   7.117
   34G      O4' 1059   4.227   4.939   7.224
   34G      C1' 1060   4.326   4.837   7.213
   34G      H1' 1061   4.397   4.843   7.294
   34G       N9 1062   4.265   4.702   7.217
   34G       C8 1063   4.136   4.663   7.192
   34G       H8 1064   4.060   4.731   7.156
   34G       N7 1065   4.113   4.537   7.217
   34G       C5 1066   4.239   4.486   7.254
   34G       C6 1067   4.284   4.354   7.288
   34G       O6 1068   4.221   4.249   7.303
   34G       N1 1069   4.421   4.346   7.305
   34G       H1 1070   4.460   4.254   7.320
   34G       C2 1071   4.504   4.452   7.297
   34G       N2 1072   4.632   4.429   7.311
   34G      H21 1073   4.665   4.333   7.320
   34G      H22 1074   4.694   4.507   7.306
   34G       N3 1075   4.468   4.577   7.272
   34G       C4 1076   4.333   4.587   7.250
   34G      C3' 1077   4.290   4.927   6.995
   34G      H3' 1078   4.218   4.857   6.952
   34G      C2' 1079   4.397   4.856   7.079
   34G     H2'1 1080   4.426   4.761   7.034
   34G      O2' 1081   4.509   4.942   7.095
   34G     HO'2 1082   4.508   4.991   7.012
   34G      O3' 1083   4.350   5.013   6.899
   35C        P 1084   4.376   4.965   6.751
   35C      O1P 1085   4.442   5.081   6.687
   35C      O2P 1086   4.252   4.909   6.696
   35C      O5' 1087   4.483   4.848   6.771
   35C      C5' 1088   4.620   4.878   6.780
   35C     H5'1 1089   4.633   4.959   6.851
   35C     H5'2 1090   4.652   4.912   6.682
   35C      C4' 1091   4.709   4.761   6.824
   35C      H4' 1092   4.809   4.798   6.843
   35C      O4' 1093   4.665   4.695   6.942
   35C      C1' 1094   4.694   4.556   6.928
   35C      H1' 1095   4.761   4.523   7.008
   35C       N1 1096   4.570   4.473   6.934
   35C       C6 1097   4.447   4.521   6.898
   35C       H6 1098   4.437   4.620   6.856
   35C       C5 1099   4.337   4.444   6.915
   35C       H5 1100   4.239   4.481   6.887
   35C       C4 1101   4.355   4.313   6.967
   35C       N4 1102   4.253   4.236   6.989
   35C      H41 1103   4.160   4.267   6.967
   35C      H42 1104   4.270   4.143   7.027
   35C       N3 1105   4.474   4.264   6.997
   35C       C2 1106   4.583   4.341   6.979
   35C       O2 1107   4.694   4.293   7.003
   35C      C3' 1108   4.721   4.656   6.714
   35C      H3' 1109   4.623   4.638   6.668
   35C      C2' 1110   4.766   4.534   6.794
   35C     H2'1 1111   4.731   4.443   6.747
   35C      O2' 1112   4.907   4.527   6.815
   35C     HO'2 1113   4.936   4.449   6.766
   35C      O3' 1114   4.817   4.700   6.620
   36C        P 1115   4.805   4.657   6.467
   36C      O1P 1116   4.922   4.718   6.400
   36C      O2P 1117   4.669   4.692   6.422
   36C      O5' 1118   4.826   4.498   6.479
   36C      C5' 1119   4.957   4.446   6.487
   36C     H5'1 1120   5.015   4.503   6.559
   36C     H5'2 1121   5.004   4.458   6.390
   36C      C4' 1122   4.966   4.297   6.526
   36C      H4' 1123   5.071   4.274   6.546
   36C      O4' 1124   4.894   4.268   6.645
   36C      C1' 1125   4.845   4.134   6.636
   36C      H1' 1126   4.887   4.073   6.717
   36C       N1 1127   4.696   4.127   6.646
   36C       C6 1128   4.616   4.235   6.620
   36C       H6 1129   4.659   4.325   6.578
   36C       C5 1130   4.484   4.229   6.648
   36C       H5 1131   4.420   4.315   6.631
   36C       C4 1132   4.432   4.106   6.697
   36C       N4 1133   4.305   4.093   6.720
   36C      H41 1134   4.242   4.169   6.701
   36C      H42 1135   4.271   4.004   6.753
   36C       N3 1136   4.507   3.999   6.718
   36C       C2 1137   4.639   4.007   6.692
   36C       O2 1138   4.707   3.906   6.710
   36C      C3' 1139   4.920   4.201   6.417
   36C      H3' 1140   4.829   4.238   6.369
   36C      C2' 1141   4.892   4.076   6.502
   36C     H2'1 1142   4.814   4.016   6.456
   36C      O2' 1143   5.008   3.997   6.525
   36C     HO'2 1144   5.015   3.942   6.446
   36C      O3' 1145   5.027   4.183   6.325
   37C        P 1146   5.006   4.116   6.182
   37C      O1P 1147   5.144   4.096   6.131
   37C      O2P 1148   4.914   4.200   6.104
   37C      O5' 1149   4.938   3.972   6.207
   37C      C5' 1150   5.015   3.853   6.212
   37C     H5'1 1151   5.096   3.865   6.284
   37C     H5'2 1152   5.060   3.835   6.114
   37C      C4' 1153   4.933   3.729   6.252
   37C      H4' 1154   5.003   3.648   6.273
   37C      O4' 1155   4.854   3.751   6.369
   37C      C1' 1156   4.739   3.667   6.366
   37C      H1' 1157   4.746   3.591   6.444
   37C       N1 1158   4.610   3.740   6.384
   37C       C6 1159   4.598   3.873   6.353
   37C       H6 1160   4.681   3.926   6.309
   37C       C5 1161   4.480   3.936   6.376
   37C       H5 1162   4.470   4.040   6.351
   37C       C4 1163   4.373   3.861   6.430
   37C       N4 1164   4.259   3.921   6.452
   37C      H41 1165   4.247   4.017   6.423
   37C      H42 1166   4.180   3.870   6.490
   37C       N3 1167   4.381   3.731   6.455
   37C       C2 1168   4.499   3.668   6.431
   37C       O2 1169   4.503   3.546   6.449
   37C      C3' 1170   4.837   3.677   6.144
   37C      H3' 1171   4.787   3.762   6.096
   37C      C2' 1172   4.738   3.597   6.230
   37C     H2'1 1173   4.639   3.600   6.184
   37C      O2' 1174   4.778   3.462   6.252
   37C     HO'2 1175   4.718   3.408   6.197
   37C      O3' 1176   4.906   3.595   6.050
   38U        P 1177   4.845   3.565   5.905
   38U      O1P 1178   4.937   3.468   5.841
   38U      O2P 1179   4.821   3.694   5.839
   38U      O5' 1180   4.708   3.489   5.935
   38U      C5' 1181   4.710   3.348   5.954
   38U     H5'1 1182   4.788   3.323   6.024
   38U     H5'2 1183   4.732   3.301   5.858
   38U      C4' 1184   4.579   3.288   6.006
   38U      H4' 1185   4.598   3.184   6.035
   38U      O4' 1186   4.531   3.358   6.120
   38U      C1' 1187   4.388   3.350   6.119
   38U      H1' 1188   4.354   3.296   6.207
   38U       N1 1189   4.325   3.485   6.119
   38U       C6 1190   4.390   3.598   6.075
   38U       H6 1191   4.487   3.590   6.029
   38U       C5 1192   4.332   3.721   6.091
   38U       H5 1193   4.383   3.811   6.059
   38U       C4 1194   4.202   3.736   6.151
   38U       O4 1195   4.143   3.841   6.172
   38U       N3 1196   4.142   3.618   6.186
   38U       H3 1197   4.048   3.624   6.223
   38U       C2 1198   4.195   3.492   6.170
   38U       O2 1199   4.127   3.393   6.197
   38U      C3' 1200   4.468   3.286   5.902
   38U      H3' 1201   4.464   3.380   5.848
   38U      C2' 1202   4.347   3.270   5.995
   38U     H2'1 1203   4.256   3.308   5.949
   38U      O2' 1204   4.331   3.135   6.036
   38U     HO'2 1205   4.354   3.079   5.960
   38U      O3' 1206   4.482   3.173   5.817
   39U        P 1207   4.435   3.179   5.665
   39U      O1P 1208   4.472   3.048   5.605
   39U      O2P 1209   4.488   3.303   5.606
   39U      O5' 1210   4.275   3.186   5.677
   39U      C5' 1211   4.200   3.068   5.704
   39U     H5'1 1212   4.243   3.018   5.790
   39U     H5'2 1213   4.208   3.001   5.618
   39U      C4' 1214   4.052   3.092   5.734
   39U      H4' 1215   4.004   2.995   5.747
   39U      O4' 1216   4.037   3.164   5.856
   39U      C1' 1217   3.916   3.238   5.850
   39U      H1' 1218   3.849   3.207   5.930
   39U       N1 1219   3.940   3.384   5.862
   39U       C6 1220   4.057   3.443   5.818
   39U       H6 1221   4.134   3.382   5.772
   39U       C5 1222   4.076   3.577   5.831
   39U       H5 1223   4.167   3.624   5.796
   39U       C4 1224   3.974   3.662   5.889
   39U       O4 1225   3.982   3.783   5.902
   39U       N3 1226   3.861   3.597   5.928
   39U       H3 1227   3.786   3.654   5.965
   39U       C2 1228   3.837   3.462   5.916
   39U       O2 1229   3.729   3.415   5.951
   39U      C3' 1230   3.970   3.166   5.628
   39U      H3' 1231   4.024   3.255   5.596
   39U      C2' 1232   3.850   3.204   5.716
   39U     H2'1 1233   3.799   3.291   5.677
   39U      O2' 1234   3.758   3.098   5.738
   39U     HO'2 1235   3.682   3.116   5.682
   39U      O3' 1236   3.933   3.085   5.517
   40C        P 1237   3.872   3.152   5.385
   40C      O1P 1238   3.849   3.045   5.286
   40C      O2P 1239   3.956   3.266   5.349
   40C      O5' 1240   3.732   3.210   5.429
   40C      C5' 1241   3.618   3.129   5.444
   40C     H5'1 1242   3.638   3.047   5.513
   40C     H5'2 1243   3.589   3.087   5.347
   40C      C4' 1244   3.504   3.215   5.498
   40C      H4' 1245   3.419   3.152   5.520
   40C      O4' 1246   3.539   3.284   5.617
   40C      C1' 1247   3.471   3.410   5.618
   40C      H1' 1248   3.407   3.419   5.705
   40C       N1 1249   3.568   3.525   5.617
   40C       C6 1250   3.698   3.512   5.577
   40C       H6 1251   3.732   3.420   5.533
   40C       C5 1252   3.785   3.615   5.591
   40C       H5 1253   3.888   3.604   5.559
   40C       C4 1254   3.735   3.736   5.643
   40C       N4 1255   3.814   3.838   5.658
   40C      H41 1256   3.913   3.829   5.645
   40C      H42 1257   3.775   3.923   5.700
   40C       N3 1258   3.608   3.753   5.674
   40C       C2 1259   3.523   3.649   5.663
   40C       O2 1260   3.405   3.667   5.694
   40C      C3' 1261   3.460   3.321   5.397
   40C      H3' 1262   3.547   3.372   5.354
   40C      C2' 1263   3.384   3.414   5.492
   40C     H2'1 1264   3.377   3.515   5.451
   40C      O2' 1265   3.254   3.364   5.520
   40C     HO'2 1266   3.220   3.332   5.435
   40C      O3' 1267   3.376   3.264   5.299
   41C        P 1268   3.363   3.328   5.153
   41C      O1P 1269   3.273   3.240   5.078
   41C      O2P 1270   3.498   3.355   5.100
   41C      O5' 1271   3.287   3.466   5.182
   41C      C5' 1272   3.147   3.468   5.204
   41C     H5'1 1273   3.121   3.394   5.279
   41C     H5'2 1274   3.096   3.441   5.111
   41C      C4' 1275   3.095   3.605   5.250
   41C      H4' 1276   2.990   3.596   5.275
   41C      O4' 1277   3.161   3.650   5.368
   41C      C1' 1278   3.173   3.792   5.363
   41C      H1' 1279   3.125   3.836   5.451
   41C       N1 1280   3.314   3.838   5.361
   41C       C6 1281   3.417   3.752   5.331
   41C       H6 1282   3.396   3.652   5.298
   41C       C5 1283   3.545   3.794   5.345
   41C       H5 1284   3.626   3.725   5.326
   41C       C4 1285   3.568   3.928   5.386
   41C       N4 1286   3.690   3.968   5.403
   41C      H41 1287   3.763   3.899   5.395
   41C      H42 1288   3.709   4.063   5.435
   41C       N3 1289   3.470   4.013   5.412
   41C       C2 1290   3.342   3.970   5.399
   41C       O2 1291   3.250   4.050   5.421
   41C      C3' 1292   3.107   3.716   5.146
   41C      H3' 1293   3.204   3.709   5.096
   41C      C2' 1294   3.101   3.839   5.237
   41C     H2'1 1295   3.154   3.923   5.191
   41C      O2' 1296   2.969   3.878   5.272
   41C     HO'2 1297   2.953   3.962   5.227
   41C      O3' 1298   2.999   3.716   5.052
   42G        P 1299   3.016   3.790   4.911
   42G      O1P 1300   2.888   3.778   4.838
   42G      O2P 1301   3.139   3.739   4.849
   42G      O5' 1302   3.038   3.945   4.942
   42G      C5' 1303   2.928   4.032   4.959
   42G     H5'1 1304   2.863   3.993   5.038
   42G     H5'2 1305   2.870   4.035   4.867
   42G      C4' 1306   2.968   4.175   4.995
   42G      H4' 1307   2.878   4.231   5.018
   42G      O4' 1308   3.051   4.177   5.110
   42G      C1' 1309   3.142   4.286   5.100
   42G      H1' 1310   3.131   4.354   5.184
   42G       N9 1311   3.282   4.237   5.098
   42G       C8 1312   3.329   4.110   5.074
   42G       H8 1313   3.265   4.028   5.046
   42G       N7 1314   3.457   4.097   5.090
   42G       C5 1315   3.501   4.226   5.122
   42G       C6 1316   3.632   4.280   5.147
   42G       O6 1317   3.742   4.225   5.151
   42G       N1 1318   3.631   4.416   5.171
   42G       H1 1319   3.721   4.458   5.189
   42G       C2 1320   3.520   4.492   5.170
   42G       N2 1321   3.536   4.621   5.183
   42G      H21 1322   3.631   4.657   5.191
   42G      H22 1323   3.457   4.679   5.165
   42G       N3 1324   3.396   4.448   5.148
   42G       C4 1325   3.393   4.313   5.124
   42G      C3' 1326   3.042   4.251   4.884
   42G      H3' 1327   3.116   4.188   4.835
   42G      C2' 1328   3.108   4.360   4.970
   42G     H2'1 1329   3.197   4.400   4.923
   42G      O2' 1330   3.013   4.462   4.999
   42G     HO'2 1331   2.960   4.467   4.918
   42G      O3' 1332   2.949   4.308   4.792
   43U        P 1333   2.990   4.353   4.644
   43U      O1P 1334   2.868   4.410   4.582
   43U      O2P 1335   3.061   4.245   4.576
   43U      O5' 1336   3.094   4.472   4.667
   43U      C5' 1337   3.050   4.603   4.692
   43U     H5'1 1338   2.979   4.603   4.774
   43U     H5'2 1339   3.001   4.641   4.602
   43U      C4' 1340   3.165   4.697   4.727
   43U      H4' 1341   3.122   4.795   4.749
   43U      O4' 1342   3.241   4.657   4.841
   43U      C1' 1343   3.376   4.697   4.822
   43U      H1' 1344   3.408   4.763   4.903
   43U       N1 1345   3.469   4.580   4.817
   43U       C6 1346   3.427   4.453   4.780
   43U       H6 1347   3.324   4.437   4.753
   43U       C5 1348   3.514   4.349   4.777
   43U       H5 1349   3.481   4.249   4.751
   43U       C4 1350   3.654   4.367   4.809
   43U       O4 1351   3.741   4.282   4.800
   43U       N3 1352   3.686   4.494   4.850
   43U       H3 1353   3.783   4.508   4.872
   43U       C2 1354   3.603   4.603   4.851
   43U       O2 1355   3.647   4.715   4.880
   43U      C3' 1356   3.264   4.716   4.612
   43U      H3' 1357   3.291   4.619   4.569
   43U      C2' 1358   3.381   4.776   4.690
   43U     H2'1 1359   3.475   4.761   4.638
   43U      O2' 1360   3.354   4.914   4.710
   43U     HO'2 1361   3.301   4.936   4.632
   43U      O3' 1362   3.213   4.808   4.517
   44A        P 1363   3.251   4.796   4.363
   44A      O1P 1364   3.177   4.905   4.296
   44A      O2P 1365   3.230   4.657   4.320
   44A      O5' 1366   3.408   4.834   4.366
   44A      C5' 1367   3.446   4.969   4.382
   44A     H5'1 1368   3.387   5.012   4.463
   44A     H5'2 1369   3.424   5.023   4.290
   44A      C4' 1370   3.594   4.992   4.417
   44A      H4' 1371   3.605   5.099   4.432
   44A      O4' 1372   3.635   4.927   4.537
   44A      C1' 1373   3.773   4.892   4.526
   44A      H1' 1374   3.831   4.933   4.608
   44A       N9 1375   3.790   4.744   4.529
   44A       C8 1376   3.696   4.645   4.516
   44A       H8 1377   3.593   4.664   4.491
   44A       N7 1378   3.741   4.525   4.537
   44A       C5 1379   3.878   4.545   4.561
   44A       C6 1380   3.989   4.461   4.588
   44A       N6 1381   3.981   4.330   4.602
   44A      H61 1382   3.890   4.287   4.612
   44A      H62 1383   4.062   4.274   4.625
   44A       N1 1384   4.111   4.512   4.602
   44A       C2 1385   4.125   4.644   4.595
   44A       H2 1386   4.225   4.681   4.609
   44A       N3 1387   4.032   4.736   4.573
   44A       C4 1388   3.909   4.679   4.555
   44A      C3' 1389   3.693   4.953   4.308
   44A      H3' 1390   3.670   4.854   4.270
   44A      C2' 1391   3.821   4.951   4.394
   44A     H2'1 1392   3.898   4.889   4.348
   44A      O2' 1393   3.868   5.083   4.416
   44A     HO'2 1394   3.870   5.123   4.328
   44A      O3' 1395   3.698   5.053   4.206
   45G        P 1396   3.731   5.012   4.055
   45G      O1P 1397   3.719   5.132   3.969
   45G      O2P 1398   3.652   4.892   4.022
   45G      O5' 1399   3.887   4.977   4.071
   45G      C5' 1400   3.981   5.082   4.089
   45G     H5'1 1401   3.946   5.148   4.168
   45G     H5'2 1402   3.986   5.140   3.997
   45G      C4' 1403   4.123   5.037   4.124
   45G      H4' 1404   4.181   5.128   4.133
   45G      O4' 1405   4.136   4.969   4.249
   45G      C1' 1406   4.229   4.862   4.234
   45G      H1' 1407   4.303   4.861   4.314
   45G       N9 1408   4.163   4.729   4.240
   45G       C8 1409   4.032   4.695   4.219
   45G       H8 1410   3.956   4.765   4.187
   45G       N7 1411   4.007   4.569   4.241
   45G       C5 1412   4.132   4.514   4.272
   45G       C6 1413   4.172   4.379   4.300
   45G       O6 1414   4.105   4.277   4.303
   45G       N1 1415   4.307   4.367   4.325
   45G       H1 1416   4.341   4.274   4.345
   45G       C2 1417   4.394   4.471   4.322
   45G       N2 1418   4.520   4.443   4.338
   45G      H21 1419   4.549   4.346   4.350
   45G      H22 1420   4.585   4.519   4.331
   45G       N3 1421   4.362   4.598   4.295
   45G       C4 1422   4.228   4.612   4.271
   45G      C3' 1423   4.194   4.955   4.017
   45G      H3' 1424   4.124   4.884   3.971
   45G      C2' 1425   4.300   4.881   4.100
   45G     H2'1 1426   4.325   4.785   4.055
   45G      O2' 1427   4.418   4.958   4.125
   45G     HO'2 1428   4.492   4.898   4.108
   45G      O3' 1429   4.253   5.042   3.922
   46A        P 1430   4.296   4.991   3.778
   46A      O1P 1431   4.378   5.102   3.723
   46A      O2P 1432   4.174   4.949   3.705
   46A      O5' 1433   4.392   4.865   3.797
   46A      C5' 1434   4.532   4.884   3.809
   46A     H5'1 1435   4.550   4.956   3.889
   46A     H5'2 1436   4.570   4.924   3.715
   46A      C4' 1437   4.611   4.757   3.842
   46A      H4' 1438   4.715   4.786   3.857
   46A      O4' 1439   4.564   4.697   3.961
   46A      C1' 1440   4.587   4.557   3.951
   46A      H1' 1441   4.652   4.523   4.032
   46A       N9 1442   4.460   4.482   3.959
   46A       C8 1443   4.332   4.525   3.936
   46A       H8 1444   4.309   4.627   3.907
   46A       N7 1445   4.241   4.434   3.954
   46A       C5 1446   4.315   4.320   3.988
   46A       C6 1447   4.284   4.185   4.020
   46A       N6 1448   4.162   4.136   4.030
   46A      H61 1449   4.085   4.200   4.026
   46A      H62 1450   4.148   4.042   4.067
   46A       N1 1451   4.381   4.097   4.045
   46A       C2 1452   4.506   4.140   4.045
   46A       H2 1453   4.581   4.066   4.068
   46A       N3 1454   4.551   4.263   4.021
   46A       C4 1455   4.449   4.348   3.991
   46A      C3' 1456   4.610   4.651   3.732
   46A      H3' 1457   4.509   4.636   3.695
   46A      C2' 1458   4.657   4.532   3.817
   46A     H2'1 1459   4.627   4.437   3.774
   46A      O2' 1460   4.798   4.534   3.841
   46A     HO'2 1461   4.840   4.497   3.764
   46A      O3' 1462   4.701   4.685   3.627
   47G        P 1463   4.687   4.626   3.479
   47G      O1P 1464   4.801   4.678   3.400
   47G      O2P 1465   4.551   4.650   3.430
   47G      O5' 1466   4.708   4.468   3.494
   47G      C5' 1467   4.840   4.417   3.506
   47G     H5'1 1468   4.894   4.475   3.580
   47G     H5'2 1469   4.891   4.427   3.410
   47G      C4' 1470   4.845   4.270   3.549
   47G      H4' 1471   4.949   4.243   3.563
   47G      O4' 1472   4.779   4.249   3.672
   47G      C1' 1473   4.727   4.116   3.673
   47G      H1' 1474   4.765   4.058   3.757
   47G       N9 1475   4.579   4.119   3.680
   47G       C8 1476   4.492   4.222   3.651
   47G       H8 1477   4.526   4.320   3.620
   47G       N7 1478   4.366   4.191   3.663
   47G       C5 1479   4.368   4.057   3.705
   47G       C6 1480   4.263   3.963   3.735
   47G       O6 1481   4.141   3.975   3.729
   47G       N1 1482   4.310   3.838   3.769
   47G       H1 1483   4.241   3.769   3.796
   47G       C2 1484   4.441   3.805   3.771
   47G       N2 1485   4.470   3.679   3.790
   47G      H21 1486   4.396   3.611   3.808
   47G      H22 1487   4.567   3.658   3.795
   47G       N3 1488   4.541   3.886   3.741
   47G       C4 1489   4.498   4.013   3.712
   47G      C3' 1490   4.786   4.172   3.449
   47G      H3' 1491   4.688   4.207   3.417
   47G      C2' 1492   4.771   4.050   3.541
   47G     H2'1 1493   4.695   3.981   3.504
   47G      O2' 1494   4.896   3.984   3.555
   47G     HO'2 1495   4.932   3.980   3.466
   47G      O3' 1496   4.874   4.148   3.340
   48U        P 1497   4.819   4.108   3.196
   48U      O1P 1498   4.934   4.101   3.103
   48U      O2P 1499   4.703   4.194   3.165
   48U      O5' 1500   4.766   3.960   3.221
   48U      C5' 1501   4.856   3.851   3.231
   48U     H5'1 1502   4.935   3.875   3.302
   48U     H5'2 1503   4.901   3.833   3.133
   48U      C4' 1504   4.786   3.723   3.278
   48U      H4' 1505   4.862   3.646   3.290
   48U      O4' 1506   4.718   3.740   3.402
   48U      C1' 1507   4.597   3.664   3.400
   48U      H1' 1508   4.593   3.599   3.488
   48U       N1 1509   4.473   3.748   3.403
   48U       C6 1510   4.474   3.882   3.370
   48U       H6 1511   4.566   3.929   3.340
   48U       C5 1512   4.360   3.956   3.377
   48U       H5 1513   4.361   4.061   3.353
   48U       C4 1514   4.235   3.897   3.418
   48U       O4 1515   4.127   3.955   3.418
   48U       N3 1516   4.243   3.765   3.452
   48U       H3 1517   4.158   3.722   3.486
   48U       C2 1518   4.355   3.685   3.442
   48U       O2 1519   4.346   3.564   3.463
   48U      C3' 1520   4.683   3.670   3.179
   48U      H3' 1521   4.620   3.753   3.144
   48U      C2' 1522   4.604   3.578   3.272
   48U     H2'1 1523   4.505   3.558   3.233
   48U      O2' 1524   4.674   3.456   3.299
   48U     HO'2 1525   4.681   3.409   3.214
   48U      O3' 1526   4.746   3.602   3.071
   49C        P 1527   4.680   3.602   2.926
   49C      O1P 1528   4.776   3.540   2.833
   49C      O2P 1529   4.634   3.739   2.897
   49C      O5' 1530   4.553   3.507   2.943
   49C      C5' 1531   4.567   3.366   2.951
   49C     H5'1 1532   4.647   3.342   3.022
   49C     H5'2 1533   4.596   3.328   2.853
   49C      C4' 1534   4.439   3.297   2.997
   49C      H4' 1535   4.461   3.191   3.010
   49C      O4' 1536   4.393   3.346   3.123
   49C      C1' 1537   4.251   3.341   3.127
   49C      H1' 1538   4.218   3.281   3.212
   49C       N1 1539   4.189   3.477   3.137
   49C       C6 1540   4.258   3.592   3.108
   49C       H6 1541   4.360   3.586   3.073
   49C       C5 1542   4.199   3.713   3.121
   49C       H5 1543   4.254   3.803   3.098
   49C       C4 1544   4.064   3.716   3.164
   49C       N4 1545   4.004   3.831   3.179
   49C      H41 1546   4.059   3.914   3.182
   49C      H42 1547   3.910   3.833   3.218
   49C       N3 1548   3.995   3.607   3.192
   49C       C2 1549   4.056   3.487   3.181
   49C       O2 1550   3.990   3.386   3.208
   49C      C3' 1551   4.321   3.308   2.900
   49C      H3' 1552   4.312   3.410   2.864
   49C      C2' 1553   4.206   3.273   2.997
   49C     H2'1 1554   4.112   3.313   2.960
   49C      O2' 1555   4.195   3.133   3.020
   49C     HO'2 1556   4.102   3.110   3.022
   49C      O3' 1557   4.331   3.215   2.793
   50G        P 1558   4.249   3.232   2.657
   50G      O1P 1559   4.276   3.112   2.575
   50G      O2P 1560   4.281   3.365   2.601
   50G      O5' 1561   4.094   3.231   2.697
   50G      C5' 1562   4.025   3.108   2.718
   50G     H5'1 1563   4.076   3.049   2.793
   50G     H5'2 1564   4.024   3.051   2.624
   50G      C4' 1565   3.879   3.129   2.763
   50G      H4' 1566   3.831   3.032   2.773
   50G      O4' 1567   3.872   3.196   2.888
   50G      C1' 1568   3.753   3.275   2.890
   50G      H1' 1569   3.685   3.246   2.970
   50G       N9 1570   3.785   3.419   2.904
   50G       C8 1571   3.898   3.488   2.865
   50G       H8 1572   3.986   3.438   2.826
   50G       N7 1573   3.887   3.618   2.874
   50G       C5 1574   3.757   3.637   2.922
   50G       C6 1575   3.681   3.757   2.948
   50G       O6 1576   3.711   3.875   2.933
   50G       N1 1577   3.553   3.731   2.991
   50G       H1 1578   3.497   3.810   3.019
   50G       C2 1579   3.501   3.607   3.006
   50G       N2 1580   3.377   3.599   3.047
   50G      H21 1581   3.324   3.683   3.065
   50G      H22 1582   3.345   3.506   3.070
   50G       N3 1583   3.567   3.494   2.983
   50G       C4 1584   3.695   3.516   2.942
   50G      C3' 1585   3.795   3.213   2.666
   50G      H3' 1586   3.851   3.303   2.638
   50G      C2' 1587   3.680   3.255   2.756
   50G     H2'1 1588   3.634   3.348   2.721
   50G      O2' 1589   3.583   3.153   2.767
   50G     HO'2 1590   3.570   3.121   2.677
   50G      O3' 1591   3.750   3.144   2.550
   50G      H3T 1592   3.812   3.169   2.479
   51SOL     OW 1593   0.258   0.617   0.063
   51SOL    HW1 1594   0.211   0.645   0.141
   51SOL    HW2 1595   0.211   0.540   0.032
   52SOL     OW 1596   0.229   0.256   1.091
   52SOL    HW1 1597   0.292   0.214   1.033
   52SOL    HW2 1598   0.146   0.254   1.043
   53SOL     OW 1599   7.997   0.390   0.598
   53SOL    HW1 1600   7.909   0.385   0.635
   53SOL    HW2 1601   8.020   0.300   0.577
   54SOL     OW 1602   0.572   1.301   1.191
   54SOL    HW1 1603   0.484   1.308   1.155
   54SOL    HW2 1604   0.591   1.389   1.225
   55SOL     OW 1605   1.576   1.519   0.718
   55SOL    HW1 1606   1.533   1.496   0.800
   55SOL    HW2 1607   1.506   1.519   0.653
   56SOL     OW 1608   1.129   0.706   0.691
   56SOL    HW1 1609   1.179   0.786   0.678
   56SOL    HW2 1610   1.086   0.718   0.776
   57SOL     OW 1611   1.730   0.624   0.288
   57SOL    HW1 1612   1.724   0.646   0.195
   57SOL    HW2 1613   1.700   0.534   0.293
   58SOL     OW 1614   0.731   1.131   1.046
   58SOL    HW1 1615   0.669   1.172   1.107
   58SOL    HW2 1616   0.779   1.204   1.008
   59SOL     OW 1617   0.866   0.747   1.826
   59SOL    HW1 1618   0.840   0.808   1.895
   59SOL    HW2 1619   0.893   0.804   1.754
   60SOL     OW 1620   0.689   0.998   0.645
   60SOL    HW1 1621   0.756   0.991   0.712
   60SOL    HW2 1622   0.622   1.055   0.684
   61SOL     OW 1623   0.716   1.148   1.810
   61SOL    HW1 1624   0.759   1.226   1.846
   61SOL    HW2 1625   0.632   1.180   1.778
   62SOL     OW 1626   0.340   1.409   1.070
   62SOL    HW1 1627   0.270   1.367   1.019
   62SOL    HW2 1628   0.383   1.467   1.008
   63SOL     OW 1629   1.461   1.508   1.364
   63SOL    HW1 1630   1.516   1.585   1.374
   63SOL    HW2 1631   1.394   1.518   1.433
   64SOL     OW 1632   0.424   0.331   1.475
   64SOL    HW1 1633   0.513   0.295   1.478
   64SOL    HW2 1634   0.396   0.333   1.566
   65SOL     OW 1635   1.616   0.464   0.735
   65SOL    HW1 1636   1.583   0.506   0.656
   65SOL    HW2 1637   1.596   0.526   0.805
   66SOL     OW 1638   0.234   1.695   0.510
   66SOL    HW1 1639   0.240   1.778   0.557
   66SOL    HW2 1640   0.293   1.704   0.436
   67SOL     OW 1641   1.135   1.345   1.697
   67SOL    HW1 1642   1.179   1.338   1.781
   67SOL    HW2 1643   1.083   1.264   1.690
   68SOL     OW 1644   0.292   1.431   0.519
   68SOL    HW1 1645   0.270   1.523   0.536
   68SOL    HW2 1646   0.239   1.382   0.582
   69SOL     OW 1647   0.268   1.084   0.883
   69SOL    HW1 1648   0.273   0.994   0.917
   69SOL    HW2 1649   0.197   1.124   0.933
   70SOL     OW 1650   0.597   1.805   1.405
   70SOL    HW1 1651   0.523   1.779   1.460
   70SOL    HW2 1652   0.628   1.887   1.444
   71SOL     OW 1653   0.586   0.988   0.164
   71SOL    HW1 1654   0.649   1.006   0.095
   71SOL    HW2 1655   0.625   1.027   0.243
   72SOL     OW 1656   1.643   0.136   1.466
   72SOL    HW1 1657   1.645   0.225   1.432
   72SOL    HW2 1658   1.600   0.143   1.551
   73SOL     OW 1659   0.117   0.640   0.545
   73SOL    HW1 1660   0.085   0.553   0.567
   73SOL    HW2 1661   0.107   0.690   0.626
   74SOL     OW 1662   1.854   1.740   0.318
   74SOL    HW1 1663   1.921   1.718   0.382
   74SOL    HW2 1664   1.867   1.834   0.301
   75SOL     OW 1665   1.678   0.934   0.653
   75SOL    HW1 1666   1.751   0.889   0.609
   75SOL    HW2 1667   1.648   0.998   0.589
   76SOL     OW 1668   1.649   1.116   0.436
   76SOL    HW1 1669   1.733   1.115   0.390
   76SOL    HW2 1670   1.661   1.179   0.507
   77SOL     OW 1671   0.147   0.785   1.570
   77SOL    HW1 1672   0.237   0.762   1.590
   77SOL    HW2 1673   0.129   0.864   1.621
   78SOL     OW 1674   0.621   1.392   0.736
   78SOL    HW1 1675   0.577   1.308   0.745
   78SOL    HW2 1676   0.605   1.418   0.645
   79SOL     OW 1677   1.283   1.233   1.416
   79SOL    HW1 1678   1.317   1.166   1.357
   79SOL    HW2 1679   1.341   1.230   1.492
   80SOL     OW 1680   0.833   0.039   0.589
   80SOL    HW1 1681   0.873   0.109   0.538
   80SOL    HW2 1682   0.742   0.036   0.560
   81SOL     OW 1683   0.177   0.925   1.260
   81SOL    HW1 1684   0.270   0.901   1.266
   81SOL    HW2 1685   0.151   0.900   1.172
   82SOL     OW 1686   1.482   1.021   0.237
   82SOL    HW1 1687   1.423   0.958   0.278
   82SOL    HW2 1688   1.547   1.040   0.305
   83SOL     OW 1689   1.172   1.819   1.625
   83SOL    HW1 1690   1.188   1.881   1.554
   83SOL    HW2 1691   1.203   1.735   1.591
   84SOL     OW 1692   0.357   0.269   1.762
   84SOL    HW1 1693   0.416   0.318   1.821
   84SOL    HW2 1694   0.274   0.264   1.810
   85SOL     OW 1695   1.460   1.419   0.949
   85SOL    HW1 1696   1.398   1.434   1.020
   85SOL    HW2 1697   1.448   1.327   0.925
   86SOL     OW 1698   1.646   1.766   0.584
   86SOL    HW1 1699   1.627   1.723   0.500
   86SOL    HW2 1700   1.637   1.696   0.649
   87SOL     OW 1701   0.595   0.724   0.276
   87SOL    HW1 1702   0.608   0.814   0.246
   87SOL    HW2 1703   0.531   0.732   0.347
   88SOL     OW 1704   1.293   0.377   0.934
   88SOL    HW1 1705   1.202   0.350   0.940
   88SOL    HW2 1706   1.339   0.321   0.996
   89SOL     OW 1707   1.591   1.674   0.328
   89SOL    HW1 1708   1.686   1.688   0.327
   89SOL    HW2 1709   1.565   1.679   0.236
   90SOL     OW 1710   0.796   0.605   1.448
   90SOL    HW1 1711   0.762   0.589   1.535
   90SOL    HW2 1712   0.745   0.547   1.391
   91SOL     OW 1713   1.409   0.484   1.680
   91SOL    HW1 1714   1.408   0.527   1.765
   91SOL    HW2 1715   1.470   0.411   1.690
   92SOL     OW 1716   0.945   0.884   1.588
   92SOL    HW1 1717   1.007   0.823   1.548
   92SOL    HW2 1718   0.902   0.927   1.514
   93SOL     OW 1719   0.985   0.419   1.242
   93SOL    HW1 1720   0.910   0.476   1.254
   93SOL    HW2 1721   0.977   0.388   1.151
   94SOL     OW 1722   1.054   0.704   0.424
   94SOL    HW1 1723   1.072   0.702   0.518
   94SOL    HW2 1724   0.970   0.661   0.415
   95SOL     OW 1725   0.098   0.787   0.777
   95SOL    HW1 1726   0.180   0.796   0.826
   95SOL    HW2 1727   0.045   0.862   0.804
   96SOL     OW 1728   0.122   1.823   1.574
   96SOL    HW1 1729   0.132   1.805   1.667
   96SOL    HW2 1730   0.032   1.796   1.554
   97SOL     OW 1731   0.884   0.369   0.212
   97SOL    HW1 1732   0.905   0.444   0.157
   97SOL    HW2 1733   0.874   0.296   0.150
   98SOL     OW 1734   1.698   0.565   1.833
   98SOL    HW1 1735   1.666   0.642   1.787
   98SOL    HW2 1736   1.728   0.506   1.764
   99SOL     OW 1737   1.384   1.138   0.532
   99SOL    HW1 1738   1.468   1.136   0.486
   99SOL    HW2 1739   1.333   1.205   0.486
  100SOL     OW 1740   0.457   0.254   0.934
  100SOL    HW1 1741   0.517   0.230   1.004
  100SOL    HW2 1742   0.513   0.261   0.856
  101SOL     OW 1743   1.002   1.441   0.478
  101SOL    HW1 1744   0.950   1.517   0.452
  101SOL    HW2 1745   0.995   1.439   0.573
  102SOL     OW 1746   0.362   1.826   0.872
  102SOL    HW1 1747   0.406   1.742   0.882
  102SOL    HW2 1748   0.428   1.891   0.895
  103SOL     OW 1749   1.803   1.039   0.881
  103SOL    HW1 1750   1.750   1.022   0.803
  103SOL    HW2 1751   1.738   1.052   0.951
  104SOL     OW 1752   1.226   1.544   1.517
  104SOL    HW1 1753   1.215   1.472   1.579
  104SOL    HW2 1754   1.147   1.542   1.463
  105SOL     OW 1755   0.320   0.955   0.231
  105SOL    HW1 1756   0.407   0.988   0.212
  105SOL    HW2 1757   0.301   0.895   0.158
  106SOL     OW 1758   1.476   0.764   0.724
  106SOL    HW1 1759   1.477   0.722   0.810
  106SOL    HW2 1760   1.553   0.820   0.723
  107SOL     OW 1761   0.470   1.266   1.737
  107SOL    HW1 1762   0.443   1.271   1.646
  107SOL    HW2 1763   0.388   1.252   1.785
  108SOL     OW 1764   1.069   1.781   0.230
  108SOL    HW1 1765   1.112   1.790   0.315
  108SOL    HW2 1766   1.130   1.730   0.178
  109SOL     OW 1767   0.131   0.300   1.505
  109SOL    HW1 1768   0.154   0.380   1.552
  109SOL    HW2 1769   0.108   0.238   1.573
  110SOL     OW 1770   1.639   1.402   0.123
  110SOL    HW1 1771   1.573   1.461   0.087
  110SOL    HW2 1772   1.599   1.315   0.120
  111SOL     OW 1773   0.441   1.743   0.330
  111SOL    HW1 1774   0.491   1.799   0.390
  111SOL    HW2 1775   0.508   1.703   0.275
  112SOL     OW 1776   1.395   0.102   0.425
  112SOL    HW1 1777   1.389   0.051   0.344
  112SOL    HW2 1778   1.489   0.117   0.437
  113SOL     OW 1779   0.239   1.789   1.229
  113SOL    HW1 1780   0.287   1.715   1.265
  113SOL    HW2 1781   0.204   1.757   1.146
  114SOL     OW 1782   0.942   1.704   0.899
  114SOL    HW1 1783   1.021   1.658   0.928
  114SOL    HW2 1784   0.907   1.649   0.829
  115SOL     OW 1785   0.398   0.696   0.475
  115SOL    HW1 1786   0.419   0.602   0.477
  115SOL    HW2 1787   0.311   0.702   0.514
  116SOL     OW 1788   1.543   0.210   1.723
  116SOL    HW1 1789   1.547   0.239   1.814
  116SOL    HW2 1790   1.458   0.168   1.715
  117SOL     OW 1791   0.591   0.065   0.114
  117SOL    HW1 1792   0.675   0.068   0.160
  117SOL    HW2 1793   0.607   0.009   0.038
  118SOL     OW 1794   0.713   0.316   1.751
  118SOL    HW1 1795   0.803   0.285   1.738
  118SOL    HW2 1796   0.678   0.260   1.820
  119SOL     OW 1797   0.877   1.522   1.194
  119SOL    HW1 1798   0.857   1.480   1.110
  119SOL    HW2 1799   0.945   1.468   1.232
  120SOL     OW 1800   1.345   0.596   1.435
  120SOL    HW1 1801   1.381   0.567   1.519
  120SOL    HW2 1802   1.381   0.684   1.423
  121SOL     OW 1803   0.823   1.380   0.953
  121SOL    HW1 1804   0.909   1.371   0.912
  121SOL    HW2 1805   0.762   1.392   0.880
  122SOL     OW 1806   0.923   0.517   0.888
  122SOL    HW1 1807   0.887   0.503   0.801
  122SOL    HW2 1808   0.962   0.433   0.913
  123SOL     OW 1809   0.585   0.061   0.475
  123SOL    HW1 1810   0.504   0.029   0.514
  123SOL    HW2 1811   0.557   0.130   0.415
  124SOL     OW 1812   1.432   1.211   0.054
  124SOL    HW1 1813   1.452   1.148   0.123
  124SOL    HW2 1814   1.391   1.158  -0.015
  125SOL     OW 1815   0.318   0.029   0.220
  125SOL    HW1 1816   0.402   0.046   0.177
  125SOL    HW2 1817   0.339  -0.031   0.292
  126SOL     OW 1818   0.947   0.259   0.463
  126SOL    HW1 1819   0.917   0.285   0.376
  126SOL    HW2 1820   1.042   0.269   0.460
  127SOL     OW 1821   1.088   0.692   1.452
  127SOL    HW1 1822   1.032   0.622   1.486
  127SOL    HW2 1823   1.177   0.656   1.455
  128SOL     OW 1824   1.219   1.568   0.790
  128SOL    HW1 1825   1.232   1.638   0.725
  128SOL    HW2 1826   1.283   1.585   0.858
  129SOL     OW 1827   0.476   1.156   0.722
  129SOL    HW1 1828   0.411   1.134   0.789
  129SOL    HW2 1829   0.431   1.140   0.639
  130SOL     OW 1830   1.253   1.791   0.607
  130SOL    HW1 1831   1.307   1.856   0.563
  130SOL    HW2 1832   1.188   1.842   0.655
  131SOL     OW 1833   1.012   0.592   0.086
  131SOL    HW1 1834   1.025   0.536   0.009
  131SOL    HW2 1835   1.087   0.573   0.142
  132SOL     OW 1836   0.094   0.600   1.379
  132SOL    HW1 1837   0.185   0.577   1.360
  132SOL    HW2 1838   0.100   0.663   1.451
  133SOL     OW 1839   0.550   0.201   1.226
  133SOL    HW1 1840   0.562   0.108   1.208
  133SOL    HW2 1841   0.590   0.214   1.312
  134SOL     OW 1842   0.829   0.439   0.637
  134SOL    HW1 1843   0.807   0.506   0.573
  134SOL    HW2 1844   0.877   0.373   0.587
  135SOL     OW 1845   0.972   0.033   0.816
  135SOL    HW1 1846   0.923   0.035   0.734
  135SOL    HW2 1847   1.011  -0.055   0.819
  136SOL     OW 1848   1.443   1.158   0.861
  136SOL    HW1 1849   1.375   1.090   0.858
  136SOL    HW2 1850   1.474   1.166   0.771
  137SOL     OW 1851   1.465   0.611   0.956
  137SOL    HW1 1852   1.408   0.535   0.962
  137SOL    HW2 1853   1.521   0.605   1.034
  138SOL     OW 1854   1.834   0.835   0.440
  138SOL    HW1 1855   1.885   0.766   0.484
  138SOL    HW2 1856   1.791   0.790   0.367
  139SOL     OW 1857   0.482   1.405   0.119
  139SOL    HW1 1858   0.418   1.361   0.176
  139SOL    HW2 1859   0.511   1.337   0.058
  140SOL     OW 1860   1.682   1.266   0.653
  140SOL    HW1 1861   1.776   1.261   0.668
  140SOL    HW2 1862   1.659   1.356   0.677
  141SOL     OW 1863   1.392   0.554   0.077
  141SOL    HW1 1864   1.341   0.545   0.158
  141SOL    HW2 1865   1.464   0.491   0.088
  142SOL     OW 1866   0.517   0.259   0.303
  142SOL    HW1 1867   0.536   0.204   0.227
  142SOL    HW2 1868   0.501   0.346   0.265
  143SOL     OW 1869   1.741   1.244   1.548
  143SOL    HW1 1870   1.829   1.208   1.533
  143SOL    HW2 1871   1.757   1.332   1.582
  144SOL     OW 1872   1.054   1.344   1.320
  144SOL    HW1 1873   0.978   1.319   1.371
  144SOL    HW2 1874   1.128   1.308   1.368
  145SOL     OW 1875   1.604   1.628   1.655
  145SOL    HW1 1876   1.603   1.669   1.569
  145SOL    HW2 1877   1.687   1.580   1.657
  146SOL     OW 1878   1.116   1.192   1.096
  146SOL    HW1 1879   1.079   1.245   1.166
  146SOL    HW2 1880   1.102   1.243   1.016
  147SOL     OW 1881   1.619   1.095   1.076
  147SOL    HW1 1882   1.612   1.159   1.148
  147SOL    HW2 1883   1.547   1.118   1.017
  148SOL     OW 1884   0.906   0.088   1.373
  148SOL    HW1 1885   0.967   0.110   1.304
  148SOL    HW2 1886   0.929   0.147   1.446
  149SOL     OW 1887   0.983   1.116   1.723
  149SOL    HW1 1888   0.893   1.134   1.751
  149SOL    HW2 1889   0.977   1.035   1.673
  150SOL     OW 1890   0.723   1.074   0.380
  150SOL    HW1 1891   0.709   1.053   0.472
  150SOL    HW2 1892   0.799   1.021   0.355
  151SOL     OW 1893   0.429   0.812   1.257
  151SOL    HW1 1894   0.497   0.828   1.323
  151SOL    HW2 1895   0.394   0.725   1.278
  152SOL     OW 1896   1.262   0.391   1.275
  152SOL    HW1 1897   1.297   0.467   1.322
  152SOL    HW2 1898   1.170   0.413   1.260
  153SOL     OW 1899   0.043   1.597   1.333
  153SOL    HW1 1900   0.089   1.681   1.324
  153SOL    HW2 1901   0.087   1.554   1.406
  154SOL     OW 1902   0.340   1.109   0.485
  154SOL    HW1 1903   0.333   1.187   0.430
  154SOL    HW2 1904   0.349   1.036   0.423
  155SOL     OW 1905   0.533   0.554   0.853
  155SOL    HW1 1906   0.554   0.610   0.778
  155SOL    HW2 1907   0.604   0.570   0.915
  156SOL     OW 1908   1.254   1.351   0.405
  156SOL    HW1 1909   1.310   1.423   0.435
  156SOL    HW2 1910   1.167   1.373   0.439
  157SOL     OW 1911   1.290   1.464   1.160
  157SOL    HW1 1912   1.354   1.478   1.229
  157SOL    HW2 1913   1.223   1.408   1.199
  158SOL     OW 1914   1.553   0.605   0.509
  158SOL    HW1 1915   1.509   0.673   0.560
  158SOL    HW2 1916   1.602   0.653   0.442
  159SOL     OW 1917   0.346   1.538   1.311
  159SOL    HW1 1918   0.330   1.486   1.233
  159SOL    HW2 1919   0.442   1.544   1.317
  160SOL     OW 1920   0.437   0.697   1.607
  160SOL    HW1 1921   0.482   0.760   1.552
  160SOL    HW2 1922   0.507   0.651   1.654
  161SOL     OW 1923   1.609   0.779   1.694
  161SOL    HW1 1924   1.524   0.822   1.689
  161SOL    HW2 1925   1.661   0.822   1.626
  162SOL     OW 1926   1.058   0.053   1.751
  162SOL    HW1 1927   1.097   0.138   1.771
  162SOL    HW2 1928   0.968   0.073   1.724
  163SOL     OW 1929   0.452   0.003   1.738
  163SOL    HW1 1930   0.476  -0.017   1.648
  163SOL    HW2 1931   0.430   0.096   1.738
  164SOL     OW 1932   0.588   0.879   1.035
  164SOL    HW1 1933   0.627   0.966   1.038
  164SOL    HW2 1934   0.535   0.873   1.114
  165SOL     OW 1935   1.336   0.859   1.007
  165SOL    HW1 1936   1.246   0.837   0.980
  165SOL    HW2 1937   1.384   0.776   0.999
  166SOL     OW 1938   1.206   0.527   0.277
  166SOL    HW1 1939   1.218   0.451   0.335
  166SOL    HW2 1940   1.161   0.591   0.331
  167SOL     OW 1941   0.055   1.308   1.271
  167SOL    HW1 1942   0.079   1.253   1.346
  167SOL    HW2 1943   0.050   1.396   1.307
  168SOL     OW 1944   0.714   0.629   1.043
  168SOL    HW1 1945   0.793   0.621   0.991
  168SOL    HW2 1946   0.688   0.721   1.034
  169SOL     OW 1947   1.742   0.959   1.864
  169SOL    HW1 1948   1.696   0.892   1.815
  169SOL    HW2 1949   1.683   0.982   1.936
  170SOL     OW 1950   0.374   0.063   0.668
  170SOL    HW1 1951   0.349   0.149   0.700
  170SOL    HW2 1952   0.328   0.001   0.725
  171SOL     OW 1953   1.619   0.380   0.366
  171SOL    HW1 1954   1.634   0.302   0.419
  171SOL    HW2 1955   1.586   0.445   0.427
  172SOL     OW 1956   1.032   0.759   0.954
  172SOL    HW1 1957   1.020   0.773   1.048
  172SOL    HW2 1958   1.000   0.670   0.939
  173SOL     OW 1959   0.979   1.571   1.725
  173SOL    HW1 1960   0.968   1.611   1.639
  173SOL    HW2 1961   1.018   1.485   1.707
  174SOL     OW 1962   1.845   1.496   1.602
  174SOL    HW1 1963   1.870   1.529   1.516
  174SOL    HW2 1964   1.922   1.511   1.657
  175SOL     OW 1965   0.333   0.943   1.795
  175SOL    HW1 1966   0.333   0.947   1.890
  175SOL    HW2 1967   0.399   0.877   1.773
  176SOL     OW 1968   1.499   0.267   0.149
  176SOL    HW1 1969   1.550   0.186   0.149
  176SOL    HW2 1970   1.537   0.320   0.220
  177SOL     OW 1971   1.275   0.806   0.049
  177SOL    HW1 1972   1.323   0.724   0.043
  177SOL    HW2 1973   1.322   0.866  -0.010
  178SOL     OW 1974   1.072   1.342   0.858
  178SOL    HW1 1975   1.081   1.270   0.795
  178SOL    HW2 1976   1.131   1.410   0.825
  179SOL     OW 1977   0.322   0.805   0.940
  179SOL    HW1 1978   0.415   0.830   0.944
  179SOL    HW2 1979   0.320   0.717   0.977
  180SOL     OW 1980   0.334   0.513   1.023
  180SOL    HW1 1981   0.320   0.419   1.025
  180SOL    HW2 1982   0.403   0.526   0.958
  181SOL     OW 1983   1.137   0.436   1.651
  181SOL    HW1 1984   1.100   0.462   1.736
  181SOL    HW2 1985   1.231   0.451   1.661
  182SOL     OW 1986   1.210   0.217   1.477
  182SOL    HW1 1987   1.181   0.273   1.549
  182SOL    HW2 1988   1.227   0.277   1.405
  183SOL     OW 1989   7.986   1.308   0.195
  183SOL    HW1 1990   7.896   1.314   0.224
  183SOL    HW2 1991   8.014   1.220   0.220
  184SOL     OW 1992   0.111   1.746   0.954
  184SOL    HW1 1993   0.113   1.665   0.903
  184SOL    HW2 1994   0.189   1.794   0.925
  185SOL     OW 1995   0.486   1.573   0.901
  185SOL    HW1 1996   0.555   1.635   0.926
  185SOL    HW2 1997   0.530   1.510   0.845
  186SOL     OW 1998   0.968   0.771   1.218
  186SOL    HW1 1999   1.030   0.753   1.289
  186SOL    HW2 2000   0.882   0.771   1.261
  187SOL     OW 2001   0.071   0.548   1.116
  187SOL    HW1 2002   0.165   0.540   1.099
  187SOL    HW2 2003   0.066   0.570   1.209
  188SOL     OW 2004   0.196   0.509   1.669
  188SOL    HW1 2005   0.283   0.540   1.643
  188SOL    HW2 2006   0.170   0.567   1.741
  189SOL     OW 2007   1.383   0.928   1.653
  189SOL    HW1 2008   1.405   1.021   1.653
  189SOL    HW2 2009   1.382   0.903   1.561
  190SOL     OW 2010   0.814   0.576   0.386
  190SOL    HW1 2011   0.826   0.501   0.328
  190SOL    HW2 2012   0.742   0.626   0.346
  191SOL     OW 2013   1.636   0.602   1.167
  191SOL    HW1 2014   1.628   0.553   1.249
  191SOL    HW2 2015   1.726   0.586   1.139
  192SOL     OW 2016   0.287   1.538   1.721
  192SOL    HW1 2017   0.248   1.607   1.775
  192SOL    HW2 2018   0.286   1.460   1.777
  193SOL     OW 2019   0.680   0.459   1.250
  193SOL    HW1 2020   0.637   0.381   1.217
  193SOL    HW2 2021   0.683   0.518   1.175
  194SOL     OW 2022   0.927   1.674   1.469
  194SOL    HW1 2023   0.892   1.639   1.387
  194SOL    HW2 2024   0.923   1.769   1.457
  195SOL     OW 2025   0.471   0.496   0.189
  195SOL    HW1 2026   0.527   0.570   0.213
  195SOL    HW2 2027   0.401   0.534   0.136
  196SOL     OW 2028   0.152   1.123   1.453
  196SOL    HW1 2029   0.128   1.080   1.535
  196SOL    HW2 2030   0.159   1.051   1.390
  197SOL     OW 2031   1.313   1.038   1.212
  197SOL    HW1 2032   1.336   0.978   1.141
  197SOL    HW2 2033   1.243   1.092   1.176
  198SOL     OW 2034   1.289   0.844   0.324
  198SOL    HW1 2035   1.215   0.802   0.368
  198SOL    HW2 2036   1.283   0.814   0.233
  199SOL     OW 2037   1.742   1.737   1.127
  199SOL    HW1 2038   1.819   1.762   1.076
  199SOL    HW2 2039   1.738   1.641   1.119
  200SOL     OW 2040   1.237   1.727   1.079
  200SOL    HW1 2041   1.324   1.757   1.053
  200SOL    HW2 2042   1.252   1.639   1.115
  201SOL     OW 2043   0.061   1.199   1.028
  201SOL    HW1 2044   0.068   1.234   1.116
  201SOL    HW2 2045  -0.015   1.243   0.990
  202SOL     OW 2046   0.687   1.672   1.747
  202SOL    HW1 2047   0.633   1.750   1.732
  202SOL    HW2 2048   0.769   1.691   1.702
  203SOL     OW 2049   0.923   0.125   0.063
  203SOL    HW1 2050   1.014   0.145   0.085
  203SOL    HW2 2051   0.887   0.083   0.141
  204SOL     OW 2052   1.662   0.135   0.501
  204SOL    HW1 2053   1.757   0.125   0.494
  204SOL    HW2 2054   1.640   0.092   0.583
  205SOL     OW 2055   1.394   1.571   0.497
  205SOL    HW1 2056   1.457   1.604   0.433
  205SOL    HW2 2057   1.347   1.649   0.527
  206SOL     OW 2058   0.160   1.749   1.843
  206SOL    HW1 2059   0.100   1.697   1.896
  206SOL    HW2 2060   0.210   1.801   1.907
  207SOL     OW 2061   1.273   0.935   0.668
  207SOL    HW1 2062   1.347   0.877   0.686
  207SOL    HW2 2063   1.309   1.003   0.611
  208SOL     OW 2064   0.799   1.279   1.421
  208SOL    HW1 2065   0.775   1.322   1.503
  208SOL    HW2 2066   0.725   1.294   1.363
  209SOL     OW 2067   0.639   1.614   0.191
  209SOL    HW1 2068   0.698   1.636   0.119
  209SOL    HW2 2069   0.589   1.539   0.159
  210SOL     OW 2070   1.613   1.735   1.385
  210SOL    HW1 2071   1.664   1.740   1.304
  210SOL    HW2 2072   1.602   1.826   1.412
  211SOL     OW 2073   1.847   0.170   0.954
  211SOL    HW1 2074   1.843   0.078   0.980
  211SOL    HW2 2075   1.763   0.186   0.911
  212SOL     OW 2076   0.267   0.315   0.710
  212SOL    HW1 2077   0.178   0.349   0.705
  212SOL    HW2 2078   0.299   0.345   0.795
  213SOL     OW 2079   1.166   1.588   0.061
  213SOL    HW1 2080   1.245   1.533   0.066
  213SOL    HW2 2081   1.177   1.636  -0.021
  214SOL     OW 2082   0.830   1.011   1.372
  214SOL    HW1 2083   0.875   1.016   1.287
  214SOL    HW2 2084   0.819   1.102   1.399
  215SOL     OW 2085   0.932   0.928   0.290
  215SOL    HW1 2086   1.000   0.961   0.232
  215SOL    HW2 2087   0.971   0.852   0.332
  216SOL     OW 2088   1.456   1.572  12.511
  216SOL    HW1 2089   1.460   1.660  12.549
  216SOL    HW2 2090   1.518   1.574  12.438
  217SOL     OW 2091   0.367   1.297   1.488
  217SOL    HW1 2092   0.344   1.379   1.445
  217SOL    HW2 2093   0.292   1.240   1.473
  218SOL     OW 2094   1.600   1.284   1.279
  218SOL    HW1 2095   1.663   1.268   1.349
  218SOL    HW2 2096   1.544   1.354   1.312
  219SOL     OW 2097   1.063   1.116   0.706
  219SOL    HW1 2098   0.993   1.066   0.748
  219SOL    HW2 2099   1.131   1.052   0.687
  220SOL     OW 2100   1.027   0.269   0.959
  220SOL    HW1 2101   1.011   0.213   0.883
  220SOL    HW2 2102   1.043   0.207   1.031
  221SOL     OW 2103   0.599   1.484   0.482
  221SOL    HW1 2104   0.639   1.456   0.399
  221SOL    HW2 2105   0.512   1.515   0.458
  222SOL     OW 2106   1.723   0.417   1.381
  222SOL    HW1 2107   1.792   0.482   1.391
  222SOL    HW2 2108   1.758   0.353   1.320
  223SOL     OW 2109   0.275   1.316   0.280
  223SOL    HW1 2110   0.182   1.321   0.258
  223SOL    HW2 2111   0.284   1.366   0.361
  224SOL     OW 2112   0.087   1.009   1.702
  224SOL    HW1 2113   0.049   1.092   1.730
  224SOL    HW2 2114   0.170   1.004   1.749
  225SOL     OW 2115   0.661   0.206   1.479
  225SOL    HW1 2116   0.723   0.137   1.457
  225SOL    HW2 2117   0.697   0.246   1.558
  226SOL     OW 2118   0.111   0.381  12.473
  226SOL    HW1 2119   0.029   0.343  12.505
  226SOL    HW2 2120   0.125   0.338  12.389
  227SOL     OW 2121   1.422   0.858   1.391
  227SOL    HW1 2122   1.373   0.920   1.337
  227SOL    HW2 2123   1.513   0.865   1.360
  228SOL     OW 2124   0.101   0.197   0.282
  228SOL    HW1 2125   0.138   0.284   0.300
  228SOL    HW2 2126   0.177   0.139   0.282
  229SOL     OW 2127   1.118   1.304   0.166
  229SOL    HW1 2128   1.115   1.211   0.143
  229SOL    HW2 2129   1.189   1.310   0.230
  230SOL     OW 2130   0.629   0.828   1.436
  230SOL    HW1 2131   0.682   0.907   1.427
  230SOL    HW2 2132   0.693   0.758   1.450
  231SOL     OW 2133   1.494   1.790   0.991
  231SOL    HW1 2134   1.519   1.863   0.934
  231SOL    HW2 2135   1.573   1.769   1.039
  232SOL     OW 2136   0.681   0.582   1.694
  232SOL    HW1 2137   0.737   0.633   1.753
  232SOL    HW2 2138   0.689   0.492   1.726
  233SOL     OW 2139   1.471   1.190   1.624
  233SOL    HW1 2140   1.460   1.207   1.718
  233SOL    HW2 2141   1.562   1.212   1.606
  234SOL     OW 2142   0.384   1.741   1.562
  234SOL    HW1 2143   0.295   1.771   1.544
  234SOL    HW2 2144   0.373   1.655   1.603
  235SOL     OW 2145   1.661   0.881   1.250
  235SOL    HW1 2146   1.658   0.798   1.202
  235SOL    HW2 2147   1.652   0.948   1.182
  236SOL     OW 2148   1.220   0.310   0.442
  236SOL    HW1 2149   1.281   0.237   0.441
  236SOL    HW2 2150   1.240   0.357   0.523
  237SOL     OW 2151   0.596   0.737   0.664
  237SOL    HW1 2152   0.633   0.825   0.655
  237SOL    HW2 2153   0.530   0.731   0.595
  238SOL     OW 2154   1.753   0.373   1.649
  238SOL    HW1 2155   1.738   0.392   1.557
  238SOL    HW2 2156   1.686   0.308   1.671
  239SOL     OW 2157   1.731   0.933   1.511
  239SOL    HW1 2158   1.736   1.028   1.526
  239SOL    HW2 2159   1.723   0.924   1.416
  240SOL     OW 2160   0.665   1.775   0.927
  240SOL    HW1 2161   0.650   1.869   0.916
  240SOL    HW2 2162   0.760   1.767   0.929
  241SOL     OW 2163   0.873   0.974   0.852
  241SOL    HW1 2164   0.926   0.904   0.890
  241SOL    HW2 2165   0.831   1.016   0.927
  242SOL     OW 2166   1.105   1.026   0.089
  242SOL    HW1 2167   1.136   1.059   0.004
  242SOL    HW2 2168   1.165   0.955   0.110
  243SOL     OW 2169   1.841   1.545   0.837
  243SOL    HW1 2170   1.758   1.541   0.790
  243SOL    HW2 2171   1.824   1.502   0.920
  244SOL     OW 2172   0.220   1.303   1.858
  244SOL    HW1 2173   0.127   1.286   1.845
  244SOL    HW2 2174   0.230   1.317   1.952
  245SOL     OW 2175   0.126   1.259   0.652
  245SOL    HW1 2176   0.049   1.217   0.692
  245SOL    HW2 2177   0.195   1.192   0.656
  246SOL     OW 2178   0.681   1.415   1.628
  246SOL    HW1 2179   0.606   1.370   1.666
  246SOL    HW2 2180   0.683   1.500   1.670
  247SOL     OW 2181   1.822   0.226   1.227
  247SOL    HW1 2182   1.758   0.155   1.227
  247SOL    HW2 2183   1.846   0.235   1.135
  248SOL     OW 2184   0.422   0.431   0.509
  248SOL    HW1 2185   0.454   0.363   0.450
  248SOL    HW2 2186   0.379   0.384   0.580
  249SOL     OW 2187   1.708   1.469   1.075
  249SOL    HW1 2188   1.621   1.452   1.041
  249SOL    HW2 2189   1.719   1.408   1.148
  250SOL     OW 2190   0.347   0.545   1.298
  250SOL    HW1 2191   0.409   0.493   1.349
  250SOL    HW2 2192   0.372   0.529   1.206
  251SOL     OW 2193   0.833   1.576   0.683
  251SOL    HW1 2194   0.804   1.639   0.617
  251SOL    HW2 2195   0.759   1.516   0.692
  252SOL     OW 2196   1.422   0.221   1.117
  252SOL    HW1 2197   1.487   0.168   1.162
  252SOL    HW2 2198   1.380   0.272   1.186
  253SOL     OW 2199   1.067   0.070   1.138
  253SOL    HW1 2200   1.028  -0.015   1.158
  253SOL    HW2 2201   1.161   0.054   1.140
  254SOL     OW 2202   0.824   1.328   0.294
  254SOL    HW1 2203   0.779   1.245   0.304
  254SOL    HW2 2204   0.879   1.336   0.372
  255SOL     OW 2205   0.622   1.559   1.283
  255SOL    HW1 2206   0.618   1.644   1.326
  255SOL    HW2 2207   0.711   1.552   1.251
  256SOL     OW 2208   1.334  -0.014   0.143
  256SOL    HW1 2209   1.421   0.024   0.131
  256SOL    HW2 2210   1.276   0.062   0.146
  257SOL     OW 2211   1.263   0.455   0.667
  257SOL    HW1 2212   1.226   0.543   0.675
  257SOL    HW2 2213   1.287   0.431   0.757
  258SOL     OW 2214   1.602   0.217   0.851
  258SOL    HW1 2215   1.528   0.217   0.912
  258SOL    HW2 2216   1.597   0.302   0.807
  259SOL     OW 2217   0.057   1.066   0.287
  259SOL    HW1 2218   0.146   1.036   0.266
  259SOL    HW2 2219   0.048   1.048   0.381
  260SOL     OW 2220   0.852   1.634   0.363
  260SOL    HW1 2221   0.768   1.634   0.318
  260SOL    HW2 2222   0.857   1.719   0.406
  261SOL     OW 2223   0.174   0.641   1.900
  261SOL    HW1 2224   0.116   0.693   1.956
  261SOL    HW2 2225   0.234   0.599   1.961
  262SOL     OW 2226   0.218   0.294   2.855
  262SOL    HW1 2227   0.253   0.246   2.930
  262SOL    HW2 2228   0.132   0.255   2.839
  263SOL     OW 2229   8.006   0.373   2.475
  263SOL    HW1 2230   7.916   0.377   2.508
  263SOL    HW2 2231   8.019   0.282   2.451
  264SOL     OW 2232   0.573   1.302   3.056
  264SOL    HW1 2233   0.484   1.303   3.021
  264SOL    HW2 2234   0.589   1.391   3.086
  265SOL     OW 2235   1.579   1.515   2.574
  265SOL    HW1 2236   1.535   1.492   2.655
  265SOL    HW2 2237   1.510   1.517   2.508
  266SOL     OW 2238   1.134   0.699   2.553
  266SOL    HW1 2239   1.182   0.781   2.540
  266SOL    HW2 2240   1.088   0.711   2.636
  267SOL     OW 2241   1.804   0.587   2.079
  267SOL    HW1 2242   1.765   0.585   1.991
  267SOL    HW2 2243   1.755   0.521   2.128
  268SOL     OW 2244   0.736   1.133   2.911
  268SOL    HW1 2245   0.672   1.172   2.972
  268SOL    HW2 2246   0.780   1.208   2.872
  269SOL     OW 2247   0.875   0.745   3.687
  269SOL    HW1 2248   0.864   0.807   3.760
  269SOL    HW2 2249   0.898   0.800   3.612
  270SOL     OW 2250   0.690   0.994   2.504
  270SOL    HW1 2251   0.753   0.996   2.575
  270SOL    HW2 2252   0.618   1.051   2.534
  271SOL     OW 2253   0.712   1.149   3.677
  271SOL    HW1 2254   0.758   1.225   3.712
  271SOL    HW2 2255   0.632   1.185   3.638
  272SOL     OW 2256   0.333   1.412   2.932
  272SOL    HW1 2257   0.272   1.357   2.883
  272SOL    HW2 2258   0.378   1.464   2.866
  273SOL     OW 2259   1.458   1.505   3.226
  273SOL    HW1 2260   1.515   1.581   3.235
  273SOL    HW2 2261   1.392   1.516   3.295
  274SOL     OW 2262   0.446   0.368   3.337
  274SOL    HW1 2263   0.533   0.328   3.334
  274SOL    HW2 2264   0.406   0.332   3.416
  275SOL     OW 2265   1.605   0.457   2.591
  275SOL    HW1 2266   1.530   0.476   2.535
  275SOL    HW2 2267   1.607   0.529   2.655
  276SOL     OW 2268   0.223   1.704   2.334
  276SOL    HW1 2269   0.239   1.782   2.387
  276SOL    HW2 2270   0.293   1.706   2.269
  277SOL     OW 2271   1.136   1.344   3.559
  277SOL    HW1 2272   1.180   1.336   3.643
  277SOL    HW2 2273   1.083   1.264   3.552
  278SOL     OW 2274   0.322   1.447   2.384
  278SOL    HW1 2275   0.279   1.533   2.388
  278SOL    HW2 2276   0.265   1.389   2.433
  279SOL     OW 2277   0.298   1.089   2.766
  279SOL    HW1 2278   0.282   0.996   2.786
  279SOL    HW2 2279   0.223   1.134   2.803
  280SOL     OW 2280   0.599   1.805   3.270
  280SOL    HW1 2281   0.525   1.778   3.324
  280SOL    HW2 2282   0.627   1.888   3.309
  281SOL     OW 2283   0.631   0.955   1.997
  281SOL    HW1 2284   0.657   1.015   1.927
  281SOL    HW2 2285   0.647   1.004   2.077
  282SOL     OW 2286   1.636   0.134   3.335
  282SOL    HW1 2287   1.641   0.220   3.294
  282SOL    HW2 2288   1.597   0.150   3.421
  283SOL     OW 2289   0.112   0.620   2.398
  283SOL    HW1 2290   0.081   0.536   2.432
  283SOL    HW2 2291   0.114   0.678   2.474
  284SOL     OW 2292   1.848   1.753   2.192
  284SOL    HW1 2293   1.920   1.729   2.250
  284SOL    HW2 2294   1.866   1.844   2.168
  285SOL     OW 2295   0.010   1.588   2.005
  285SOL    HW1 2296   0.002   1.494   1.992
  285SOL    HW2 2297   0.001   1.600   2.100
  286SOL     OW 2298   1.685   0.910   2.502
  286SOL    HW1 2299   1.778   0.884   2.500
  286SOL    HW2 2300   1.675   0.966   2.425
  287SOL     OW 2301   1.655   1.104   2.292
  287SOL    HW1 2302   1.741   1.101   2.251
  287SOL    HW2 2303   1.664   1.166   2.364
  288SOL     OW 2304   0.150   0.777   3.433
  288SOL    HW1 2305   0.243   0.758   3.447
  288SOL    HW2 2306   0.132   0.854   3.487
  289SOL     OW 2307   0.621   1.390   2.596
  289SOL    HW1 2308   0.576   1.306   2.601
  289SOL    HW2 2309   0.604   1.421   2.506
  290SOL     OW 2310   1.282   1.233   3.278
  290SOL    HW1 2311   1.315   1.166   3.219
  290SOL    HW2 2312   1.341   1.231   3.353
  291SOL     OW 2313   0.841   0.017   2.415
  291SOL    HW1 2314   0.876   0.099   2.382
  291SOL    HW2 2315   0.746   0.025   2.403
  292SOL     OW 2316   0.176   0.923   3.119
  292SOL    HW1 2317   0.270   0.906   3.124
  292SOL    HW2 2318   0.147   0.874   3.042
  293SOL     OW 2319   1.532   1.005   2.063
  293SOL    HW1 2320   1.464   0.946   2.097
  293SOL    HW2 2321   1.576   1.038   2.141
  294SOL     OW 2322   1.174   1.817   3.487
  294SOL    HW1 2323   1.189   1.877   3.413
  294SOL    HW2 2324   1.199   1.731   3.454
  295SOL     OW 2325   0.339   0.248   3.628
  295SOL    HW1 2326   0.403   0.302   3.677
  295SOL    HW2 2327   0.255   0.270   3.668
  296SOL     OW 2328   1.461   1.419   2.806
  296SOL    HW1 2329   1.399   1.435   2.877
  296SOL    HW2 2330   1.448   1.328   2.783
  297SOL     OW 2331   1.641   1.770   2.436
  297SOL    HW1 2332   1.631   1.727   2.351
  297SOL    HW2 2333   1.637   1.698   2.500
  298SOL     OW 2334   0.600   0.707   2.118
  298SOL    HW1 2335   0.614   0.794   2.080
  298SOL    HW2 2336   0.546   0.724   2.196
  299SOL     OW 2337   1.292   0.374   2.793
  299SOL    HW1 2338   1.201   0.345   2.800
  299SOL    HW2 2339   1.339   0.319   2.856
  300SOL     OW 2340   1.581   1.675   2.173
  300SOL    HW1 2341   1.674   1.698   2.167
  300SOL    HW2 2342   1.555   1.656   2.083
  301SOL     OW 2343   0.778   0.642   3.304
  301SOL    HW1 2344   0.762   0.610   3.392
  301SOL    HW2 2345   0.764   0.565   3.248
  302SOL     OW 2346   1.411   0.488   3.542
  302SOL    HW1 2347   1.410   0.537   3.624
  302SOL    HW2 2348   1.480   0.423   3.553
  303SOL     OW 2349   0.947   0.884   3.451
  303SOL    HW1 2350   1.001   0.816   3.411
  303SOL    HW2 2351   0.899   0.923   3.378
  304SOL     OW 2352   1.007   0.410   3.078
  304SOL    HW1 2353   0.920   0.435   3.112
  304SOL    HW2 2354   0.989   0.378   2.989
  305SOL     OW 2355   1.057   0.697   2.285
  305SOL    HW1 2356   1.077   0.695   2.378
  305SOL    HW2 2357   0.972   0.655   2.277
  306SOL     OW 2358   0.099   0.772   2.630
  306SOL    HW1 2359   0.179   0.786   2.682
  306SOL    HW2 2360   0.053   0.856   2.635
  307SOL     OW 2361   0.120   1.808   3.427
  307SOL    HW1 2362   0.138   1.796   3.520
  307SOL    HW2 2363   0.024   1.808   3.420
  308SOL     OW 2364   0.889   0.347   2.070
  308SOL    HW1 2365   0.935   0.395   2.001
  308SOL    HW2 2366   0.883   0.258   2.038
  309SOL     OW 2367   1.704   0.577   3.689
  309SOL    HW1 2368   1.669   0.651   3.640
  309SOL    HW2 2369   1.733   0.515   3.622
  310SOL     OW 2370   1.385   1.141   2.398
  310SOL    HW1 2371   1.468   1.136   2.351
  310SOL    HW2 2372   1.334   1.206   2.350
  311SOL     OW 2373   0.496   0.203   2.785
  311SOL    HW1 2374   0.521   0.259   2.859
  311SOL    HW2 2375   0.539   0.244   2.710
  312SOL     OW 2376   0.996   1.446   2.327
  312SOL    HW1 2377   0.970   1.525   2.278
  312SOL    HW2 2378   0.971   1.465   2.417
  313SOL     OW 2379   0.359   1.821   2.718
  313SOL    HW1 2380   0.399   1.735   2.733
  313SOL    HW2 2381   0.425   1.883   2.749
  314SOL     OW 2382   1.795   1.036   2.744
  314SOL    HW1 2383   1.741   1.041   2.665
  314SOL    HW2 2384   1.734   1.050   2.816
  315SOL     OW 2385   1.225   1.544   3.379
  315SOL    HW1 2386   1.214   1.472   3.442
  315SOL    HW2 2387   1.152   1.532   3.318
  316SOL     OW 2388   0.298   0.927   2.071
  316SOL    HW1 2389   0.306   0.986   2.146
  316SOL    HW2 2390   0.350   0.851   2.095
  317SOL     OW 2391   1.479   0.750   2.577
  317SOL    HW1 2392   1.478   0.717   2.667
  317SOL    HW2 2393   1.556   0.807   2.573
  318SOL     OW 2394   0.467   1.265   3.600
  318SOL    HW1 2395   0.443   1.269   3.507
  318SOL    HW2 2396   0.384   1.254   3.646
  319SOL     OW 2397   1.125   1.784   2.081
  319SOL    HW1 2398   1.050   1.746   2.127
  319SOL    HW2 2399   1.150   1.717   2.018
  320SOL     OW 2400   0.150   0.276   3.349
  320SOL    HW1 2401   0.156   0.372   3.348
  320SOL    HW2 2402   0.172   0.252   3.439
  321SOL     OW 2403   1.621   1.380   1.951
  321SOL    HW1 2404   1.583   1.467   1.937
  321SOL    HW2 2405   1.552   1.319   1.928
  322SOL     OW 2406   0.450   1.751   2.172
  322SOL    HW1 2407   0.500   1.792   2.242
  322SOL    HW2 2408   0.513   1.696   2.126
  323SOL     OW 2409   1.417   0.135   2.261
  323SOL    HW1 2410   1.443   0.106   2.174
  323SOL    HW2 2411   1.500   0.146   2.308
  324SOL     OW 2412   0.267   1.794   3.090
  324SOL    HW1 2413   0.307   1.723   3.140
  324SOL    HW2 2414   0.200   1.752   3.036
  325SOL     OW 2415   0.940   1.702   2.755
  325SOL    HW1 2416   1.018   1.654   2.784
  325SOL    HW2 2417   0.904   1.648   2.684
  326SOL     OW 2418   0.418   0.697   2.324
  326SOL    HW1 2419   0.419   0.603   2.346
  326SOL    HW2 2420   0.333   0.728   2.355
  327SOL     OW 2421   1.550   0.218   3.593
  327SOL    HW1 2422   1.563   0.251   3.682
  327SOL    HW2 2423   1.465   0.173   3.595
  328SOL     OW 2424   0.614   0.135   1.928
  328SOL    HW1 2425   0.672   0.091   1.990
  328SOL    HW2 2426   0.545   0.071   1.910
  329SOL     OW 2427   0.717   0.294   3.619
  329SOL    HW1 2428   0.807   0.314   3.645
  329SOL    HW2 2429   0.676   0.260   3.698
  330SOL     OW 2430   0.878   1.526   3.055
  330SOL    HW1 2431   0.857   1.484   2.972
  330SOL    HW2 2432   0.944   1.469   3.095
  331SOL     OW 2433   1.340   0.595   3.297
  331SOL    HW1 2434   1.377   0.569   3.381
  331SOL    HW2 2435   1.375   0.684   3.283
  332SOL     OW 2436   0.820   1.383   2.815
  332SOL    HW1 2437   0.905   1.373   2.772
  332SOL    HW2 2438   0.758   1.390   2.742
  333SOL     OW 2439   0.926   0.520   2.753
  333SOL    HW1 2440   0.893   0.511   2.663
  333SOL    HW2 2441   0.962   0.434   2.774
  334SOL     OW 2442   0.573   0.053   2.320
  334SOL    HW1 2443   0.508  -0.018   2.316
  334SOL    HW2 2444   0.537   0.122   2.265
  335SOL     OW 2445   1.422   1.199   1.897
  335SOL    HW1 2446   1.455   1.128   1.952
  335SOL    HW2 2447   1.339   1.224   1.937
  336SOL     OW 2448   0.300   0.065   2.023
  336SOL    HW1 2449   0.335   0.137   2.076
  336SOL    HW2 2450   0.312  -0.013   2.076
  337SOL     OW 2451   0.948   0.260   2.327
  337SOL    HW1 2452   0.919   0.292   2.242
  337SOL    HW2 2453   1.042   0.273   2.328
  338SOL     OW 2454   1.080   0.681   3.320
  338SOL    HW1 2455   1.024   0.606   3.340
  338SOL    HW2 2456   1.168   0.646   3.317
  339SOL     OW 2457   1.217   1.569   2.654
  339SOL    HW1 2458   1.234   1.637   2.589
  339SOL    HW2 2459   1.287   1.581   2.718
  340SOL     OW 2460   0.475   1.155   2.570
  340SOL    HW1 2461   0.416   1.134   2.642
  340SOL    HW2 2462   0.424   1.135   2.491
  341SOL     OW 2463   1.262   1.789   2.476
  341SOL    HW1 2464   1.312   1.853   2.425
  341SOL    HW2 2465   1.193   1.841   2.517
  342SOL     OW 2466   1.024   0.521   1.889
  342SOL    HW1 2467   0.977   0.603   1.876
  342SOL    HW2 2468   1.084   0.540   1.962
  343SOL     OW 2469   0.101   0.579   3.252
  343SOL    HW1 2470   0.192   0.574   3.223
  343SOL    HW2 2471   0.102   0.645   3.321
  344SOL     OW 2472   0.580   0.227   3.064
  344SOL    HW1 2473   0.615   0.187   3.144
  344SOL    HW2 2474   0.485   0.223   3.074
  345SOL     OW 2475   0.848   0.459   2.496
  345SOL    HW1 2476   0.821   0.519   2.426
  345SOL    HW2 2477   0.884   0.383   2.450
  346SOL     OW 2478   0.974   0.039   2.655
  346SOL    HW1 2479   0.928   0.032   2.571
  346SOL    HW2 2480   0.993  -0.052   2.680
  347SOL     OW 2481   1.438   1.156   2.722
  347SOL    HW1 2482   1.369   1.090   2.730
  347SOL    HW2 2483   1.456   1.163   2.628
  348SOL     OW 2484   1.463   0.614   2.820
  348SOL    HW1 2485   1.407   0.536   2.825
  348SOL    HW2 2486   1.520   0.606   2.896
  349SOL     OW 2487   1.838   0.804   2.242
  349SOL    HW1 2488   1.897   0.762   2.305
  349SOL    HW2 2489   1.824   0.738   2.174
  350SOL     OW 2490   0.495   1.427   2.004
  350SOL    HW1 2491   0.414   1.407   2.050
  350SOL    HW2 2492   0.501   1.361   1.935
  351SOL     OW 2493   1.688   1.260   2.507
  351SOL    HW1 2494   1.782   1.255   2.522
  351SOL    HW2 2495   1.664   1.349   2.531
  352SOL     OW 2496   1.391   0.572   1.938
  352SOL    HW1 2497   1.328   0.557   2.008
  352SOL    HW2 2498   1.476   0.570   1.981
  353SOL     OW 2499   0.492   0.256   2.149
  353SOL    HW1 2500   0.549   0.222   2.080
  353SOL    HW2 2501   0.475   0.347   2.123
  354SOL     OW 2502   1.743   1.246   3.413
  354SOL    HW1 2503   1.831   1.211   3.398
  354SOL    HW2 2504   1.759   1.335   3.445
  355SOL     OW 2505   1.051   1.348   3.186
  355SOL    HW1 2506   0.974   1.320   3.236
  355SOL    HW2 2507   1.125   1.308   3.232
  356SOL     OW 2508   1.604   1.630   3.518
  356SOL    HW1 2509   1.600   1.666   3.429
  356SOL    HW2 2510   1.687   1.581   3.520
  357SOL     OW 2511   1.129   1.204   2.959
  357SOL    HW1 2512   1.079   1.250   3.027
  357SOL    HW2 2513   1.105   1.249   2.878
  358SOL     OW 2514   1.616   1.096   2.939
  358SOL    HW1 2515   1.609   1.158   3.011
  358SOL    HW2 2516   1.544   1.118   2.880
  359SOL     OW 2517   0.916   0.124   3.252
  359SOL    HW1 2518   0.938   0.115   3.159
  359SOL    HW2 2519   1.001   0.126   3.296
  360SOL     OW 2520   0.981   1.117   3.585
  360SOL    HW1 2521   0.891   1.133   3.611
  360SOL    HW2 2522   0.977   1.036   3.534
  361SOL     OW 2523   0.725   1.072   2.234
  361SOL    HW1 2524   0.701   1.048   2.324
  361SOL    HW2 2525   0.796   1.012   2.211
  362SOL     OW 2526   0.429   0.820   3.115
  362SOL    HW1 2527   0.491   0.839   3.185
  362SOL    HW2 2528   0.401   0.730   3.133
  363SOL     OW 2529   1.268   0.380   3.146
  363SOL    HW1 2530   1.299   0.460   3.189
  363SOL    HW2 2531   1.179   0.401   3.117
  364SOL     OW 2532   0.054   1.612   3.187
  364SOL    HW1 2533   0.057   1.693   3.237
  364SOL    HW2 2534   0.113   1.553   3.234
  365SOL     OW 2535   0.550   0.531   2.713
  365SOL    HW1 2536   0.565   0.593   2.641
  365SOL    HW2 2537   0.614   0.556   2.780
  366SOL     OW 2538   1.247   1.352   2.254
  366SOL    HW1 2539   1.303   1.422   2.288
  366SOL    HW2 2540   1.160   1.372   2.288
  367SOL     OW 2541   1.293   1.466   3.016
  367SOL    HW1 2542   1.353   1.477   3.090
  367SOL    HW2 2543   1.232   1.398   3.045
  368SOL     OW 2544   1.577   0.639   2.339
  368SOL    HW1 2545   1.525   0.675   2.411
  368SOL    HW2 2546   1.634   0.710   2.313
  369SOL     OW 2547   0.348   1.533   3.176
  369SOL    HW1 2548   0.330   1.486   3.095
  369SOL    HW2 2549   0.444   1.540   3.180
  370SOL     OW 2550   0.433   0.718   3.479
  370SOL    HW1 2551   0.481   0.775   3.419
  370SOL    HW2 2552   0.500   0.661   3.517
  371SOL     OW 2553   1.606   0.784   3.551
  371SOL    HW1 2554   1.520   0.826   3.547
  371SOL    HW2 2555   1.658   0.828   3.484
  372SOL     OW 2556   1.055   0.077   3.611
  372SOL    HW1 2557   1.064   0.170   3.588
  372SOL    HW2 2558   0.962   0.059   3.602
  373SOL     OW 2559   0.464  -0.004   3.605
  373SOL    HW1 2560   0.473  -0.038   3.516
  373SOL    HW2 2561   0.430   0.084   3.594
  374SOL     OW 2562   0.590   0.875   2.896
  374SOL    HW1 2563   0.625   0.964   2.897
  374SOL    HW2 2564   0.534   0.871   2.973
  375SOL     OW 2565   1.331   0.859   2.866
  375SOL    HW1 2566   1.241   0.836   2.844
  375SOL    HW2 2567   1.380   0.777   2.858
  376SOL     OW 2568   1.191   0.524   2.119
  376SOL    HW1 2569   1.202   0.449   2.177
  376SOL    HW2 2570   1.153   0.592   2.175
  377SOL     OW 2571   0.308   0.205   3.105
  377SOL    HW1 2572   0.270   0.237   3.187
  377SOL    HW2 2573   0.290   0.111   3.106
  378SOL     OW 2574   0.047   1.304   3.130
  378SOL    HW1 2575   0.073   1.242   3.198
  378SOL    HW2 2576   0.042   1.388   3.175
  379SOL     OW 2577   0.713   0.626   2.910
  379SOL    HW1 2578   0.793   0.621   2.859
  379SOL    HW2 2579   0.684   0.717   2.901
  380SOL     OW 2580   1.742   0.953   3.731
  380SOL    HW1 2581   1.694   0.891   3.676
  380SOL    HW2 2582   1.681   0.977   3.800
  381SOL     OW 2583   0.322   0.086   2.533
  381SOL    HW1 2584   0.317   0.180   2.550
  381SOL    HW2 2585   0.388   0.054   2.594
  382SOL     OW 2586   1.628   0.406   2.209
  382SOL    HW1 2587   1.643   0.336   2.272
  382SOL    HW2 2588   1.602   0.481   2.263
  383SOL     OW 2589   1.036   0.760   2.822
  383SOL    HW1 2590   1.020   0.775   2.916
  383SOL    HW2 2591   1.003   0.672   2.806
  384SOL     OW 2592   0.978   1.568   3.587
  384SOL    HW1 2593   0.965   1.609   3.502
  384SOL    HW2 2594   1.019   1.484   3.567
  385SOL     OW 2595   1.844   1.500   3.463
  385SOL    HW1 2596   1.871   1.530   3.376
  385SOL    HW2 2597   1.921   1.514   3.518
  386SOL     OW 2598   0.354   0.938   3.655
  386SOL    HW1 2599   0.423   0.958   3.719
  386SOL    HW2 2600   0.385   0.859   3.611
  387SOL     OW 2601   1.550   0.277   1.983
  387SOL    HW1 2602   1.578   0.190   2.013
  387SOL    HW2 2603   1.571   0.335   2.056
  388SOL     OW 2604   1.276   0.819   1.880
  388SOL    HW1 2605   1.322   0.736   1.889
  388SOL    HW2 2606   1.313   0.859   1.802
  389SOL     OW 2607   1.070   1.343   2.720
  389SOL    HW1 2608   1.079   1.270   2.658
  389SOL    HW2 2609   1.126   1.412   2.686
  390SOL     OW 2610   0.317   0.803   2.802
  390SOL    HW1 2611   0.408   0.832   2.801
  390SOL    HW2 2612   0.319   0.716   2.840
  391SOL     OW 2613   0.340   0.529   2.880
  391SOL    HW1 2614   0.299   0.444   2.866
  391SOL    HW2 2615   0.412   0.532   2.818
  392SOL     OW 2616   1.169   0.362   3.575
  392SOL    HW1 2617   1.108   0.420   3.620
  392SOL    HW2 2618   1.246   0.416   3.560
  393SOL     OW 2619   1.164   0.220   3.342
  393SOL    HW1 2620   1.173   0.271   3.423
  393SOL    HW2 2621   1.203   0.276   3.275
  394SOL     OW 2622   7.975   1.308   2.054
  394SOL    HW1 2623   7.888   1.329   2.087
  394SOL    HW2 2624   7.990   1.218   2.084
  395SOL     OW 2625   0.096   1.760   2.786
  395SOL    HW1 2626   0.113   1.666   2.794
  395SOL    HW2 2627   0.182   1.797   2.763
  396SOL     OW 2628   0.484   1.572   2.759
  396SOL    HW1 2629   0.553   1.633   2.786
  396SOL    HW2 2630   0.528   1.508   2.704
  397SOL     OW 2631   0.965   0.777   3.086
  397SOL    HW1 2632   1.027   0.758   3.156
  397SOL    HW2 2633   0.879   0.760   3.125
  398SOL     OW 2634   0.071   0.545   2.985
  398SOL    HW1 2635   0.165   0.543   2.965
  398SOL    HW2 2636   0.067   0.558   3.080
  399SOL     OW 2637   0.197   0.498   3.536
  399SOL    HW1 2638   0.278   0.529   3.496
  399SOL    HW2 2639   0.179   0.561   3.605
  400SOL     OW 2640   1.380   0.932   3.512
  400SOL    HW1 2641   1.403   1.025   3.510
  400SOL    HW2 2642   1.379   0.906   3.420
  401SOL     OW 2643   0.818   0.569   2.233
  401SOL    HW1 2644   0.827   0.495   2.173
  401SOL    HW2 2645   0.746   0.621   2.197
  402SOL     OW 2646   1.638   0.600   3.029
  402SOL    HW1 2647   1.629   0.553   3.111
  402SOL    HW2 2648   1.728   0.583   3.001
  403SOL     OW 2649   0.288   1.532   3.586
  403SOL    HW1 2650   0.251   1.604   3.636
  403SOL    HW2 2651   0.280   1.456   3.643
  404SOL     OW 2652   0.733   0.451   3.116
  404SOL    HW1 2653   0.674   0.378   3.098
  404SOL    HW2 2654   0.716   0.514   3.046
  405SOL     OW 2655   0.920   1.676   3.334
  405SOL    HW1 2656   0.891   1.637   3.252
  405SOL    HW2 2657   0.915   1.770   3.319
  406SOL     OW 2658   0.449   0.497   2.023
  406SOL    HW1 2659   0.508   0.568   2.045
  406SOL    HW2 2660   0.372   0.511   2.078
  407SOL     OW 2661   0.152   1.120   3.312
  407SOL    HW1 2662   0.132   1.077   3.394
  407SOL    HW2 2663   0.160   1.048   3.248
  408SOL     OW 2664   1.315   1.038   3.073
  408SOL    HW1 2665   1.334   0.977   3.001
  408SOL    HW2 2666   1.249   1.097   3.037
  409SOL     OW 2667   1.323   0.853   2.158
  409SOL    HW1 2668   1.252   0.832   2.219
  409SOL    HW2 2669   1.282   0.845   2.071
  410SOL     OW 2670   1.742   1.735   2.986
  410SOL    HW1 2671   1.819   1.760   2.936
  410SOL    HW2 2672   1.738   1.640   2.978
  411SOL     OW 2673   1.240   1.733   2.951
  411SOL    HW1 2674   1.327   1.761   2.923
  411SOL    HW2 2675   1.252   1.642   2.980
  412SOL     OW 2676   0.089   1.221   2.879
  412SOL    HW1 2677   0.076   1.253   2.968
  412SOL    HW2 2678   0.002   1.219   2.840
  413SOL     OW 2679   0.684   1.672   3.610
  413SOL    HW1 2680   0.628   1.749   3.594
  413SOL    HW2 2681   0.764   1.691   3.561
  414SOL     OW 2682   1.673   0.156   2.359
  414SOL    HW1 2683   1.765   0.144   2.337
  414SOL    HW2 2684   1.663   0.115   2.445
  415SOL     OW 2685   1.396   1.567   2.355
  415SOL    HW1 2686   1.454   1.603   2.288
  415SOL    HW2 2687   1.346   1.643   2.386
  416SOL     OW 2688   0.170   1.749   3.700
  416SOL    HW1 2689   0.108   1.699   3.752
  416SOL    HW2 2690   0.216   1.804   3.763
  417SOL     OW 2691   1.276   0.927   2.522
  417SOL    HW1 2692   1.351   0.870   2.539
  417SOL    HW2 2693   1.313   1.001   2.473
  418SOL     OW 2694   0.796   1.282   3.281
  418SOL    HW1 2695   0.769   1.325   3.362
  418SOL    HW2 2696   0.720   1.294   3.223
  419SOL     OW 2697   0.667   1.636   2.020
  419SOL    HW1 2698   0.681   1.647   1.927
  419SOL    HW2 2699   0.616   1.555   2.027
  420SOL     OW 2700   1.615   1.727   3.246
  420SOL    HW1 2701   1.665   1.735   3.164
  420SOL    HW2 2702   1.601   1.818   3.273
  421SOL     OW 2703   1.857   0.168   2.807
  421SOL    HW1 2704   1.851   0.081   2.848
  421SOL    HW2 2705   1.770   0.184   2.771
  422SOL     OW 2706   0.262   0.346   2.586
  422SOL    HW1 2707   0.173   0.370   2.562
  422SOL    HW2 2708   0.259   0.334   2.681
  423SOL     OW 2709   1.207   1.596   1.896
  423SOL    HW1 2710   1.196   1.506   1.926
  423SOL    HW2 2711   1.137   1.609   1.832
  424SOL     OW 2712   0.826   1.013   3.239
  424SOL    HW1 2713   0.867   1.011   3.152
  424SOL    HW2 2714   0.818   1.107   3.259
  425SOL     OW 2715   0.919   0.903   2.153
  425SOL    HW1 2716   0.977   0.939   2.086
  425SOL    HW2 2717   0.973   0.840   2.200
  426SOL     OW 2718   1.486   1.633   1.907
  426SOL    HW1 2719   1.393   1.620   1.892
  426SOL    HW2 2720   1.525   1.638   1.820
  427SOL     OW 2721   0.370   1.294   3.349
  427SOL    HW1 2722   0.347   1.377   3.308
  427SOL    HW2 2723   0.294   1.238   3.333
  428SOL     OW 2724   1.600   1.283   3.140
  428SOL    HW1 2725   1.666   1.270   3.208
  428SOL    HW2 2726   1.543   1.352   3.175
  429SOL     OW 2727   1.070   1.113   2.576
  429SOL    HW1 2728   0.996   1.065   2.613
  429SOL    HW2 2729   1.133   1.045   2.551
  430SOL     OW 2730   1.028   0.264   2.811
  430SOL    HW1 2731   1.012   0.209   2.734
  430SOL    HW2 2732   1.032   0.203   2.884
  431SOL     OW 2733   0.598   1.488   2.341
  431SOL    HW1 2734   0.637   1.438   2.270
  431SOL    HW2 2735   0.504   1.468   2.335
  432SOL     OW 2736   1.723   0.417   3.250
  432SOL    HW1 2737   1.793   0.482   3.256
  432SOL    HW2 2738   1.755   0.354   3.185
  433SOL     OW 2739   0.250   1.368   2.120
  433SOL    HW1 2740   0.155   1.365   2.130
  433SOL    HW2 2741   0.284   1.356   2.209
  434SOL     OW 2742   0.097   1.002   3.570
  434SOL    HW1 2743   0.057   1.086   3.596
  434SOL    HW2 2744   0.179   0.998   3.618
  435SOL     OW 2745   0.677   0.218   3.355
  435SOL    HW1 2746   0.752   0.165   3.328
  435SOL    HW2 2747   0.693   0.237   3.447
  436SOL     OW 2748   0.051   0.332   1.845
  436SOL    HW1 2749   0.011   0.385   1.913
  436SOL    HW2 2750   0.098   0.395   1.790
  437SOL     OW 2751   1.422   0.856   3.251
  437SOL    HW1 2752   1.374   0.919   3.197
  437SOL    HW2 2753   1.513   0.864   3.222
  438SOL     OW 2754   0.134   0.255   2.189
  438SOL    HW1 2755   0.050   0.237   2.148
  438SOL    HW2 2756   0.139   0.194   2.263
  439SOL     OW 2757   1.178   1.331   1.984
  439SOL    HW1 2758   1.089   1.295   1.989
  439SOL    HW2 2759   1.206   1.336   2.076
  440SOL     OW 2760   0.613   0.849   3.308
  440SOL    HW1 2761   0.670   0.925   3.295
  440SOL    HW2 2762   0.672   0.774   3.310
  441SOL     OW 2763   1.495   1.799   2.864
  441SOL    HW1 2764   1.523   1.858   2.794
  441SOL    HW2 2765   1.575   1.773   2.908
  442SOL     OW 2766   0.684   0.579   3.558
  442SOL    HW1 2767   0.742   0.631   3.614
  442SOL    HW2 2768   0.693   0.489   3.590
  443SOL     OW 2769   1.472   1.192   3.485
  443SOL    HW1 2770   1.461   1.208   3.579
  443SOL    HW2 2771   1.563   1.213   3.468
  444SOL     OW 2772   0.386   1.737   3.426
  444SOL    HW1 2773   0.297   1.763   3.403
  444SOL    HW2 2774   0.376   1.651   3.467
  445SOL     OW 2775   1.662   0.880   3.110
  445SOL    HW1 2776   1.658   0.798   3.062
  445SOL    HW2 2777   1.651   0.948   3.043
  446SOL     OW 2778   1.218   0.321   2.309
  446SOL    HW1 2779   1.284   0.253   2.296
  446SOL    HW2 2780   1.248   0.369   2.387
  447SOL     OW 2781   0.598   0.732   2.532
  447SOL    HW1 2782   0.637   0.820   2.526
  447SOL    HW2 2783   0.538   0.728   2.458
  448SOL     OW 2784   1.760   0.372   3.516
  448SOL    HW1 2785   1.747   0.392   3.423
  448SOL    HW2 2786   1.690   0.311   3.538
  449SOL     OW 2787   1.728   0.936   3.371
  449SOL    HW1 2788   1.740   1.031   3.384
  449SOL    HW2 2789   1.722   0.926   3.276
  450SOL     OW 2790   0.855   1.361   1.910
  450SOL    HW1 2791   0.825   1.372   2.000
  450SOL    HW2 2792   0.870   1.450   1.878
  451SOL     OW 2793   0.664   1.775   2.788
  451SOL    HW1 2794   0.650   1.869   2.777
  451SOL    HW2 2795   0.759   1.765   2.789
  452SOL     OW 2796   0.873   0.977   2.717
  452SOL    HW1 2797   0.924   0.905   2.756
  452SOL    HW2 2798   0.830   1.018   2.792
  453SOL     OW 2799   1.077   0.990   1.952
  453SOL    HW1 2800   1.054   1.043   1.876
  453SOL    HW2 2801   1.147   0.933   1.921
  454SOL     OW 2802   1.839   1.547   2.699
  454SOL    HW1 2803   1.758   1.540   2.650
  454SOL    HW2 2804   1.821   1.503   2.783
  455SOL     OW 2805   0.217   1.297   3.718
  455SOL    HW1 2806   0.125   1.282   3.699
  455SOL    HW2 2807   0.221   1.302   3.814
  456SOL     OW 2808   0.114   1.286   2.485
  456SOL    HW1 2809   0.056   1.237   2.544
  456SOL    HW2 2810   0.168   1.219   2.443
  457SOL     OW 2811   0.681   1.413   3.492
  457SOL    HW1 2812   0.602   1.371   3.527
  457SOL    HW2 2813   0.683   1.499   3.533
  458SOL     OW 2814   1.816   0.233   3.083
  458SOL    HW1 2815   1.758   0.157   3.080
  458SOL    HW2 2816   1.845   0.245   2.993
  459SOL     OW 2817   0.429   0.431   2.386
  459SOL    HW1 2818   0.426   0.354   2.330
  459SOL    HW2 2819   0.381   0.406   2.465
  460SOL     OW 2820   1.709   1.468   2.937
  460SOL    HW1 2821   1.621   1.449   2.903
  460SOL    HW2 2822   1.720   1.407   3.010
  461SOL     OW 2823   0.354   0.558   3.159
  461SOL    HW1 2824   0.397   0.493   3.215
  461SOL    HW2 2825   0.373   0.529   3.070
  462SOL     OW 2826   0.833   1.572   2.536
  462SOL    HW1 2827   0.797   1.633   2.472
  462SOL    HW2 2828   0.763   1.509   2.552
  463SOL     OW 2829   1.428   0.225   2.978
  463SOL    HW1 2830   1.489   0.167   3.023
  463SOL    HW2 2831   1.382   0.271   3.048
  464SOL     OW 2832   1.037   0.069   2.997
  464SOL    HW1 2833   0.991  -0.014   3.010
  464SOL    HW2 2834   1.129   0.048   3.012
  465SOL     OW 2835   0.781   1.337   2.177
  465SOL    HW1 2836   0.755   1.246   2.193
  465SOL    HW2 2837   0.855   1.352   2.235
  466SOL     OW 2838   0.622   1.560   3.145
  466SOL    HW1 2839   0.619   1.646   3.188
  466SOL    HW2 2840   0.712   1.553   3.113
  467SOL     OW 2841   1.357   7.999   1.975
  467SOL    HW1 2842   1.441   7.962   2.004
  467SOL    HW2 2843   1.294   7.969   2.041
  468SOL     OW 2844   1.294   0.464   2.532
  468SOL    HW1 2845   1.244   0.545   2.536
  468SOL    HW2 2846   1.296   0.432   2.622
  469SOL     OW 2847   1.607   0.217   2.722
  469SOL    HW1 2848   1.534   0.217   2.784
  469SOL    HW2 2849   1.599   0.300   2.676
  470SOL     OW 2850   0.025   1.052   2.152
  470SOL    HW1 2851   0.110   1.039   2.110
  470SOL    HW2 2852   0.046   1.060   2.245
  471SOL     OW 2853   0.893   1.668   2.196
  471SOL    HW1 2854   0.814   1.651   2.145
  471SOL    HW2 2855   0.867   1.737   2.258
  472SOL     OW 2856   0.176   0.644   3.760
  472SOL    HW1 2857   0.119   0.688   3.823
  472SOL    HW2 2858   0.249   0.610   3.813
  473SOL     OW 2859   0.228   0.287   4.711
  473SOL    HW1 2860   0.250   0.243   4.793
  473SOL    HW2 2861   0.135   0.265   4.697
  474SOL     OW 2862   7.997   0.389   4.331
  474SOL    HW1 2863   7.909   0.386   4.368
  474SOL    HW2 2864   8.006   0.307   4.283
  475SOL     OW 2865   0.576   1.304   4.921
  475SOL    HW1 2866   0.490   1.307   4.879
  475SOL    HW2 2867   0.592   1.394   4.949
  476SOL     OW 2868   1.580   1.511   4.432
  476SOL    HW1 2869   1.536   1.491   4.514
  476SOL    HW2 2870   1.509   1.517   4.368
  477SOL     OW 2871   1.143   0.696   4.416
  477SOL    HW1 2872   1.187   0.780   4.401
  477SOL    HW2 2873   1.090   0.709   4.494
  478SOL     OW 2874   1.799   0.593   3.937
  478SOL    HW1 2875   1.758   0.601   3.851
  478SOL    HW2 2876   1.819   0.500   3.947
  479SOL     OW 2877   0.736   1.129   4.781
  479SOL    HW1 2878   0.675   1.175   4.839
  479SOL    HW2 2879   0.780   1.199   4.733
  480SOL     OW 2880   0.878   0.756   5.544
  480SOL    HW1 2881   0.888   0.821   5.613
  480SOL    HW2 2882   0.900   0.803   5.464
  481SOL     OW 2883   0.701   1.053   4.349
  481SOL    HW1 2884   0.736   0.977   4.395
  481SOL    HW2 2885   0.628   1.083   4.402
  482SOL     OW 2886   0.709   1.147   5.544
  482SOL    HW1 2887   0.757   1.222   5.579
  482SOL    HW2 2888   0.631   1.185   5.502
  483SOL     OW 2889   0.344   1.409   4.791
  483SOL    HW1 2890   0.282   1.361   4.736
  483SOL    HW2 2891   0.388   1.469   4.731
  484SOL     OW 2892   1.462   1.504   5.087
  484SOL    HW1 2893   1.517   1.582   5.090
  484SOL    HW2 2894   1.411   1.506   5.168
  485SOL     OW 2895   0.447   0.376   5.204
  485SOL    HW1 2896   0.534   0.338   5.195
  485SOL    HW2 2897   0.398   0.311   5.255
  486SOL     OW 2898   1.564   0.459   4.454
  486SOL    HW1 2899   1.472   0.472   4.432
  486SOL    HW2 2900   1.584   0.529   4.516
  487SOL     OW 2901   0.232   1.693   4.207
  487SOL    HW1 2902   0.221   1.778   4.249
  487SOL    HW2 2903   0.301   1.708   4.142
  488SOL     OW 2904   1.137   1.339   5.422
  488SOL    HW1 2905   1.190   1.328   5.501
  488SOL    HW2 2906   1.084   1.259   5.417
  489SOL     OW 2907   0.305   1.433   4.235
  489SOL    HW1 2908   0.277   1.524   4.244
  489SOL    HW2 2909   0.251   1.386   4.299
  490SOL     OW 2910   0.275   1.086   4.632
  490SOL    HW1 2911   0.271   0.992   4.650
  490SOL    HW2 2912   0.194   1.122   4.669
  491SOL     OW 2913   0.601   1.815   5.122
  491SOL    HW1 2914   0.527   1.793   5.178
  491SOL    HW2 2915   0.645   1.887   5.167
  492SOL     OW 2916   0.563   0.999   3.861
  492SOL    HW1 2917   0.617   1.037   3.792
  492SOL    HW2 2918   0.604   1.027   3.942
  493SOL     OW 2919   1.625   0.141   5.181
  493SOL    HW1 2920   1.642   0.231   5.151
  493SOL    HW2 2921   1.595   0.152   5.271
  494SOL     OW 2922   0.147   0.615   4.271
  494SOL    HW1 2923   0.095   0.539   4.296
  494SOL    HW2 2924   0.129   0.680   4.339
  495SOL     OW 2925   1.847   1.752   4.056
  495SOL    HW1 2926   1.919   1.728   4.114
  495SOL    HW2 2927   1.864   1.844   4.034
  496SOL     OW 2928   0.022   1.584   3.859
  496SOL    HW1 2929   0.001   1.492   3.846
  496SOL    HW2 2930   0.009   1.599   3.953
  497SOL     OW 2931   1.682   0.905   4.351
  497SOL    HW1 2932   1.776   0.889   4.356
  497SOL    HW2 2933   1.672   0.966   4.278
  498SOL     OW 2934   1.654   1.107   4.153
  498SOL    HW1 2935   1.741   1.106   4.112
  498SOL    HW2 2936   1.664   1.166   4.228
  499SOL     OW 2937   0.145   0.754   5.311
  499SOL    HW1 2938   0.240   0.764   5.303
  499SOL    HW2 2939   0.117   0.835   5.353
  500SOL     OW 2940   0.622   1.398   4.463
  500SOL    HW1 2941   0.578   1.313   4.472
  500SOL    HW2 2942   0.607   1.422   4.371
  501SOL     OW 2943   1.282   1.232   5.141
  501SOL    HW1 2944   1.315   1.168   5.078
  501SOL    HW2 2945   1.342   1.226   5.216
  502SOL     OW 2946   0.837   0.042   4.266
  502SOL    HW1 2947   0.886   0.113   4.225
  502SOL    HW2 2948   0.757   0.083   4.297
  503SOL     OW 2949   0.154   0.898   4.995
  503SOL    HW1 2950   0.248   0.882   4.993
  503SOL    HW2 2951   0.130   0.912   4.904
  504SOL     OW 2952   1.531   1.003   3.926
  504SOL    HW1 2953   1.465   0.944   3.961
  504SOL    HW2 2954   1.575   1.039   4.003
  505SOL     OW 2955   1.153   1.789   5.307
  505SOL    HW1 2956   1.212   1.855   5.272
  505SOL    HW2 2957   1.198   1.706   5.294
  506SOL     OW 2958   0.335   0.258   5.501
  506SOL    HW1 2959   0.404   0.307   5.546
  506SOL    HW2 2960   0.256   0.276   5.553
  507SOL     OW 2961   1.467   1.419   4.667
  507SOL    HW1 2962   1.403   1.439   4.735
  507SOL    HW2 2963   1.450   1.327   4.644
  508SOL     OW 2964   1.647   1.765   4.300
  508SOL    HW1 2965   1.634   1.725   4.214
  508SOL    HW2 2966   1.638   1.693   4.362
  509SOL     OW 2967   0.586   0.712   3.974
  509SOL    HW1 2968   0.615   0.800   3.952
  509SOL    HW2 2969   0.542   0.721   4.058
  510SOL     OW 2970   1.292   0.369   4.655
  510SOL    HW1 2971   1.202   0.339   4.662
  510SOL    HW2 2972   1.340   0.317   4.719
  511SOL     OW 2973   1.581   1.672   4.035
  511SOL    HW1 2974   1.673   1.697   4.030
  511SOL    HW2 2975   1.556   1.655   3.945
  512SOL     OW 2976   0.796   0.620   5.176
  512SOL    HW1 2977   0.763   0.594   5.262
  512SOL    HW2 2978   0.758   0.556   5.116
  513SOL     OW 2979   1.409   0.479   5.409
  513SOL    HW1 2980   1.400   0.524   5.493
  513SOL    HW2 2981   1.503   0.476   5.393
  514SOL     OW 2982   0.944   0.887   5.309
  514SOL    HW1 2983   1.006   0.826   5.269
  514SOL    HW2 2984   0.899   0.927   5.234
  515SOL     OW 2985   0.987   0.409   4.963
  515SOL    HW1 2986   0.898   0.440   4.977
  515SOL    HW2 2987   0.990   0.386   4.870
  516SOL     OW 2988   1.057   0.700   4.144
  516SOL    HW1 2989   1.072   0.697   4.239
  516SOL    HW2 2990   0.977   0.650   4.131
  517SOL     OW 2991   0.093   0.785   4.488
  517SOL    HW1 2992   0.171   0.800   4.541
  517SOL    HW2 2993   0.051   0.871   4.483
  518SOL     OW 2994   0.122   1.804   5.285
  518SOL    HW1 2995   0.130   1.802   5.380
  518SOL    HW2 2996   0.028   1.793   5.269
  519SOL     OW 2997   0.863   0.333   3.866
  519SOL    HW1 2998   0.932   0.393   3.839
  519SOL    HW2 2999   0.908   0.259   3.905
  520SOL     OW 3000   1.685   0.548   5.572
  520SOL    HW1 3001   1.706   0.641   5.563
  520SOL    HW2 3002   1.726   0.507   5.495
  521SOL     OW 3003   1.386   1.143   4.259
  521SOL    HW1 3004   1.468   1.140   4.210
  521SOL    HW2 3005   1.333   1.208   4.212
  522SOL     OW 3006   0.541   0.232   4.638
  522SOL    HW1 3007   0.521   0.245   4.731
  522SOL    HW2 3008   0.546   0.321   4.602
  523SOL     OW 3009   0.996   1.446   4.188
  523SOL    HW1 3010   0.971   1.524   4.140
  523SOL    HW2 3011   0.972   1.465   4.279
  524SOL     OW 3012   0.360   1.826   4.583
  524SOL    HW1 3013   0.404   1.742   4.598
  524SOL    HW2 3014   0.425   1.892   4.607
  525SOL     OW 3015   1.793   1.030   4.601
  525SOL    HW1 3016   1.742   1.059   4.526
  525SOL    HW2 3017   1.736   1.044   4.676
  526SOL     OW 3018   1.209   1.529   5.236
  526SOL    HW1 3019   1.202   1.460   5.303
  526SOL    HW2 3020   1.182   1.486   5.155
  527SOL     OW 3021   0.307   0.949   3.993
  527SOL    HW1 3022   0.382   0.971   3.938
  527SOL    HW2 3023   0.330   0.865   4.032
  528SOL     OW 3024   1.481   0.747   4.431
  528SOL    HW1 3025   1.479   0.727   4.525
  528SOL    HW2 3026   1.556   0.806   4.422
  529SOL     OW 3027   0.467   1.266   5.461
  529SOL    HW1 3028   0.444   1.271   5.368
  529SOL    HW2 3029   0.382   1.254   5.505
  530SOL     OW 3030   1.125   1.785   3.941
  530SOL    HW1 3031   1.051   1.747   3.988
  530SOL    HW2 3032   1.151   1.717   3.878
  531SOL     OW 3033   0.161   0.275   5.223
  531SOL    HW1 3034   0.152   0.368   5.200
  531SOL    HW2 3035   0.183   0.275   5.316
  532SOL     OW 3036   1.620   1.380   3.815
  532SOL    HW1 3037   1.582   1.467   3.800
  532SOL    HW2 3038   1.550   1.319   3.790
  533SOL     OW 3039   0.452   1.748   4.036
  533SOL    HW1 3040   0.501   1.795   4.104
  533SOL    HW2 3041   0.519   1.699   3.988
  534SOL     OW 3042   1.423   0.151   4.120
  534SOL    HW1 3043   1.432   0.104   4.037
  534SOL    HW2 3044   1.512   0.152   4.157
  535SOL     OW 3045   0.240   1.787   4.948
  535SOL    HW1 3046   0.284   1.709   4.983
  535SOL    HW2 3047   0.201   1.758   4.866
  536SOL     OW 3048   0.941   1.702   4.619
  536SOL    HW1 3049   1.022   1.658   4.646
  536SOL    HW2 3050   0.907   1.648   4.548
  537SOL     OW 3051   0.398   0.738   4.180
  537SOL    HW1 3052   0.472   0.723   4.239
  537SOL    HW2 3053   0.326   0.688   4.218
  538SOL     OW 3054   1.546   0.211   5.448
  538SOL    HW1 3055   1.553   0.236   5.540
  538SOL    HW2 3056   1.452   0.210   5.429
  539SOL     OW 3057   0.591   0.131   3.814
  539SOL    HW1 3058   0.661   0.088   3.863
  539SOL    HW2 3059   0.556   0.062   3.757
  540SOL     OW 3060   0.741   0.264   5.497
  540SOL    HW1 3061   0.811   0.297   5.441
  540SOL    HW2 3062   0.767   0.289   5.585
  541SOL     OW 3063   0.882   1.526   4.920
  541SOL    HW1 3064   0.861   1.486   4.835
  541SOL    HW2 3065   0.946   1.467   4.959
  542SOL     OW 3066   1.345   0.599   5.159
  542SOL    HW1 3067   1.388   0.575   5.241
  542SOL    HW2 3068   1.376   0.688   5.141
  543SOL     OW 3069   0.821   1.381   4.678
  543SOL    HW1 3070   0.906   1.372   4.635
  543SOL    HW2 3071   0.759   1.391   4.606
  544SOL     OW 3072   0.938   0.515   4.634
  544SOL    HW1 3073   0.912   0.514   4.542
  544SOL    HW2 3074   0.972   0.428   4.651
  545SOL     OW 3075   0.527   0.023   4.147
  545SOL    HW1 3076   0.490   0.030   4.235
  545SOL    HW2 3077   0.539   0.114   4.119
  546SOL     OW 3078   1.422   1.198   3.758
  546SOL    HW1 3079   1.454   1.127   3.813
  546SOL    HW2 3080   1.339   1.224   3.798
  547SOL     OW 3081   0.287   0.058   3.948
  547SOL    HW1 3082   0.365   0.112   3.936
  547SOL    HW2 3083   0.317  -0.014   4.005
  548SOL     OW 3084   0.947   0.263   4.155
  548SOL    HW1 3085   0.908   0.340   4.113
  548SOL    HW2 3086   1.039   0.288   4.167
  549SOL     OW 3087   1.089   0.697   5.178
  549SOL    HW1 3088   1.032   0.623   5.197
  549SOL    HW2 3089   1.177   0.660   5.179
  550SOL     OW 3090   1.218   1.577   4.520
  550SOL    HW1 3091   1.231   1.641   4.450
  550SOL    HW2 3092   1.289   1.593   4.582
  551SOL     OW 3093   0.471   1.165   4.460
  551SOL    HW1 3094   0.409   1.141   4.529
  551SOL    HW2 3095   0.426   1.145   4.378
  552SOL     OW 3096   1.262   1.791   4.337
  552SOL    HW1 3097   1.314   1.854   4.287
  552SOL    HW2 3098   1.195   1.845   4.380
  553SOL     OW 3099   1.030   0.521   3.751
  553SOL    HW1 3100   0.981   0.601   3.731
  553SOL    HW2 3101   1.087   0.545   3.824
  554SOL     OW 3102   0.103   0.550   5.127
  554SOL    HW1 3103   0.192   0.554   5.092
  554SOL    HW2 3104   0.097   0.626   5.186
  555SOL     OW 3105   0.566   0.228   4.926
  555SOL    HW1 3106   0.603   0.197   5.009
  555SOL    HW2 3107   0.472   0.220   4.938
  556SOL     OW 3108   0.877   0.472   4.377
  556SOL    HW1 3109   0.812   0.540   4.361
  556SOL    HW2 3110   0.860   0.405   4.311
  557SOL     OW 3111   0.966   0.036   4.513
  557SOL    HW1 3112   0.924   0.044   4.428
  557SOL    HW2 3113   0.990  -0.056   4.520
  558SOL     OW 3114   1.437   1.157   4.584
  558SOL    HW1 3115   1.366   1.092   4.588
  558SOL    HW2 3116   1.457   1.165   4.491
  559SOL     OW 3117   1.461   0.616   4.685
  559SOL    HW1 3118   1.403   0.540   4.694
  559SOL    HW2 3119   1.519   0.611   4.760
  560SOL     OW 3120   1.842   0.810   4.096
  560SOL    HW1 3121   1.897   0.766   4.161
  560SOL    HW2 3122   1.823   0.743   4.031
  561SOL     OW 3123   0.489   1.421   3.870
  561SOL    HW1 3124   0.408   1.394   3.913
  561SOL    HW2 3125   0.493   1.367   3.791
  562SOL     OW 3126   1.688   1.254   4.376
  562SOL    HW1 3127   1.783   1.253   4.387
  562SOL    HW2 3128   1.663   1.344   4.395
  563SOL     OW 3129   1.396   0.588   3.794
  563SOL    HW1 3130   1.333   0.563   3.861
  563SOL    HW2 3131   1.481   0.583   3.837
  564SOL     OW 3132   0.494   0.274   4.019
  564SOL    HW1 3133   0.544   0.229   3.950
  564SOL    HW2 3134   0.484   0.363   3.987
  565SOL     OW 3135   1.736   1.252   5.274
  565SOL    HW1 3136   1.818   1.203   5.264
  565SOL    HW2 3137   1.763   1.338   5.305
  566SOL     OW 3138   1.048   1.347   5.058
  566SOL    HW1 3139   0.971   1.315   5.106
  566SOL    HW2 3140   1.121   1.299   5.097
  567SOL     OW 3141   1.599   1.624   5.373
  567SOL    HW1 3142   1.602   1.669   5.289
  567SOL    HW2 3143   1.682   1.577   5.378
  568SOL     OW 3144   1.141   1.224   4.823
  568SOL    HW1 3145   1.078   1.259   4.886
  568SOL    HW2 3146   1.112   1.258   4.738
  569SOL     OW 3147   1.619   1.096   4.799
  569SOL    HW1 3148   1.614   1.159   4.871
  569SOL    HW2 3149   1.546   1.119   4.742
  570SOL     OW 3150   0.925   0.107   5.115
  570SOL    HW1 3151   0.948   0.103   5.022
  570SOL    HW2 3152   1.003   0.142   5.158
  571SOL     OW 3153   0.979   1.118   5.446
  571SOL    HW1 3154   0.888   1.134   5.472
  571SOL    HW2 3155   0.975   1.038   5.393
  572SOL     OW 3156   0.711   1.070   4.080
  572SOL    HW1 3157   0.703   1.064   4.175
  572SOL    HW2 3158   0.781   1.008   4.058
  573SOL     OW 3159   0.418   0.822   4.986
  573SOL    HW1 3160   0.490   0.837   5.048
  573SOL    HW2 3161   0.395   0.730   4.997
  574SOL     OW 3162   1.263   0.383   5.008
  574SOL    HW1 3163   1.299   0.460   5.052
  574SOL    HW2 3164   1.172   0.407   4.988
  575SOL     OW 3165   0.049   1.591   5.053
  575SOL    HW1 3166   0.085   1.680   5.047
  575SOL    HW2 3167   0.095   1.552   5.127
  576SOL     OW 3168   0.327   1.112   4.230
  576SOL    HW1 3169   0.343   1.175   4.160
  576SOL    HW2 3170   0.335   1.027   4.187
  577SOL     OW 3171   0.554   0.504   4.585
  577SOL    HW1 3172   0.569   0.544   4.499
  577SOL    HW2 3173   0.617   0.547   4.643
  578SOL     OW 3174   1.247   1.353   4.116
  578SOL    HW1 3175   1.303   1.424   4.149
  578SOL    HW2 3176   1.160   1.373   4.150
  579SOL     OW 3177   1.295   1.466   4.875
  579SOL    HW1 3178   1.353   1.473   4.951
  579SOL    HW2 3179   1.249   1.383   4.887
  580SOL     OW 3180   1.590   0.623   4.195
  580SOL    HW1 3181   1.537   0.668   4.261
  580SOL    HW2 3182   1.626   0.693   4.141
  581SOL     OW 3183   0.349   1.532   5.035
  581SOL    HW1 3184   0.334   1.484   4.954
  581SOL    HW2 3185   0.444   1.543   5.038
  582SOL     OW 3186   0.435   0.726   5.340
  582SOL    HW1 3187   0.484   0.778   5.276
  582SOL    HW2 3188   0.500   0.667   5.378
  583SOL     OW 3189   1.577   0.731   5.343
  583SOL    HW1 3190   1.510   0.795   5.367
  583SOL    HW2 3191   1.655   0.760   5.391
  584SOL     OW 3192   1.045   0.081   5.464
  584SOL    HW1 3193   1.114   0.129   5.511
  584SOL    HW2 3194   1.031   0.131   5.384
  585SOL     OW 3195   0.407  -0.006   5.460
  585SOL    HW1 3196   0.500  -0.012   5.438
  585SOL    HW2 3197   0.393   0.087   5.476
  586SOL     OW 3198   0.592   0.878   4.765
  586SOL    HW1 3199   0.629   0.966   4.762
  586SOL    HW2 3200   0.529   0.881   4.837
  587SOL     OW 3201   1.326   0.860   4.728
  587SOL    HW1 3202   1.236   0.835   4.704
  587SOL    HW2 3203   1.376   0.778   4.721
  588SOL     OW 3204   1.196   0.531   3.978
  588SOL    HW1 3205   1.206   0.455   4.035
  588SOL    HW2 3206   1.157   0.599   4.033
  589SOL     OW 3207   0.300   0.201   4.967
  589SOL    HW1 3208   0.254   0.229   5.047
  589SOL    HW2 3209   0.286   0.106   4.964
  590SOL     OW 3210   0.051   1.306   4.995
  590SOL    HW1 3211   0.077   1.259   5.075
  590SOL    HW2 3212   0.052   1.398   5.020
  591SOL     OW 3213   0.713   0.630   4.770
  591SOL    HW1 3214   0.793   0.624   4.717
  591SOL    HW2 3215   0.683   0.720   4.758
  592SOL     OW 3216   0.396   0.069   4.391
  592SOL    HW1 3217   0.353   0.153   4.408
  592SOL    HW2 3218   0.345   0.005   4.440
  593SOL     OW 3219   1.048   0.757   4.687
  593SOL    HW1 3220   1.029   0.775   4.779
  593SOL    HW2 3221   1.014   0.669   4.672
  594SOL     OW 3222   0.979   1.556   5.470
  594SOL    HW1 3223   0.972   1.610   5.391
  594SOL    HW2 3224   1.021   1.476   5.441
  595SOL     OW 3225   1.846   1.501   5.327
  595SOL    HW1 3226   1.870   1.533   5.240
  595SOL    HW2 3227   1.924   1.514   5.380
  596SOL     OW 3228   0.359   0.948   5.509
  596SOL    HW1 3229   0.431   0.970   5.568
  596SOL    HW2 3230   0.387   0.866   5.467
  597SOL     OW 3231   1.584   0.294   3.855
  597SOL    HW1 3232   1.607   0.212   3.899
  597SOL    HW2 3233   1.488   0.295   3.856
  598SOL     OW 3234   1.277   0.832   3.744
  598SOL    HW1 3235   1.322   0.747   3.752
  598SOL    HW2 3236   1.311   0.870   3.663
  599SOL     OW 3237   1.071   1.345   4.582
  599SOL    HW1 3238   1.079   1.274   4.519
  599SOL    HW2 3239   1.127   1.415   4.547
  600SOL     OW 3240   0.316   0.806   4.656
  600SOL    HW1 3241   0.408   0.829   4.643
  600SOL    HW2 3242   0.319   0.720   4.697
  601SOL     OW 3243   0.338   0.529   4.744
  601SOL    HW1 3244   0.297   0.444   4.726
  601SOL    HW2 3245   0.414   0.531   4.685
  602SOL     OW 3246   1.143   0.437   5.378
  602SOL    HW1 3247   1.108   0.468   5.462
  602SOL    HW2 3248   1.237   0.456   5.383
  603SOL     OW 3249   1.170   0.219   5.207
  603SOL    HW1 3250   1.171   0.284   5.277
  603SOL    HW2 3251   1.204   0.265   5.131
  604SOL     OW 3252   7.978   1.303   3.920
  604SOL    HW1 3253   7.889   1.327   3.948
  604SOL    HW2 3254   7.984   1.209   3.936
  605SOL     OW 3255   0.110   1.744   4.673
  605SOL    HW1 3256   0.112   1.667   4.617
  605SOL    HW2 3257   0.186   1.796   4.645
  606SOL     OW 3258   0.489   1.578   4.628
  606SOL    HW1 3259   0.558   1.639   4.654
  606SOL    HW2 3260   0.533   1.516   4.570
  607SOL     OW 3261   0.969   0.781   4.945
  607SOL    HW1 3262   1.031   0.766   5.017
  607SOL    HW2 3263   0.884   0.760   4.982
  608SOL     OW 3264   0.078   0.552   4.850
  608SOL    HW1 3265   0.171   0.556   4.825
  608SOL    HW2 3266   0.079   0.552   4.945
  609SOL     OW 3267   0.200   0.515   5.425
  609SOL    HW1 3268   0.291   0.511   5.393
  609SOL    HW2 3269   0.168   0.600   5.394
  610SOL     OW 3270   1.378   0.929   5.377
  610SOL    HW1 3271   1.408   1.020   5.378
  610SOL    HW2 3272   1.373   0.907   5.284
  611SOL     OW 3273   0.837   0.549   4.069
  611SOL    HW1 3274   0.799   0.507   3.992
  611SOL    HW2 3275   0.767   0.604   4.104
  612SOL     OW 3276   1.637   0.603   4.891
  612SOL    HW1 3277   1.628   0.559   4.975
  612SOL    HW2 3278   1.727   0.586   4.864
  613SOL     OW 3279   0.294   1.532   5.441
  613SOL    HW1 3280   0.257   1.607   5.489
  613SOL    HW2 3281   0.285   1.458   5.501
  614SOL     OW 3282   0.711   0.458   4.977
  614SOL    HW1 3283   0.658   0.383   4.951
  614SOL    HW2 3284   0.703   0.520   4.904
  615SOL     OW 3285   0.933   1.762   5.148
  615SOL    HW1 3286   0.928   1.682   5.097
  615SOL    HW2 3287   1.011   1.752   5.202
  616SOL     OW 3288   0.444   0.503   3.874
  616SOL    HW1 3289   0.500   0.576   3.899
  616SOL    HW2 3290   0.369   0.510   3.934
  617SOL     OW 3291   0.158   1.114   5.179
  617SOL    HW1 3292   0.135   1.072   5.262
  617SOL    HW2 3293   0.155   1.044   5.114
  618SOL     OW 3294   1.317   1.046   4.929
  618SOL    HW1 3295   1.333   0.983   4.859
  618SOL    HW2 3296   1.254   1.108   4.891
  619SOL     OW 3297   1.325   0.846   4.022
  619SOL    HW1 3298   1.251   0.830   4.081
  619SOL    HW2 3299   1.287   0.844   3.935
  620SOL     OW 3300   1.749   1.733   4.859
  620SOL    HW1 3301   1.822   1.761   4.804
  620SOL    HW2 3302   1.743   1.639   4.845
  621SOL     OW 3303   1.236   1.734   4.821
  621SOL    HW1 3304   1.320   1.764   4.787
  621SOL    HW2 3305   1.250   1.642   4.844
  622SOL     OW 3306   0.048   1.191   4.753
  622SOL    HW1 3307   0.055   1.232   4.839
  622SOL    HW2 3308  -0.034   1.223   4.718
  623SOL     OW 3309   0.673   1.681   5.465
  623SOL    HW1 3310   0.607   1.750   5.469
  623SOL    HW2 3311   0.736   1.712   5.400
  624SOL     OW 3312   1.685   0.177   4.209
  624SOL    HW1 3313   1.757   0.162   4.148
  624SOL    HW2 3314   1.705   0.120   4.284
  625SOL     OW 3315   1.395   1.568   4.217
  625SOL    HW1 3316   1.454   1.604   4.151
  625SOL    HW2 3317   1.346   1.644   4.248
  626SOL     OW 3318   0.180   1.743   5.563
  626SOL    HW1 3319   0.113   1.698   5.615
  626SOL    HW2 3320   0.223   1.803   5.624
  627SOL     OW 3321   1.279   0.928   4.380
  627SOL    HW1 3322   1.354   0.870   4.393
  627SOL    HW2 3323   1.314   1.003   4.332
  628SOL     OW 3324   0.791   1.279   5.145
  628SOL    HW1 3325   0.764   1.324   5.225
  628SOL    HW2 3326   0.719   1.294   5.084
  629SOL     OW 3327   0.663   1.631   3.884
  629SOL    HW1 3328   0.677   1.644   3.790
  629SOL    HW2 3329   0.611   1.551   3.889
  630SOL     OW 3330   1.610   1.734   5.107
  630SOL    HW1 3331   1.663   1.738   5.028
  630SOL    HW2 3332   1.598   1.826   5.133
  631SOL     OW 3333   1.845   0.177   4.673
  631SOL    HW1 3334   1.848   0.088   4.706
  631SOL    HW2 3335   1.756   0.187   4.639
  632SOL     OW 3336   0.244   0.297   4.435
  632SOL    HW1 3337   0.162   0.340   4.414
  632SOL    HW2 3338   0.251   0.302   4.530
  633SOL     OW 3339   1.207   1.595   3.758
  633SOL    HW1 3340   1.196   1.505   3.788
  633SOL    HW2 3341   1.137   1.607   3.693
  634SOL     OW 3342   0.822   1.012   5.096
  634SOL    HW1 3343   0.856   1.012   5.006
  634SOL    HW2 3344   0.813   1.104   5.118
  635SOL     OW 3345   0.904   0.897   3.995
  635SOL    HW1 3346   0.969   0.940   3.940
  635SOL    HW2 3347   0.955   0.841   4.053
  636SOL     OW 3348   1.486   1.633   3.770
  636SOL    HW1 3349   1.392   1.621   3.754
  636SOL    HW2 3350   1.525   1.638   3.682
  637SOL     OW 3351   0.371   1.296   5.211
  637SOL    HW1 3352   0.352   1.377   5.163
  637SOL    HW2 3353   0.296   1.239   5.193
  638SOL     OW 3354   1.604   1.282   5.001
  638SOL    HW1 3355   1.667   1.265   5.071
  638SOL    HW2 3356   1.549   1.353   5.035
  639SOL     OW 3357   1.074   1.117   4.436
  639SOL    HW1 3358   0.998   1.071   4.473
  639SOL    HW2 3359   1.133   1.047   4.409
  640SOL     OW 3360   1.037   0.261   4.674
  640SOL    HW1 3361   1.015   0.207   4.598
  640SOL    HW2 3362   1.039   0.199   4.747
  641SOL     OW 3363   0.605   1.485   4.205
  641SOL    HW1 3364   0.655   1.440   4.136
  641SOL    HW2 3365   0.514   1.477   4.178
  642SOL     OW 3366   1.717   0.413   5.109
  642SOL    HW1 3367   1.784   0.481   5.119
  642SOL    HW2 3368   1.754   0.353   5.044
  643SOL     OW 3369   0.246   1.342   3.990
  643SOL    HW1 3370   0.150   1.346   3.985
  643SOL    HW2 3371   0.268   1.377   4.076
  644SOL     OW 3372   0.097   0.997   5.433
  644SOL    HW1 3373   0.063   1.083   5.456
  644SOL    HW2 3374   0.184   0.993   5.474
  645SOL     OW 3375   0.668   0.204   5.198
  645SOL    HW1 3376   0.748   0.159   5.170
  645SOL    HW2 3377   0.682   0.221   5.291
  646SOL     OW 3378   0.068   0.329   3.718
  646SOL    HW1 3379   0.021   0.384   3.781
  646SOL    HW2 3380   0.102   0.391   3.653
  647SOL     OW 3381   1.407   0.864   5.112
  647SOL    HW1 3382   1.366   0.928   5.054
  647SOL    HW2 3383   1.500   0.865   5.086
  648SOL     OW 3384   0.115   0.250   4.067
  648SOL    HW1 3385   0.046   0.250   4.001
  648SOL    HW2 3386   0.177   0.182   4.038
  649SOL     OW 3387   1.179   1.329   3.847
  649SOL    HW1 3388   1.091   1.293   3.851
  649SOL    HW2 3389   1.207   1.335   3.938
  650SOL     OW 3390   0.624   0.832   5.163
  650SOL    HW1 3391   0.677   0.910   5.148
  650SOL    HW2 3392   0.687   0.761   5.171
  651SOL     OW 3393   1.489   1.789   4.714
  651SOL    HW1 3394   1.512   1.861   4.656
  651SOL    HW2 3395   1.570   1.768   4.760
  652SOL     OW 3396   0.689   0.584   5.428
  652SOL    HW1 3397   0.745   0.644   5.475
  652SOL    HW2 3398   0.703   0.499   5.470
  653SOL     OW 3399   1.471   1.191   5.347
  653SOL    HW1 3400   1.462   1.207   5.441
  653SOL    HW2 3401   1.562   1.213   5.327
  654SOL     OW 3402   0.388   1.742   5.281
  654SOL    HW1 3403   0.298   1.769   5.260
  654SOL    HW2 3404   0.379   1.655   5.320
  655SOL     OW 3405   1.649   0.882   4.980
  655SOL    HW1 3406   1.650   0.799   4.931
  655SOL    HW2 3407   1.645   0.950   4.913
  656SOL     OW 3408   1.216   0.330   4.171
  656SOL    HW1 3409   1.284   0.264   4.157
  656SOL    HW2 3410   1.242   0.375   4.251
  657SOL     OW 3411   1.761   0.366   5.374
  657SOL    HW1 3412   1.744   0.387   5.282
  657SOL    HW2 3413   1.688   0.309   5.399
  658SOL     OW 3414   1.792   0.934   5.210
  658SOL    HW1 3415   1.736   0.980   5.273
  658SOL    HW2 3416   1.736   0.919   5.134
  659SOL     OW 3417   0.856   1.361   3.773
  659SOL    HW1 3418   0.826   1.376   3.862
  659SOL    HW2 3419   0.872   1.448   3.737
  660SOL     OW 3420   0.668   1.779   4.660
  660SOL    HW1 3421   0.652   1.871   4.640
  660SOL    HW2 3422   0.763   1.769   4.653
  661SOL     OW 3423   0.891   0.976   4.585
  661SOL    HW1 3424   0.936   0.900   4.622
  661SOL    HW2 3425   0.836   1.009   4.657
  662SOL     OW 3426   1.078   1.000   3.816
  662SOL    HW1 3427   1.052   1.049   3.738
  662SOL    HW2 3428   1.149   0.943   3.787
  663SOL     OW 3429   1.840   1.546   4.561
  663SOL    HW1 3430   1.759   1.540   4.509
  663SOL    HW2 3431   1.817   1.505   4.645
  664SOL     OW 3432   0.217   1.294   5.577
  664SOL    HW1 3433   0.124   1.283   5.561
  664SOL    HW2 3434   0.226   1.300   5.672
  665SOL     OW 3435   0.138   1.261   4.373
  665SOL    HW1 3436   0.070   1.209   4.418
  665SOL    HW2 3437   0.200   1.196   4.340
  666SOL     OW 3438   0.682   1.417   5.356
  666SOL    HW1 3439   0.602   1.375   5.388
  666SOL    HW2 3440   0.681   1.504   5.398
  667SOL     OW 3441   1.829   0.238   4.946
  667SOL    HW1 3442   1.806   0.146   4.960
  667SOL    HW2 3443   1.841   0.247   4.852
  668SOL     OW 3444   0.450   0.391   4.275
  668SOL    HW1 3445   0.439   0.354   4.188
  668SOL    HW2 3446   0.367   0.374   4.320
  669SOL     OW 3447   1.709   1.469   4.798
  669SOL    HW1 3448   1.623   1.452   4.760
  669SOL    HW2 3449   1.716   1.407   4.870
  670SOL     OW 3450   0.349   0.557   5.022
  670SOL    HW1 3451   0.398   0.496   5.077
  670SOL    HW2 3452   0.370   0.531   4.933
  671SOL     OW 3453   0.836   1.577   4.399
  671SOL    HW1 3454   0.803   1.640   4.336
  671SOL    HW2 3455   0.764   1.515   4.412
  672SOL     OW 3456   1.431   0.225   4.839
  672SOL    HW1 3457   1.491   0.166   4.883
  672SOL    HW2 3458   1.385   0.270   4.910
  673SOL     OW 3459   1.025   0.065   4.858
  673SOL    HW1 3460   0.949   0.019   4.823
  673SOL    HW2 3461   1.092  -0.003   4.866
  674SOL     OW 3462   0.780   1.337   4.041
  674SOL    HW1 3463   0.755   1.246   4.052
  674SOL    HW2 3464   0.857   1.348   4.097
  675SOL     OW 3465   0.625   1.563   5.010
  675SOL    HW1 3466   0.620   1.650   5.047
  675SOL    HW2 3467   0.715   1.556   4.978
  676SOL     OW 3468   1.342   7.976   3.836
  676SOL    HW1 3469   1.413   7.915   3.857
  676SOL    HW2 3470   1.269   7.949   3.892
  677SOL     OW 3471   1.296   0.465   4.398
  677SOL    HW1 3472   1.245   0.546   4.397
  677SOL    HW2 3473   1.285   0.431   4.487
  678SOL     OW 3474   1.596   0.221   4.587
  678SOL    HW1 3475   1.530   0.208   4.655
  678SOL    HW2 3476   1.571   0.303   4.545
  679SOL     OW 3477   0.034   1.032   4.002
  679SOL    HW1 3478   0.129   1.018   3.996
  679SOL    HW2 3479   0.019   1.056   4.093
  680SOL     OW 3480   0.893   1.668   4.057
  680SOL    HW1 3481   0.814   1.651   4.006
  680SOL    HW2 3482   0.867   1.737   4.118
  681SOL     OW 3483   0.235   0.707   5.670
  681SOL    HW1 3484   0.174   0.676   5.737
  681SOL    HW2 3485   0.246   0.632   5.611
  682SOL     OW 3486   0.221   0.296   6.582
  682SOL    HW1 3487   0.252   0.244   6.656
  682SOL    HW2 3488   0.130   0.270   6.571
  683SOL     OW 3489   8.005   0.379   6.198
  683SOL    HW1 3490   7.916   0.383   6.234
  683SOL    HW2 3491   8.016   0.289   6.169
  684SOL     OW 3492   0.563   1.302   6.773
  684SOL    HW1 3493   0.480   1.318   6.729
  684SOL    HW2 3494   0.589   1.388   6.806
  685SOL     OW 3495   1.576   1.514   6.294
  685SOL    HW1 3496   1.531   1.496   6.377
  685SOL    HW2 3497   1.506   1.521   6.230
  686SOL     OW 3498   1.128   0.706   6.277
  686SOL    HW1 3499   1.180   0.785   6.263
  686SOL    HW2 3500   1.086   0.720   6.362
  687SOL     OW 3501   1.804   0.579   5.819
  687SOL    HW1 3502   1.766   0.588   5.731
  687SOL    HW2 3503   1.751   0.511   5.861
  688SOL     OW 3504   0.728   1.131   6.632
  688SOL    HW1 3505   0.667   1.172   6.694
  688SOL    HW2 3506   0.775   1.204   6.592
  689SOL     OW 3507   0.847   0.758   7.410
  689SOL    HW1 3508   0.786   0.816   7.457
  689SOL    HW2 3509   0.882   0.813   7.340
  690SOL     OW 3510   0.686   0.994   6.233
  690SOL    HW1 3511   0.756   0.991   6.299
  690SOL    HW2 3512   0.621   1.053   6.270
  691SOL     OW 3513   0.746   1.162   7.354
  691SOL    HW1 3514   0.772   1.229   7.417
  691SOL    HW2 3515   0.690   1.102   7.404
  692SOL     OW 3516   0.335   1.422   6.655
  692SOL    HW1 3517   0.281   1.371   6.595
  692SOL    HW2 3518   0.387   1.479   6.598
  693SOL     OW 3519   1.461   1.505   6.953
  693SOL    HW1 3520   1.517   1.583   6.960
  693SOL    HW2 3521   1.394   1.518   7.020
  694SOL     OW 3522   0.421   0.338   7.068
  694SOL    HW1 3523   0.509   0.302   7.055
  694SOL    HW2 3524   0.403   0.325   7.161
  695SOL     OW 3525   1.614   0.469   6.315
  695SOL    HW1 3526   1.574   0.510   6.239
  695SOL    HW2 3527   1.606   0.534   6.385
  696SOL     OW 3528   0.240   1.692   6.070
  696SOL    HW1 3529   0.237   1.777   6.115
  696SOL    HW2 3530   0.305   1.704   6.001
  697SOL     OW 3531   1.140   1.348   7.282
  697SOL    HW1 3532   1.182   1.341   7.368
  697SOL    HW2 3533   1.095   1.264   7.271
  698SOL     OW 3534   0.271   1.426   6.093
  698SOL    HW1 3535   0.263   1.520   6.106
  698SOL    HW2 3536   0.227   1.387   6.169
  699SOL     OW 3537   0.272   1.079   6.477
  699SOL    HW1 3538   0.278   0.988   6.505
  699SOL    HW2 3539   0.198   1.114   6.528
  700SOL     OW 3540   0.594   1.808   6.995
  700SOL    HW1 3541   0.525   1.791   7.059
  700SOL    HW2 3542   0.634   1.889   7.024
  701SOL     OW 3543   0.570   0.994   5.732
  701SOL    HW1 3544   0.622   1.035   5.663
  701SOL    HW2 3545   0.611   1.024   5.814
  702SOL     OW 3546   1.589   0.157   7.036
  702SOL    HW1 3547   1.633   0.235   7.003
  702SOL    HW2 3548   1.572   0.176   7.129
  703SOL     OW 3549   0.126   0.625   6.131
  703SOL    HW1 3550   0.090   0.542   6.162
  703SOL    HW2 3551   0.119   0.684   6.207
  704SOL     OW 3552   1.845   1.748   5.915
  704SOL    HW1 3553   1.917   1.725   5.974
  704SOL    HW2 3554   1.859   1.841   5.895
  705SOL     OW 3555   0.024   1.582   5.724
  705SOL    HW1 3556   0.005   1.488   5.724
  705SOL    HW2 3557   0.005   1.610   5.814
  706SOL     OW 3558   1.683   0.911   6.226
  706SOL    HW1 3559   1.771   0.876   6.210
  706SOL    HW2 3560   1.666   0.968   6.151
  707SOL     OW 3561   1.652   1.104   6.023
  707SOL    HW1 3562   1.737   1.103   5.980
  707SOL    HW2 3563   1.662   1.166   6.096
  708SOL     OW 3564   0.140   0.775   7.157
  708SOL    HW1 3565   0.234   0.759   7.165
  708SOL    HW2 3566   0.124   0.849   7.216
  709SOL     OW 3567   0.611   1.394   6.322
  709SOL    HW1 3568   0.569   1.308   6.327
  709SOL    HW2 3569   0.601   1.421   6.231
  710SOL     OW 3570   1.284   1.232   7.004
  710SOL    HW1 3571   1.314   1.165   6.943
  710SOL    HW2 3572   1.345   1.229   7.077
  711SOL     OW 3573   0.841   0.017   6.128
  711SOL    HW1 3574   0.880   0.100   6.103
  711SOL    HW2 3575   0.748   0.036   6.139
  712SOL     OW 3576   0.170   0.917   6.846
  712SOL    HW1 3577   0.262   0.893   6.857
  712SOL    HW2 3578   0.153   0.906   6.752
  713SOL     OW 3579   1.478   1.033   5.813
  713SOL    HW1 3580   1.445   0.947   5.841
  713SOL    HW2 3581   1.551   1.051   5.873
  714SOL     OW 3582   1.172   1.816   7.215
  714SOL    HW1 3583   1.183   1.883   7.147
  714SOL    HW2 3584   1.201   1.735   7.175
  715SOL     OW 3585   0.357   0.267   7.353
  715SOL    HW1 3586   0.421   0.316   7.405
  715SOL    HW2 3587   0.273   0.283   7.396
  716SOL     OW 3588   1.462   1.421   6.531
  716SOL    HW1 3589   1.399   1.436   6.601
  716SOL    HW2 3590   1.451   1.329   6.507
  717SOL     OW 3591   1.653   1.761   6.162
  717SOL    HW1 3592   1.637   1.724   6.076
  717SOL    HW2 3593   1.638   1.689   6.223
  718SOL     OW 3594   0.594   0.714   5.854
  718SOL    HW1 3595   0.603   0.801   5.814
  718SOL    HW2 3596   0.533   0.727   5.926
  719SOL     OW 3597   1.291   0.377   6.520
  719SOL    HW1 3598   1.200   0.346   6.525
  719SOL    HW2 3599   1.338   0.321   6.583
  720SOL     OW 3600   1.580   1.670   5.897
  720SOL    HW1 3601   1.672   1.695   5.892
  720SOL    HW2 3602   1.555   1.653   5.806
  721SOL     OW 3603   0.793   0.629   7.033
  721SOL    HW1 3604   0.763   0.602   7.120
  721SOL    HW2 3605   0.760   0.561   6.974
  722SOL     OW 3606   1.410   0.494   7.261
  722SOL    HW1 3607   1.418   0.535   7.347
  722SOL    HW2 3608   1.465   0.416   7.266
  723SOL     OW 3609   0.949   0.881   7.175
  723SOL    HW1 3610   1.006   0.818   7.131
  723SOL    HW2 3611   0.901   0.923   7.103
  724SOL     OW 3612   0.992   0.411   6.819
  724SOL    HW1 3613   0.903   0.442   6.838
  724SOL    HW2 3614   0.989   0.382   6.728
  725SOL     OW 3615   1.051   0.702   6.009
  725SOL    HW1 3616   1.071   0.700   6.103
  725SOL    HW2 3617   0.969   0.653   6.001
  726SOL     OW 3618   0.102   0.782   6.359
  726SOL    HW1 3619   0.183   0.793   6.409
  726SOL    HW2 3620   0.053   0.862   6.374
  727SOL     OW 3621   0.881   0.346   5.767
  727SOL    HW1 3622   0.940   0.401   5.715
  727SOL    HW2 3623   0.914   0.257   5.754
  728SOL     OW 3624   1.680   0.574   7.429
  728SOL    HW1 3625   1.658   0.648   7.373
  728SOL    HW2 3626   1.720   0.510   7.370
  729SOL     OW 3627   1.379   1.136   6.110
  729SOL    HW1 3628   1.462   1.129   6.064
  729SOL    HW2 3629   1.331   1.204   6.063
  730SOL     OW 3630   0.503   0.224   6.501
  730SOL    HW1 3631   0.531   0.241   6.591
  730SOL    HW2 3632   0.537   0.299   6.452
  731SOL     OW 3633   0.992   1.445   6.052
  731SOL    HW1 3634   0.968   1.523   6.001
  731SOL    HW2 3635   0.973   1.469   6.143
  732SOL     OW 3636   0.369   1.831   6.453
  732SOL    HW1 3637   0.420   1.751   6.464
  732SOL    HW2 3638   0.431   1.902   6.469
  733SOL     OW 3639   1.799   1.033   6.468
  733SOL    HW1 3640   1.748   1.038   6.388
  733SOL    HW2 3641   1.735   1.046   6.538
  734SOL     OW 3642   1.225   1.545   7.102
  734SOL    HW1 3643   1.213   1.473   7.164
  734SOL    HW2 3644   1.157   1.531   7.036
  735SOL     OW 3645   0.302   0.945   5.815
  735SOL    HW1 3646   0.390   0.972   5.788
  735SOL    HW2 3647   0.284   0.868   5.761
  736SOL     OW 3648   1.475   0.756   6.307
  736SOL    HW1 3649   1.479   0.720   6.396
  736SOL    HW2 3650   1.554   0.810   6.300
  737SOL     OW 3651   0.451   1.298   7.341
  737SOL    HW1 3652   0.435   1.295   7.247
  737SOL    HW2 3653   0.376   1.252   7.379
  738SOL     OW 3654   1.122   1.782   5.800
  738SOL    HW1 3655   1.049   1.744   5.848
  738SOL    HW2 3656   1.150   1.713   5.741
  739SOL     OW 3657   0.123   0.256   7.077
  739SOL    HW1 3658   0.140   0.345   7.047
  739SOL    HW2 3659   0.168   0.251   7.162
  740SOL     OW 3660   1.632   1.381   5.680
  740SOL    HW1 3661   1.593   1.467   5.665
  740SOL    HW2 3662   1.564   1.318   5.655
  741SOL     OW 3663   0.461   1.737   5.903
  741SOL    HW1 3664   0.506   1.795   5.964
  741SOL    HW2 3665   0.530   1.708   5.843
  742SOL     OW 3666   1.416   0.130   5.995
  742SOL    HW1 3667   1.436   0.110   5.904
  742SOL    HW2 3668   1.501   0.140   6.037
  743SOL     OW 3669   0.229   1.791   6.800
  743SOL    HW1 3670   0.300   1.727   6.809
  743SOL    HW2 3671   0.197   1.778   6.710
  744SOL     OW 3672   0.944   1.699   6.484
  744SOL    HW1 3673   1.030   1.660   6.500
  744SOL    HW2 3674   0.907   1.647   6.413
  745SOL     OW 3675   0.408   0.696   6.062
  745SOL    HW1 3676   0.425   0.604   6.081
  745SOL    HW2 3677   0.314   0.707   6.078
  746SOL     OW 3678   1.516   0.234   7.297
  746SOL    HW1 3679   1.536   0.248   7.390
  746SOL    HW2 3680   1.442   0.174   7.296
  747SOL     OW 3681   0.555   0.094   5.704
  747SOL    HW1 3682   0.637   0.077   5.749
  747SOL    HW2 3683   0.572   0.069   5.613
  748SOL     OW 3684   0.731   0.276   7.360
  748SOL    HW1 3685   0.801   0.305   7.302
  748SOL    HW2 3686   0.761   0.298   7.448
  749SOL     OW 3687   0.867   1.511   6.783
  749SOL    HW1 3688   0.855   1.476   6.695
  749SOL    HW2 3689   0.943   1.463   6.818
  750SOL     OW 3690   1.343   0.594   7.015
  750SOL    HW1 3691   1.382   0.568   7.098
  750SOL    HW2 3692   1.377   0.681   6.999
  751SOL     OW 3693   0.819   1.377   6.534
  751SOL    HW1 3694   0.907   1.371   6.496
  751SOL    HW2 3695   0.762   1.394   6.459
  752SOL     OW 3696   0.920   0.515   6.478
  752SOL    HW1 3697   0.887   0.504   6.388
  752SOL    HW2 3698   0.960   0.431   6.499
  753SOL     OW 3699   0.563   0.030   6.028
  753SOL    HW1 3700   0.488   0.019   6.087
  753SOL    HW2 3701   0.553   0.119   5.993
  754SOL     OW 3702   1.419   1.212   5.618
  754SOL    HW1 3703   1.446   1.141   5.676
  754SOL    HW2 3704   1.339   1.246   5.657
  755SOL     OW 3705   0.281   0.047   5.799
  755SOL    HW1 3706   0.365   0.065   5.758
  755SOL    HW2 3707   0.299  -0.021   5.863
  756SOL     OW 3708   0.945   0.259   6.045
  756SOL    HW1 3709   0.914   0.297   5.962
  756SOL    HW2 3710   1.040   0.274   6.044
  757SOL     OW 3711   1.088   0.692   7.036
  757SOL    HW1 3712   1.029   0.619   7.054
  757SOL    HW2 3713   1.175   0.652   7.034
  758SOL     OW 3714   1.212   1.581   6.383
  758SOL    HW1 3715   1.228   1.644   6.312
  758SOL    HW2 3716   1.280   1.599   6.447
  759SOL     OW 3717   0.471   1.154   6.307
  759SOL    HW1 3718   0.409   1.132   6.375
  759SOL    HW2 3719   0.425   1.136   6.225
  760SOL     OW 3720   1.260   1.793   6.200
  760SOL    HW1 3721   1.314   1.854   6.149
  760SOL    HW2 3722   1.197   1.849   6.245
  761SOL     OW 3723   1.029   0.525   5.614
  761SOL    HW1 3724   0.988   0.610   5.598
  761SOL    HW2 3725   1.091   0.542   5.685
  762SOL     OW 3726   0.098   0.575   6.975
  762SOL    HW1 3727   0.189   0.570   6.947
  762SOL    HW2 3728   0.098   0.640   7.046
  763SOL     OW 3729   0.584   0.226   6.773
  763SOL    HW1 3730   0.622   0.187   6.852
  763SOL    HW2 3731   0.489   0.217   6.786
  764SOL     OW 3732   0.835   0.447   6.220
  764SOL    HW1 3733   0.812   0.511   6.152
  764SOL    HW2 3734   0.882   0.378   6.173
  765SOL     OW 3735   0.952   0.040   6.387
  765SOL    HW1 3736   0.913   0.034   6.300
  765SOL    HW2 3737   1.001  -0.042   6.396
  766SOL     OW 3738   1.450   1.160   6.442
  766SOL    HW1 3739   1.377   1.100   6.424
  766SOL    HW2 3740   1.493   1.172   6.357
  767SOL     OW 3741   1.466   0.612   6.547
  767SOL    HW1 3742   1.410   0.535   6.550
  767SOL    HW2 3743   1.523   0.604   6.624
  768SOL     OW 3744   1.831   0.805   5.977
  768SOL    HW1 3745   1.896   0.759   6.030
  768SOL    HW2 3746   1.819   0.749   5.900
  769SOL     OW 3747   0.492   1.418   5.724
  769SOL    HW1 3748   0.412   1.389   5.769
  769SOL    HW2 3749   0.493   1.367   5.643
  770SOL     OW 3750   1.678   1.254   6.248
  770SOL    HW1 3751   1.773   1.251   6.257
  770SOL    HW2 3752   1.656   1.347   6.260
  771SOL     OW 3753   1.390   0.578   5.658
  771SOL    HW1 3754   1.342   0.561   5.739
  771SOL    HW2 3755   1.482   0.579   5.685
  772SOL     OW 3756   0.504   0.273   5.903
  772SOL    HW1 3757   0.521   0.212   5.831
  772SOL    HW2 3758   0.496   0.359   5.860
  773SOL     OW 3759   1.746   1.243   7.147
  773SOL    HW1 3760   1.833   1.209   7.126
  773SOL    HW2 3761   1.761   1.334   7.173
  774SOL     OW 3762   1.058   1.347   6.910
  774SOL    HW1 3763   0.982   1.319   6.961
  774SOL    HW2 3764   1.132   1.307   6.955
  775SOL     OW 3765   1.608   1.626   7.245
  775SOL    HW1 3766   1.601   1.667   7.159
  775SOL    HW2 3767   1.691   1.579   7.243
  776SOL     OW 3768   1.117   1.196   6.683
  776SOL    HW1 3769   1.078   1.250   6.752
  776SOL    HW2 3770   1.104   1.246   6.603
  777SOL     OW 3771   1.615   1.091   6.661
  777SOL    HW1 3772   1.607   1.156   6.731
  777SOL    HW2 3773   1.545   1.113   6.599
  778SOL     OW 3774   0.908   0.126   6.971
  778SOL    HW1 3775   0.936   0.107   6.881
  778SOL    HW2 3776   0.989   0.149   7.017
  779SOL     OW 3777   1.007   1.110   7.306
  779SOL    HW1 3778   0.915   1.136   7.320
  779SOL    HW2 3779   1.001   1.028   7.257
  780SOL     OW 3780   0.707   1.061   5.963
  780SOL    HW1 3781   0.697   1.041   6.056
  780SOL    HW2 3782   0.781   1.007   5.935
  781SOL     OW 3783   0.424   0.817   6.846
  781SOL    HW1 3784   0.493   0.834   6.911
  781SOL    HW2 3785   0.399   0.726   6.861
  782SOL     OW 3786   1.260   0.369   6.880
  782SOL    HW1 3787   1.298   0.448   6.919
  782SOL    HW2 3788   1.171   0.395   6.855
  783SOL     OW 3789   0.064   1.597   6.915
  783SOL    HW1 3790   0.086   1.678   6.869
  783SOL    HW2 3791   0.149   1.561   6.941
  784SOL     OW 3792   0.321   1.108   6.074
  784SOL    HW1 3793   0.335   1.187   6.023
  784SOL    HW2 3794   0.333   1.036   6.012
  785SOL     OW 3795   0.554   0.518   6.438
  785SOL    HW1 3796   0.564   0.579   6.365
  785SOL    HW2 3797   0.616   0.550   6.504
  786SOL     OW 3798   1.245   1.355   5.980
  786SOL    HW1 3799   1.302   1.424   6.013
  786SOL    HW2 3800   1.158   1.376   6.015
  787SOL     OW 3801   1.295   1.463   6.744
  787SOL    HW1 3802   1.358   1.476   6.815
  787SOL    HW2 3803   1.232   1.399   6.779
  788SOL     OW 3804   1.581   0.629   6.076
  788SOL    HW1 3805   1.521   0.682   6.128
  788SOL    HW2 3806   1.642   0.692   6.037
  789SOL     OW 3807   0.347   1.536   6.903
  789SOL    HW1 3808   0.329   1.492   6.820
  789SOL    HW2 3809   0.442   1.543   6.905
  790SOL     OW 3810   0.428   0.717   7.193
  790SOL    HW1 3811   0.481   0.771   7.135
  790SOL    HW2 3812   0.491   0.669   7.246
  791SOL     OW 3813   1.611   0.787   7.279
  791SOL    HW1 3814   1.525   0.828   7.271
  791SOL    HW2 3815   1.664   0.827   7.210
  792SOL     OW 3816   1.041   0.080   7.320
  792SOL    HW1 3817   1.102   0.127   7.377
  792SOL    HW2 3818   1.053   0.120   7.234
  793SOL     OW 3819   0.425  -0.007   7.330
  793SOL    HW1 3820   0.518  -0.014   7.306
  793SOL    HW2 3821   0.409   0.087   7.335
  794SOL     OW 3822   0.585   0.881   6.621
  794SOL    HW1 3823   0.629   0.966   6.622
  794SOL    HW2 3824   0.535   0.879   6.703
  795SOL     OW 3825   1.338   0.856   6.601
  795SOL    HW1 3826   1.252   0.838   6.562
  795SOL    HW2 3827   1.387   0.775   6.590
  796SOL     OW 3828   1.189   0.517   5.845
  796SOL    HW1 3829   1.202   0.444   5.905
  796SOL    HW2 3830   1.166   0.591   5.901
  797SOL     OW 3831   0.319   0.196   6.831
  797SOL    HW1 3832   0.319   0.231   6.920
  797SOL    HW2 3833   0.302   0.103   6.842
  798SOL     OW 3834   0.050   1.311   6.859
  798SOL    HW1 3835   0.072   1.251   6.930
  798SOL    HW2 3836   0.042   1.397   6.901
  799SOL     OW 3837   0.709   0.630   6.630
  799SOL    HW1 3838   0.791   0.623   6.582
  799SOL    HW2 3839   0.684   0.722   6.620
  800SOL     OW 3840   1.747   0.954   7.457
  800SOL    HW1 3841   1.702   0.893   7.399
  800SOL    HW2 3842   1.681   0.978   7.522
  801SOL     OW 3843   0.357   0.082   6.233
  801SOL    HW1 3844   0.339   0.169   6.271
  801SOL    HW2 3845   0.371   0.025   6.308
  802SOL     OW 3846   1.619   0.399   5.935
  802SOL    HW1 3847   1.635   0.329   5.998
  802SOL    HW2 3848   1.596   0.475   5.989
  803SOL     OW 3849   1.029   0.759   6.539
  803SOL    HW1 3850   1.018   0.774   6.633
  803SOL    HW2 3851   0.998   0.669   6.526
  804SOL     OW 3852   0.974   1.568   7.310
  804SOL    HW1 3853   0.963   1.611   7.226
  804SOL    HW2 3854   1.019   1.486   7.290
  805SOL     OW 3855   1.849   1.498   7.187
  805SOL    HW1 3856   1.869   1.531   7.099
  805SOL    HW2 3857   1.928   1.515   7.238
  806SOL     OW 3858   0.333   0.932   7.350
  806SOL    HW1 3859   0.406   0.958   7.406
  806SOL    HW2 3860   0.366   0.856   7.302
  807SOL     OW 3861   1.541   0.258   5.714
  807SOL    HW1 3862   1.579   0.176   5.746
  807SOL    HW2 3863   1.562   0.323   5.781
  808SOL     OW 3864   1.279   0.826   5.610
  808SOL    HW1 3865   1.326   0.743   5.618
  808SOL    HW2 3866   1.317   0.869   5.533
  809SOL     OW 3867   1.073   1.345   6.447
  809SOL    HW1 3868   1.082   1.275   6.383
  809SOL    HW2 3869   1.129   1.416   6.414
  810SOL     OW 3870   0.321   0.807   6.530
  810SOL    HW1 3871   0.413   0.834   6.535
  810SOL    HW2 3872   0.320   0.719   6.566
  811SOL     OW 3873   0.341   0.532   6.604
  811SOL    HW1 3874   0.301   0.446   6.591
  811SOL    HW2 3875   0.415   0.534   6.543
  812SOL     OW 3876   1.143   0.436   7.248
  812SOL    HW1 3877   1.105   0.475   7.327
  812SOL    HW2 3878   1.234   0.465   7.249
  813SOL     OW 3879   1.140   0.219   7.084
  813SOL    HW1 3880   1.155   0.289   7.148
  813SOL    HW2 3881   1.190   0.246   7.007
  814SOL     OW 3882   7.979   1.304   5.789
  814SOL    HW1 3883   7.891   1.324   5.820
  814SOL    HW2 3884   7.988   1.210   5.800
  815SOL     OW 3885   0.129   1.745   6.545
  815SOL    HW1 3886   0.112   1.681   6.475
  815SOL    HW2 3887   0.204   1.795   6.513
  816SOL     OW 3888   0.493   1.574   6.495
  816SOL    HW1 3889   0.562   1.637   6.516
  816SOL    HW2 3890   0.534   1.513   6.434
  817SOL     OW 3891   0.966   0.777   6.804
  817SOL    HW1 3892   1.033   0.760   6.871
  817SOL    HW2 3893   0.883   0.769   6.851
  818SOL     OW 3894   0.070   0.547   6.707
  818SOL    HW1 3895   0.164   0.544   6.687
  818SOL    HW2 3896   0.066   0.557   6.802
  819SOL     OW 3897   0.184   0.495   7.255
  819SOL    HW1 3898   0.266   0.518   7.213
  819SOL    HW2 3899   0.171   0.564   7.321
  820SOL     OW 3900   1.381   0.930   7.239
  820SOL    HW1 3901   1.403   1.023   7.235
  820SOL    HW2 3902   1.377   0.903   7.147
  821SOL     OW 3903   0.814   0.563   5.954
  821SOL    HW1 3904   0.818   0.494   5.888
  821SOL    HW2 3905   0.743   0.620   5.925
  822SOL     OW 3906   1.637   0.595   6.759
  822SOL    HW1 3907   1.634   0.544   6.839
  822SOL    HW2 3908   1.726   0.583   6.726
  823SOL     OW 3909   0.308   1.538   7.315
  823SOL    HW1 3910   0.283   1.583   7.396
  823SOL    HW2 3911   0.354   1.459   7.344
  824SOL     OW 3912   0.716   0.460   6.839
  824SOL    HW1 3913   0.666   0.382   6.813
  824SOL    HW2 3914   0.704   0.521   6.766
  825SOL     OW 3915   0.915   1.680   7.061
  825SOL    HW1 3916   0.891   1.640   6.977
  825SOL    HW2 3917   0.919   1.773   7.043
  826SOL     OW 3918   0.454   0.495   5.752
  826SOL    HW1 3919   0.508   0.571   5.772
  826SOL    HW2 3920   0.369   0.514   5.793
  827SOL     OW 3921   0.143   1.121   7.035
  827SOL    HW1 3922   0.126   1.078   7.119
  827SOL    HW2 3923   0.153   1.049   6.973
  828SOL     OW 3924   1.309   1.038   6.801
  828SOL    HW1 3925   1.334   0.978   6.731
  828SOL    HW2 3926   1.241   1.093   6.762
  829SOL     OW 3927   1.311   0.812   5.890
  829SOL    HW1 3928   1.229   0.813   5.938
  829SOL    HW2 3929   1.286   0.828   5.799
  830SOL     OW 3930   1.761   1.731   6.733
  830SOL    HW1 3931   1.830   1.761   6.673
  830SOL    HW2 3932   1.749   1.639   6.711
  831SOL     OW 3933   1.237   1.726   6.671
  831SOL    HW1 3934   1.322   1.759   6.640
  831SOL    HW2 3935   1.256   1.637   6.701
  832SOL     OW 3936   0.059   1.184   6.622
  832SOL    HW1 3937   0.063   1.227   6.708
  832SOL    HW2 3938   0.001   1.239   6.570
  833SOL     OW 3939   0.686   1.678   7.337
  833SOL    HW1 3940   0.638   1.758   7.315
  833SOL    HW2 3941   0.769   1.687   7.289
  834SOL     OW 3942   1.679   0.161   6.074
  834SOL    HW1 3943   1.759   0.156   6.022
  834SOL    HW2 3944   1.703   0.126   6.160
  835SOL     OW 3945   1.392   1.570   6.079
  835SOL    HW1 3946   1.453   1.604   6.013
  835SOL    HW2 3947   1.345   1.648   6.110
  836SOL     OW 3948   0.160   1.744   7.434
  836SOL    HW1 3949   0.109   1.696   7.498
  836SOL    HW2 3950   0.214   1.804   7.485
  837SOL     OW 3951   1.276   0.934   6.253
  837SOL    HW1 3952   1.350   0.875   6.269
  837SOL    HW2 3953   1.311   1.002   6.196
  838SOL     OW 3954   0.811   1.276   7.016
  838SOL    HW1 3955   0.785   1.308   7.102
  838SOL    HW2 3956   0.743   1.308   6.957
  839SOL     OW 3957   0.668   1.625   5.743
  839SOL    HW1 3958   0.682   1.644   5.650
  839SOL    HW2 3959   0.612   1.547   5.743
  840SOL     OW 3960   1.615   1.729   6.975
  840SOL    HW1 3961   1.669   1.734   6.896
  840SOL    HW2 3962   1.602   1.821   7.001
  841SOL     OW 3963   1.845   0.173   6.530
  841SOL    HW1 3964   1.849   0.078   6.521
  841SOL    HW2 3965   1.762   0.198   6.491
  842SOL     OW 3966   0.263   0.328   6.308
  842SOL    HW1 3967   0.174   0.357   6.286
  842SOL    HW2 3968   0.263   0.322   6.403
  843SOL     OW 3969   1.210   1.592   5.621
  843SOL    HW1 3970   1.207   1.503   5.656
  843SOL    HW2 3971   1.133   1.598   5.564
  844SOL     OW 3972   0.829   1.009   6.959
  844SOL    HW1 3973   0.876   1.013   6.876
  844SOL    HW2 3974   0.822   1.101   6.987
  845SOL     OW 3975   0.906   0.903   5.877
  845SOL    HW1 3976   0.963   0.936   5.807
  845SOL    HW2 3977   0.961   0.841   5.925
  846SOL     OW 3978   1.489   1.630   5.630
  846SOL    HW1 3979   1.395   1.618   5.615
  846SOL    HW2 3980   1.527   1.635   5.543
  847SOL     OW 3981   0.344   1.307   7.091
  847SOL    HW1 3982   0.350   1.370   7.019
  847SOL    HW2 3983   0.281   1.242   7.061
  848SOL     OW 3984   1.599   1.286   6.855
  848SOL    HW1 3985   1.677   1.279   6.910
  848SOL    HW2 3986   1.546   1.353   6.897
  849SOL     OW 3987   1.066   1.116   6.299
  849SOL    HW1 3988   0.996   1.064   6.338
  849SOL    HW2 3989   1.133   1.051   6.276
  850SOL     OW 3990   1.025   0.264   6.540
  850SOL    HW1 3991   1.004   0.209   6.464
  850SOL    HW2 3992   1.033   0.201   6.612
  851SOL     OW 3993   0.608   1.486   6.067
  851SOL    HW1 3994   0.660   1.438   6.003
  851SOL    HW2 3995   0.539   1.528   6.016
  852SOL     OW 3996   1.719   0.403   6.968
  852SOL    HW1 3997   1.787   0.467   6.988
  852SOL    HW2 3998   1.759   0.344   6.904
  853SOL     OW 3999   0.248   1.333   5.846
  853SOL    HW1 4000   0.153   1.339   5.838
  853SOL    HW2 4001   0.267   1.372   5.932
  854SOL     OW 4002   0.076   1.002   7.299
  854SOL    HW1 4003   0.048   1.091   7.319
  854SOL    HW2 4004   0.164   0.995   7.335
  855SOL     OW 4005   0.661   0.203   7.063
  855SOL    HW1 4006   0.741   0.162   7.031
  855SOL    HW2 4007   0.677   0.219   7.156
  856SOL     OW 4008   0.090   0.355   5.614
  856SOL    HW1 4009   0.023   0.406   5.660
  856SOL    HW2 4010   0.120   0.413   5.544
  857SOL     OW 4011   1.420   0.857   6.977
  857SOL    HW1 4012   1.370   0.919   6.923
  857SOL    HW2 4013   1.509   0.862   6.944
  858SOL     OW 4014   0.088   0.251   5.886
  858SOL    HW1 4015   0.113   0.283   5.799
  858SOL    HW2 4016   0.149   0.179   5.904
  859SOL     OW 4017   1.182   1.331   5.712
  859SOL    HW1 4018   1.091   1.300   5.715
  859SOL    HW2 4019   1.209   1.334   5.804
  860SOL     OW 4020   0.620   0.838   7.026
  860SOL    HW1 4021   0.674   0.917   7.018
  860SOL    HW2 4022   0.684   0.767   7.035
  861SOL     OW 4023   1.489   1.789   6.569
  861SOL    HW1 4024   1.507   1.865   6.513
  861SOL    HW2 4025   1.571   1.773   6.616
  862SOL     OW 4026   0.679   0.581   7.280
  862SOL    HW1 4027   0.727   0.645   7.332
  862SOL    HW2 4028   0.710   0.496   7.311
  863SOL     OW 4029   1.475   1.189   7.209
  863SOL    HW1 4030   1.464   1.208   7.302
  863SOL    HW2 4031   1.566   1.211   7.190
  864SOL     OW 4032   0.367   1.726   7.136
  864SOL    HW1 4033   0.356   1.679   7.053
  864SOL    HW2 4034   0.357   1.658   7.203
  865SOL     OW 4035   1.659   0.879   6.839
  865SOL    HW1 4036   1.660   0.795   6.793
  865SOL    HW2 4037   1.649   0.945   6.770
  866SOL     OW 4038   1.213   0.314   6.035
  866SOL    HW1 4039   1.282   0.249   6.025
  866SOL    HW2 4040   1.238   0.364   6.113
  867SOL     OW 4041   0.592   0.732   6.265
  867SOL    HW1 4042   0.634   0.818   6.258
  867SOL    HW2 4043   0.530   0.729   6.192
  868SOL     OW 4044   1.772   0.357   7.277
  868SOL    HW1 4045   1.836   0.341   7.208
  868SOL    HW2 4046   1.689   0.327   7.241
  869SOL     OW 4047   1.740   0.935   7.097
  869SOL    HW1 4048   1.739   1.030   7.107
  869SOL    HW2 4049   1.726   0.921   7.003
  870SOL     OW 4050   0.853   1.358   5.638
  870SOL    HW1 4051   0.823   1.381   5.726
  870SOL    HW2 4052   0.877   1.441   5.598
  871SOL     OW 4053   0.667   1.778   6.519
  871SOL    HW1 4054   0.653   1.872   6.504
  871SOL    HW2 4055   0.763   1.769   6.518
  872SOL     OW 4056   0.872   0.973   6.439
  872SOL    HW1 4057   0.925   0.903   6.476
  872SOL    HW2 4058   0.833   1.016   6.515
  873SOL     OW 4059   1.058   0.972   5.667
  873SOL    HW1 4060   1.046   1.035   5.597
  873SOL    HW2 4061   1.140   0.927   5.646
  874SOL     OW 4062   1.842   1.545   6.421
  874SOL    HW1 4063   1.762   1.543   6.368
  874SOL    HW2 4064   1.816   1.507   6.505
  875SOL     OW 4065   0.198   1.269   7.441
  875SOL    HW1 4066   0.103   1.277   7.433
  875SOL    HW2 4067   0.216   1.290   7.533
  876SOL     OW 4068   0.129   1.256   6.253
  876SOL    HW1 4069   0.054   1.206   6.287
  876SOL    HW2 4070   0.192   1.189   6.225
  877SOL     OW 4071   0.670   1.423   7.204
  877SOL    HW1 4072   0.624   1.361   7.260
  877SOL    HW2 4073   0.668   1.506   7.252
  878SOL     OW 4074   1.822   0.226   6.799
  878SOL    HW1 4075   1.861   0.143   6.828
  878SOL    HW2 4076   1.826   0.223   6.704
  879SOL     OW 4077   0.439   0.434   6.122
  879SOL    HW1 4078   0.450   0.366   6.055
  879SOL    HW2 4079   0.378   0.395   6.185
  880SOL     OW 4080   1.706   1.473   6.655
  880SOL    HW1 4081   1.620   1.459   6.616
  880SOL    HW2 4082   1.710   1.409   6.727
  881SOL     OW 4083   0.351   0.550   6.885
  881SOL    HW1 4084   0.395   0.484   6.939
  881SOL    HW2 4085   0.373   0.527   6.795
  882SOL     OW 4086   0.836   1.590   6.256
  882SOL    HW1 4087   0.822   1.668   6.201
  882SOL    HW2 4088   0.757   1.538   6.244
  883SOL     OW 4089   1.422   0.224   6.701
  883SOL    HW1 4090   1.491   0.168   6.738
  883SOL    HW2 4091   1.384   0.268   6.777
  884SOL     OW 4092   1.050   0.069   6.727
  884SOL    HW1 4093   1.017  -0.019   6.745
  884SOL    HW2 4094   1.145   0.062   6.739
  885SOL     OW 4095   0.777   1.332   5.911
  885SOL    HW1 4096   0.755   1.240   5.925
  885SOL    HW2 4097   0.857   1.346   5.962
  886SOL     OW 4098   0.616   1.563   6.869
  886SOL    HW1 4099   0.618   1.649   6.912
  886SOL    HW2 4100   0.705   1.550   6.837
  887SOL     OW 4101   1.363   7.994   5.717
  887SOL    HW1 4102   1.439   7.937   5.731
  887SOL    HW2 4103   1.302   7.969   5.786
  888SOL     OW 4104   1.269   0.460   6.255
  888SOL    HW1 4105   1.231   0.547   6.263
  888SOL    HW2 4106   1.290   0.435   6.346
  889SOL     OW 4107   1.601   0.223   6.435
  889SOL    HW1 4108   1.526   0.220   6.495
  889SOL    HW2 4109   1.592   0.308   6.391
  890SOL     OW 4110   0.043   1.033   5.866
  890SOL    HW1 4111   0.132   1.016   5.837
  890SOL    HW2 4112   0.050   1.051   5.960
  891SOL     OW 4113   0.891   1.665   5.917
  891SOL    HW1 4114   0.814   1.651   5.862
  891SOL    HW2 4115   0.866   1.735   5.977
  892SOL     OW 4116   0.189   0.643   7.484
  892SOL    HW1 4117   0.137   0.669   7.560
  892SOL    HW2 4118   0.273   0.616   7.520
  893SOL     OW 4119   0.237   0.289   8.429
  893SOL    HW1 4120   0.276   0.219   8.481
  893SOL    HW2 4121   0.144   0.268   8.425
  894SOL     OW 4122   8.002   0.385   8.058
  894SOL    HW1 4123   7.914   0.383   8.097
  894SOL    HW2 4124   8.008   0.303   8.009
  895SOL     OW 4125   0.570   1.302   8.643
  895SOL    HW1 4126   0.488   1.308   8.595
  895SOL    HW2 4127   0.588   1.392   8.672
  896SOL     OW 4128   1.581   1.515   8.152
  896SOL    HW1 4129   1.533   1.492   8.231
  896SOL    HW2 4130   1.514   1.522   8.084
  897SOL     OW 4131   1.136   0.701   8.142
  897SOL    HW1 4132   1.183   0.783   8.127
  897SOL    HW2 4133   1.087   0.717   8.223
  898SOL     OW 4134   1.784   0.601   7.675
  898SOL    HW1 4135   1.750   0.602   7.585
  898SOL    HW2 4136   1.746   0.523   7.714
  899SOL     OW 4137   0.744   1.135   8.510
  899SOL    HW1 4138   0.678   1.176   8.566
  899SOL    HW2 4139   0.782   1.208   8.461
  900SOL     OW 4140   0.880   0.754   9.266
  900SOL    HW1 4141   0.872   0.826   9.328
  900SOL    HW2 4142   0.900   0.796   9.183
  901SOL     OW 4143   0.686   0.983   8.110
  901SOL    HW1 4144   0.755   0.986   8.176
  901SOL    HW2 4145   0.621   1.046   8.141
  902SOL     OW 4146   0.717   1.157   9.281
  902SOL    HW1 4147   0.768   1.234   9.306
  902SOL    HW2 4148   0.642   1.193   9.232
  903SOL     OW 4149   0.337   1.409   8.517
  903SOL    HW1 4150   0.265   1.367   8.471
  903SOL    HW2 4151   0.378   1.465   8.451
  904SOL     OW 4152   1.460   1.500   8.818
  904SOL    HW1 4153   1.514   1.579   8.823
  904SOL    HW2 4154   1.388   1.516   8.880
  905SOL     OW 4155   0.446   0.387   8.977
  905SOL    HW1 4156   0.533   0.347   8.966
  905SOL    HW2 4157   0.385   0.320   8.947
  906SOL     OW 4158   1.610   0.463   8.170
  906SOL    HW1 4159   1.550   0.483   8.098
  906SOL    HW2 4160   1.609   0.542   8.224
  907SOL     OW 4161   0.252   1.678   7.937
  907SOL    HW1 4162   0.194   1.748   7.968
  907SOL    HW2 4163   0.312   1.722   7.877
  908SOL     OW 4164   1.140   1.339   9.142
  908SOL    HW1 4165   1.181   1.328   9.227
  908SOL    HW2 4166   1.089   1.258   9.129
  909SOL     OW 4167   0.297   1.417   7.954
  909SOL    HW1 4168   0.282   1.512   7.961
  909SOL    HW2 4169   0.241   1.380   8.022
  910SOL     OW 4170   0.276   1.089   8.339
  910SOL    HW1 4171   0.281   1.003   8.381
  910SOL    HW2 4172   0.215   1.139   8.394
  911SOL     OW 4173   0.607   1.799   8.869
  911SOL    HW1 4174   0.527   1.779   8.918
  911SOL    HW2 4175   0.631   1.887   8.897
  912SOL     OW 4176   1.665   0.114   8.949
  912SOL    HW1 4177   1.616   0.116   8.867
  912SOL    HW2 4178   1.606   0.153   9.013
  913SOL     OW 4179   0.128   0.621   7.991
  913SOL    HW1 4180   0.088   0.539   8.020
  913SOL    HW2 4181   0.117   0.681   8.065
  914SOL     OW 4182   1.846   1.752   7.781
  914SOL    HW1 4183   1.922   1.730   7.835
  914SOL    HW2 4184   1.862   1.843   7.754
  915SOL     OW 4185   0.018   1.581   7.593
  915SOL    HW1 4186   0.003   1.488   7.582
  915SOL    HW2 4187   0.005   1.597   7.687
  916SOL     OW 4188   1.692   0.920   8.089
  916SOL    HW1 4189   1.768   0.875   8.051
  916SOL    HW2 4190   1.663   0.980   8.020
  917SOL     OW 4191   1.649   1.106   7.881
  917SOL    HW1 4192   1.735   1.103   7.839
  917SOL    HW2 4193   1.659   1.169   7.952
  918SOL     OW 4194   0.164   0.768   9.063
  918SOL    HW1 4195   0.259   0.766   9.070
  918SOL    HW2 4196   0.147   0.800   8.974
  919SOL     OW 4197   0.613   1.392   8.192
  919SOL    HW1 4198   0.571   1.306   8.194
  919SOL    HW2 4199   0.605   1.421   8.102
  920SOL     OW 4200   1.278   1.228   8.873
  920SOL    HW1 4201   1.305   1.163   8.808
  920SOL    HW2 4202   1.345   1.224   8.941
  921SOL     OW 4203   0.839   0.034   8.011
  921SOL    HW1 4204   0.877   0.114   7.973
  921SOL    HW2 4205   0.745   0.041   7.993
  922SOL     OW 4206   1.530   1.003   7.649
  922SOL    HW1 4207   1.463   0.943   7.683
  922SOL    HW2 4208   1.573   1.038   7.728
  923SOL     OW 4209   1.176   1.814   9.083
  923SOL    HW1 4210   1.180   1.882   9.016
  923SOL    HW2 4211   1.197   1.733   9.036
  924SOL     OW 4212   0.329   0.237   9.240
  924SOL    HW1 4213   0.385   0.314   9.251
  924SOL    HW2 4214   0.245   0.262   9.280
  925SOL     OW 4215   1.467   1.422   8.386
  925SOL    HW1 4216   1.402   1.438   8.454
  925SOL    HW2 4217   1.455   1.330   8.362
  926SOL     OW 4218   1.652   1.766   8.024
  926SOL    HW1 4219   1.640   1.734   7.935
  926SOL    HW2 4220   1.637   1.690   8.079
  927SOL     OW 4221   0.598   0.698   7.727
  927SOL    HW1 4222   0.608   0.774   7.669
  927SOL    HW2 4223   0.541   0.729   7.797
  928SOL     OW 4224   1.301   0.374   8.386
  928SOL    HW1 4225   1.209   0.348   8.385
  928SOL    HW2 4226   1.341   0.316   8.451
  929SOL     OW 4227   1.581   1.671   7.760
  929SOL    HW1 4228   1.673   1.696   7.751
  929SOL    HW2 4229   1.551   1.657   7.671
  930SOL     OW 4230   0.770   0.643   8.895
  930SOL    HW1 4231   0.757   0.605   8.982
  930SOL    HW2 4232   0.756   0.571   8.835
  931SOL     OW 4233   1.406   0.491   9.124
  931SOL    HW1 4234   1.412   0.536   9.208
  931SOL    HW2 4235   1.475   0.425   9.127
  932SOL     OW 4236   0.947   0.884   9.031
  932SOL    HW1 4237   0.998   0.813   8.991
  932SOL    HW2 4238   0.898   0.922   8.958
  933SOL     OW 4239   1.002   0.412   8.659
  933SOL    HW1 4240   0.913   0.431   8.687
  933SOL    HW2 4241   0.992   0.379   8.570
  934SOL     OW 4242   1.059   0.694   7.870
  934SOL    HW1 4243   1.076   0.692   7.964
  934SOL    HW2 4244   0.973   0.653   7.860
  935SOL     OW 4245   0.098   0.784   8.212
  935SOL    HW1 4246   0.179   0.800   8.261
  935SOL    HW2 4247   0.061   0.872   8.198
  936SOL     OW 4248   0.131   1.843   9.010
  936SOL    HW1 4249   0.131   1.826   9.105
  936SOL    HW2 4250   0.049   1.805   8.979
  937SOL     OW 4251   0.887   0.349   7.630
  937SOL    HW1 4252   0.940   0.407   7.576
  937SOL    HW2 4253   0.920   0.261   7.610
  938SOL     OW 4254   1.718   0.583   9.286
  938SOL    HW1 4255   1.681   0.656   9.236
  938SOL    HW2 4256   1.736   0.516   9.220
  939SOL     OW 4257   1.381   1.140   7.980
  939SOL    HW1 4258   1.461   1.133   7.929
  939SOL    HW2 4259   1.328   1.205   7.933
  940SOL     OW 4260   0.546   0.208   8.386
  940SOL    HW1 4261   0.527   0.285   8.440
  940SOL    HW2 4262   0.571   0.244   8.301
  941SOL     OW 4263   1.001   1.452   7.915
  941SOL    HW1 4264   0.973   1.527   7.862
  941SOL    HW2 4265   0.970   1.473   8.003
  942SOL     OW 4266   0.362   1.824   8.305
  942SOL    HW1 4267   0.405   1.739   8.314
  942SOL    HW2 4268   0.432   1.888   8.319
  943SOL     OW 4269   1.801   1.035   8.334
  943SOL    HW1 4270   1.757   1.032   8.249
  943SOL    HW2 4271   1.730   1.045   8.398
  944SOL     OW 4272   1.223   1.541   8.962
  944SOL    HW1 4273   1.213   1.465   9.019
  944SOL    HW2 4274   1.161   1.525   8.890
  945SOL     OW 4275   0.309   0.957   7.678
  945SOL    HW1 4276   0.397   0.984   7.652
  945SOL    HW2 4277   0.292   0.878   7.626
  946SOL     OW 4278   1.486   0.756   8.168
  946SOL    HW1 4279   1.484   0.723   8.258
  946SOL    HW2 4280   1.564   0.813   8.165
  947SOL     OW 4281   0.465   1.268   9.194
  947SOL    HW1 4282   0.444   1.275   9.101
  947SOL    HW2 4283   0.380   1.252   9.236
  948SOL     OW 4284   1.126   1.776   7.676
  948SOL    HW1 4285   1.047   1.738   7.716
  948SOL    HW2 4286   1.151   1.713   7.608
  949SOL     OW 4287   0.171   0.271   8.948
  949SOL    HW1 4288   0.143   0.362   8.933
  949SOL    HW2 4289   0.185   0.266   9.042
  950SOL     OW 4290   1.623   1.382   7.550
  950SOL    HW1 4291   1.587   1.468   7.529
  950SOL    HW2 4292   1.556   1.320   7.519
  951SOL     OW 4293   0.464   1.752   7.757
  951SOL    HW1 4294   0.513   1.801   7.823
  951SOL    HW2 4295   0.531   1.707   7.706
  952SOL     OW 4296   1.419   0.128   7.865
  952SOL    HW1 4297   1.425   0.094   7.776
  952SOL    HW2 4298   1.510   0.138   7.894
  953SOL     OW 4299   0.234   1.784   8.676
  953SOL    HW1 4300   0.293   1.709   8.690
  953SOL    HW2 4301   0.204   1.774   8.586
  954SOL     OW 4302   0.947   1.697   8.341
  954SOL    HW1 4303   1.033   1.656   8.348
  954SOL    HW2 4304   0.903   1.648   8.270
  955SOL     OW 4305   0.403   0.692   7.937
  955SOL    HW1 4306   0.426   0.600   7.950
  955SOL    HW2 4307   0.308   0.695   7.947
  956SOL     OW 4308   1.540   0.222   9.175
  956SOL    HW1 4309   1.552   0.256   9.264
  956SOL    HW2 4310   1.456   0.176   9.178
  957SOL     OW 4311   0.562   0.096   7.569
  957SOL    HW1 4312   0.647   0.078   7.610
  957SOL    HW2 4313   0.576   0.076   7.477
  958SOL     OW 4314   0.743   0.287   9.231
  958SOL    HW1 4315   0.783   0.201   9.220
  958SOL    HW2 4316   0.677   0.274   9.299
  959SOL     OW 4317   0.871   1.519   8.646
  959SOL    HW1 4318   0.857   1.485   8.557
  959SOL    HW2 4319   0.945   1.469   8.679
  960SOL     OW 4320   1.336   0.597   8.879
  960SOL    HW1 4321   1.374   0.570   8.962
  960SOL    HW2 4322   1.372   0.684   8.864
  961SOL     OW 4323   0.819   1.381   8.398
  961SOL    HW1 4324   0.905   1.376   8.356
  961SOL    HW2 4325   0.758   1.394   8.325
  962SOL     OW 4326   0.925   0.520   8.338
  962SOL    HW1 4327   0.895   0.512   8.248
  962SOL    HW2 4328   0.965   0.435   8.358
  963SOL     OW 4329   0.583   0.045   7.893
  963SOL    HW1 4330   0.505   0.014   7.939
  963SOL    HW2 4331   0.557   0.130   7.856
  964SOL     OW 4332   1.425   1.202   7.482
  964SOL    HW1 4333   1.454   1.128   7.536
  964SOL    HW2 4334   1.340   1.225   7.517
  965SOL     OW 4335   0.290   0.051   7.662
  965SOL    HW1 4336   0.373   0.067   7.618
  965SOL    HW2 4337   0.310  -0.015   7.728
  966SOL     OW 4338   0.946   0.263   7.905
  966SOL    HW1 4339   0.915   0.297   7.821
  966SOL    HW2 4340   1.040   0.278   7.903
  967SOL     OW 4341   1.075   0.674   8.912
  967SOL    HW1 4342   1.022   0.594   8.921
  967SOL    HW2 4343   1.165   0.642   8.900
  968SOL     OW 4344   1.209   1.589   8.251
  968SOL    HW1 4345   1.223   1.647   8.175
  968SOL    HW2 4346   1.285   1.604   8.307
  969SOL     OW 4347   0.477   1.153   8.172
  969SOL    HW1 4348   0.410   1.135   8.238
  969SOL    HW2 4349   0.434   1.136   8.088
  970SOL     OW 4350   1.259   1.793   8.063
  970SOL    HW1 4351   1.312   1.852   8.009
  970SOL    HW2 4352   1.191   1.850   8.100
  971SOL     OW 4353   1.021   0.540   7.476
  971SOL    HW1 4354   0.970   0.619   7.460
  971SOL    HW2 4355   1.083   0.564   7.544
  972SOL     OW 4356   0.084   0.537   8.863
  972SOL    HW1 4357   0.167   0.515   8.821
  972SOL    HW2 4358   0.081   0.632   8.861
  973SOL     OW 4359   0.555   0.248   8.677
  973SOL    HW1 4360   0.599   0.186   8.736
  973SOL    HW2 4361   0.464   0.220   8.676
  974SOL     OW 4362   0.857   0.464   8.081
  974SOL    HW1 4363   0.828   0.520   8.009
  974SOL    HW2 4364   0.885   0.383   8.038
  975SOL     OW 4365   0.948   0.037   8.257
  975SOL    HW1 4366   0.908   0.042   8.170
  975SOL    HW2 4367   0.994  -0.046   8.258
  976SOL     OW 4368   1.448   1.160   8.300
  976SOL    HW1 4369   1.370   1.110   8.279
  976SOL    HW2 4370   1.493   1.172   8.216
  977SOL     OW 4371   1.464   0.616   8.411
  977SOL    HW1 4372   1.412   0.536   8.408
  977SOL    HW2 4373   1.522   0.605   8.486
  978SOL     OW 4374   1.836   0.806   7.846
  978SOL    HW1 4375   1.902   0.760   7.898
  978SOL    HW2 4376   1.817   0.746   7.774
  979SOL     OW 4377   0.491   1.425   7.588
  979SOL    HW1 4378   0.413   1.391   7.632
  979SOL    HW2 4379   0.502   1.369   7.511
  980SOL     OW 4380   1.678   1.254   8.107
  980SOL    HW1 4381   1.774   1.249   8.115
  980SOL    HW2 4382   1.658   1.347   8.114
  981SOL     OW 4383   1.392   0.575   7.520
  981SOL    HW1 4384   1.337   0.556   7.596
  981SOL    HW2 4385   1.482   0.570   7.553
  982SOL     OW 4386   0.504   0.278   7.760
  982SOL    HW1 4387   0.524   0.217   7.689
  982SOL    HW2 4388   0.497   0.363   7.717
  983SOL     OW 4389   1.748   1.240   9.018
  983SOL    HW1 4390   1.834   1.208   8.992
  983SOL    HW2 4391   1.762   1.332   9.040
  984SOL     OW 4392   1.052   1.358   8.787
  984SOL    HW1 4393   0.975   1.324   8.832
  984SOL    HW2 4394   1.125   1.310   8.824
  985SOL     OW 4395   1.612   1.627   9.112
  985SOL    HW1 4396   1.598   1.665   9.025
  985SOL    HW2 4397   1.693   1.577   9.104
  986SOL     OW 4398   1.143   1.225   8.552
  986SOL    HW1 4399   1.075   1.258   8.611
  986SOL    HW2 4400   1.117   1.257   8.465
  987SOL     OW 4401   1.608   1.085   8.523
  987SOL    HW1 4402   1.598   1.152   8.590
  987SOL    HW2 4403   1.540   1.106   8.458
  988SOL     OW 4404   0.922   0.125   8.850
  988SOL    HW1 4405   0.932   0.111   8.756
  988SOL    HW2 4406   1.011   0.121   8.885
  989SOL     OW 4407   0.984   1.110   9.177
  989SOL    HW1 4408   0.892   1.128   9.197
  989SOL    HW2 4409   0.981   1.035   9.117
  990SOL     OW 4410   0.724   1.093   7.854
  990SOL    HW1 4411   0.711   1.049   7.938
  990SOL    HW2 4412   0.779   1.032   7.804
  991SOL     OW 4413   0.431   0.805   8.682
  991SOL    HW1 4414   0.480   0.821   8.763
  991SOL    HW2 4415   0.340   0.819   8.707
  992SOL     OW 4416   1.261   0.377   8.736
  992SOL    HW1 4417   1.293   0.460   8.773
  992SOL    HW2 4418   1.173   0.398   8.703
  993SOL     OW 4419   0.055   1.593   8.775
  993SOL    HW1 4420   0.103   1.666   8.735
  993SOL    HW2 4421   0.112   1.561   8.844
  994SOL     OW 4422   0.328   1.106   7.940
  994SOL    HW1 4423   0.351   1.185   7.892
  994SOL    HW2 4424   0.344   1.035   7.877
  995SOL     OW 4425   0.548   0.525   8.315
  995SOL    HW1 4426   0.561   0.583   8.241
  995SOL    HW2 4427   0.616   0.551   8.378
  996SOL     OW 4428   1.247   1.351   7.843
  996SOL    HW1 4429   1.304   1.422   7.872
  996SOL    HW2 4430   1.160   1.375   7.874
  997SOL     OW 4431   1.298   1.462   8.596
  997SOL    HW1 4432   1.351   1.464   8.676
  997SOL    HW2 4433   1.246   1.382   8.603
  998SOL     OW 4434   1.570   0.626   7.931
  998SOL    HW1 4435   1.521   0.677   7.995
  998SOL    HW2 4436   1.621   0.691   7.882
  999SOL     OW 4437   0.349   1.526   8.760
  999SOL    HW1 4438   0.335   1.481   8.677
  999SOL    HW2 4439   0.443   1.541   8.763
 1000SOL     OW 4440   0.440   0.729   9.077
 1000SOL    HW1 4441   0.487   0.778   9.009
 1000SOL    HW2 4442   0.498   0.655   9.097
 1001SOL     OW 4443   1.618   0.790   9.142
 1001SOL    HW1 4444   1.531   0.829   9.131
 1001SOL    HW2 4445   1.669   0.827   9.070
 1002SOL     OW 4446   1.049   0.075   9.196
 1002SOL    HW1 4447   1.064   0.166   9.171
 1002SOL    HW2 4448   0.954   0.062   9.184
 1003SOL     OW 4449   0.507   0.032   9.181
 1003SOL    HW1 4450   0.481  -0.032   9.114
 1003SOL    HW2 4451   0.434   0.093   9.187
 1004SOL     OW 4452   0.596   0.868   8.475
 1004SOL    HW1 4453   0.624   0.960   8.485
 1004SOL    HW2 4454   0.537   0.853   8.549
 1005SOL     OW 4455   1.334   0.854   8.471
 1005SOL    HW1 4456   1.251   0.843   8.425
 1005SOL    HW2 4457   1.382   0.773   8.455
 1006SOL     OW 4458   1.197   0.521   7.707
 1006SOL    HW1 4459   1.207   0.446   7.766
 1006SOL    HW2 4460   1.159   0.589   7.762
 1007SOL     OW 4461   0.290   0.176   8.707
 1007SOL    HW1 4462   0.250   0.233   8.772
 1007SOL    HW2 4463   0.217   0.136   8.661
 1008SOL     OW 4464   0.024   1.305   8.735
 1008SOL    HW1 4465   0.066   1.252   8.803
 1008SOL    HW2 4466   0.045   1.396   8.760
 1009SOL     OW 4467   0.724   0.625   8.501
 1009SOL    HW1 4468   0.798   0.613   8.441
 1009SOL    HW2 4469   0.693   0.714   8.483
 1010SOL     OW 4470   1.750   0.956   9.321
 1010SOL    HW1 4471   1.709   0.893   9.262
 1010SOL    HW2 4472   1.680   0.982   9.381
 1011SOL     OW 4473   0.391   0.087   8.111
 1011SOL    HW1 4474   0.346   0.169   8.131
 1011SOL    HW2 4475   0.340   0.019   8.155
 1012SOL     OW 4476   1.621   0.399   7.790
 1012SOL    HW1 4477   1.635   0.327   7.851
 1012SOL    HW2 4478   1.593   0.472   7.845
 1013SOL     OW 4479   1.032   0.761   8.407
 1013SOL    HW1 4480   1.020   0.774   8.501
 1013SOL    HW2 4481   1.000   0.673   8.390
 1014SOL     OW 4482   0.979   1.558   9.170
 1014SOL    HW1 4483   0.961   1.606   9.089
 1014SOL    HW2 4484   1.030   1.482   9.141
 1015SOL     OW 4485   1.849   1.499   9.047
 1015SOL    HW1 4486   1.870   1.526   8.958
 1015SOL    HW2 4487   1.930   1.512   9.096
 1016SOL     OW 4488   0.386   0.938   9.251
 1016SOL    HW1 4489   0.465   0.953   9.303
 1016SOL    HW2 4490   0.410   0.866   9.192
 1017SOL     OW 4491   1.533   0.255   7.570
 1017SOL    HW1 4492   1.568   0.171   7.602
 1017SOL    HW2 4493   1.561   0.319   7.636
 1018SOL     OW 4494   1.282   0.825   7.472
 1018SOL    HW1 4495   1.325   0.740   7.475
 1018SOL    HW2 4496   1.313   0.865   7.391
 1019SOL     OW 4497   1.075   1.348   8.312
 1019SOL    HW1 4498   1.081   1.277   8.249
 1019SOL    HW2 4499   1.127   1.419   8.274
 1020SOL     OW 4500   0.313   0.816   8.384
 1020SOL    HW1 4501   0.407   0.832   8.372
 1020SOL    HW2 4502   0.309   0.734   8.433
 1021SOL     OW 4503   0.325   0.541   8.462
 1021SOL    HW1 4504   0.294   0.451   8.451
 1021SOL    HW2 4505   0.403   0.546   8.408
 1022SOL     OW 4506   1.166   0.356   9.162
 1022SOL    HW1 4507   1.097   0.414   9.194
 1022SOL    HW2 4508   1.239   0.415   9.143
 1023SOL     OW 4509   1.175   0.210   8.930
 1023SOL    HW1 4510   1.173   0.265   9.008
 1023SOL    HW2 4511   1.203   0.268   8.859
 1024SOL     OW 4512   7.977   1.304   7.642
 1024SOL    HW1 4513   7.890   1.323   7.678
 1024SOL    HW2 4514   7.989   1.210   7.659
 1025SOL     OW 4515   0.125   1.780   8.429
 1025SOL    HW1 4516   0.053   1.764   8.369
 1025SOL    HW2 4517   0.202   1.788   8.373
 1026SOL     OW 4518   0.490   1.577   8.356
 1026SOL    HW1 4519   0.560   1.638   8.381
 1026SOL    HW2 4520   0.532   1.515   8.297
 1027SOL     OW 4521   0.968   0.778   8.674
 1027SOL    HW1 4522   1.026   0.758   8.747
 1027SOL    HW2 4523   0.881   0.749   8.703
 1028SOL     OW 4524   0.069   0.546   8.571
 1028SOL    HW1 4525   0.161   0.546   8.546
 1028SOL    HW2 4526   0.068   0.583   8.659
 1029SOL     OW 4527   0.215   0.514   9.144
 1029SOL    HW1 4528   0.297   0.498   9.097
 1029SOL    HW2 4529   0.182   0.596   9.108
 1030SOL     OW 4530   1.384   0.930   9.104
 1030SOL    HW1 4531   1.406   1.023   9.098
 1030SOL    HW2 4532   1.376   0.901   9.013
 1031SOL     OW 4533   0.820   0.563   7.818
 1031SOL    HW1 4534   0.825   0.495   7.750
 1031SOL    HW2 4535   0.747   0.618   7.791
 1032SOL     OW 4536   1.638   0.601   8.624
 1032SOL    HW1 4537   1.630   0.545   8.702
 1032SOL    HW2 4538   1.726   0.583   8.591
 1033SOL     OW 4539   0.294   1.529   9.169
 1033SOL    HW1 4540   0.258   1.603   9.217
 1033SOL    HW2 4541   0.280   1.454   9.227
 1034SOL     OW 4542   0.730   0.453   8.709
 1034SOL    HW1 4543   0.667   0.383   8.695
 1034SOL    HW2 4544   0.717   0.513   8.636
 1035SOL     OW 4545   0.909   1.679   8.928
 1035SOL    HW1 4546   0.892   1.634   8.845
 1035SOL    HW2 4547   0.908   1.772   8.906
 1036SOL     OW 4548   0.446   0.502   7.606
 1036SOL    HW1 4549   0.505   0.572   7.634
 1036SOL    HW2 4550   0.370   0.511   7.664
 1037SOL     OW 4551   0.154   1.131   8.914
 1037SOL    HW1 4552   0.136   1.101   9.004
 1037SOL    HW2 4553   0.152   1.051   8.861
 1038SOL     OW 4554   1.309   1.040   8.667
 1038SOL    HW1 4555   1.329   0.977   8.598
 1038SOL    HW2 4556   1.251   1.103   8.625
 1039SOL     OW 4557   1.322   0.848   7.747
 1039SOL    HW1 4558   1.242   0.833   7.798
 1039SOL    HW2 4559   1.293   0.844   7.655
 1040SOL     OW 4560   1.790   1.730   8.616
 1040SOL    HW1 4561   1.849   1.757   8.546
 1040SOL    HW2 4562   1.754   1.646   8.587
 1041SOL     OW 4563   1.242   1.733   8.556
 1041SOL    HW1 4564   1.322   1.760   8.511
 1041SOL    HW2 4565   1.255   1.639   8.572
 1042SOL     OW 4566   0.094   1.238   8.478
 1042SOL    HW1 4567   0.071   1.259   8.569
 1042SOL    HW2 4568   0.010   1.231   8.433
 1043SOL     OW 4569   0.688   1.676   9.191
 1043SOL    HW1 4570   0.623   1.746   9.180
 1043SOL    HW2 4571   0.754   1.693   9.124
 1044SOL     OW 4572   1.695   0.170   7.930
 1044SOL    HW1 4573   1.762   0.164   7.861
 1044SOL    HW2 4574   1.738   0.134   8.008
 1045SOL     OW 4575   1.398   1.569   7.944
 1045SOL    HW1 4576   1.455   1.601   7.874
 1045SOL    HW2 4577   1.345   1.645   7.969
 1046SOL     OW 4578   0.180   1.745   9.280
 1046SOL    HW1 4579   0.104   1.705   9.322
 1046SOL    HW2 4580   0.215   1.805   9.347
 1047SOL     OW 4581   1.280   0.931   8.116
 1047SOL    HW1 4582   1.355   0.872   8.127
 1047SOL    HW2 4583   1.313   1.001   8.060
 1048SOL     OW 4584   0.798   1.281   8.874
 1048SOL    HW1 4585   0.769   1.323   8.955
 1048SOL    HW2 4586   0.730   1.304   8.810
 1049SOL     OW 4587   0.667   1.631   7.607
 1049SOL    HW1 4588   0.681   1.646   7.514
 1049SOL    HW2 4589   0.614   1.551   7.611
 1050SOL     OW 4590   1.617   1.727   8.844
 1050SOL    HW1 4591   1.674   1.729   8.767
 1050SOL    HW2 4592   1.602   1.819   8.866
 1051SOL     OW 4593   1.852   0.173   8.401
 1051SOL    HW1 4594   1.868   0.104   8.337
 1051SOL    HW2 4595   1.764   0.205   8.381
 1052SOL     OW 4596   0.257   0.321   8.157
 1052SOL    HW1 4597   0.170   0.351   8.134
 1052SOL    HW2 4598   0.259   0.322   8.253
 1053SOL     OW 4599   1.207   1.599   7.483
 1053SOL    HW1 4600   1.195   1.507   7.507
 1053SOL    HW2 4601   1.143   1.614   7.413
 1054SOL     OW 4602   0.818   1.012   8.824
 1054SOL    HW1 4603   0.851   1.006   8.734
 1054SOL    HW2 4604   0.814   1.106   8.841
 1055SOL     OW 4605   0.920   0.921   7.759
 1055SOL    HW1 4606   0.967   0.953   7.682
 1055SOL    HW2 4607   0.972   0.848   7.791
 1056SOL     OW 4608   1.488   1.631   7.495
 1056SOL    HW1 4609   1.395   1.620   7.478
 1056SOL    HW2 4610   1.528   1.636   7.408
 1057SOL     OW 4611   0.372   1.304   8.944
 1057SOL    HW1 4612   0.362   1.379   8.885
 1057SOL    HW2 4613   0.300   1.246   8.921
 1058SOL     OW 4614   1.598   1.283   8.715
 1058SOL    HW1 4615   1.682   1.282   8.762
 1058SOL    HW2 4616   1.546   1.348   8.761
 1059SOL     OW 4617   1.072   1.118   8.171
 1059SOL    HW1 4618   0.996   1.069   8.203
 1059SOL    HW2 4619   1.130   1.052   8.134
 1060SOL     OW 4620   1.038   0.270   8.398
 1060SOL    HW1 4621   1.011   0.217   8.323
 1060SOL    HW2 4622   1.041   0.209   8.471
 1061SOL     OW 4623   0.614   1.490   7.938
 1061SOL    HW1 4624   0.664   1.444   7.871
 1061SOL    HW2 4625   0.527   1.503   7.899
 1062SOL     OW 4626   1.731   0.418   8.832
 1062SOL    HW1 4627   1.807   0.475   8.836
 1062SOL    HW2 4628   1.758   0.345   8.776
 1063SOL     OW 4629   0.247   1.343   7.703
 1063SOL    HW1 4630   0.151   1.349   7.701
 1063SOL    HW2 4631   0.271   1.373   7.790
 1064SOL     OW 4632   0.126   1.010   9.191
 1064SOL    HW1 4633   0.112   0.923   9.155
 1064SOL    HW2 4634   0.216   1.008   9.223
 1065SOL     OW 4635   0.681   0.230   8.952
 1065SOL    HW1 4636   0.753   0.178   8.918
 1065SOL    HW2 4637   0.707   0.250   9.043
 1066SOL     OW 4638   0.080   0.332   7.448
 1066SOL    HW1 4639   0.031   0.389   7.508
 1066SOL    HW2 4640   0.109   0.391   7.378
 1067SOL     OW 4641   1.421   0.859   8.842
 1067SOL    HW1 4642   1.368   0.918   8.789
 1067SOL    HW2 4643   1.508   0.862   8.804
 1068SOL     OW 4644   0.128   0.245   7.791
 1068SOL    HW1 4645   0.055   0.244   7.729
 1068SOL    HW2 4646   0.194   0.187   7.752
 1069SOL     OW 4647   1.178   1.331   7.567
 1069SOL    HW1 4648   1.087   1.301   7.565
 1069SOL    HW2 4649   1.202   1.331   7.660
 1070SOL     OW 4650   0.603   0.849   8.894
 1070SOL    HW1 4651   0.658   0.925   8.874
 1070SOL    HW2 4652   0.664   0.775   8.893
 1071SOL     OW 4653   1.479   1.792   8.426
 1071SOL    HW1 4654   1.495   1.866   8.367
 1071SOL    HW2 4655   1.566   1.758   8.446
 1072SOL     OW 4656   0.704   0.561   9.150
 1072SOL    HW1 4657   0.759   0.620   9.202
 1072SOL    HW2 4658   0.726   0.474   9.181
 1073SOL     OW 4659   1.477   1.187   9.074
 1073SOL    HW1 4660   1.469   1.210   9.166
 1073SOL    HW2 4661   1.568   1.209   9.052
 1074SOL     OW 4662   0.387   1.740   9.013
 1074SOL    HW1 4663   0.300   1.774   8.989
 1074SOL    HW2 4664   0.369   1.652   9.048
 1075SOL     OW 4665   1.659   0.877   8.705
 1075SOL    HW1 4666   1.656   0.793   8.659
 1075SOL    HW2 4667   1.646   0.942   8.636
 1076SOL     OW 4668   1.217   0.317   7.898
 1076SOL    HW1 4669   1.285   0.250   7.889
 1076SOL    HW2 4670   1.244   0.367   7.975
 1077SOL     OW 4671   0.589   0.726   8.135
 1077SOL    HW1 4672   0.632   0.811   8.126
 1077SOL    HW2 4673   0.527   0.723   8.062
 1078SOL     OW 4674   1.752   0.382   9.105
 1078SOL    HW1 4675   1.747   0.397   9.010
 1078SOL    HW2 4676   1.687   0.314   9.122
 1079SOL     OW 4677   1.761   0.929   8.956
 1079SOL    HW1 4678   1.745   1.023   8.969
 1079SOL    HW2 4679   1.737   0.914   8.865
 1080SOL     OW 4680   0.872   1.365   7.502
 1080SOL    HW1 4681   0.829   1.384   7.586
 1080SOL    HW2 4682   0.880   1.450   7.460
 1081SOL     OW 4683   0.671   1.778   8.391
 1081SOL    HW1 4684   0.652   1.869   8.366
 1081SOL    HW2 4685   0.765   1.768   8.379
 1082SOL     OW 4686   0.876   0.978   8.311
 1082SOL    HW1 4687   0.926   0.904   8.345
 1082SOL    HW2 4688   0.835   1.017   8.388
 1083SOL     OW 4689   1.080   0.994   7.548
 1083SOL    HW1 4690   1.053   1.043   7.470
 1083SOL    HW2 4691   1.149   0.935   7.516
 1084SOL     OW 4692   1.843   1.556   8.285
 1084SOL    HW1 4693   1.767   1.548   8.227
 1084SOL    HW2 4694   1.826   1.493   8.355
 1085SOL     OW 4695   0.211   1.286   9.303
 1085SOL    HW1 4696   0.138   1.247   9.256
 1085SOL    HW2 4697   0.195   1.265   9.395
 1086SOL     OW 4698   0.131   1.253   8.097
 1086SOL    HW1 4699   0.062   1.203   8.141
 1086SOL    HW2 4700   0.196   1.187   8.073
 1087SOL     OW 4701   0.690   1.406   9.094
 1087SOL    HW1 4702   0.602   1.376   9.115
 1087SOL    HW2 4703   0.691   1.498   9.122
 1088SOL     OW 4704   1.838   0.218   8.679
 1088SOL    HW1 4705   1.768   0.153   8.687
 1088SOL    HW2 4706   1.854   0.224   8.585
 1089SOL     OW 4707   0.446   0.429   7.987
 1089SOL    HW1 4708   0.452   0.367   7.914
 1089SOL    HW2 4709   0.379   0.391   8.044
 1090SOL     OW 4710   1.691   1.488   8.534
 1090SOL    HW1 4711   1.614   1.474   8.479
 1090SOL    HW2 4712   1.689   1.417   8.597
 1091SOL     OW 4713   0.321   0.502   8.746
 1091SOL    HW1 4714   0.400   0.491   8.799
 1091SOL    HW2 4715   0.352   0.539   8.663
 1092SOL     OW 4716   0.834   1.592   8.114
 1092SOL    HW1 4717   0.825   1.669   8.058
 1092SOL    HW2 4718   0.758   1.539   8.095
 1093SOL     OW 4719   1.415   0.210   8.575
 1093SOL    HW1 4720   1.487   0.169   8.624
 1093SOL    HW2 4721   1.367   0.260   8.641
 1094SOL     OW 4722   1.011   0.075   8.584
 1094SOL    HW1 4723   0.926   0.049   8.548
 1094SOL    HW2 4724   1.055  -0.007   8.603
 1095SOL     OW 4725   0.778   1.347   7.770
 1095SOL    HW1 4726   0.750   1.257   7.785
 1095SOL    HW2 4727   0.862   1.353   7.816
 1096SOL     OW 4728   0.621   1.558   8.742
 1096SOL    HW1 4729   0.622   1.643   8.785
 1096SOL    HW2 4730   0.708   1.550   8.702
 1097SOL     OW 4731   1.363   7.992   7.594
 1097SOL    HW1 4732   1.423   7.917   7.601
 1097SOL    HW2 4733   1.283   7.962   7.636
 1098SOL     OW 4734   1.285   0.462   8.120
 1098SOL    HW1 4735   1.238   0.545   8.124
 1098SOL    HW2 4736   1.297   0.436   8.211
 1099SOL     OW 4737   1.606   0.244   8.330
 1099SOL    HW1 4738   1.515   0.229   8.355
 1099SOL    HW2 4739   1.602   0.317   8.268
 1100SOL     OW 4740   0.045   1.037   7.729
 1100SOL    HW1 4741   0.135   1.025   7.699
 1100SOL    HW2 4742   0.053   1.056   7.822
 1101SOL     OW 4743   0.890   1.667   7.782
 1101SOL    HW1 4744   0.813   1.650   7.728
 1101SOL    HW2 4745   0.863   1.738   7.840
 1102SOL     OW 4746   0.219   0.704   9.411
 1102SOL    HW1 4747   0.217   0.627   9.469
 1102SOL    HW2 4748   0.233   0.668   9.324
 1103SOL     OW 4749   0.216   0.295  10.329
 1103SOL    HW1 4750   0.274   0.219  10.317
 1103SOL    HW2 4751   0.130   0.264  10.300
 1104SOL     OW 4752   8.002   0.396   9.912
 1104SOL    HW1 4753   7.913   0.390   9.948
 1104SOL    HW2 4754   8.007   0.325   9.848
 1105SOL     OW 4755   0.559   1.303  10.506
 1105SOL    HW1 4756   0.483   1.317  10.448
 1105SOL    HW2 4757   0.585   1.392  10.532
 1106SOL     OW 4758   1.579   1.506  10.012
 1106SOL    HW1 4759   1.531   1.488  10.093
 1106SOL    HW2 4760   1.512   1.516   9.946
 1107SOL     OW 4761   1.145   0.698  10.006
 1107SOL    HW1 4762   1.185   0.784   9.990
 1107SOL    HW2 4763   1.092   0.710  10.085
 1108SOL     OW 4764   1.733   0.614   9.553
 1108SOL    HW1 4765   1.727   0.607   9.458
 1108SOL    HW2 4766   1.715   0.525   9.585
 1109SOL     OW 4767   0.728   1.134  10.364
 1109SOL    HW1 4768   0.668   1.176  10.425
 1109SOL    HW2 4769   0.769   1.206  10.316
 1110SOL     OW 4770   0.885   0.759  11.134
 1110SOL    HW1 4771   0.907   0.829  11.195
 1110SOL    HW2 4772   0.901   0.796  11.047
 1111SOL     OW 4773   0.691   1.000   9.958
 1111SOL    HW1 4774   0.757   0.994  10.027
 1111SOL    HW2 4775   0.622   1.056   9.994
 1112SOL     OW 4776   0.711   1.150  11.135
 1112SOL    HW1 4777   0.761   1.226  11.166
 1112SOL    HW2 4778   0.642   1.188  11.081
 1113SOL     OW 4779   0.337   1.418  10.370
 1113SOL    HW1 4780   0.280   1.375  10.306
 1113SOL    HW2 4781   0.390   1.478  10.318
 1114SOL     OW 4782   1.460   1.503  10.676
 1114SOL    HW1 4783   1.517   1.580  10.684
 1114SOL    HW2 4784   1.392   1.516  10.742
 1115SOL     OW 4785   0.422   0.396  10.836
 1115SOL    HW1 4786   0.517   0.382  10.841
 1115SOL    HW2 4787   0.386   0.309  10.820
 1116SOL     OW 4788   1.592   0.454  10.008
 1116SOL    HW1 4789   1.498   0.459   9.992
 1116SOL    HW2 4790   1.615   0.539  10.044
 1117SOL     OW 4791   0.235   1.683   9.769
 1117SOL    HW1 4792   0.233   1.765   9.820
 1117SOL    HW2 4793   0.306   1.696   9.706
 1118SOL     OW 4794   1.140   1.342  11.004
 1118SOL    HW1 4795   1.188   1.331  11.086
 1118SOL    HW2 4796   1.090   1.262  10.994
 1119SOL     OW 4797   0.247   1.427   9.874
 1119SOL    HW1 4798   0.274   1.517   9.854
 1119SOL    HW2 4799   0.152   1.431   9.878
 1120SOL     OW 4800   0.256   1.084  10.196
 1120SOL    HW1 4801   0.279   0.995  10.224
 1120SOL    HW2 4802   0.201   1.118  10.266
 1121SOL     OW 4803   0.591   1.808  10.707
 1121SOL    HW1 4804   0.521   1.785  10.769
 1121SOL    HW2 4805   0.631   1.887  10.744
 1122SOL     OW 4806   0.580   0.991   9.456
 1122SOL    HW1 4807   0.629   1.039   9.390
 1122SOL    HW2 4808   0.618   1.019   9.539
 1123SOL     OW 4809   1.665   0.114  10.805
 1123SOL    HW1 4810   1.602   0.103  10.733
 1123SOL    HW2 4811   1.613   0.152  10.876
 1124SOL     OW 4812   0.128   0.635   9.852
 1124SOL    HW1 4813   0.090   0.550   9.876
 1124SOL    HW2 4814   0.103   0.694   9.923
 1125SOL     OW 4815   1.846   1.750   9.642
 1125SOL    HW1 4816   1.921   1.729   9.698
 1125SOL    HW2 4817   1.860   1.842   9.617
 1126SOL     OW 4818   0.005   1.595   9.432
 1126SOL    HW1 4819   0.010   1.505   9.464
 1126SOL    HW2 4820   0.009   1.649   9.511
 1127SOL     OW 4821   1.681   1.066   9.774
 1127SOL    HW1 4822   1.755   1.088   9.717
 1127SOL    HW2 4823   1.675   1.139   9.835
 1128SOL     OW 4824   0.180   0.786  10.876
 1128SOL    HW1 4825   0.272   0.773  10.895
 1128SOL    HW2 4826   0.176   0.872  10.833
 1129SOL     OW 4827   0.604   1.393  10.052
 1129SOL    HW1 4828   0.562   1.306  10.050
 1129SOL    HW2 4829   0.596   1.425   9.962
 1130SOL     OW 4830   1.284   1.228  10.730
 1130SOL    HW1 4831   1.314   1.161  10.668
 1130SOL    HW2 4832   1.347   1.224  10.802
 1131SOL     OW 4833   0.837   0.045   9.882
 1131SOL    HW1 4834   0.872   0.122   9.839
 1131SOL    HW2 4835   0.747   0.038   9.850
 1132SOL     OW 4836   0.178   0.904  10.557
 1132SOL    HW1 4837   0.272   0.887  10.567
 1132SOL    HW2 4838   0.158   0.871  10.469
 1133SOL     OW 4839   1.533   1.005   9.522
 1133SOL    HW1 4840   1.464   0.944   9.548
 1133SOL    HW2 4841   1.585   1.016   9.602
 1134SOL     OW 4842   1.160   1.809  10.940
 1134SOL    HW1 4843   1.176   1.883  10.881
 1134SOL    HW2 4844   1.197   1.733  10.895
 1135SOL     OW 4845   0.321   0.242  11.084
 1135SOL    HW1 4846   0.392   0.302  11.107
 1135SOL    HW2 4847   0.248   0.269  11.139
 1136SOL     OW 4848   1.470   1.415  10.252
 1136SOL    HW1 4849   1.404   1.435  10.319
 1136SOL    HW2 4850   1.452   1.325  10.226
 1137SOL     OW 4851   1.655   1.761   9.886
 1137SOL    HW1 4852   1.638   1.731   9.796
 1137SOL    HW2 4853   1.635   1.685   9.941
 1138SOL     OW 4854   0.592   0.723   9.581
 1138SOL    HW1 4855   0.595   0.807   9.535
 1138SOL    HW2 4856   0.530   0.737   9.652
 1139SOL     OW 4857   1.294   0.364  10.243
 1139SOL    HW1 4858   1.203   0.336  10.245
 1139SOL    HW2 4859   1.338   0.308  10.306
 1140SOL     OW 4860   1.580   1.672   9.624
 1140SOL    HW1 4861   1.672   1.695   9.613
 1140SOL    HW2 4862   1.548   1.659   9.534
 1141SOL     OW 4863   0.759   0.647  10.782
 1141SOL    HW1 4864   0.755   0.601  10.866
 1141SOL    HW2 4865   0.765   0.577  10.716
 1142SOL     OW 4866   1.403   0.489  10.988
 1142SOL    HW1 4867   1.405   0.533  11.072
 1142SOL    HW2 4868   1.475   0.425  10.991
 1143SOL     OW 4869   0.952   0.880  10.894
 1143SOL    HW1 4870   0.997   0.805  10.855
 1143SOL    HW2 4871   0.900   0.916  10.822
 1144SOL     OW 4872   1.010   0.415  10.519
 1144SOL    HW1 4873   0.925   0.437  10.556
 1144SOL    HW2 4874   0.990   0.363  10.441
 1145SOL     OW 4875   1.057   0.695   9.735
 1145SOL    HW1 4876   1.074   0.686   9.829
 1145SOL    HW2 4877   0.972   0.654   9.722
 1146SOL     OW 4878   0.094   0.798  10.096
 1146SOL    HW1 4879   0.188   0.802  10.110
 1146SOL    HW2 4880   0.056   0.836  10.175
 1147SOL     OW 4881   0.127   1.811  10.873
 1147SOL    HW1 4882   0.131   1.808  10.968
 1147SOL    HW2 4883   0.034   1.807  10.852
 1148SOL     OW 4884   0.890   0.359   9.519
 1148SOL    HW1 4885   0.932   0.409   9.449
 1148SOL    HW2 4886   0.860   0.278   9.476
 1149SOL     OW 4887   1.698   0.570  11.142
 1149SOL    HW1 4888   1.668   0.647  11.094
 1149SOL    HW2 4889   1.728   0.510  11.074
 1150SOL     OW 4890   1.386   1.149   9.853
 1150SOL    HW1 4891   1.453   1.129   9.788
 1150SOL    HW2 4892   1.329   1.212   9.810
 1151SOL     OW 4893   0.469   0.220  10.229
 1151SOL    HW1 4894   0.506   0.243  10.314
 1151SOL    HW2 4895   0.531   0.255  10.165
 1152SOL     OW 4896   1.001   1.451   9.776
 1152SOL    HW1 4897   0.969   1.522   9.721
 1152SOL    HW2 4898   0.971   1.473   9.864
 1153SOL     OW 4899   0.367   1.832  10.184
 1153SOL    HW1 4900   0.417   1.751  10.192
 1153SOL    HW2 4901   0.432   1.902  10.192
 1154SOL     OW 4902   1.728   1.013  10.122
 1154SOL    HW1 4903   1.716   1.096  10.076
 1154SOL    HW2 4904   1.703   1.031  10.213
 1155SOL     OW 4905   1.224   1.540  10.823
 1155SOL    HW1 4906   1.214   1.467  10.884
 1155SOL    HW2 4907   1.162   1.521  10.752
 1156SOL     OW 4908   0.304   0.939   9.541
 1156SOL    HW1 4909   0.387   0.968   9.504
 1156SOL    HW2 4910   0.279   0.863   9.488
 1157SOL     OW 4911   1.495   0.781  10.071
 1157SOL    HW1 4912   1.458   0.704  10.113
 1157SOL    HW2 4913   1.523   0.837  10.143
 1158SOL     OW 4914   0.460   1.269  11.050
 1158SOL    HW1 4915   0.439   1.261  10.957
 1158SOL    HW2 4916   0.376   1.255  11.094
 1159SOL     OW 4917   1.128   1.770   9.544
 1159SOL    HW1 4918   1.047   1.733   9.579
 1159SOL    HW2 4919   1.153   1.711   9.473
 1160SOL     OW 4920   0.125   0.274  10.864
 1160SOL    HW1 4921   0.152   0.366  10.854
 1160SOL    HW2 4922   0.178   0.242  10.938
 1161SOL     OW 4923   1.629   1.384   9.418
 1161SOL    HW1 4924   1.593   1.470   9.396
 1161SOL    HW2 4925   1.564   1.321   9.387
 1162SOL     OW 4926   0.467   1.734   9.624
 1162SOL    HW1 4927   0.514   1.795   9.681
 1162SOL    HW2 4928   0.533   1.704   9.561
 1163SOL     OW 4929   1.421   0.140   9.709
 1163SOL    HW1 4930   1.422   0.098   9.623
 1163SOL    HW2 4931   1.513   0.142   9.736
 1164SOL     OW 4932   0.236   1.786  10.527
 1164SOL    HW1 4933   0.300   1.721  10.557
 1164SOL    HW2 4934   0.215   1.759  10.437
 1165SOL     OW 4935   0.943   1.696  10.205
 1165SOL    HW1 4936   1.030   1.656  10.214
 1165SOL    HW2 4937   0.902   1.647  10.133
 1166SOL     OW 4938   0.407   0.693   9.795
 1166SOL    HW1 4939   0.431   0.601   9.809
 1166SOL    HW2 4940   0.311   0.694   9.803
 1167SOL     OW 4941   1.543   0.219  11.031
 1167SOL    HW1 4942   1.559   0.242  11.123
 1167SOL    HW2 4943   1.453   0.186  11.030
 1168SOL     OW 4944   0.593   0.133   9.417
 1168SOL    HW1 4945   0.667   0.084   9.452
 1168SOL    HW2 4946   0.569   0.085   9.337
 1169SOL     OW 4947   0.763   0.293  11.132
 1169SOL    HW1 4948   0.785   0.218  11.076
 1169SOL    HW2 4949   0.685   0.265  11.180
 1170SOL     OW 4950   0.862   1.504  10.507
 1170SOL    HW1 4951   0.853   1.474  10.417
 1170SOL    HW2 4952   0.944   1.464  10.537
 1171SOL     OW 4953   1.333   0.601  10.745
 1171SOL    HW1 4954   1.370   0.571  10.828
 1171SOL    HW2 4955   1.372   0.688  10.732
 1172SOL     OW 4956   0.814   1.376  10.255
 1172SOL    HW1 4957   0.901   1.372  10.216
 1172SOL    HW2 4958   0.755   1.393  10.180
 1173SOL     OW 4959   0.925   0.522  10.199
 1173SOL    HW1 4960   0.900   0.513  10.107
 1173SOL    HW2 4961   0.960   0.436  10.222
 1174SOL     OW 4962   0.592   0.038   9.749
 1174SOL    HW1 4963   0.516  -0.009   9.782
 1174SOL    HW2 4964   0.558   0.124   9.723
 1175SOL     OW 4965   1.431   1.206   9.349
 1175SOL    HW1 4966   1.455   1.131   9.403
 1175SOL    HW2 4967   1.343   1.230   9.379
 1176SOL     OW 4968   0.277   0.068   9.517
 1176SOL    HW1 4969   0.344   0.098   9.455
 1176SOL    HW2 4970   0.317  -0.008   9.560
 1177SOL     OW 4971   0.954   0.269   9.773
 1177SOL    HW1 4972   0.927   0.295   9.684
 1177SOL    HW2 4973   1.049   0.279   9.773
 1178SOL     OW 4974   1.067   0.663  10.769
 1178SOL    HW1 4975   1.020   0.581  10.784
 1178SOL    HW2 4976   1.159   0.637  10.761
 1179SOL     OW 4977   1.209   1.587  10.112
 1179SOL    HW1 4978   1.223   1.644  10.037
 1179SOL    HW2 4979   1.279   1.611  10.174
 1180SOL     OW 4980   0.470   1.153  10.030
 1180SOL    HW1 4981   0.403   1.128  10.093
 1180SOL    HW2 4982   0.429   1.141   9.945
 1181SOL     OW 4983   1.258   1.793   9.926
 1181SOL    HW1 4984   1.310   1.851   9.871
 1181SOL    HW2 4985   1.191   1.849   9.964
 1182SOL     OW 4986   1.021   0.525   9.339
 1182SOL    HW1 4987   0.978   0.607   9.313
 1182SOL    HW2 4988   1.088   0.553   9.402
 1183SOL     OW 4989   0.109   0.596  10.697
 1183SOL    HW1 4990   0.197   0.574  10.667
 1183SOL    HW2 4991   0.122   0.664  10.763
 1184SOL     OW 4992   0.867   0.476   9.938
 1184SOL    HW1 4993   0.831   0.526   9.865
 1184SOL    HW2 4994   0.891   0.392   9.901
 1185SOL     OW 4995   0.997   0.038  10.097
 1185SOL    HW1 4996   0.942   0.044  10.019
 1185SOL    HW2 4997   0.994  -0.055  10.121
 1186SOL     OW 4998   1.431   1.156  10.163
 1186SOL    HW1 4999   1.354   1.100  10.168
 1186SOL    HW2 5000   1.447   1.168  10.069
 1187SOL     OW 5001   1.444   0.602  10.284
 1187SOL    HW1 5002   1.397   0.519  10.282
 1187SOL    HW2 5003   1.508   0.592  10.354
 1188SOL     OW 5004   1.866   0.811   9.688
 1188SOL    HW1 5005   1.931   0.753   9.728
 1188SOL    HW2 5006   1.822   0.755   9.623
 1189SOL     OW 5007   0.492   1.419   9.448
 1189SOL    HW1 5008   0.421   1.383   9.501
 1189SOL    HW2 5009   0.487   1.371   9.365
 1190SOL     OW 5010   1.694   1.248   9.979
 1190SOL    HW1 5011   1.790   1.256   9.975
 1190SOL    HW2 5012   1.663   1.339   9.983
 1191SOL     OW 5013   1.404   0.578   9.384
 1191SOL    HW1 5014   1.338   0.553   9.449
 1191SOL    HW2 5015   1.482   0.528   9.408
 1192SOL     OW 5016   0.512   0.276   9.628
 1192SOL    HW1 5017   0.542   0.219   9.557
 1192SOL    HW2 5018   0.497   0.361   9.585
 1193SOL     OW 5019   1.745   1.242  10.864
 1193SOL    HW1 5020   1.833   1.207  10.849
 1193SOL    HW2 5021   1.759   1.331  10.894
 1194SOL     OW 5022   1.060   1.353  10.642
 1194SOL    HW1 5023   0.984   1.323  10.691
 1194SOL    HW2 5024   1.135   1.308  10.682
 1195SOL     OW 5025   1.607   1.620  10.969
 1195SOL    HW1 5026   1.599   1.664  10.885
 1195SOL    HW2 5027   1.690   1.573  10.965
 1196SOL     OW 5028   1.139   1.213  10.410
 1196SOL    HW1 5029   1.081   1.254  10.475
 1196SOL    HW2 5030   1.113   1.253  10.327
 1197SOL     OW 5031   1.624   1.097  10.373
 1197SOL    HW1 5032   1.619   1.159  10.446
 1197SOL    HW2 5033   1.547   1.117  10.319
 1198SOL     OW 5034   0.937   0.129  10.732
 1198SOL    HW1 5035   0.931   0.106  10.639
 1198SOL    HW2 5036   1.031   0.128  10.751
 1199SOL     OW 5037   0.983   1.115  11.029
 1199SOL    HW1 5038   0.891   1.128  11.052
 1199SOL    HW2 5039   0.983   1.037  10.974
 1200SOL     OW 5040   0.710   1.058   9.687
 1200SOL    HW1 5041   0.699   1.038   9.780
 1200SOL    HW2 5042   0.788   1.008   9.661
 1201SOL     OW 5043   0.433   0.821  10.571
 1201SOL    HW1 5044   0.497   0.837  10.640
 1201SOL    HW2 5045   0.415   0.727  10.577
 1202SOL     OW 5046   1.267   0.385  10.593
 1202SOL    HW1 5047   1.294   0.467  10.635
 1202SOL    HW2 5048   1.179   0.403  10.561
 1203SOL     OW 5049   0.070   1.585  10.637
 1203SOL    HW1 5050   0.082   1.676  10.610
 1203SOL    HW2 5051   0.157   1.556  10.663
 1204SOL     OW 5052   0.335   1.110   9.791
 1204SOL    HW1 5053   0.336   1.179   9.725
 1204SOL    HW2 5054   0.339   1.029   9.741
 1205SOL     OW 5055   0.544   0.549  10.177
 1205SOL    HW1 5056   0.561   0.607  10.103
 1205SOL    HW2 5057   0.626   0.547  10.226
 1206SOL     OW 5058   1.247   1.348   9.711
 1206SOL    HW1 5059   1.302   1.423   9.735
 1206SOL    HW2 5060   1.159   1.375   9.737
 1207SOL     OW 5061   1.299   1.461  10.460
 1207SOL    HW1 5062   1.355   1.471  10.537
 1207SOL    HW2 5063   1.246   1.384  10.479
 1208SOL     OW 5064   1.603   0.713   9.784
 1208SOL    HW1 5065   1.508   0.715   9.772
 1208SOL    HW2 5066   1.638   0.678   9.702
 1209SOL     OW 5067   0.343   1.521  10.621
 1209SOL    HW1 5068   0.334   1.480  10.535
 1209SOL    HW2 5069   0.436   1.539  10.629
 1210SOL     OW 5070   0.440   0.743  10.939
 1210SOL    HW1 5071   0.498   0.789  10.878
 1210SOL    HW2 5072   0.491   0.668  10.969
 1211SOL     OW 5073   1.614   0.786  11.004
 1211SOL    HW1 5074   1.527   0.827  10.995
 1211SOL    HW2 5075   1.666   0.826  10.933
 1212SOL     OW 5076   1.048   0.076  11.054
 1212SOL    HW1 5077   1.068   0.167  11.036
 1212SOL    HW2 5078   0.953   0.068  11.039
 1213SOL     OW 5079   0.503   0.029  11.043
 1213SOL    HW1 5080   0.482  -0.039  10.978
 1213SOL    HW2 5081   0.426   0.086  11.043
 1214SOL     OW 5082   0.584   0.889  10.341
 1214SOL    HW1 5083   0.630   0.973  10.347
 1214SOL    HW2 5084   0.541   0.879  10.426
 1215SOL     OW 5085   1.335   0.852  10.324
 1215SOL    HW1 5086   1.245   0.838  10.295
 1215SOL    HW2 5087   1.375   0.765  10.321
 1216SOL     OW 5088   1.203   0.530   9.568
 1216SOL    HW1 5089   1.209   0.449   9.618
 1216SOL    HW2 5090   1.157   0.590   9.626
 1217SOL     OW 5091   0.288   0.126  10.601
 1217SOL    HW1 5092   0.268   0.217  10.580
 1217SOL    HW2 5093   0.373   0.109  10.562
 1218SOL     OW 5094   0.052   1.311  10.602
 1218SOL    HW1 5095   0.055   1.289  10.695
 1218SOL    HW2 5096   0.059   1.406  10.599
 1219SOL     OW 5097   0.739   0.649  10.364
 1219SOL    HW1 5098   0.803   0.624  10.297
 1219SOL    HW2 5099   0.698   0.729  10.329
 1220SOL     OW 5100   1.747   0.959  11.177
 1220SOL    HW1 5101   1.702   0.893  11.125
 1220SOL    HW2 5102   1.686   0.981  11.247
 1221SOL     OW 5103   0.399   0.100   9.967
 1221SOL    HW1 5104   0.349   0.175   9.999
 1221SOL    HW2 5105   0.345   0.024   9.989
 1222SOL     OW 5106   1.631   0.397   9.693
 1222SOL    HW1 5107   1.663   0.312   9.723
 1222SOL    HW2 5108   1.596   0.438   9.772
 1223SOL     OW 5109   1.036   0.763  10.272
 1223SOL    HW1 5110   1.022   0.777  10.366
 1223SOL    HW2 5111   1.005   0.674  10.256
 1224SOL     OW 5112   0.969   1.553  11.032
 1224SOL    HW1 5113   0.958   1.604  10.951
 1224SOL    HW2 5114   1.026   1.480  11.007
 1225SOL     OW 5115   1.849   1.497  10.911
 1225SOL    HW1 5116   1.871   1.529  10.823
 1225SOL    HW2 5117   1.928   1.510  10.962
 1226SOL     OW 5118   0.344   0.963  11.082
 1226SOL    HW1 5119   0.411   0.984  11.148
 1226SOL    HW2 5120   0.376   0.883  11.041
 1227SOL     OW 5121   1.565   0.326   9.425
 1227SOL    HW1 5122   1.473   0.300   9.432
 1227SOL    HW2 5123   1.596   0.329   9.516
 1228SOL     OW 5124   1.300   0.831   9.345
 1228SOL    HW1 5125   1.340   0.744   9.347
 1228SOL    HW2 5126   1.326   0.868   9.261
 1229SOL     OW 5127   1.072   1.349  10.175
 1229SOL    HW1 5128   1.080   1.278  10.111
 1229SOL    HW2 5129   1.126   1.419  10.139
 1230SOL     OW 5130   0.323   0.819  10.261
 1230SOL    HW1 5131   0.417   0.838  10.263
 1230SOL    HW2 5132   0.317   0.726  10.283
 1231SOL     OW 5133   0.324   0.539  10.322
 1231SOL    HW1 5134   0.293   0.448  10.320
 1231SOL    HW2 5135   0.402   0.539  10.267
 1232SOL     OW 5136   1.161   0.355  11.024
 1232SOL    HW1 5137   1.094   0.412  11.062
 1232SOL    HW2 5138   1.234   0.414  11.005
 1233SOL     OW 5139   1.196   0.211  10.789
 1233SOL    HW1 5140   1.177   0.265  10.866
 1233SOL    HW2 5141   1.216   0.274  10.720
 1234SOL     OW 5142   7.998   1.340   9.564
 1234SOL    HW1 5143   7.903   1.339   9.555
 1234SOL    HW2 5144   8.023   1.248   9.569
 1235SOL     OW 5145   0.127   1.736  10.255
 1235SOL    HW1 5146   0.100   1.694  10.174
 1235SOL    HW2 5147   0.209   1.781  10.233
 1236SOL     OW 5148   0.493   1.579  10.221
 1236SOL    HW1 5149   0.564   1.640  10.240
 1236SOL    HW2 5150   0.532   1.518  10.158
 1237SOL     OW 5151   0.966   0.786  10.538
 1237SOL    HW1 5152   1.014   0.754  10.614
 1237SOL    HW2 5153   0.883   0.738  10.540
 1238SOL     OW 5154   0.073   0.588  10.428
 1238SOL    HW1 5155   0.161   0.562  10.402
 1238SOL    HW2 5156   0.071   0.573  10.523
 1239SOL     OW 5157   0.212   0.533  10.996
 1239SOL    HW1 5158   0.291   0.505  10.950
 1239SOL    HW2 5159   0.188   0.616  10.953
 1240SOL     OW 5160   1.383   0.930  10.965
 1240SOL    HW1 5161   1.406   1.023  10.961
 1240SOL    HW2 5162   1.379   0.903  10.874
 1241SOL     OW 5163   0.815   0.577   9.681
 1241SOL    HW1 5164   0.825   0.502   9.623
 1241SOL    HW2 5165   0.741   0.626   9.644
 1242SOL     OW 5166   1.638   0.606  10.483
 1242SOL    HW1 5167   1.631   0.551  10.561
 1242SOL    HW2 5168   1.727   0.589  10.450
 1243SOL     OW 5169   0.278   1.524  11.037
 1243SOL    HW1 5170   0.242   1.605  11.072
 1243SOL    HW2 5171   0.348   1.501  11.098
 1244SOL     OW 5172   0.748   0.480  10.573
 1244SOL    HW1 5173   0.691   0.405  10.558
 1244SOL    HW2 5174   0.733   0.537  10.497
 1245SOL     OW 5175   0.901   1.680  10.792
 1245SOL    HW1 5176   0.888   1.640  10.706
 1245SOL    HW2 5177   0.912   1.773  10.774
 1246SOL     OW 5178   0.465   0.498   9.483
 1246SOL    HW1 5179   0.515   0.578   9.500
 1246SOL    HW2 5180   0.379   0.515   9.522
 1247SOL     OW 5181   0.181   1.051  10.796
 1247SOL    HW1 5182   0.250   1.117  10.786
 1247SOL    HW2 5183   0.165   1.020  10.707
 1248SOL     OW 5184   1.317   1.039  10.522
 1248SOL    HW1 5185   1.335   0.975  10.454
 1248SOL    HW2 5186   1.253   1.099  10.483
 1249SOL     OW 5187   1.323   0.842   9.622
 1249SOL    HW1 5188   1.241   0.819   9.665
 1249SOL    HW2 5189   1.304   0.837   9.528
 1250SOL     OW 5190   1.781   1.730  10.471
 1250SOL    HW1 5191   1.843   1.759  10.404
 1250SOL    HW2 5192   1.755   1.642  10.442
 1251SOL     OW 5193   1.236   1.726  10.403
 1251SOL    HW1 5194   1.319   1.756  10.365
 1251SOL    HW2 5195   1.252   1.635  10.427
 1252SOL     OW 5196   0.060   1.186  10.363
 1252SOL    HW1 5197   0.074   1.224  10.450
 1252SOL    HW2 5198  -0.018   1.230  10.329
 1253SOL     OW 5199   0.686   1.671  11.052
 1253SOL    HW1 5200   0.633   1.750  11.044
 1253SOL    HW2 5201   0.764   1.689  11.000
 1254SOL     OW 5202   1.691   0.157   9.801
 1254SOL    HW1 5203   1.736   0.125   9.723
 1254SOL    HW2 5204   1.707   0.088   9.867
 1255SOL     OW 5205   1.397   1.569   9.806
 1255SOL    HW1 5206   1.454   1.601   9.736
 1255SOL    HW2 5207   1.344   1.644   9.831
 1256SOL     OW 5208   0.176   1.746  11.144
 1256SOL    HW1 5209   0.104   1.710  11.195
 1256SOL    HW2 5210   0.221   1.806  11.203
 1257SOL     OW 5211   1.280   0.933   9.979
 1257SOL    HW1 5212   1.358   0.882   9.998
 1257SOL    HW2 5213   1.312   1.005   9.924
 1258SOL     OW 5214   0.808   1.284  10.733
 1258SOL    HW1 5215   0.772   1.322  10.812
 1258SOL    HW2 5216   0.754   1.319  10.662
 1259SOL     OW 5217   0.670   1.623   9.463
 1259SOL    HW1 5218   0.685   1.643   9.371
 1259SOL    HW2 5219   0.612   1.547   9.462
 1260SOL     OW 5220   1.620   1.725  10.702
 1260SOL    HW1 5221   1.676   1.731  10.624
 1260SOL    HW2 5222   1.602   1.816  10.726
 1261SOL     OW 5223   1.863   0.159  10.260
 1261SOL    HW1 5224   1.849   0.071  10.295
 1261SOL    HW2 5225   1.777   0.186  10.228
 1262SOL     OW 5226   0.255   0.329  10.025
 1262SOL    HW1 5227   0.164   0.350  10.003
 1262SOL    HW2 5228   0.257   0.329  10.120
 1263SOL     OW 5229   1.211   1.601   9.344
 1263SOL    HW1 5230   1.197   1.508   9.362
 1263SOL    HW2 5231   1.152   1.620   9.271
 1264SOL     OW 5232   0.823   1.012  10.689
 1264SOL    HW1 5233   0.872   0.995  10.608
 1264SOL    HW2 5234   0.825   1.108  10.698
 1265SOL     OW 5235   0.925   0.917   9.615
 1265SOL    HW1 5236   0.979   0.945   9.541
 1265SOL    HW2 5237   0.973   0.843   9.652
 1266SOL     OW 5238   1.491   1.629   9.360
 1266SOL    HW1 5239   1.398   1.620   9.342
 1266SOL    HW2 5240   1.531   1.635   9.273
 1267SOL     OW 5241   0.349   1.268  10.797
 1267SOL    HW1 5242   0.397   1.314  10.727
 1267SOL    HW2 5243   0.272   1.322  10.812
 1268SOL     OW 5244   1.608   1.288  10.580
 1268SOL    HW1 5245   1.673   1.273  10.648
 1268SOL    HW2 5246   1.548   1.352  10.617
 1269SOL     OW 5247   1.070   1.117  10.034
 1269SOL    HW1 5248   0.994   1.068  10.066
 1269SOL    HW2 5249   1.129   1.051   9.998
 1270SOL     OW 5250   1.035   0.261  10.258
 1270SOL    HW1 5251   1.022   0.204  10.182
 1270SOL    HW2 5252   1.035   0.201  10.333
 1271SOL     OW 5253   0.607   1.499   9.800
 1271SOL    HW1 5254   0.658   1.440   9.744
 1271SOL    HW2 5255   0.549   1.546   9.740
 1272SOL     OW 5256   1.727   0.426  10.689
 1272SOL    HW1 5257   1.805   0.480  10.695
 1272SOL    HW2 5258   1.754   0.350  10.638
 1273SOL     OW 5259   0.279   1.333   9.617
 1273SOL    HW1 5260   0.187   1.343   9.593
 1273SOL    HW2 5261   0.286   1.370   9.705
 1274SOL     OW 5262   0.670   0.247  10.817
 1274SOL    HW1 5263   0.640   0.240  10.726
 1274SOL    HW2 5264   0.735   0.177  10.827
 1275SOL     OW 5265   0.093   0.353   9.324
 1275SOL    HW1 5266   0.023   0.396   9.374
 1275SOL    HW2 5267   0.124   0.419   9.263
 1276SOL     OW 5268   1.423   0.861  10.704
 1276SOL    HW1 5269   1.372   0.920  10.649
 1276SOL    HW2 5270   1.511   0.864  10.668
 1277SOL     OW 5271   0.119   0.255   9.647
 1277SOL    HW1 5272   0.048   0.245   9.584
 1277SOL    HW2 5273   0.187   0.194   9.617
 1278SOL     OW 5274   1.175   1.329   9.426
 1278SOL    HW1 5275   1.081   1.318   9.420
 1278SOL    HW2 5276   1.194   1.328   9.520
 1279SOL     OW 5277   0.612   0.862  10.765
 1279SOL    HW1 5278   0.673   0.932  10.742
 1279SOL    HW2 5279   0.666   0.783  10.772
 1280SOL     OW 5280   1.479   1.780  10.281
 1280SOL    HW1 5281   1.492   1.851  10.218
 1280SOL    HW2 5282   1.566   1.764  10.317
 1281SOL     OW 5283   0.708   0.555  11.035
 1281SOL    HW1 5284   0.762   0.616  11.084
 1281SOL    HW2 5285   0.733   0.469  11.068
 1282SOL     OW 5286   1.476   1.189  10.934
 1282SOL    HW1 5287   1.467   1.207  11.028
 1282SOL    HW2 5288   1.567   1.212  10.914
 1283SOL     OW 5289   0.386   1.736  10.871
 1283SOL    HW1 5290   0.297   1.767  10.855
 1283SOL    HW2 5291   0.374   1.645  10.899
 1284SOL     OW 5292   1.660   0.881  10.563
 1284SOL    HW1 5293   1.656   0.796  10.521
 1284SOL    HW2 5294   1.653   0.944  10.491
 1285SOL     OW 5295   1.226   0.326   9.768
 1285SOL    HW1 5296   1.289   0.257   9.748
 1285SOL    HW2 5297   1.263   0.371   9.844
 1286SOL     OW 5298   0.589   0.744   9.994
 1286SOL    HW1 5299   0.633   0.827   9.974
 1286SOL    HW2 5300   0.529   0.731   9.921
 1287SOL     OW 5301   1.755   0.379  10.957
 1287SOL    HW1 5302   1.743   0.396  10.864
 1287SOL    HW2 5303   1.689   0.312  10.978
 1288SOL     OW 5304   1.753   0.931  10.820
 1288SOL    HW1 5305   1.740   1.024  10.834
 1288SOL    HW2 5306   1.732   0.917  10.727
 1289SOL     OW 5307   0.884   1.376   9.366
 1289SOL    HW1 5308   0.826   1.421   9.428
 1289SOL    HW2 5309   0.900   1.441   9.298
 1290SOL     OW 5310   0.670   1.780  10.250
 1290SOL    HW1 5311   0.656   1.871  10.225
 1290SOL    HW2 5312   0.765   1.768  10.241
 1291SOL     OW 5313   0.873   0.974  10.168
 1291SOL    HW1 5314   0.925   0.902  10.203
 1291SOL    HW2 5315   0.831   1.013  10.245
 1292SOL     OW 5316   1.076   0.980   9.402
 1292SOL    HW1 5317   1.054   1.035   9.326
 1292SOL    HW2 5318   1.153   0.931   9.374
 1293SOL     OW 5319   1.837   1.547  10.149
 1293SOL    HW1 5320   1.762   1.544  10.089
 1293SOL    HW2 5321   1.802   1.513  10.231
 1294SOL     OW 5322   0.209   1.244  11.169
 1294SOL    HW1 5323   0.138   1.306  11.154
 1294SOL    HW2 5324   0.237   1.260  11.259
 1295SOL     OW 5325   0.109   1.161   9.978
 1295SOL    HW1 5326   0.166   1.139  10.051
 1295SOL    HW2 5327   0.168   1.182   9.906
 1296SOL     OW 5328   0.673   1.409  10.936
 1296SOL    HW1 5329   0.597   1.377  10.985
 1296SOL    HW2 5330   0.689   1.496  10.971
 1297SOL     OW 5331   1.833   0.222  10.542
 1297SOL    HW1 5332   1.760   0.159  10.542
 1297SOL    HW2 5333   1.851   0.238  10.450
 1298SOL     OW 5334   0.448   0.431   9.849
 1298SOL    HW1 5335   0.459   0.366   9.780
 1298SOL    HW2 5336   0.383   0.393   9.908
 1299SOL     OW 5337   1.704   1.477  10.384
 1299SOL    HW1 5338   1.620   1.462  10.340
 1299SOL    HW2 5339   1.704   1.416  10.457
 1300SOL     OW 5340   0.360   0.554  10.601
 1300SOL    HW1 5341   0.407   0.489  10.654
 1300SOL    HW2 5342   0.373   0.525  10.511
 1301SOL     OW 5343   0.832   1.597   9.973
 1301SOL    HW1 5344   0.831   1.676   9.919
 1301SOL    HW2 5345   0.755   1.547   9.944
 1302SOL     OW 5346   1.422   0.220  10.436
 1302SOL    HW1 5347   1.487   0.173  10.489
 1302SOL    HW2 5348   1.372   0.271  10.500
 1303SOL     OW 5349   0.989   0.077  10.454
 1303SOL    HW1 5350   0.905   0.066  10.411
 1303SOL    HW2 5351   1.016  -0.013  10.476
 1304SOL     OW 5352   0.762   1.331   9.657
 1304SOL    HW1 5353   0.741   1.238   9.654
 1304SOL    HW2 5354   0.855   1.334   9.679
 1305SOL     OW 5355   0.615   1.559  10.598
 1305SOL    HW1 5356   0.615   1.648  10.634
 1305SOL    HW2 5357   0.703   1.548  10.563
 1306SOL     OW 5358   1.344   7.978   9.450
 1306SOL    HW1 5359   1.402   7.902   9.452
 1306SOL    HW2 5360   1.267   7.950   9.500
 1307SOL     OW 5361   1.318   0.478   9.992
 1307SOL    HW1 5362   1.255   0.550   9.989
 1307SOL    HW2 5363   1.303   0.437  10.077
 1308SOL     OW 5364   1.621   0.237  10.183
 1308SOL    HW1 5365   1.534   0.213  10.214
 1308SOL    HW2 5366   1.604   0.306  10.119
 1309SOL     OW 5367   0.076   1.083   9.599
 1309SOL    HW1 5368   0.158   1.042   9.571
 1309SOL    HW2 5369   0.019   1.009   9.623
 1310SOL     OW 5370   0.886   1.663   9.644
 1310SOL    HW1 5371   0.812   1.649   9.584
 1310SOL    HW2 5372   0.859   1.738   9.698
 1311SOL     OW 5373   0.233   0.705  11.247
 1311SOL    HW1 5374   0.217   0.643  11.319
 1311SOL    HW2 5375   0.245   0.649  11.170
 1312SOL     OW 5376   0.205   0.300  12.226
 1312SOL    HW1 5377   0.280   0.258  12.185
 1312SOL    HW2 5378   0.132   0.283  12.167
 1313SOL     OW 5379   7.982   0.437  11.772
 1313SOL    HW1 5380   7.897   0.416  11.811
 1313SOL    HW2 5381   7.996   0.368  11.707
 1314SOL     OW 5382   0.557   1.299  12.358
 1314SOL    HW1 5383   0.473   1.318  12.315
 1314SOL    HW2 5384   0.621   1.354  12.312
 1315SOL     OW 5385   1.554   1.493  11.844
 1315SOL    HW1 5386   1.508   1.491  11.928
 1315SOL    HW2 5387   1.486   1.514  11.780
 1316SOL     OW 5388   1.134   0.703  11.864
 1316SOL    HW1 5389   1.183   0.785  11.853
 1316SOL    HW2 5390   1.086   0.715  11.946
 1317SOL     OW 5391   1.798   0.588  11.390
 1317SOL    HW1 5392   1.762   0.587  11.301
 1317SOL    HW2 5393   1.749   0.520  11.436
 1318SOL     OW 5394   0.731   1.112  12.220
 1318SOL    HW1 5395   0.689   1.143  12.301
 1318SOL    HW2 5396   0.756   1.192  12.174
 1319SOL     OW 5397   0.683   1.005  11.818
 1319SOL    HW1 5398   0.753   0.996  11.882
 1319SOL    HW2 5399   0.616   1.057  11.863
 1320SOL     OW 5400   0.339   1.412  12.228
 1320SOL    HW1 5401   0.269   1.370  12.177
 1320SOL    HW2 5402   0.382   1.471  12.166
 1321SOL     OW 5403   1.604   0.461  11.901
 1321SOL    HW1 5404   1.534   0.479  11.839
 1321SOL    HW2 5405   1.604   0.537  11.960
 1322SOL     OW 5406   0.235   1.695  11.643
 1322SOL    HW1 5407   0.235   1.778  11.691
 1322SOL    HW2 5408   0.306   1.705  11.579
 1323SOL     OW 5409   0.267   1.429  11.667
 1323SOL    HW1 5410   0.257   1.524  11.680
 1323SOL    HW2 5411   0.224   1.390  11.743
 1324SOL     OW 5412   0.232   1.052  12.039
 1324SOL    HW1 5413   0.267   0.996  12.109
 1324SOL    HW2 5414   0.189   1.124  12.085
 1325SOL     OW 5415   0.560   1.003  11.319
 1325SOL    HW1 5416   0.617   1.037  11.249
 1325SOL    HW2 5417   0.605   1.026  11.400
 1326SOL     OW 5418   0.158   0.653  11.805
 1326SOL    HW1 5419   0.091   0.588  11.788
 1326SOL    HW2 5420   0.239   0.602  11.811
 1327SOL     OW 5421   1.843   1.749  11.502
 1327SOL    HW1 5422   1.914   1.726  11.561
 1327SOL    HW2 5423   1.857   1.841  11.480
 1328SOL     OW 5424   0.011   1.590  11.313
 1328SOL    HW1 5425   0.006   1.501  11.349
 1328SOL    HW2 5426   0.018   1.647  11.389
 1329SOL     OW 5427   1.671   0.885  11.784
 1329SOL    HW1 5428   1.763   0.882  11.807
 1329SOL    HW2 5429   1.664   0.954  11.719
 1330SOL     OW 5430   1.655   1.109  11.612
 1330SOL    HW1 5431   1.742   1.110  11.571
 1330SOL    HW2 5432   1.665   1.165  11.689
 1331SOL     OW 5433   0.157   0.733   0.296
 1331SOL    HW1 5434   0.143   0.691   0.380
 1331SOL    HW2 5435   0.225   0.799   0.313
 1332SOL     OW 5436   0.597   1.390  11.910
 1332SOL    HW1 5437   0.553   1.305  11.911
 1332SOL    HW2 5438   0.592   1.419  11.819
 1333SOL     OW 5439   0.844   0.039  11.739
 1333SOL    HW1 5440   0.881   0.116  11.697
 1333SOL    HW2 5441   0.752   0.038  11.711
 1334SOL     OW 5442   0.194   0.956  12.371
 1334SOL    HW1 5443   0.284   0.926  12.386
 1334SOL    HW2 5444   0.141   0.902  12.430
 1335SOL     OW 5445   1.532   1.008  11.379
 1335SOL    HW1 5446   1.464   0.950  11.413
 1335SOL    HW2 5447   1.577   1.041  11.457
 1336SOL     OW 5448   1.401   1.438  12.068
 1336SOL    HW1 5449   1.379   1.446  12.161
 1336SOL    HW2 5450   1.425   1.346  12.057
 1337SOL     OW 5451   1.653   1.759  11.752
 1337SOL    HW1 5452   1.632   1.721  11.667
 1337SOL    HW2 5453   1.658   1.684  11.811
 1338SOL     OW 5454   0.604   0.717  11.432
 1338SOL    HW1 5455   0.614   0.803  11.392
 1338SOL    HW2 5456   0.547   0.732  11.507
 1339SOL     OW 5457   1.293   0.375  12.110
 1339SOL    HW1 5458   1.203   0.342  12.113
 1339SOL    HW2 5459   1.341   0.317  12.170
 1340SOL     OW 5460   1.576   1.672  11.487
 1340SOL    HW1 5461   1.669   1.696  11.480
 1340SOL    HW2 5462   1.549   1.657  11.396
 1341SOL     OW 5463   0.999   0.415  12.376
 1341SOL    HW1 5464   0.907   0.428  12.398
 1341SOL    HW2 5465   0.998   0.359  12.299
 1342SOL     OW 5466   1.057   0.700  11.596
 1342SOL    HW1 5467   1.078   0.694  11.689
 1342SOL    HW2 5468   0.973   0.655  11.587
 1343SOL     OW 5469   0.065   1.741   0.247
 1343SOL    HW1 5470   0.050   1.777   0.335
 1343SOL    HW2 5471   0.062   1.817   0.189
 1344SOL     OW 5472   0.895   0.361  11.381
 1344SOL    HW1 5473   0.942   0.414  11.316
 1344SOL    HW2 5474   0.852   0.293  11.329
 1345SOL     OW 5475   1.378   1.138  11.697
 1345SOL    HW1 5476   1.464   1.133  11.656
 1345SOL    HW2 5477   1.330   1.204  11.647
 1346SOL     OW 5478   0.443   0.250  12.108
 1346SOL    HW1 5479   0.500   0.258  12.184
 1346SOL    HW2 5480   0.503   0.254  12.033
 1347SOL     OW 5481   0.993   1.442  11.636
 1347SOL    HW1 5482   0.965   1.520  11.588
 1347SOL    HW2 5483   0.985   1.465  11.728
 1348SOL     OW 5484   0.360   1.829  12.041
 1348SOL    HW1 5485   0.407   1.747  12.055
 1348SOL    HW2 5486   0.425   1.897  12.057
 1349SOL     OW 5487   1.786   1.010  12.033
 1349SOL    HW1 5488   1.764   1.079  11.971
 1349SOL    HW2 5489   1.762   1.046  12.118
 1350SOL     OW 5490   0.301   0.934  11.397
 1350SOL    HW1 5491   0.391   0.957  11.373
 1350SOL    HW2 5492   0.282   0.856  11.345
 1351SOL     OW 5493   1.465   0.752  11.895
 1351SOL    HW1 5494   1.477   0.716  11.983
 1351SOL    HW2 5495   1.546   0.800  11.877
 1352SOL     OW 5496   1.122   1.778  11.400
 1352SOL    HW1 5497   1.047   1.735  11.441
 1352SOL    HW2 5498   1.151   1.716  11.333
 1353SOL     OW 5499   1.634   1.379  11.269
 1353SOL    HW1 5500   1.595   1.466  11.254
 1353SOL    HW2 5501   1.567   1.318  11.242
 1354SOL     OW 5502   0.466   1.737  11.489
 1354SOL    HW1 5503   0.511   1.798  11.549
 1354SOL    HW2 5504   0.534   1.711  11.427
 1355SOL     OW 5505   1.424   0.133  11.579
 1355SOL    HW1 5506   1.437   0.104  11.489
 1355SOL    HW2 5507   1.513   0.139  11.615
 1356SOL     OW 5508   0.221   1.801  12.377
 1356SOL    HW1 5509   0.244   1.722  12.426
 1356SOL    HW2 5510   0.185   1.769  12.295
 1357SOL     OW 5511   0.953   1.689  12.065
 1357SOL    HW1 5512   1.040   1.651  12.056
 1357SOL    HW2 5513   0.900   1.645  11.999
 1358SOL     OW 5514   0.420   0.703  11.636
 1358SOL    HW1 5515   0.440   0.612  11.659
 1358SOL    HW2 5516   0.330   0.700  11.605
 1359SOL     OW 5517   0.580   0.133  11.278
 1359SOL    HW1 5518   0.658   0.090  11.312
 1359SOL    HW2 5519   0.560   0.085  11.197
 1360SOL     OW 5520   0.793   1.353  12.112
 1360SOL    HW1 5521   0.884   1.363  12.083
 1360SOL    HW2 5522   0.741   1.378  12.036
 1361SOL     OW 5523   0.919   0.519  12.062
 1361SOL    HW1 5524   0.891   0.508  11.971
 1361SOL    HW2 5525   0.957   0.435  12.086
 1362SOL     OW 5526   0.597   0.044  11.616
 1362SOL    HW1 5527   0.526  -0.014  11.643
 1362SOL    HW2 5528   0.554   0.125  11.590
 1363SOL     OW 5529   1.432   1.202  11.206
 1363SOL    HW1 5530   1.461   1.130  11.262
 1363SOL    HW2 5531   1.348   1.229  11.245
 1364SOL     OW 5532   0.279   0.059  11.360
 1364SOL    HW1 5533   0.357   0.104  11.328
 1364SOL    HW2 5534   0.311  -0.029  11.384
 1365SOL     OW 5535   0.955   0.266  11.632
 1365SOL    HW1 5536   0.928   0.291  11.544
 1365SOL    HW2 5537   1.050   0.277  11.633
 1366SOL     OW 5538   1.195   1.590  11.971
 1366SOL    HW1 5539   1.226   1.654  11.907
 1366SOL    HW2 5540   1.275   1.548  12.004
 1367SOL     OW 5541   0.457   1.151  11.900
 1367SOL    HW1 5542   0.390   1.118  11.961
 1367SOL    HW2 5543   0.420   1.135  11.813
 1368SOL     OW 5544   1.259   1.798  11.788
 1368SOL    HW1 5545   1.315   1.856  11.736
 1368SOL    HW2 5546   1.195   1.857  11.829
 1369SOL     OW 5547   1.028   0.528  11.202
 1369SOL    HW1 5548   0.985   0.611  11.180
 1369SOL    HW2 5549   1.092   0.551  11.269
 1370SOL     OW 5550   0.588   0.245  12.349
 1370SOL    HW1 5551   0.641   0.174  12.385
 1370SOL    HW2 5552   0.504   0.237  12.393
 1371SOL     OW 5553   0.853   0.460  11.803
 1371SOL    HW1 5554   0.823   0.517  11.732
 1371SOL    HW2 5555   0.889   0.383  11.759
 1372SOL     OW 5556   0.956   0.030  11.981
 1372SOL    HW1 5557   0.915   0.034  11.895
 1372SOL    HW2 5558   0.999  -0.056  11.983
 1373SOL     OW 5559   1.461   1.171  12.022
 1373SOL    HW1 5560   1.397   1.114  11.980
 1373SOL    HW2 5561   1.527   1.187  11.955
 1374SOL     OW 5562   1.464   0.612  12.134
 1374SOL    HW1 5563   1.411   0.532  12.137
 1374SOL    HW2 5564   1.527   0.601  12.205
 1375SOL     OW 5565   1.850   0.805  11.546
 1375SOL    HW1 5566   1.907   0.760  11.609
 1375SOL    HW2 5567   1.829   0.738  11.481
 1376SOL     OW 5568   0.483   1.429  11.295
 1376SOL    HW1 5569   0.411   1.393  11.347
 1376SOL    HW2 5570   0.511   1.356  11.239
 1377SOL     OW 5571   1.678   1.246  11.851
 1377SOL    HW1 5572   1.774   1.249  11.851
 1377SOL    HW2 5573   1.650   1.338  11.851
 1378SOL     OW 5574   1.397   0.584  11.243
 1378SOL    HW1 5575   1.336   0.556  11.311
 1378SOL    HW2 5576   1.484   0.568  11.281
 1379SOL     OW 5577   0.506   0.276  11.492
 1379SOL    HW1 5578   0.538   0.220  11.421
 1379SOL    HW2 5579   0.487   0.360  11.450
 1380SOL     OW 5580   1.108   1.231  12.276
 1380SOL    HW1 5581   1.018   1.237  12.308
 1380SOL    HW2 5582   1.104   1.266  12.187
 1381SOL     OW 5583   1.613   1.096  12.246
 1381SOL    HW1 5584   1.629   1.179  12.290
 1381SOL    HW2 5585   1.553   1.117  12.174
 1382SOL     OW 5586   0.703   1.057  11.547
 1382SOL    HW1 5587   0.694   1.040  11.641
 1382SOL    HW2 5588   0.781   1.007  11.521
 1383SOL     OW 5589   0.427   0.828  12.450
 1383SOL    HW1 5590   0.499   0.833  12.513
 1383SOL    HW2 5591   0.390   0.740  12.464
 1384SOL     OW 5592   1.258   0.358  12.440
 1384SOL    HW1 5593   1.299   0.439  12.471
 1384SOL    HW2 5594   1.171   0.385  12.411
 1385SOL     OW 5595   0.325   1.107  11.662
 1385SOL    HW1 5596   0.344   1.179  11.601
 1385SOL    HW2 5597   0.341   1.028  11.610
 1386SOL     OW 5598   0.544   0.542  12.033
 1386SOL    HW1 5599   0.563   0.603  11.962
 1386SOL    HW2 5600   0.613   0.558  12.097
 1387SOL     OW 5601   1.243   1.350  11.558
 1387SOL    HW1 5602   1.297   1.424  11.586
 1387SOL    HW2 5603   1.156   1.369  11.592
 1388SOL     OW 5604   1.299   1.438  12.321
 1388SOL    HW1 5605   1.359   1.437  12.396
 1388SOL    HW2 5606   1.246   1.359  12.332
 1389SOL     OW 5607   1.571   0.632  11.653
 1389SOL    HW1 5608   1.514   0.675  11.717
 1389SOL    HW2 5609   1.632   0.701  11.625
 1390SOL     OW 5610   0.287   1.535  12.465
 1390SOL    HW1 5611   0.316   1.500  12.381
 1390SOL    HW2 5612   0.357   1.513  12.527
 1391SOL     OW 5613   0.569   0.884  12.201
 1391SOL    HW1 5614   0.621   0.964  12.205
 1391SOL    HW2 5615   0.529   0.877  12.288
 1392SOL     OW 5616   1.328   0.848  12.200
 1392SOL    HW1 5617   1.259   0.842  12.134
 1392SOL    HW2 5618   1.383   0.771  12.184
 1393SOL     OW 5619   1.199   0.530  11.429
 1393SOL    HW1 5620   1.208   0.450  11.480
 1393SOL    HW2 5621   1.157   0.592  11.488
 1394SOL     OW 5622   0.350   0.187  12.453
 1394SOL    HW1 5623   0.274   0.241  12.473
 1394SOL    HW2 5624   0.318   0.124  12.388
 1395SOL     OW 5625   0.072   1.358  12.428
 1395SOL    HW1 5626   0.053   1.316  12.512
 1395SOL    HW2 5627   0.151   1.410  12.444
 1396SOL     OW 5628   0.724   0.639  12.222
 1396SOL    HW1 5629   0.795   0.616  12.163
 1396SOL    HW2 5630   0.696   0.726  12.193
 1397SOL     OW 5631   0.376   0.093  11.824
 1397SOL    HW1 5632   0.284   0.115  11.811
 1397SOL    HW2 5633   0.385   0.005  11.786
 1398SOL     OW 5634   1.636   0.402  11.526
 1398SOL    HW1 5635   1.638   0.330  11.589
 1398SOL    HW2 5636   1.603   0.477  11.577
 1399SOL     OW 5637   1.021   0.764  12.125
 1399SOL    HW1 5638   1.012   0.781  12.219
 1399SOL    HW2 5639   0.993   0.673  12.114
 1400SOL     OW 5640   1.578   0.282  11.289
 1400SOL    HW1 5641   1.482   0.282  11.291
 1400SOL    HW2 5642   1.603   0.323  11.372
 1401SOL     OW 5643   1.282   0.829  11.198
 1401SOL    HW1 5644   1.325   0.743  11.204
 1401SOL    HW2 5645   1.315   0.867  11.117
 1402SOL     OW 5646   1.057   1.347  12.031
 1402SOL    HW1 5647   1.068   1.274  11.969
 1402SOL    HW2 5648   1.112   1.417  11.996
 1403SOL     OW 5649   0.319   0.794  12.106
 1403SOL    HW1 5650   0.410   0.824  12.110
 1403SOL    HW2 5651   0.321   0.705  12.139
 1404SOL     OW 5652   0.324   0.540  12.185
 1404SOL    HW1 5653   0.293   0.450  12.199
 1404SOL    HW2 5654   0.400   0.530  12.129
 1405SOL     OW 5655   1.171   0.204   0.149
 1405SOL    HW1 5656   1.183   0.257   0.227
 1405SOL    HW2 5657   1.210   0.255   0.078
 1406SOL     OW 5658   7.978   1.307  11.372
 1406SOL    HW1 5659   7.893   1.300  11.328
 1406SOL    HW2 5660   8.000   1.217  11.395
 1407SOL     OW 5661   0.107   1.754  12.119
 1407SOL    HW1 5662   0.095   1.691  12.048
 1407SOL    HW2 5663   0.187   1.802  12.096
 1408SOL     OW 5664   0.494   1.583  12.077
 1408SOL    HW1 5665   0.565   1.643  12.100
 1408SOL    HW2 5666   0.534   1.520  12.017
 1409SOL     OW 5667   0.969   0.808  12.396
 1409SOL    HW1 5668   1.050   0.814  12.447
 1409SOL    HW2 5669   0.918   0.740  12.440
 1410SOL     OW 5670   0.079   0.593  12.299
 1410SOL    HW1 5671   0.171   0.585  12.273
 1410SOL    HW2 5672   0.069   0.527  12.368
 1411SOL     OW 5673   0.818   0.573  11.546
 1411SOL    HW1 5674   0.834   0.498  11.489
 1411SOL    HW2 5675   0.746   0.620  11.504
 1412SOL     OW 5676   1.657   0.606  12.328
 1412SOL    HW1 5677   1.651   0.561  12.412
 1412SOL    HW2 5678   1.750   0.606  12.307
 1413SOL     OW 5679   0.740   0.462  12.428
 1413SOL    HW1 5680   0.675   0.394  12.410
 1413SOL    HW2 5681   0.721   0.530  12.364
 1414SOL     OW 5682   0.874   1.668   0.046
 1414SOL    HW1 5683   0.896   1.701  -0.041
 1414SOL    HW2 5684   0.907   1.736   0.106
 1415SOL     OW 5685   0.456   0.497  11.347
 1415SOL    HW1 5686   0.513   0.573  11.361
 1415SOL    HW2 5687   0.374   0.521  11.390
 1416SOL     OW 5688   1.290   1.053  12.374
 1416SOL    HW1 5689   1.319   0.988  12.310
 1416SOL    HW2 5690   1.235   1.113  12.323
 1417SOL     OW 5691   1.318   0.858  11.472
 1417SOL    HW1 5692   1.245   0.821  11.522
 1417SOL    HW2 5693   1.293   0.845  11.380
 1418SOL     OW 5694   1.764   1.748  12.319
 1418SOL    HW1 5695   1.828   1.765  12.250
 1418SOL    HW2 5696   1.746   1.654  12.313
 1419SOL     OW 5697   1.252   1.714  12.308
 1419SOL    HW1 5698   1.324   1.756  12.260
 1419SOL    HW2 5699   1.267   1.620  12.295
 1420SOL     OW 5700   0.092   1.250  12.174
 1420SOL    HW1 5701   0.084   1.279  12.264
 1420SOL    HW2 5702   0.007   1.210  12.154
 1421SOL     OW 5703   1.693   0.167  11.666
 1421SOL    HW1 5704   1.766   0.153  11.605
 1421SOL    HW2 5705   1.716   0.114  11.742
 1422SOL     OW 5706   1.373   1.575  11.649
 1422SOL    HW1 5707   1.439   1.609  11.589
 1422SOL    HW2 5708   1.330   1.654  11.683
 1423SOL     OW 5709   1.276   0.939  11.848
 1423SOL    HW1 5710   1.348   0.877  11.859
 1423SOL    HW2 5711   1.310   1.004  11.786
 1424SOL     OW 5712   0.670   1.625  11.329
 1424SOL    HW1 5713   0.689   1.647  11.237
 1424SOL    HW2 5714   0.610   1.550  11.324
 1425SOL     OW 5715   1.625   1.795   0.051
 1425SOL    HW1 5716   1.673   1.773  -0.029
 1425SOL    HW2 5717   1.668   1.874   0.083
 1426SOL     OW 5718   1.843   0.175  12.123
 1426SOL    HW1 5719   1.848   0.080  12.137
 1426SOL    HW2 5720   1.757   0.188  12.082
 1427SOL     OW 5721   0.261   0.376  11.887
 1427SOL    HW1 5722   0.172   0.340  11.877
 1427SOL    HW2 5723   0.302   0.318  11.952
 1428SOL     OW 5724   1.210   1.604  11.207
 1428SOL    HW1 5725   1.197   1.510  11.223
 1428SOL    HW2 5726   1.154   1.623  11.132
 1429SOL     OW 5727   0.808   1.033   0.007
 1429SOL    HW1 5728   0.844   0.982  -0.066
 1429SOL    HW2 5729   0.879   1.036   0.071
 1430SOL     OW 5730   0.916   0.913  11.474
 1430SOL    HW1 5731   0.969   0.940  11.399
 1430SOL    HW2 5732   0.968   0.845  11.516
 1431SOL     OW 5733   1.493   1.621  11.221
 1431SOL    HW1 5734   1.399   1.620  11.207
 1431SOL    HW2 5735   1.531   1.631  11.134
 1432SOL     OW 5736   1.064   1.118  11.889
 1432SOL    HW1 5737   0.992   1.063  11.920
 1432SOL    HW2 5738   1.133   1.056  11.864
 1433SOL     OW 5739   1.029   0.264  12.125
 1433SOL    HW1 5740   1.003   0.214  12.047
 1433SOL    HW2 5741   1.047   0.197  12.191
 1434SOL     OW 5742   0.609   1.492  11.658
 1434SOL    HW1 5743   0.660   1.438  11.598
 1434SOL    HW2 5744   0.546   1.538  11.602
 1435SOL     OW 5745   1.731   0.452   0.050
 1435SOL    HW1 5746   1.799   0.445   0.118
 1435SOL    HW2 5747   1.750   0.381  -0.010
 1436SOL     OW 5748   0.254   1.331  11.423
 1436SOL    HW1 5749   0.158   1.330  11.417
 1436SOL    HW2 5750   0.272   1.369  11.509
 1437SOL     OW 5751   0.107   0.373  11.193
 1437SOL    HW1 5752   0.032   0.412  11.237
 1437SOL    HW2 5753   0.129   0.435  11.123
 1438SOL     OW 5754   0.109   0.288  11.518
 1438SOL    HW1 5755   0.083   0.251  11.434
 1438SOL    HW2 5756   0.134   0.212  11.571
 1439SOL     OW 5757   1.184   1.327  11.288
 1439SOL    HW1 5758   1.096   1.291  11.293
 1439SOL    HW2 5759   1.212   1.335  11.379
 1440SOL     OW 5760   1.482   1.793  12.169
 1440SOL    HW1 5761   1.499   1.860  12.103
 1440SOL    HW2 5762   1.567   1.755  12.187
 1441SOL     OW 5763   1.679   0.881  12.407
 1441SOL    HW1 5764   1.655   0.800  12.362
 1441SOL    HW2 5765   1.652   0.950  12.347
 1442SOL     OW 5766   1.224   0.321  11.622
 1442SOL    HW1 5767   1.290   0.253  11.609
 1442SOL    HW2 5768   1.253   0.369  11.700
 1443SOL     OW 5769   0.587   0.745  11.854
 1443SOL    HW1 5770   0.631   0.829  11.840
 1443SOL    HW2 5771   0.531   0.734  11.778
 1444SOL     OW 5772   1.801   0.876   0.146
 1444SOL    HW1 5773   1.813   0.967   0.172
 1444SOL    HW2 5774   1.754   0.880   0.063
 1445SOL     OW 5775   0.846   1.373  11.211
 1445SOL    HW1 5776   0.828   1.416  11.294
 1445SOL    HW2 5777   0.880   1.442  11.155
 1446SOL     OW 5778   0.669   1.789  12.118
 1446SOL    HW1 5779   0.651   1.877  12.086
 1446SOL    HW2 5780   0.764   1.779  12.109
 1447SOL     OW 5781   0.868   0.971  12.020
 1447SOL    HW1 5782   0.921   0.898  12.053
 1447SOL    HW2 5783   0.828   1.010  12.098
 1448SOL     OW 5784   1.057   0.971  11.252
 1448SOL    HW1 5785   1.045   1.031  11.179
 1448SOL    HW2 5786   1.138   0.925  11.232
 1449SOL     OW 5787   0.127   1.259  11.824
 1449SOL    HW1 5788   0.057   1.208  11.865
 1449SOL    HW2 5789   0.191   1.194  11.797
 1450SOL     OW 5790   1.830   0.256  12.390
 1450SOL    HW1 5791   1.792   0.177  12.428
 1450SOL    HW2 5792   1.839   0.237  12.297
 1451SOL     OW 5793   0.449   0.447  11.703
 1451SOL    HW1 5794   0.462   0.374  11.642
 1451SOL    HW2 5795   0.387   0.413  11.768
 1452SOL     OW 5796   1.685   1.483  12.314
 1452SOL    HW1 5797   1.724   1.479  12.227
 1452SOL    HW2 5798   1.741   1.428  12.368
 1453SOL     OW 5799   0.821   1.600  11.843
 1453SOL    HW1 5800   0.820   1.675  11.784
 1453SOL    HW2 5801   0.750   1.544  11.813
 1454SOL     OW 5802   1.442   0.223  12.284
 1454SOL    HW1 5803   1.508   0.170  12.329
 1454SOL    HW2 5804   1.387   0.257  12.354
 1455SOL     OW 5805   1.066   0.069  12.303
 1455SOL    HW1 5806   1.003   0.052  12.373
 1455SOL    HW2 5807   1.130  -0.002  12.310
 1456SOL     OW 5808   0.767   1.330  11.508
 1456SOL    HW1 5809   0.751   1.236  11.513
 1456SOL    HW2 5810   0.853   1.342  11.548
 1457SOL     OW 5811   1.348   7.977  11.296
 1457SOL    HW1 5812   1.404   7.901  11.306
 1457SOL    HW2 5813   1.273   7.959  11.353
 1458SOL     OW 5814   1.295   0.464  11.846
 1458SOL    HW1 5815   1.247   0.547  11.849
 1458SOL    HW2 5816   1.297   0.434  11.937
 1459SOL     OW 5817   1.599   0.218  12.027
 1459SOL    HW1 5818   1.528   0.219  12.092
 1459SOL    HW2 5819   1.590   0.301  11.981
 1460SOL     OW 5820   0.061   1.057  11.446
 1460SOL    HW1 5821   0.147   1.021  11.424
 1460SOL    HW2 5822   0.054   1.045  11.540
 1461SOL     OW 5823   0.886   1.663  11.511
 1461SOL    HW1 5824   0.812   1.652  11.451
 1461SOL    HW2 5825   0.862   1.738  11.565
 1462SOL     OW 5826   0.268   2.477   0.064
 1462SOL    HW1 5827   0.222   2.515   0.139
 1462SOL    HW2 5828   0.224   2.394   0.048
 1463SOL     OW 5829   0.238   2.133   0.990
 1463SOL    HW1 5830   0.270   2.105   1.076
 1463SOL    HW2 5831   0.151   2.093   0.984
 1464SOL     OW 5832   8.009   2.265   0.597
 1464SOL    HW1 5833   7.925   2.244   0.638
 1464SOL    HW2 5834   8.020   2.197   0.529
 1465SOL     OW 5835   0.570   3.163   1.192
 1465SOL    HW1 5836   0.489   3.170   1.141
 1465SOL    HW2 5837   0.587   3.252   1.222
 1466SOL     OW 5838   1.581   3.380   0.713
 1466SOL    HW1 5839   1.536   3.352   0.792
 1466SOL    HW2 5840   1.513   3.382   0.645
 1467SOL     OW 5841   1.128   2.567   0.693
 1467SOL    HW1 5842   1.179   2.648   0.683
 1467SOL    HW2 5843   1.084   2.577   0.777
 1468SOL     OW 5844   1.714   2.479   0.279
 1468SOL    HW1 5845   1.738   2.504   0.190
 1468SOL    HW2 5846   1.703   2.384   0.275
 1469SOL     OW 5847   0.735   2.996   1.047
 1469SOL    HW1 5848   0.674   3.034   1.110
 1469SOL    HW2 5849   0.777   3.071   1.005
 1470SOL     OW 5850   0.878   2.617   1.826
 1470SOL    HW1 5851   0.887   2.684   1.893
 1470SOL    HW2 5852   0.900   2.661   1.744
 1471SOL     OW 5853   0.686   2.855   0.648
 1471SOL    HW1 5854   0.754   2.848   0.715
 1471SOL    HW2 5855   0.620   2.914   0.686
 1472SOL     OW 5856   0.714   3.010   1.822
 1472SOL    HW1 5857   0.762   3.086   1.854
 1472SOL    HW2 5858   0.634   3.046   1.784
 1473SOL     OW 5859   0.340   3.273   1.056
 1473SOL    HW1 5860   0.286   3.225   0.993
 1473SOL    HW2 5861   0.389   3.336   1.003
 1474SOL     OW 5862   1.470   3.358   1.429
 1474SOL    HW1 5863   1.397   3.419   1.435
 1474SOL    HW2 5864   1.434   3.274   1.455
 1475SOL     OW 5865   0.448   2.246   1.483
 1475SOL    HW1 5866   0.533   2.203   1.488
 1475SOL    HW2 5867   0.385   2.176   1.500
 1476SOL     OW 5868   1.602   2.304   0.752
 1476SOL    HW1 5869   1.573   2.346   0.671
 1476SOL    HW2 5870   1.568   2.360   0.822
 1477SOL     OW 5871   0.252   3.560   0.515
 1477SOL    HW1 5872   0.249   3.647   0.554
 1477SOL    HW2 5873   0.301   3.571   0.434
 1478SOL     OW 5874   1.137   3.209   1.684
 1478SOL    HW1 5875   1.187   3.200   1.765
 1478SOL    HW2 5876   1.084   3.130   1.679
 1479SOL     OW 5877   0.265   3.296   0.515
 1479SOL    HW1 5878   0.262   3.390   0.534
 1479SOL    HW2 5879   0.231   3.255   0.595
 1480SOL     OW 5880   0.287   2.946   0.912
 1480SOL    HW1 5881   0.287   2.852   0.930
 1480SOL    HW2 5882   0.207   2.978   0.953
 1481SOL     OW 5883   0.606   3.657   1.411
 1481SOL    HW1 5884   0.529   3.635   1.463
 1481SOL    HW2 5885   0.632   3.744   1.443
 1482SOL     OW 5886   0.586   2.830   0.161
 1482SOL    HW1 5887   0.649   2.847   0.092
 1482SOL    HW2 5888   0.622   2.874   0.238
 1483SOL     OW 5889   1.586   1.999   1.457
 1483SOL    HW1 5890   1.628   2.074   1.416
 1483SOL    HW2 5891   1.573   2.025   1.548
 1484SOL     OW 5892   0.129   2.512   0.543
 1484SOL    HW1 5893   0.098   2.424   0.564
 1484SOL    HW2 5894   0.117   2.561   0.624
 1485SOL     OW 5895   1.856   3.599   0.315
 1485SOL    HW1 5896   1.925   3.576   0.377
 1485SOL    HW2 5897   1.867   3.692   0.298
 1486SOL     OW 5898   0.022   3.418   0.106
 1486SOL    HW1 5899   0.018   3.340   0.161
 1486SOL    HW2 5900   0.049   3.488   0.165
 1487SOL     OW 5901   1.689   2.790   0.647
 1487SOL    HW1 5902   1.748   2.744   0.587
 1487SOL    HW2 5903   1.650   2.859   0.594
 1488SOL     OW 5904   1.642   2.980   0.434
 1488SOL    HW1 5905   1.727   2.974   0.392
 1488SOL    HW2 5906   1.655   3.041   0.506
 1489SOL     OW 5907   0.157   2.625   1.595
 1489SOL    HW1 5908   0.252   2.621   1.599
 1489SOL    HW2 5909   0.135   2.711   1.631
 1490SOL     OW 5910   0.618   3.257   0.736
 1490SOL    HW1 5911   0.575   3.172   0.744
 1490SOL    HW2 5912   0.604   3.283   0.644
 1491SOL     OW 5913   1.306   3.128   1.403
 1491SOL    HW1 5914   1.323   3.053   1.346
 1491SOL    HW2 5915   1.344   3.103   1.487
 1492SOL     OW 5916   0.829   1.867   0.518
 1492SOL    HW1 5917   0.868   1.951   0.494
 1492SOL    HW2 5918   0.735   1.885   0.523
 1493SOL     OW 5919   0.186   2.802   1.251
 1493SOL    HW1 5920   0.276   2.770   1.258
 1493SOL    HW2 5921   0.153   2.764   1.170
 1494SOL     OW 5922   1.486   2.879   0.229
 1494SOL    HW1 5923   1.428   2.816   0.270
 1494SOL    HW2 5924   1.547   2.905   0.298
 1495SOL     OW 5925   1.192   3.685   1.629
 1495SOL    HW1 5926   1.190   3.747   1.556
 1495SOL    HW2 5927   1.198   3.599   1.587
 1496SOL     OW 5928   0.372   2.124   1.824
 1496SOL    HW1 5929   0.425   2.194   1.862
 1496SOL    HW2 5930   0.281   2.149   1.844
 1497SOL     OW 5931   1.459   3.284   0.939
 1497SOL    HW1 5932   1.404   3.294   1.016
 1497SOL    HW2 5933   1.446   3.193   0.912
 1498SOL     OW 5934   1.641   3.631   0.582
 1498SOL    HW1 5935   1.625   3.592   0.496
 1498SOL    HW2 5936   1.639   3.558   0.643
 1499SOL     OW 5937   0.597   2.575   0.279
 1499SOL    HW1 5938   0.604   2.663   0.242
 1499SOL    HW2 5939   0.530   2.583   0.347
 1500SOL     OW 5940   1.281   2.236   0.936
 1500SOL    HW1 5941   1.193   2.201   0.947
 1500SOL    HW2 5942   1.335   2.182   0.994
 1501SOL     OW 5943   1.594   3.525   0.330
 1501SOL    HW1 5944   1.688   3.541   0.322
 1501SOL    HW2 5945   1.564   3.519   0.239
 1502SOL     OW 5946   0.777   2.483   1.444
 1502SOL    HW1 5947   0.758   2.453   1.532
 1502SOL    HW2 5948   0.754   2.409   1.387
 1503SOL     OW 5949   1.387   2.327   1.679
 1503SOL    HW1 5950   1.397   2.381   1.758
 1503SOL    HW2 5951   1.449   2.255   1.691
 1504SOL     OW 5952   0.948   2.743   1.592
 1504SOL    HW1 5953   1.009   2.680   1.552
 1504SOL    HW2 5954   0.898   2.778   1.518
 1505SOL     OW 5955   0.995   2.273   1.223
 1505SOL    HW1 5956   0.904   2.285   1.252
 1505SOL    HW2 5957   0.988   2.222   1.142
 1506SOL     OW 5958   1.056   2.567   0.426
 1506SOL    HW1 5959   1.075   2.563   0.520
 1506SOL    HW2 5960   0.971   2.524   0.416
 1507SOL     OW 5961   0.099   2.649   0.777
 1507SOL    HW1 5962   0.179   2.657   0.827
 1507SOL    HW2 5963   0.045   2.724   0.804
 1508SOL     OW 5964   0.125   3.662   1.566
 1508SOL    HW1 5965   0.136   3.656   1.661
 1508SOL    HW2 5966   0.031   3.672   1.553
 1509SOL     OW 5967   0.890   2.223   0.221
 1509SOL    HW1 5968   0.923   2.286   0.158
 1509SOL    HW2 5969   0.880   2.142   0.171
 1510SOL     OW 5970   1.684   2.439   1.824
 1510SOL    HW1 5971   1.650   2.509   1.769
 1510SOL    HW2 5972   1.736   2.385   1.764
 1511SOL     OW 5973   1.383   3.007   0.539
 1511SOL    HW1 5974   1.463   2.997   0.488
 1511SOL    HW2 5975   1.328   3.064   0.486
 1512SOL     OW 5976   0.557   2.035   0.905
 1512SOL    HW1 5977   0.561   2.062   0.997
 1512SOL    HW2 5978   0.557   2.117   0.857
 1513SOL     OW 5979   0.997   3.300   0.471
 1513SOL    HW1 5980   0.961   3.377   0.428
 1513SOL    HW2 5981   0.971   3.308   0.563
 1514SOL     OW 5982   0.363   3.692   0.878
 1514SOL    HW1 5983   0.411   3.609   0.885
 1514SOL    HW2 5984   0.429   3.759   0.896
 1515SOL     OW 5985   1.796   2.876   0.892
 1515SOL    HW1 5986   1.755   2.860   0.807
 1515SOL    HW2 5987   1.726   2.908   0.947
 1516SOL     OW 5988   1.211   3.422   1.509
 1516SOL    HW1 5989   1.201   3.347   1.567
 1516SOL    HW2 5990   1.131   3.422   1.455
 1517SOL     OW 5991   0.310   2.816   0.232
 1517SOL    HW1 5992   0.401   2.843   0.218
 1517SOL    HW2 5993   0.278   2.792   0.144
 1518SOL     OW 5994   1.476   2.626   0.725
 1518SOL    HW1 5995   1.479   2.576   0.807
 1518SOL    HW2 5996   1.559   2.673   0.722
 1519SOL     OW 5997   0.469   3.129   1.749
 1519SOL    HW1 5998   0.448   3.132   1.655
 1519SOL    HW2 5999   0.384   3.114   1.792
 1520SOL     OW 6000   1.114   3.624   0.289
 1520SOL    HW1 6001   1.031   3.582   0.311
 1520SOL    HW2 6002   1.144   3.577   0.210
 1521SOL     OW 6003   0.185   2.114   1.498
 1521SOL    HW1 6004   0.173   2.184   1.561
 1521SOL    HW2 6005   0.159   2.034   1.544
 1522SOL     OW 6006   1.651   3.273   0.099
 1522SOL    HW1 6007   1.588   3.335   0.064
 1522SOL    HW2 6008   1.608   3.188   0.093
 1523SOL     OW 6009   0.448   3.606   0.319
 1523SOL    HW1 6010   0.497   3.661   0.382
 1523SOL    HW2 6011   0.516   3.565   0.266
 1524SOL     OW 6012   1.403   1.956   0.439
 1524SOL    HW1 6013   1.404   1.914   0.353
 1524SOL    HW2 6014   1.495   1.965   0.463
 1525SOL     OW 6015   0.231   3.657   1.218
 1525SOL    HW1 6016   0.294   3.589   1.245
 1525SOL    HW2 6017   0.196   3.625   1.135
 1526SOL     OW 6018   0.956   3.584   0.846
 1526SOL    HW1 6019   1.029   3.535   0.884
 1526SOL    HW2 6020   0.909   3.521   0.792
 1527SOL     OW 6021   0.401   2.556   0.475
 1527SOL    HW1 6022   0.423   2.463   0.483
 1527SOL    HW2 6023   0.310   2.561   0.504
 1528SOL     OW 6024   1.531   2.085   1.724
 1528SOL    HW1 6025   1.539   2.109   1.816
 1528SOL    HW2 6026   1.470   2.012   1.723
 1529SOL     OW 6027   0.634   1.992   0.113
 1529SOL    HW1 6028   0.727   1.969   0.116
 1529SOL    HW2 6029   0.625   2.049   0.036
 1530SOL     OW 6030   0.757   2.141   1.757
 1530SOL    HW1 6031   0.841   2.095   1.750
 1530SOL    HW2 6032   0.716   2.103   1.834
 1531SOL     OW 6033   0.875   3.394   1.191
 1531SOL    HW1 6034   0.855   3.349   1.109
 1531SOL    HW2 6035   0.939   3.337   1.234
 1532SOL     OW 6036   1.335   2.445   1.432
 1532SOL    HW1 6037   1.371   2.420   1.517
 1532SOL    HW2 6038   1.387   2.521   1.406
 1533SOL     OW 6039   0.815   3.250   0.953
 1533SOL    HW1 6040   0.899   3.239   0.909
 1533SOL    HW2 6041   0.752   3.258   0.882
 1534SOL     OW 6042   0.928   2.372   0.898
 1534SOL    HW1 6043   0.903   2.361   0.806
 1534SOL    HW2 6044   0.960   2.286   0.924
 1535SOL     OW 6045   0.558   1.921   0.503
 1535SOL    HW1 6046   0.480   1.924   0.559
 1535SOL    HW2 6047   0.550   1.998   0.446
 1536SOL     OW 6048   1.465   3.078   0.045
 1536SOL    HW1 6049   1.476   3.001   0.100
 1536SOL    HW2 6050   1.372   3.099   0.052
 1537SOL     OW 6051   0.299   1.954   0.205
 1537SOL    HW1 6052   0.378   2.008   0.201
 1537SOL    HW2 6053   0.330   1.869   0.236
 1538SOL     OW 6054   0.948   2.109   0.463
 1538SOL    HW1 6055   0.922   2.150   0.381
 1538SOL    HW2 6056   1.043   2.124   0.468
 1539SOL     OW 6057   1.084   2.549   1.453
 1539SOL    HW1 6058   1.031   2.471   1.468
 1539SOL    HW2 6059   1.174   2.516   1.451
 1540SOL     OW 6060   1.217   3.426   0.798
 1540SOL    HW1 6061   1.244   3.476   0.722
 1540SOL    HW2 6062   1.293   3.427   0.856
 1541SOL     OW 6063   0.476   3.021   0.726
 1541SOL    HW1 6064   0.415   2.998   0.796
 1541SOL    HW2 6065   0.427   3.006   0.645
 1542SOL     OW 6066   1.225   3.722   0.643
 1542SOL    HW1 6067   1.263   3.746   0.558
 1542SOL    HW2 6068   1.297   3.733   0.705
 1543SOL     OW 6069   1.023   2.403   0.057
 1543SOL    HW1 6070   1.012   2.487   0.012
 1543SOL    HW2 6071   1.092   2.420   0.122
 1544SOL     OW 6072   0.097   2.499   1.366
 1544SOL    HW1 6073   0.184   2.464   1.345
 1544SOL    HW2 6074   0.109   2.544   1.449
 1545SOL     OW 6075   0.562   2.083   1.179
 1545SOL    HW1 6076   0.606   2.015   1.229
 1545SOL    HW2 6077   0.471   2.079   1.207
 1546SOL     OW 6078   0.864   2.318   0.638
 1546SOL    HW1 6079   0.829   2.375   0.569
 1546SOL    HW2 6080   0.889   2.238   0.592
 1547SOL     OW 6081   1.023   1.914   0.742
 1547SOL    HW1 6082   0.959   1.909   0.671
 1547SOL    HW2 6083   0.999   1.844   0.802
 1548SOL     OW 6084   1.423   3.025   0.853
 1548SOL    HW1 6085   1.369   2.947   0.866
 1548SOL    HW2 6086   1.440   3.027   0.758
 1549SOL     OW 6087   1.471   2.463   0.953
 1549SOL    HW1 6088   1.405   2.395   0.967
 1549SOL    HW2 6089   1.526   2.458   1.031
 1550SOL     OW 6090   1.842   2.679   0.445
 1550SOL    HW1 6091   1.892   2.610   0.489
 1550SOL    HW2 6092   1.799   2.635   0.372
 1551SOL     OW 6093   0.485   3.269   0.159
 1551SOL    HW1 6094   0.425   3.211   0.207
 1551SOL    HW2 6095   0.429   3.315   0.097
 1552SOL     OW 6096   1.684   3.125   0.654
 1552SOL    HW1 6097   1.778   3.118   0.667
 1552SOL    HW2 6098   1.663   3.216   0.672
 1553SOL     OW 6099   1.393   2.410   0.081
 1553SOL    HW1 6100   1.341   2.405   0.161
 1553SOL    HW2 6101   1.460   2.342   0.091
 1554SOL     OW 6102   0.519   2.118   0.321
 1554SOL    HW1 6103   0.572   2.073   0.255
 1554SOL    HW2 6104   0.500   2.203   0.281
 1555SOL     OW 6105   1.733   3.113   1.550
 1555SOL    HW1 6106   1.784   3.035   1.569
 1555SOL    HW2 6107   1.784   3.185   1.588
 1556SOL     OW 6108   1.044   3.218   1.329
 1556SOL    HW1 6109   0.971   3.184   1.381
 1556SOL    HW2 6110   1.122   3.184   1.373
 1557SOL     OW 6111   1.622   3.500   1.612
 1557SOL    HW1 6112   1.565   3.441   1.562
 1557SOL    HW2 6113   1.694   3.445   1.642
 1558SOL     OW 6114   1.137   3.093   1.094
 1558SOL    HW1 6115   1.073   3.122   1.159
 1558SOL    HW2 6116   1.100   3.119   1.010
 1559SOL     OW 6117   1.621   2.975   1.077
 1559SOL    HW1 6118   1.617   3.031   1.154
 1559SOL    HW2 6119   1.535   2.984   1.036
 1560SOL     OW 6120   0.919   1.954   1.387
 1560SOL    HW1 6121   0.944   1.935   1.297
 1560SOL    HW2 6122   0.997   1.993   1.427
 1561SOL     OW 6123   0.981   2.985   1.713
 1561SOL    HW1 6124   0.891   2.992   1.743
 1561SOL    HW2 6125   0.984   2.902   1.665
 1562SOL     OW 6126   0.716   2.926   0.382
 1562SOL    HW1 6127   0.703   2.903   0.474
 1562SOL    HW2 6128   0.794   2.877   0.355
 1563SOL     OW 6129   0.430   2.681   1.256
 1563SOL    HW1 6130   0.495   2.695   1.325
 1563SOL    HW2 6131   0.401   2.591   1.268
 1564SOL     OW 6132   1.261   2.235   1.279
 1564SOL    HW1 6133   1.294   2.310   1.328
 1564SOL    HW2 6134   1.170   2.258   1.258
 1565SOL     OW 6135   0.069   3.425   1.323
 1565SOL    HW1 6136   0.059   3.517   1.344
 1565SOL    HW2 6137   0.164   3.411   1.321
 1566SOL     OW 6138   0.323   2.970   0.497
 1566SOL    HW1 6139   0.315   3.039   0.431
 1566SOL    HW2 6140   0.344   2.891   0.447
 1567SOL     OW 6141   0.545   2.385   0.855
 1567SOL    HW1 6142   0.559   2.446   0.782
 1567SOL    HW2 6143   0.612   2.409   0.919
 1568SOL     OW 6144   1.245   3.209   0.394
 1568SOL    HW1 6145   1.300   3.279   0.428
 1568SOL    HW2 6146   1.157   3.230   0.426
 1569SOL     OW 6147   1.300   3.309   1.158
 1569SOL    HW1 6148   1.326   3.290   1.248
 1569SOL    HW2 6149   1.239   3.239   1.135
 1570SOL     OW 6150   1.561   2.451   0.514
 1570SOL    HW1 6151   1.513   2.523   0.556
 1570SOL    HW2 6152   1.604   2.492   0.439
 1571SOL     OW 6153   0.337   3.367   1.308
 1571SOL    HW1 6154   0.337   3.332   1.219
 1571SOL    HW2 6155   0.427   3.394   1.323
 1572SOL     OW 6156   0.434   2.586   1.619
 1572SOL    HW1 6157   0.487   2.637   1.558
 1572SOL    HW2 6158   0.493   2.516   1.649
 1573SOL     OW 6159   0.990   2.001   1.745
 1573SOL    HW1 6160   1.050   2.074   1.729
 1573SOL    HW2 6161   1.041   1.923   1.723
 1574SOL     OW 6162   0.507   1.896   1.748
 1574SOL    HW1 6163   0.458   1.843   1.685
 1574SOL    HW2 6164   0.454   1.975   1.760
 1575SOL     OW 6165   0.587   2.739   1.032
 1575SOL    HW1 6166   0.627   2.826   1.037
 1575SOL    HW2 6167   0.536   2.731   1.113
 1576SOL     OW 6168   1.341   2.735   1.015
 1576SOL    HW1 6169   1.258   2.701   0.984
 1576SOL    HW2 6170   1.396   2.657   1.028
 1577SOL     OW 6171   1.203   2.386   0.279
 1577SOL    HW1 6172   1.219   2.314   0.339
 1577SOL    HW2 6173   1.159   2.452   0.331
 1578SOL     OW 6174   0.299   2.054   1.251
 1578SOL    HW1 6175   0.258   2.084   1.331
 1578SOL    HW2 6176   0.286   1.960   1.250
 1579SOL     OW 6177   0.715   2.484   1.045
 1579SOL    HW1 6178   0.795   2.471   0.994
 1579SOL    HW2 6179   0.692   2.576   1.030
 1580SOL     OW 6180   1.732   2.837   1.837
 1580SOL    HW1 6181   1.685   2.779   1.776
 1580SOL    HW2 6182   1.679   2.837   1.916
 1581SOL     OW 6183   0.313   1.932   0.629
 1581SOL    HW1 6184   0.287   2.023   0.647
 1581SOL    HW2 6185   0.324   1.893   0.715
 1582SOL     OW 6186   1.610   2.223   0.368
 1582SOL    HW1 6187   1.649   2.157   0.426
 1582SOL    HW2 6188   1.584   2.294   0.426
 1583SOL     OW 6189   1.026   2.621   0.960
 1583SOL    HW1 6190   1.015   2.636   1.054
 1583SOL    HW2 6191   1.001   2.529   0.948
 1584SOL     OW 6192   0.981   3.432   1.727
 1584SOL    HW1 6193   0.964   3.473   1.642
 1584SOL    HW2 6194   1.021   3.348   1.705
 1585SOL     OW 6195   1.857   3.365   1.608
 1585SOL    HW1 6196   1.895   3.385   1.523
 1585SOL    HW2 6197   1.930   3.374   1.670
 1586SOL     OW 6198   0.368   2.805   1.791
 1586SOL    HW1 6199   0.438   2.823   1.853
 1586SOL    HW2 6200   0.395   2.725   1.746
 1587SOL     OW 6201   1.498   2.138   0.136
 1587SOL    HW1 6202   1.449   2.065   0.173
 1587SOL    HW2 6203   1.551   2.171   0.209
 1588SOL     OW 6204   1.288   2.667   0.059
 1588SOL    HW1 6205   1.337   2.585   0.048
 1588SOL    HW2 6206   1.331   2.729   0.001
 1589SOL     OW 6207   1.059   3.204   0.852
 1589SOL    HW1 6208   1.069   3.131   0.791
 1589SOL    HW2 6209   1.119   3.271   0.819
 1590SOL     OW 6210   0.320   2.665   0.943
 1590SOL    HW1 6211   0.414   2.687   0.945
 1590SOL    HW2 6212   0.316   2.575   0.975
 1591SOL     OW 6213   0.331   2.384   1.014
 1591SOL    HW1 6214   0.297   2.296   1.001
 1591SOL    HW2 6215   0.407   2.389   0.956
 1592SOL     OW 6216   1.131   2.234   1.685
 1592SOL    HW1 6217   1.088   2.286   1.752
 1592SOL    HW2 6218   1.221   2.268   1.681
 1593SOL     OW 6219   1.159   2.060   1.470
 1593SOL    HW1 6220   1.150   2.121   1.543
 1593SOL    HW2 6221   1.206   2.109   1.403
 1594SOL     OW 6222   7.994   3.158   0.201
 1594SOL    HW1 6223   7.911   3.186   0.238
 1594SOL    HW2 6224   8.003   3.066   0.227
 1595SOL     OW 6225   0.118   3.594   0.945
 1595SOL    HW1 6226   0.103   3.546   0.864
 1595SOL    HW2 6227   0.196   3.647   0.927
 1596SOL     OW 6228   0.496   3.441   0.907
 1596SOL    HW1 6229   0.566   3.503   0.928
 1596SOL    HW2 6230   0.535   3.380   0.844
 1597SOL     OW 6231   0.963   2.649   1.226
 1597SOL    HW1 6232   1.029   2.630   1.293
 1597SOL    HW2 6233   0.884   2.604   1.257
 1598SOL     OW 6234   0.070   2.411   1.111
 1598SOL    HW1 6235   0.164   2.404   1.093
 1598SOL    HW2 6236   0.065   2.436   1.203
 1599SOL     OW 6237   0.191   2.356   1.648
 1599SOL    HW1 6238   0.283   2.356   1.622
 1599SOL    HW2 6239   0.163   2.447   1.639
 1600SOL     OW 6240   1.325   2.846   1.648
 1600SOL    HW1 6241   1.367   2.932   1.644
 1600SOL    HW2 6242   1.395   2.783   1.636
 1601SOL     OW 6243   0.818   2.439   0.382
 1601SOL    HW1 6244   0.827   2.363   0.325
 1601SOL    HW2 6245   0.743   2.487   0.346
 1602SOL     OW 6246   1.640   2.453   1.166
 1602SOL    HW1 6247   1.639   2.402   1.247
 1602SOL    HW2 6248   1.732   2.455   1.140
 1603SOL     OW 6249   0.302   3.398   1.726
 1603SOL    HW1 6250   0.264   3.471   1.775
 1603SOL    HW2 6251   0.304   3.326   1.788
 1604SOL     OW 6252   0.717   2.304   1.249
 1604SOL    HW1 6253   0.661   2.229   1.226
 1604SOL    HW2 6254   0.706   2.365   1.176
 1605SOL     OW 6255   0.928   3.540   1.471
 1605SOL    HW1 6256   0.886   3.500   1.395
 1605SOL    HW2 6257   0.919   3.634   1.458
 1606SOL     OW 6258   0.471   2.346   0.193
 1606SOL    HW1 6259   0.533   2.415   0.215
 1606SOL    HW2 6260   0.405   2.389   0.139
 1607SOL     OW 6261   0.142   2.999   1.434
 1607SOL    HW1 6262   0.138   2.955   1.518
 1607SOL    HW2 6263   0.157   2.928   1.371
 1608SOL     OW 6264   1.328   2.931   1.210
 1608SOL    HW1 6265   1.343   2.855   1.153
 1608SOL    HW2 6266   1.259   2.981   1.165
 1609SOL     OW 6267   1.299   2.704   0.332
 1609SOL    HW1 6268   1.222   2.665   0.374
 1609SOL    HW2 6269   1.292   2.679   0.240
 1610SOL     OW 6270   1.787   3.584   1.185
 1610SOL    HW1 6271   1.836   3.620   1.112
 1610SOL    HW2 6272   1.747   3.504   1.151
 1611SOL     OW 6273   1.240   3.583   1.097
 1611SOL    HW1 6274   1.321   3.612   1.055
 1611SOL    HW2 6275   1.258   3.493   1.125
 1612SOL     OW 6276   0.030   3.053   1.004
 1612SOL    HW1 6277  -0.028   3.121   1.038
 1612SOL    HW2 6278   0.007   3.045   0.912
 1613SOL     OW 6279   0.679   3.538   1.749
 1613SOL    HW1 6280   0.618   3.611   1.745
 1613SOL    HW2 6281   0.755   3.568   1.699
 1614SOL     OW 6282   0.904   1.968   0.101
 1614SOL    HW1 6283   0.946   1.997   0.020
 1614SOL    HW2 6284   0.975   1.929   0.152
 1615SOL     OW 6285   1.724   2.018   0.508
 1615SOL    HW1 6286   1.794   1.997   0.447
 1615SOL    HW2 6287   1.704   1.934   0.552
 1616SOL     OW 6288   1.390   3.437   0.495
 1616SOL    HW1 6289   1.463   3.452   0.435
 1616SOL    HW2 6290   1.328   3.507   0.475
 1617SOL     OW 6291   0.177   3.606   1.841
 1617SOL    HW1 6292   0.112   3.560   1.893
 1617SOL    HW2 6293   0.221   3.664   1.903
 1618SOL     OW 6294   1.273   2.797   0.671
 1618SOL    HW1 6295   1.347   2.737   0.687
 1618SOL    HW2 6296   1.309   2.864   0.613
 1619SOL     OW 6297   0.794   3.140   1.421
 1619SOL    HW1 6298   0.767   3.184   1.501
 1619SOL    HW2 6299   0.718   3.149   1.363
 1620SOL     OW 6300   0.662   3.473   0.198
 1620SOL    HW1 6301   0.720   3.481   0.122
 1620SOL    HW2 6302   0.613   3.392   0.182
 1621SOL     OW 6303   1.838   2.027   0.959
 1621SOL    HW1 6304   1.869   1.939   0.939
 1621SOL    HW2 6305   1.750   2.031   0.923
 1622SOL     OW 6306   0.257   2.184   0.713
 1622SOL    HW1 6307   0.171   2.222   0.693
 1622SOL    HW2 6308   0.255   2.172   0.808
 1623SOL     OW 6309   1.195   3.482   0.070
 1623SOL    HW1 6310   1.190   3.387   0.080
 1623SOL    HW2 6311   1.173   3.498  -0.022
 1624SOL     OW 6312   0.822   2.868   1.381
 1624SOL    HW1 6313   0.874   2.854   1.302
 1624SOL    HW2 6314   0.822   2.963   1.393
 1625SOL     OW 6315   0.929   2.787   0.296
 1625SOL    HW1 6316   0.986   2.812   0.224
 1625SOL    HW2 6317   0.976   2.717   0.341
 1626SOL     OW 6318   1.460   3.441   0.019
 1626SOL    HW1 6319   1.372   3.472   0.043
 1626SOL    HW2 6320   1.513   3.520   0.013
 1627SOL     OW 6321   0.377   3.150   1.496
 1627SOL    HW1 6322   0.368   3.227   1.440
 1627SOL    HW2 6323   0.306   3.091   1.467
 1628SOL     OW 6324   1.622   3.158   1.291
 1628SOL    HW1 6325   1.672   3.121   1.363
 1628SOL    HW2 6326   1.571   3.229   1.331
 1629SOL     OW 6327   1.063   2.974   0.712
 1629SOL    HW1 6328   0.992   2.922   0.750
 1629SOL    HW2 6329   1.131   2.911   0.691
 1630SOL     OW 6330   1.026   2.107   0.964
 1630SOL    HW1 6331   1.027   2.061   0.880
 1630SOL    HW2 6332   1.023   2.037   1.030
 1631SOL     OW 6333   0.605   3.341   0.478
 1631SOL    HW1 6334   0.651   3.297   0.406
 1631SOL    HW2 6335   0.526   3.377   0.438
 1632SOL     OW 6336   1.728   2.258   1.378
 1632SOL    HW1 6337   1.802   2.319   1.380
 1632SOL    HW2 6338   1.756   2.188   1.320
 1633SOL     OW 6339   0.268   3.154   0.293
 1633SOL    HW1 6340   0.182   3.168   0.253
 1633SOL    HW2 6341   0.269   3.214   0.367
 1634SOL     OW 6342   0.124   2.880   1.684
 1634SOL    HW1 6343   0.071   2.941   1.735
 1634SOL    HW2 6344   0.204   2.869   1.735
 1635SOL     OW 6345   0.681   2.061   1.497
 1635SOL    HW1 6346   0.765   2.036   1.460
 1635SOL    HW2 6347   0.701   2.087   1.587
 1636SOL     OW 6348   0.120   2.235   0.011
 1636SOL    HW1 6349   0.046   2.253   0.070
 1636SOL    HW2 6350   0.098   2.282  -0.069
 1637SOL     OW 6351   1.448   2.688   1.348
 1637SOL    HW1 6352   1.401   2.772   1.346
 1637SOL    HW2 6353   1.490   2.686   1.434
 1638SOL     OW 6354   0.082   2.093   0.374
 1638SOL    HW1 6355   0.042   2.131   0.296
 1638SOL    HW2 6356   0.167   2.062   0.344
 1639SOL     OW 6357   1.191   3.206   0.113
 1639SOL    HW1 6358   1.096   3.196   0.104
 1639SOL    HW2 6359   1.208   3.192   0.206
 1640SOL     OW 6360   0.618   2.699   1.446
 1640SOL    HW1 6361   0.677   2.773   1.432
 1640SOL    HW2 6362   0.675   2.623   1.448
 1641SOL     OW 6363   1.478   3.654   0.968
 1641SOL    HW1 6364   1.509   3.736   0.929
 1641SOL    HW2 6365   1.558   3.609   0.995
 1642SOL     OW 6366   0.706   2.421   1.701
 1642SOL    HW1 6367   0.759   2.478   1.758
 1642SOL    HW2 6368   0.727   2.332   1.731
 1643SOL     OW 6369   1.466   3.096   1.625
 1643SOL    HW1 6370   1.462   3.089   1.720
 1643SOL    HW2 6371   1.560   3.094   1.605
 1644SOL     OW 6372   0.385   3.591   1.550
 1644SOL    HW1 6373   0.295   3.621   1.537
 1644SOL    HW2 6374   0.376   3.511   1.601
 1645SOL     OW 6375   1.725   2.743   1.223
 1645SOL    HW1 6376   1.664   2.669   1.232
 1645SOL    HW2 6377   1.674   2.811   1.179
 1646SOL     OW 6378   1.222   2.170   0.449
 1646SOL    HW1 6379   1.286   2.100   0.449
 1646SOL    HW2 6380   1.241   2.220   0.529
 1647SOL     OW 6381   0.584   2.595   0.679
 1647SOL    HW1 6382   0.627   2.679   0.666
 1647SOL    HW2 6383   0.524   2.587   0.605
 1648SOL     OW 6384   1.767   2.216   1.651
 1648SOL    HW1 6385   1.745   2.242   1.561
 1648SOL    HW2 6386   1.690   2.167   1.680
 1649SOL     OW 6387   1.809   2.800   1.480
 1649SOL    HW1 6388   1.741   2.766   1.539
 1649SOL    HW2 6389   1.775   2.783   1.392
 1650SOL     OW 6390   0.916   3.235   0.066
 1650SOL    HW1 6391   0.858   3.217   0.140
 1650SOL    HW2 6392   0.899   3.327   0.045
 1651SOL     OW 6393   0.676   3.642   0.930
 1651SOL    HW1 6394   0.648   3.733   0.920
 1651SOL    HW2 6395   0.771   3.644   0.921
 1652SOL     OW 6396   0.871   2.833   0.854
 1652SOL    HW1 6397   0.921   2.760   0.891
 1652SOL    HW2 6398   0.830   2.874   0.930
 1653SOL     OW 6399   1.085   2.849   0.074
 1653SOL    HW1 6400   1.127   2.918   0.023
 1653SOL    HW2 6401   1.154   2.784   0.087
 1654SOL     OW 6402   1.849   3.409   0.839
 1654SOL    HW1 6403   1.766   3.397   0.794
 1654SOL    HW2 6404   1.856   3.334   0.898
 1655SOL     OW 6405   0.216   3.154   1.862
 1655SOL    HW1 6406   0.122   3.138   1.854
 1655SOL    HW2 6407   0.232   3.163   1.956
 1656SOL     OW 6408   0.150   3.118   0.684
 1656SOL    HW1 6409   0.067   3.074   0.703
 1656SOL    HW2 6410   0.203   3.052   0.640
 1657SOL     OW 6411   0.679   3.280   1.628
 1657SOL    HW1 6412   0.604   3.237   1.671
 1657SOL    HW2 6413   0.683   3.367   1.668
 1658SOL     OW 6414   1.800   2.049   1.230
 1658SOL    HW1 6415   1.844   1.970   1.261
 1658SOL    HW2 6416   1.813   2.048   1.135
 1659SOL     OW 6417   0.429   2.295   0.524
 1659SOL    HW1 6418   0.462   2.223   0.471
 1659SOL    HW2 6419   0.381   2.253   0.595
 1660SOL     OW 6420   1.683   3.349   1.096
 1660SOL    HW1 6421   1.611   3.325   1.038
 1660SOL    HW2 6422   1.688   3.278   1.159
 1661SOL     OW 6423   0.348   2.421   1.297
 1661SOL    HW1 6424   0.391   2.362   1.358
 1661SOL    HW2 6425   0.368   2.385   1.211
 1662SOL     OW 6426   0.828   3.428   0.668
 1662SOL    HW1 6427   0.801   3.463   0.583
 1662SOL    HW2 6428   0.756   3.371   0.695
 1663SOL     OW 6429   1.433   2.098   1.118
 1663SOL    HW1 6430   1.476   2.029   1.170
 1663SOL    HW2 6431   1.379   2.145   1.181
 1664SOL     OW 6432   1.012   1.880   1.130
 1664SOL    HW1 6433   0.955   1.814   1.090
 1664SOL    HW2 6434   1.099   1.841   1.128
 1665SOL     OW 6435   0.787   3.186   0.312
 1665SOL    HW1 6436   0.755   3.098   0.332
 1665SOL    HW2 6437   0.863   3.197   0.369
 1666SOL     OW 6438   0.615   3.420   1.281
 1666SOL    HW1 6439   0.613   3.504   1.327
 1666SOL    HW2 6440   0.704   3.414   1.246
 1667SOL     OW 6441   1.361   1.874   0.174
 1667SOL    HW1 6442   1.401   1.873   0.087
 1667SOL    HW2 6443   1.285   1.931   0.165
 1668SOL     OW 6444   1.265   2.318   0.671
 1668SOL    HW1 6445   1.224   2.405   0.680
 1668SOL    HW2 6446   1.280   2.290   0.761
 1669SOL     OW 6447   1.576   2.050   0.883
 1669SOL    HW1 6448   1.526   2.076   0.960
 1669SOL    HW2 6449   1.578   2.128   0.828
 1670SOL     OW 6450   0.039   2.906   0.288
 1670SOL    HW1 6451   0.132   2.890   0.273
 1670SOL    HW2 6452   0.030   2.908   0.384
 1671SOL     OW 6453   0.868   3.523   0.376
 1671SOL    HW1 6454   0.792   3.506   0.321
 1671SOL    HW2 6455   0.848   3.606   0.419
 1672SOL     OW 6456   0.229   2.544   1.944
 1672SOL    HW1 6457   0.205   2.489   2.019
 1672SOL    HW2 6458   0.264   2.482   1.880
 1673SOL     OW 6459   0.237   2.130   2.848
 1673SOL    HW1 6460   0.267   2.103   2.935
 1673SOL    HW2 6461   0.154   2.085   2.836
 1674SOL     OW 6462   8.008   2.266   2.454
 1674SOL    HW1 6463   7.933   2.237   2.506
 1674SOL    HW2 6464   8.019   2.197   2.388
 1675SOL     OW 6465   0.573   3.162   3.057
 1675SOL    HW1 6466   0.485   3.164   3.018
 1675SOL    HW2 6467   0.588   3.251   3.087
 1676SOL     OW 6468   1.578   3.380   2.576
 1676SOL    HW1 6469   1.534   3.354   2.657
 1676SOL    HW2 6470   1.512   3.369   2.508
 1677SOL     OW 6471   1.133   2.566   2.552
 1677SOL    HW1 6472   1.181   2.649   2.545
 1677SOL    HW2 6473   1.086   2.573   2.635
 1678SOL     OW 6474   1.760   2.463   2.086
 1678SOL    HW1 6475   1.737   2.461   1.994
 1678SOL    HW2 6476   1.734   2.377   2.120
 1679SOL     OW 6477   0.733   2.991   2.911
 1679SOL    HW1 6478   0.674   3.031   2.974
 1679SOL    HW2 6479   0.772   3.066   2.865
 1680SOL     OW 6480   0.880   2.614   3.695
 1680SOL    HW1 6481   0.879   2.678   3.767
 1680SOL    HW2 6482   0.903   2.666   3.618
 1681SOL     OW 6483   0.690   2.859   2.506
 1681SOL    HW1 6484   0.757   2.851   2.574
 1681SOL    HW2 6485   0.623   2.916   2.545
 1682SOL     OW 6486   0.710   3.009   3.673
 1682SOL    HW1 6487   0.749   3.089   3.710
 1682SOL    HW2 6488   0.626   3.038   3.637
 1683SOL     OW 6489   0.332   3.273   2.931
 1683SOL    HW1 6490   0.265   3.226   2.881
 1683SOL    HW2 6491   0.376   3.328   2.867
 1684SOL     OW 6492   1.462   3.365   3.227
 1684SOL    HW1 6493   1.522   3.440   3.233
 1684SOL    HW2 6494   1.403   3.375   3.302
 1685SOL     OW 6495   0.455   2.242   3.336
 1685SOL    HW1 6496   0.536   2.193   3.346
 1685SOL    HW2 6497   0.386   2.180   3.360
 1686SOL     OW 6498   1.588   2.312   2.603
 1686SOL    HW1 6499   1.499   2.307   2.569
 1686SOL    HW2 6500   1.632   2.378   2.550
 1687SOL     OW 6501   0.234   3.554   2.342
 1687SOL    HW1 6502   0.229   3.638   2.387
 1687SOL    HW2 6503   0.302   3.566   2.276
 1688SOL     OW 6504   1.128   3.212   3.568
 1688SOL    HW1 6505   1.173   3.201   3.652
 1688SOL    HW2 6506   1.077   3.131   3.557
 1689SOL     OW 6507   0.298   3.292   2.372
 1689SOL    HW1 6508   0.274   3.384   2.382
 1689SOL    HW2 6509   0.243   3.246   2.435
 1690SOL     OW 6510   0.281   2.947   2.748
 1690SOL    HW1 6511   0.279   2.858   2.784
 1690SOL    HW2 6512   0.215   2.995   2.798
 1691SOL     OW 6513   0.626   3.645   3.300
 1691SOL    HW1 6514   0.542   3.626   3.340
 1691SOL    HW2 6515   0.643   3.737   3.321
 1692SOL     OW 6516   0.568   2.857   2.008
 1692SOL    HW1 6517   0.623   2.894   1.940
 1692SOL    HW2 6518   0.609   2.883   2.090
 1693SOL     OW 6519   1.584   1.985   3.325
 1693SOL    HW1 6520   1.627   2.055   3.277
 1693SOL    HW2 6521   1.566   2.022   3.411
 1694SOL     OW 6522   0.130   2.507   2.404
 1694SOL    HW1 6523   0.093   2.423   2.431
 1694SOL    HW2 6524   0.119   2.563   2.481
 1695SOL     OW 6525   1.840   3.611   2.214
 1695SOL    HW1 6526   1.920   3.587   2.260
 1695SOL    HW2 6527   1.858   3.697   2.177
 1696SOL     OW 6528   0.022   3.444   2.000
 1696SOL    HW1 6529   0.006   3.350   1.996
 1696SOL    HW2 6530   0.007   3.468   2.091
 1697SOL     OW 6531   1.696   2.778   2.520
 1697SOL    HW1 6532   1.781   2.734   2.515
 1697SOL    HW2 6533   1.685   2.818   2.434
 1698SOL     OW 6534   1.655   2.964   2.293
 1698SOL    HW1 6535   1.740   2.958   2.251
 1698SOL    HW2 6536   1.668   3.026   2.366
 1699SOL     OW 6537   0.144   2.640   3.454
 1699SOL    HW1 6538   0.238   2.620   3.462
 1699SOL    HW2 6539   0.133   2.724   3.498
 1700SOL     OW 6540   0.621   3.260   2.597
 1700SOL    HW1 6541   0.576   3.176   2.603
 1700SOL    HW2 6542   0.608   3.288   2.506
 1701SOL     OW 6543   1.283   3.097   3.279
 1701SOL    HW1 6544   1.316   3.029   3.222
 1701SOL    HW2 6545   1.339   3.093   3.357
 1702SOL     OW 6546   0.826   1.871   2.375
 1702SOL    HW1 6547   0.864   1.956   2.353
 1702SOL    HW2 6548   0.732   1.888   2.381
 1703SOL     OW 6549   0.178   2.779   3.115
 1703SOL    HW1 6550   0.273   2.769   3.103
 1703SOL    HW2 6551   0.148   2.693   3.141
 1704SOL     OW 6552   1.529   2.870   2.062
 1704SOL    HW1 6553   1.462   2.810   2.095
 1704SOL    HW2 6554   1.577   2.896   2.140
 1705SOL     OW 6555   1.144   3.655   3.450
 1705SOL    HW1 6556   1.190   3.730   3.414
 1705SOL    HW2 6557   1.199   3.580   3.428
 1706SOL     OW 6558   0.365   2.132   3.682
 1706SOL    HW1 6559   0.411   2.201   3.730
 1706SOL    HW2 6560   0.272   2.147   3.701
 1707SOL     OW 6561   1.439   3.285   2.789
 1707SOL    HW1 6562   1.393   3.294   2.873
 1707SOL    HW2 6563   1.437   3.192   2.770
 1708SOL     OW 6564   1.640   3.613   2.434
 1708SOL    HW1 6565   1.715   3.576   2.386
 1708SOL    HW2 6566   1.622   3.548   2.502
 1709SOL     OW 6567   0.588   2.568   2.126
 1709SOL    HW1 6568   0.600   2.655   2.088
 1709SOL    HW2 6569   0.531   2.582   2.201
 1710SOL     OW 6570   1.272   2.239   2.799
 1710SOL    HW1 6571   1.185   2.201   2.808
 1710SOL    HW2 6572   1.328   2.185   2.855
 1711SOL     OW 6573   1.567   3.557   2.150
 1711SOL    HW1 6574   1.662   3.547   2.155
 1711SOL    HW2 6575   1.545   3.526   2.062
 1712SOL     OW 6576   0.787   2.483   3.305
 1712SOL    HW1 6577   0.766   2.455   3.394
 1712SOL    HW2 6578   0.761   2.409   3.250
 1713SOL     OW 6579   1.395   2.334   3.541
 1713SOL    HW1 6580   1.400   2.379   3.625
 1713SOL    HW2 6581   1.446   2.254   3.554
 1714SOL     OW 6582   0.952   2.744   3.456
 1714SOL    HW1 6583   1.008   2.677   3.416
 1714SOL    HW2 6584   0.899   2.776   3.383
 1715SOL     OW 6585   1.001   2.274   3.085
 1715SOL    HW1 6586   0.911   2.286   3.115
 1715SOL    HW2 6587   0.993   2.216   3.009
 1716SOL     OW 6588   1.054   2.563   2.284
 1716SOL    HW1 6589   1.075   2.559   2.378
 1716SOL    HW2 6590   0.970   2.517   2.277
 1717SOL     OW 6591   0.098   2.649   2.638
 1717SOL    HW1 6592   0.181   2.656   2.685
 1717SOL    HW2 6593   0.045   2.721   2.673
 1718SOL     OW 6594   0.129   3.680   3.437
 1718SOL    HW1 6595   0.145   3.649   3.526
 1718SOL    HW2 6596   0.047   3.731   3.444
 1719SOL     OW 6597   0.897   2.213   2.060
 1719SOL    HW1 6598   0.941   2.274   2.000
 1719SOL    HW2 6599   0.904   2.128   2.018
 1720SOL     OW 6600   1.684   2.425   3.694
 1720SOL    HW1 6601   1.655   2.495   3.636
 1720SOL    HW2 6602   1.731   2.364   3.636
 1721SOL     OW 6603   1.389   3.004   2.397
 1721SOL    HW1 6604   1.470   2.989   2.349
 1721SOL    HW2 6605   1.337   3.061   2.340
 1722SOL     OW 6606   0.557   2.037   2.768
 1722SOL    HW1 6607   0.560   2.060   2.860
 1722SOL    HW2 6608   0.558   2.121   2.722
 1723SOL     OW 6609   0.995   3.314   2.333
 1723SOL    HW1 6610   0.965   3.389   2.280
 1723SOL    HW2 6611   0.963   3.333   2.421
 1724SOL     OW 6612   0.350   3.684   2.726
 1724SOL    HW1 6613   0.396   3.601   2.742
 1724SOL    HW2 6614   0.413   3.751   2.753
 1725SOL     OW 6615   1.798   2.919   2.748
 1725SOL    HW1 6616   1.748   2.893   2.670
 1725SOL    HW2 6617   1.733   2.925   2.818
 1726SOL     OW 6618   1.217   3.394   3.376
 1726SOL    HW1 6619   1.215   3.331   3.448
 1726SOL    HW2 6620   1.166   3.353   3.307
 1727SOL     OW 6621   0.295   2.805   2.091
 1727SOL    HW1 6622   0.384   2.832   2.066
 1727SOL    HW2 6623   0.276   2.729   2.036
 1728SOL     OW 6624   1.476   2.626   2.588
 1728SOL    HW1 6625   1.482   2.575   2.669
 1728SOL    HW2 6626   1.559   2.674   2.584
 1729SOL     OW 6627   0.468   3.125   3.598
 1729SOL    HW1 6628   0.440   3.128   3.506
 1729SOL    HW2 6629   0.386   3.116   3.647
 1730SOL     OW 6630   1.140   3.628   2.119
 1730SOL    HW1 6631   1.053   3.600   2.146
 1730SOL    HW2 6632   1.160   3.575   2.042
 1731SOL     OW 6633   0.196   2.117   3.360
 1731SOL    HW1 6634   0.173   2.193   3.413
 1731SOL    HW2 6635   0.164   2.042   3.411
 1732SOL     OW 6636   1.617   3.254   1.956
 1732SOL    HW1 6637   1.570   3.334   1.931
 1732SOL    HW2 6638   1.556   3.183   1.934
 1733SOL     OW 6639   0.458   3.602   2.178
 1733SOL    HW1 6640   0.504   3.657   2.241
 1733SOL    HW2 6641   0.527   3.570   2.120
 1734SOL     OW 6642   1.401   1.971   2.310
 1734SOL    HW1 6643   1.397   1.944   2.219
 1734SOL    HW2 6644   1.494   1.970   2.332
 1735SOL     OW 6645   0.263   3.650   3.084
 1735SOL    HW1 6646   0.291   3.572   3.132
 1735SOL    HW2 6647   0.203   3.617   3.018
 1736SOL     OW 6648   0.978   3.546   2.774
 1736SOL    HW1 6649   1.065   3.509   2.756
 1736SOL    HW2 6650   0.919   3.500   2.715
 1737SOL     OW 6651   0.406   2.562   2.337
 1737SOL    HW1 6652   0.419   2.468   2.348
 1737SOL    HW2 6653   0.315   2.577   2.360
 1738SOL     OW 6654   1.522   2.083   3.585
 1738SOL    HW1 6655   1.531   2.108   3.677
 1738SOL    HW2 6656   1.467   2.004   3.587
 1739SOL     OW 6657   0.651   1.974   1.966
 1739SOL    HW1 6658   0.697   1.897   2.000
 1739SOL    HW2 6659   0.600   1.940   1.892
 1740SOL     OW 6660   0.759   2.142   3.617
 1740SOL    HW1 6661   0.843   2.096   3.611
 1740SOL    HW2 6662   0.717   2.106   3.694
 1741SOL     OW 6663   0.880   3.368   3.031
 1741SOL    HW1 6664   0.850   3.319   2.955
 1741SOL    HW2 6665   0.920   3.303   3.089
 1742SOL     OW 6666   1.345   2.458   3.300
 1742SOL    HW1 6667   1.373   2.422   3.384
 1742SOL    HW2 6668   1.386   2.544   3.296
 1743SOL     OW 6669   0.812   3.236   2.804
 1743SOL    HW1 6670   0.898   3.227   2.763
 1743SOL    HW2 6671   0.751   3.248   2.731
 1744SOL     OW 6672   0.929   2.373   2.758
 1744SOL    HW1 6673   0.904   2.360   2.666
 1744SOL    HW2 6674   0.958   2.287   2.787
 1745SOL     OW 6675   0.557   1.927   2.358
 1745SOL    HW1 6676   0.477   1.926   2.411
 1745SOL    HW2 6677   0.545   2.001   2.298
 1746SOL     OW 6678   1.430   3.063   1.895
 1746SOL    HW1 6679   1.465   2.988   1.943
 1746SOL    HW2 6680   1.342   3.076   1.932
 1747SOL     OW 6681   0.277   1.913   2.035
 1747SOL    HW1 6682   0.339   1.979   2.001
 1747SOL    HW2 6683   0.332   1.853   2.085
 1748SOL     OW 6684   0.945   2.116   2.317
 1748SOL    HW1 6685   0.924   2.152   2.231
 1748SOL    HW2 6686   1.040   2.127   2.325
 1749SOL     OW 6687   1.085   2.549   3.314
 1749SOL    HW1 6688   1.026   2.475   3.329
 1749SOL    HW2 6689   1.172   2.510   3.314
 1750SOL     OW 6690   1.217   3.437   2.673
 1750SOL    HW1 6691   1.254   3.474   2.592
 1750SOL    HW2 6692   1.293   3.411   2.724
 1751SOL     OW 6693   0.479   3.023   2.582
 1751SOL    HW1 6694   0.418   2.998   2.651
 1751SOL    HW2 6695   0.434   3.003   2.501
 1752SOL     OW 6696   1.272   3.680   2.420
 1752SOL    HW1 6697   1.203   3.699   2.356
 1752SOL    HW2 6698   1.239   3.715   2.503
 1753SOL     OW 6699   1.027   2.388   1.891
 1753SOL    HW1 6700   0.987   2.473   1.873
 1753SOL    HW2 6701   1.094   2.406   1.957
 1754SOL     OW 6702   0.107   2.514   3.219
 1754SOL    HW1 6703   0.191   2.468   3.206
 1754SOL    HW2 6704   0.107   2.538   3.312
 1755SOL     OW 6705   0.563   2.086   3.041
 1755SOL    HW1 6706   0.605   2.015   3.090
 1755SOL    HW2 6707   0.471   2.083   3.068
 1756SOL     OW 6708   0.867   2.319   2.497
 1756SOL    HW1 6709   0.828   2.374   2.428
 1756SOL    HW2 6710   0.892   2.238   2.452
 1757SOL     OW 6711   1.017   1.917   2.604
 1757SOL    HW1 6712   0.958   1.906   2.529
 1757SOL    HW2 6713   0.996   1.845   2.663
 1758SOL     OW 6714   1.437   3.022   2.715
 1758SOL    HW1 6715   1.374   2.950   2.713
 1758SOL    HW2 6716   1.473   3.025   2.627
 1759SOL     OW 6717   1.448   2.460   2.830
 1759SOL    HW1 6718   1.377   2.396   2.828
 1759SOL    HW2 6719   1.527   2.407   2.820
 1760SOL     OW 6720   1.826   2.674   2.244
 1760SOL    HW1 6721   1.885   2.628   2.304
 1760SOL    HW2 6722   1.804   2.610   2.177
 1761SOL     OW 6723   0.493   3.281   2.004
 1761SOL    HW1 6724   0.414   3.252   2.049
 1761SOL    HW2 6725   0.499   3.223   1.927
 1762SOL     OW 6726   1.696   3.127   2.503
 1762SOL    HW1 6727   1.790   3.115   2.520
 1762SOL    HW2 6728   1.678   3.217   2.532
 1763SOL     OW 6729   1.391   2.434   1.935
 1763SOL    HW1 6730   1.335   2.405   2.007
 1763SOL    HW2 6731   1.478   2.402   1.958
 1764SOL     OW 6732   0.524   2.120   2.166
 1764SOL    HW1 6733   0.578   2.073   2.102
 1764SOL    HW2 6734   0.501   2.201   2.122
 1765SOL     OW 6735   1.740   3.120   3.412
 1765SOL    HW1 6736   1.824   3.075   3.405
 1765SOL    HW2 6737   1.762   3.206   3.446
 1766SOL     OW 6738   1.048   3.212   3.198
 1766SOL    HW1 6739   0.973   3.181   3.247
 1766SOL    HW2 6740   1.123   3.166   3.237
 1767SOL     OW 6741   1.579   3.483   3.511
 1767SOL    HW1 6742   1.599   3.520   3.426
 1767SOL    HW2 6743   1.653   3.426   3.531
 1768SOL     OW 6744   1.145   3.079   2.966
 1768SOL    HW1 6745   1.081   3.111   3.031
 1768SOL    HW2 6746   1.111   3.110   2.882
 1769SOL     OW 6747   1.621   2.956   2.951
 1769SOL    HW1 6748   1.619   3.015   3.027
 1769SOL    HW2 6749   1.540   2.975   2.904
 1770SOL     OW 6750   0.919   1.954   3.249
 1770SOL    HW1 6751   0.944   1.934   3.159
 1770SOL    HW2 6752   0.997   1.992   3.289
 1771SOL     OW 6753   0.975   2.985   3.574
 1771SOL    HW1 6754   0.885   2.995   3.605
 1771SOL    HW2 6755   0.975   2.901   3.528
 1772SOL     OW 6756   0.711   2.922   2.235
 1772SOL    HW1 6757   0.700   2.902   2.328
 1772SOL    HW2 6758   0.786   2.871   2.207
 1773SOL     OW 6759   0.434   2.679   3.113
 1773SOL    HW1 6760   0.496   2.694   3.184
 1773SOL    HW2 6761   0.405   2.588   3.124
 1774SOL     OW 6762   1.268   2.242   3.146
 1774SOL    HW1 6763   1.299   2.319   3.194
 1774SOL    HW2 6764   1.177   2.263   3.124
 1775SOL     OW 6765   0.049   3.482   3.197
 1775SOL    HW1 6766   0.059   3.575   3.218
 1775SOL    HW2 6767   0.094   3.436   3.268
 1776SOL     OW 6768   0.334   2.966   2.352
 1776SOL    HW1 6769   0.343   3.041   2.293
 1776SOL    HW2 6770   0.338   2.890   2.294
 1777SOL     OW 6771   0.546   2.386   2.714
 1777SOL    HW1 6772   0.563   2.448   2.644
 1777SOL    HW2 6773   0.610   2.407   2.782
 1778SOL     OW 6774   1.241   3.215   2.250
 1778SOL    HW1 6775   1.298   3.282   2.288
 1778SOL    HW2 6776   1.155   3.234   2.285
 1779SOL     OW 6777   1.299   3.314   3.019
 1779SOL    HW1 6778   1.355   3.323   3.096
 1779SOL    HW2 6779   1.253   3.231   3.031
 1780SOL     OW 6780   1.591   2.475   2.365
 1780SOL    HW1 6781   1.529   2.534   2.409
 1780SOL    HW2 6782   1.637   2.531   2.303
 1781SOL     OW 6783   0.343   3.384   3.177
 1781SOL    HW1 6784   0.334   3.345   3.090
 1781SOL    HW2 6785   0.437   3.400   3.186
 1782SOL     OW 6786   0.424   2.589   3.475
 1782SOL    HW1 6787   0.483   2.637   3.417
 1782SOL    HW2 6788   0.477   2.516   3.507
 1783SOL     OW 6789   1.601   2.625   3.531
 1783SOL    HW1 6790   1.519   2.672   3.548
 1783SOL    HW2 6791   1.648   2.681   3.469
 1784SOL     OW 6792   0.993   2.003   3.606
 1784SOL    HW1 6793   1.055   2.074   3.592
 1784SOL    HW2 6794   1.042   1.924   3.585
 1785SOL     OW 6795   0.503   1.900   3.610
 1785SOL    HW1 6796   0.453   1.847   3.548
 1785SOL    HW2 6797   0.450   1.979   3.622
 1786SOL     OW 6798   0.587   2.739   2.892
 1786SOL    HW1 6799   0.627   2.825   2.901
 1786SOL    HW2 6800   0.537   2.727   2.972
 1787SOL     OW 6801   1.343   2.706   2.892
 1787SOL    HW1 6802   1.255   2.694   2.855
 1787SOL    HW2 6803   1.387   2.622   2.878
 1788SOL     OW 6804   1.192   2.383   2.124
 1788SOL    HW1 6805   1.204   2.306   2.180
 1788SOL    HW2 6806   1.152   2.448   2.182
 1789SOL     OW 6807   0.298   2.060   3.108
 1789SOL    HW1 6808   0.262   2.086   3.193
 1789SOL    HW2 6809   0.292   1.965   3.107
 1790SOL     OW 6810   0.052   3.179   3.138
 1790SOL    HW1 6811   0.070   3.107   3.198
 1790SOL    HW2 6812   0.122   3.242   3.155
 1791SOL     OW 6813   0.714   2.484   2.905
 1791SOL    HW1 6814   0.795   2.469   2.855
 1791SOL    HW2 6815   0.692   2.575   2.889
 1792SOL     OW 6816   1.719   2.831   3.704
 1792SOL    HW1 6817   1.695   2.740   3.689
 1792SOL    HW2 6818   1.675   2.854   3.786
 1793SOL     OW 6819   0.305   1.929   2.476
 1793SOL    HW1 6820   0.284   2.018   2.502
 1793SOL    HW2 6821   0.318   1.882   2.559
 1794SOL     OW 6822   1.622   2.241   2.217
 1794SOL    HW1 6823   1.655   2.171   2.273
 1794SOL    HW2 6824   1.603   2.313   2.279
 1795SOL     OW 6825   1.027   2.621   2.822
 1795SOL    HW1 6826   1.015   2.636   2.916
 1795SOL    HW2 6827   1.001   2.530   2.808
 1796SOL     OW 6828   0.974   3.447   3.567
 1796SOL    HW1 6829   1.031   3.501   3.511
 1796SOL    HW2 6830   1.008   3.358   3.556
 1797SOL     OW 6831   1.848   3.400   3.451
 1797SOL    HW1 6832   1.840   3.495   3.459
 1797SOL    HW2 6833   1.913   3.376   3.518
 1798SOL     OW 6834   0.369   2.803   3.658
 1798SOL    HW1 6835   0.440   2.816   3.721
 1798SOL    HW2 6836   0.392   2.721   3.613
 1799SOL     OW 6837   1.517   2.138   1.986
 1799SOL    HW1 6838   1.461   2.066   2.017
 1799SOL    HW2 6839   1.557   2.173   2.066
 1800SOL     OW 6840   1.287   2.683   1.889
 1800SOL    HW1 6841   1.331   2.598   1.893
 1800SOL    HW2 6842   1.318   2.723   1.807
 1801SOL     OW 6843   1.065   3.199   2.721
 1801SOL    HW1 6844   1.072   3.126   2.661
 1801SOL    HW2 6845   1.124   3.265   2.686
 1802SOL     OW 6846   0.320   2.666   2.802
 1802SOL    HW1 6847   0.413   2.689   2.808
 1802SOL    HW2 6848   0.314   2.578   2.838
 1803SOL     OW 6849   0.326   2.383   2.869
 1803SOL    HW1 6850   0.294   2.294   2.858
 1803SOL    HW2 6851   0.404   2.388   2.813
 1804SOL     OW 6852   1.136   2.238   3.544
 1804SOL    HW1 6853   1.091   2.287   3.612
 1804SOL    HW2 6854   1.225   2.273   3.544
 1805SOL     OW 6855   1.158   2.062   3.331
 1805SOL    HW1 6856   1.148   2.122   3.404
 1805SOL    HW2 6857   1.207   2.112   3.265
 1806SOL     OW 6858   7.977   3.171   2.053
 1806SOL    HW1 6859   7.887   3.187   2.082
 1806SOL    HW2 6860   7.996   3.081   2.082
 1807SOL     OW 6861   0.087   3.595   2.785
 1807SOL    HW1 6862   0.113   3.518   2.733
 1807SOL    HW2 6863   0.161   3.655   2.777
 1808SOL     OW 6864   0.487   3.439   2.767
 1808SOL    HW1 6865   0.556   3.500   2.793
 1808SOL    HW2 6866   0.530   3.377   2.709
 1809SOL     OW 6867   0.962   2.648   3.088
 1809SOL    HW1 6868   1.026   2.628   3.155
 1809SOL    HW2 6869   0.882   2.603   3.117
 1810SOL     OW 6870   0.066   2.410   2.973
 1810SOL    HW1 6871   0.160   2.399   2.955
 1810SOL    HW2 6872   0.062   2.440   3.064
 1811SOL     OW 6873   0.181   2.358   3.508
 1811SOL    HW1 6874   0.276   2.351   3.505
 1811SOL    HW2 6875   0.164   2.440   3.553
 1812SOL     OW 6876   1.378   2.791   3.525
 1812SOL    HW1 6877   1.402   2.884   3.525
 1812SOL    HW2 6878   1.373   2.768   3.432
 1813SOL     OW 6879   0.817   2.429   2.231
 1813SOL    HW1 6880   0.830   2.355   2.173
 1813SOL    HW2 6881   0.742   2.476   2.195
 1814SOL     OW 6882   0.279   3.392   3.571
 1814SOL    HW1 6883   0.249   3.462   3.628
 1814SOL    HW2 6884   0.281   3.314   3.628
 1815SOL     OW 6885   0.723   2.304   3.111
 1815SOL    HW1 6886   0.665   2.230   3.093
 1815SOL    HW2 6887   0.708   2.365   3.038
 1816SOL     OW 6888   0.926   3.568   3.256
 1816SOL    HW1 6889   0.847   3.533   3.295
 1816SOL    HW2 6890   0.950   3.643   3.311
 1817SOL     OW 6891   0.448   2.345   2.030
 1817SOL    HW1 6892   0.506   2.419   2.049
 1817SOL    HW2 6893   0.367   2.365   2.078
 1818SOL     OW 6894   0.145   2.985   3.307
 1818SOL    HW1 6895   0.138   2.949   3.395
 1818SOL    HW2 6896   0.158   2.909   3.251
 1819SOL     OW 6897   1.329   2.905   3.077
 1819SOL    HW1 6898   1.339   2.834   3.013
 1819SOL    HW2 6899   1.263   2.963   3.038
 1820SOL     OW 6900   1.314   2.722   2.162
 1820SOL    HW1 6901   1.243   2.680   2.211
 1820SOL    HW2 6902   1.295   2.702   2.070
 1821SOL     OW 6903   1.735   3.604   2.980
 1821SOL    HW1 6904   1.815   3.624   2.931
 1821SOL    HW2 6905   1.728   3.509   2.976
 1822SOL     OW 6906   1.237   3.575   2.969
 1822SOL    HW1 6907   1.313   3.620   2.933
 1822SOL    HW2 6908   1.268   3.486   2.986
 1823SOL     OW 6909   0.092   3.102   2.875
 1823SOL    HW1 6910   0.072   3.124   2.966
 1823SOL    HW2 6911   0.010   3.067   2.841
 1824SOL     OW 6912   0.704   3.522   3.596
 1824SOL    HW1 6913   0.674   3.600   3.549
 1824SOL    HW2 6914   0.799   3.521   3.581
 1825SOL     OW 6915   1.724   2.025   2.356
 1825SOL    HW1 6916   1.794   2.007   2.294
 1825SOL    HW2 6917   1.707   1.941   2.398
 1826SOL     OW 6918   1.390   3.432   2.356
 1826SOL    HW1 6919   1.450   3.454   2.285
 1826SOL    HW2 6920   1.342   3.514   2.374
 1827SOL     OW 6921   0.180   3.607   3.701
 1827SOL    HW1 6922   0.115   3.562   3.756
 1827SOL    HW2 6923   0.220   3.671   3.760
 1828SOL     OW 6924   1.277   2.801   2.539
 1828SOL    HW1 6925   1.349   2.739   2.553
 1828SOL    HW2 6926   1.314   2.867   2.480
 1829SOL     OW 6927   0.791   3.140   3.270
 1829SOL    HW1 6928   0.765   3.182   3.352
 1829SOL    HW2 6929   0.711   3.138   3.217
 1830SOL     OW 6930   0.673   3.483   2.025
 1830SOL    HW1 6931   0.682   3.507   1.932
 1830SOL    HW2 6932   0.615   3.407   2.024
 1831SOL     OW 6933   1.621   3.587   3.246
 1831SOL    HW1 6934   1.671   3.596   3.165
 1831SOL    HW2 6935   1.603   3.677   3.274
 1832SOL     OW 6936   1.840   2.029   2.824
 1832SOL    HW1 6937   1.873   1.942   2.803
 1832SOL    HW2 6938   1.753   2.031   2.785
 1833SOL     OW 6939   0.260   2.180   2.573
 1833SOL    HW1 6940   0.173   2.218   2.558
 1833SOL    HW2 6941   0.263   2.165   2.667
 1834SOL     OW 6942   1.203   3.464   1.901
 1834SOL    HW1 6943   1.195   3.372   1.928
 1834SOL    HW2 6944   1.133   3.477   1.837
 1835SOL     OW 6945   0.823   2.866   3.245
 1835SOL    HW1 6946   0.873   2.850   3.164
 1835SOL    HW2 6947   0.822   2.961   3.254
 1836SOL     OW 6948   0.918   2.774   2.150
 1836SOL    HW1 6949   0.977   2.804   2.081
 1836SOL    HW2 6950   0.969   2.708   2.197
 1837SOL     OW 6951   1.481   3.498   1.892
 1837SOL    HW1 6952   1.386   3.488   1.883
 1837SOL    HW2 6953   1.512   3.514   1.803
 1838SOL     OW 6954   0.364   3.154   3.350
 1838SOL    HW1 6955   0.346   3.237   3.306
 1838SOL    HW2 6956   0.287   3.101   3.333
 1839SOL     OW 6957   1.610   3.140   3.160
 1839SOL    HW1 6958   1.662   3.122   3.238
 1839SOL    HW2 6959   1.553   3.213   3.185
 1840SOL     OW 6960   1.063   2.975   2.575
 1840SOL    HW1 6961   0.992   2.922   2.612
 1840SOL    HW2 6962   1.132   2.911   2.554
 1841SOL     OW 6963   1.026   2.105   2.825
 1841SOL    HW1 6964   1.023   2.060   2.741
 1841SOL    HW2 6965   1.022   2.036   2.891
 1842SOL     OW 6966   0.615   3.353   2.343
 1842SOL    HW1 6967   0.664   3.304   2.277
 1842SOL    HW2 6968   0.532   3.374   2.301
 1843SOL     OW 6969   1.750   2.263   3.233
 1843SOL    HW1 6970   1.838   2.277   3.267
 1843SOL    HW2 6971   1.757   2.185   3.178
 1844SOL     OW 6972   0.251   3.203   2.126
 1844SOL    HW1 6973   0.156   3.210   2.122
 1844SOL    HW2 6974   0.275   3.239   2.212
 1845SOL     OW 6975   0.127   2.882   3.568
 1845SOL    HW1 6976   0.072   2.910   3.641
 1845SOL    HW2 6977   0.213   2.867   3.607
 1846SOL     OW 6978   0.681   2.062   3.359
 1846SOL    HW1 6979   0.766   2.035   3.322
 1846SOL    HW2 6980   0.702   2.089   3.448
 1847SOL     OW 6981   0.130   2.232   1.884
 1847SOL    HW1 6982   0.045   2.249   1.925
 1847SOL    HW2 6983   0.126   2.281   1.801
 1848SOL     OW 6984   1.443   2.727   3.261
 1848SOL    HW1 6985   1.404   2.792   3.203
 1848SOL    HW2 6986   1.531   2.761   3.280
 1849SOL     OW 6987   0.108   2.107   2.223
 1849SOL    HW1 6988   0.058   2.078   2.147
 1849SOL    HW2 6989   0.187   2.054   2.221
 1850SOL     OW 6990   1.178   3.195   1.978
 1850SOL    HW1 6991   1.091   3.155   1.978
 1850SOL    HW2 6992   1.204   3.195   2.070
 1851SOL     OW 6993   0.619   2.695   3.306
 1851SOL    HW1 6994   0.678   2.769   3.295
 1851SOL    HW2 6995   0.677   2.619   3.310
 1852SOL     OW 6996   1.484   3.658   2.856
 1852SOL    HW1 6997   1.514   3.729   2.800
 1852SOL    HW2 6998   1.563   3.630   2.904
 1853SOL     OW 6999   0.715   2.421   3.560
 1853SOL    HW1 7000   0.763   2.476   3.622
 1853SOL    HW2 7001   0.730   2.332   3.590
 1854SOL     OW 7002   1.467   3.056   3.491
 1854SOL    HW1 7003   1.454   3.067   3.585
 1854SOL    HW2 7004   1.559   3.080   3.476
 1855SOL     OW 7005   0.392   3.600   3.427
 1855SOL    HW1 7006   0.305   3.634   3.407
 1855SOL    HW2 7007   0.376   3.514   3.467
 1856SOL     OW 7008   1.662   2.679   3.049
 1856SOL    HW1 7009   1.566   2.685   3.042
 1856SOL    HW2 7010   1.694   2.765   3.022
 1857SOL     OW 7011   1.217   2.181   2.320
 1857SOL    HW1 7012   1.278   2.108   2.314
 1857SOL    HW2 7013   1.247   2.231   2.397
 1858SOL     OW 7014   0.593   2.595   2.539
 1858SOL    HW1 7015   0.635   2.680   2.529
 1858SOL    HW2 7016   0.530   2.590   2.467
 1859SOL     OW 7017   1.751   2.220   3.515
 1859SOL    HW1 7018   1.734   2.237   3.423
 1859SOL    HW2 7019   1.677   2.166   3.544
 1860SOL     OW 7020   1.698   2.812   3.349
 1860SOL    HW1 7021   1.705   2.880   3.416
 1860SOL    HW2 7022   1.784   2.812   3.306
 1861SOL     OW 7023   0.853   3.228   1.909
 1861SOL    HW1 7024   0.822   3.249   1.997
 1861SOL    HW2 7025   0.871   3.313   1.869
 1862SOL     OW 7026   0.669   3.642   2.795
 1862SOL    HW1 7027   0.637   3.731   2.782
 1862SOL    HW2 7028   0.764   3.650   2.787
 1863SOL     OW 7029   0.872   2.834   2.716
 1863SOL    HW1 7030   0.921   2.759   2.751
 1863SOL    HW2 7031   0.828   2.872   2.792
 1864SOL     OW 7032   1.071   2.841   1.937
 1864SOL    HW1 7033   1.059   2.896   1.859
 1864SOL    HW2 7034   1.148   2.788   1.918
 1865SOL     OW 7035   1.859   3.404   2.702
 1865SOL    HW1 7036   1.767   3.391   2.678
 1865SOL    HW2 7037   1.880   3.328   2.756
 1866SOL     OW 7038   0.220   3.162   3.720
 1866SOL    HW1 7039   0.128   3.148   3.699
 1866SOL    HW2 7040   0.223   3.168   3.815
 1867SOL     OW 7041   0.129   3.124   2.505
 1867SOL    HW1 7042   0.056   3.086   2.554
 1867SOL    HW2 7043   0.194   3.054   2.499
 1868SOL     OW 7044   0.675   3.273   3.477
 1868SOL    HW1 7045   0.604   3.227   3.521
 1868SOL    HW2 7046   0.686   3.354   3.527
 1869SOL     OW 7047   1.789   2.041   3.094
 1869SOL    HW1 7048   1.846   1.973   3.129
 1869SOL    HW2 7049   1.805   2.039   3.000
 1870SOL     OW 7050   0.416   2.296   2.372
 1870SOL    HW1 7051   0.465   2.226   2.330
 1870SOL    HW2 7052   0.377   2.256   2.449
 1871SOL     OW 7053   1.693   3.340   2.963
 1871SOL    HW1 7054   1.616   3.301   2.922
 1871SOL    HW2 7055   1.719   3.277   3.031
 1872SOL     OW 7056   0.354   2.419   3.155
 1872SOL    HW1 7057   0.394   2.361   3.219
 1872SOL    HW2 7058   0.370   2.377   3.071
 1873SOL     OW 7059   0.837   3.452   2.548
 1873SOL    HW1 7060   0.809   3.521   2.488
 1873SOL    HW2 7061   0.762   3.393   2.553
 1874SOL     OW 7062   1.429   2.100   2.974
 1874SOL    HW1 7063   1.454   2.015   3.011
 1874SOL    HW2 7064   1.381   2.144   3.044
 1875SOL     OW 7065   1.012   1.881   2.992
 1875SOL    HW1 7066   0.954   1.814   2.956
 1875SOL    HW2 7067   1.099   1.841   2.991
 1876SOL     OW 7068   0.779   3.193   2.186
 1876SOL    HW1 7069   0.754   3.101   2.196
 1876SOL    HW2 7070   0.860   3.202   2.237
 1877SOL     OW 7071   0.622   3.421   3.139
 1877SOL    HW1 7072   0.625   3.500   3.193
 1877SOL    HW2 7073   0.710   3.415   3.102
 1878SOL     OW 7074   1.367   1.909   2.042
 1878SOL    HW1 7075   1.407   1.833   1.999
 1878SOL    HW2 7076   1.276   1.883   2.056
 1879SOL     OW 7077   1.298   2.329   2.541
 1879SOL    HW1 7078   1.246   2.409   2.540
 1879SOL    HW2 7079   1.285   2.293   2.629
 1880SOL     OW 7080   1.582   2.060   2.744
 1880SOL    HW1 7081   1.527   2.080   2.820
 1880SOL    HW2 7082   1.579   2.140   2.691
 1881SOL     OW 7083   0.048   2.927   2.154
 1881SOL    HW1 7084   0.129   2.890   2.120
 1881SOL    HW2 7085   0.054   2.915   2.249
 1882SOL     OW 7086   0.890   3.534   2.198
 1882SOL    HW1 7087   0.816   3.515   2.141
 1882SOL    HW2 7088   0.857   3.600   2.259
 1883SOL     OW 7089   0.192   2.518   3.759
 1883SOL    HW1 7090   0.129   2.549   3.824
 1883SOL    HW2 7091   0.241   2.449   3.805
 1884SOL     OW 7092   0.239   2.131   4.708
 1884SOL    HW1 7093   0.260   2.104   4.797
 1884SOL    HW2 7094   0.153   2.092   4.690
 1885SOL     OW 7095   8.006   2.266   4.330
 1885SOL    HW1 7096   7.927   2.265   4.383
 1885SOL    HW2 7097   7.994   2.196   4.266
 1886SOL     OW 7098   0.560   3.149   4.883
 1886SOL    HW1 7099   0.475   3.186   4.859
 1886SOL    HW2 7100   0.591   3.204   4.954
 1887SOL     OW 7101   1.574   3.373   4.442
 1887SOL    HW1 7102   1.537   3.350   4.527
 1887SOL    HW2 7103   1.498   3.375   4.382
 1888SOL     OW 7104   1.127   2.565   4.412
 1888SOL    HW1 7105   1.180   2.643   4.399
 1888SOL    HW2 7106   1.086   2.578   4.497
 1889SOL     OW 7107   1.786   2.453   3.943
 1889SOL    HW1 7108   1.752   2.444   3.854
 1889SOL    HW2 7109   1.748   2.379   3.991
 1890SOL     OW 7110   0.738   2.990   4.758
 1890SOL    HW1 7111   0.668   3.034   4.805
 1890SOL    HW2 7112   0.810   3.054   4.757
 1891SOL     OW 7113   0.872   2.624   5.537
 1891SOL    HW1 7114   0.894   2.685   5.608
 1891SOL    HW2 7115   0.892   2.672   5.457
 1892SOL     OW 7116   0.689   2.857   4.366
 1892SOL    HW1 7117   0.759   2.851   4.431
 1892SOL    HW2 7118   0.623   2.912   4.407
 1893SOL     OW 7119   0.704   3.010   5.542
 1893SOL    HW1 7120   0.754   3.084   5.575
 1893SOL    HW2 7121   0.629   3.049   5.497
 1894SOL     OW 7122   0.334   3.280   4.789
 1894SOL    HW1 7123   0.255   3.253   4.741
 1894SOL    HW2 7124   0.378   3.341   4.730
 1895SOL     OW 7125   1.461   3.384   5.062
 1895SOL    HW1 7126   1.516   3.457   5.091
 1895SOL    HW2 7127   1.403   3.367   5.137
 1896SOL     OW 7128   0.450   2.231   5.208
 1896SOL    HW1 7129   0.489   2.219   5.294
 1896SOL    HW2 7130   0.363   2.191   5.215
 1897SOL     OW 7131   1.603   2.300   4.477
 1897SOL    HW1 7132   1.537   2.328   4.414
 1897SOL    HW2 7133   1.608   2.371   4.540
 1898SOL     OW 7134   0.227   3.557   4.196
 1898SOL    HW1 7135   0.217   3.636   4.249
 1898SOL    HW2 7136   0.309   3.569   4.148
 1899SOL     OW 7137   1.153   3.199   5.409
 1899SOL    HW1 7138   1.181   3.196   5.501
 1899SOL    HW2 7139   1.100   3.120   5.397
 1900SOL     OW 7140   0.317   3.296   4.241
 1900SOL    HW1 7141   0.285   3.384   4.258
 1900SOL    HW2 7142   0.262   3.239   4.296
 1901SOL     OW 7143   0.263   2.941   4.593
 1901SOL    HW1 7144   0.276   2.854   4.631
 1901SOL    HW2 7145   0.199   2.983   4.651
 1902SOL     OW 7146   0.582   3.692   5.112
 1902SOL    HW1 7147   0.515   3.657   5.171
 1902SOL    HW2 7148   0.625   3.761   5.163
 1903SOL     OW 7149   0.569   2.860   3.869
 1903SOL    HW1 7150   0.626   2.896   3.801
 1903SOL    HW2 7151   0.611   2.885   3.951
 1904SOL     OW 7152   1.581   1.996   5.182
 1904SOL    HW1 7153   1.631   2.065   5.137
 1904SOL    HW2 7154   1.570   2.029   5.271
 1905SOL     OW 7155   0.129   2.504   4.266
 1905SOL    HW1 7156   0.094   2.420   4.294
 1905SOL    HW2 7157   0.121   2.561   4.343
 1906SOL     OW 7158   1.846   3.611   4.052
 1906SOL    HW1 7159   1.917   3.583   4.110
 1906SOL    HW2 7160   1.861   3.704   4.039
 1907SOL     OW 7161   0.026   3.441   3.860
 1907SOL    HW1 7162   0.007   3.347   3.848
 1907SOL    HW2 7163   0.013   3.456   3.953
 1908SOL     OW 7164   1.687   2.752   4.358
 1908SOL    HW1 7165   1.777   2.740   4.388
 1908SOL    HW2 7166   1.695   2.810   4.282
 1909SOL     OW 7167   1.660   2.972   4.149
 1909SOL    HW1 7168   1.747   2.965   4.112
 1909SOL    HW2 7169   1.671   3.028   4.226
 1910SOL     OW 7170   0.150   2.630   5.313
 1910SOL    HW1 7171   0.245   2.623   5.313
 1910SOL    HW2 7172   0.131   2.711   5.360
 1911SOL     OW 7173   0.624   3.245   4.451
 1911SOL    HW1 7174   0.582   3.160   4.465
 1911SOL    HW2 7175   0.575   3.285   4.379
 1912SOL     OW 7176   1.362   3.114   5.134
 1912SOL    HW1 7177   1.344   3.031   5.089
 1912SOL    HW2 7178   1.390   3.088   5.222
 1913SOL     OW 7179   0.825   1.870   4.237
 1913SOL    HW1 7180   0.865   1.954   4.215
 1913SOL    HW2 7181   0.732   1.888   4.241
 1914SOL     OW 7182   0.178   2.783   4.990
 1914SOL    HW1 7183   0.271   2.764   4.993
 1914SOL    HW2 7184   0.149   2.752   4.904
 1915SOL     OW 7185   1.533   2.871   3.925
 1915SOL    HW1 7186   1.464   2.815   3.960
 1915SOL    HW2 7187   1.581   2.902   4.002
 1916SOL     OW 7188   1.135   3.661   5.312
 1916SOL    HW1 7189   1.186   3.725   5.262
 1916SOL    HW2 7190   1.177   3.577   5.293
 1917SOL     OW 7191   0.365   2.128   5.555
 1917SOL    HW1 7192   0.407   2.199   5.603
 1917SOL    HW2 7193   0.271   2.144   5.567
 1918SOL     OW 7194   1.465   3.274   4.674
 1918SOL    HW1 7195   1.401   3.292   4.742
 1918SOL    HW2 7196   1.450   3.182   4.651
 1919SOL     OW 7197   1.639   3.625   4.305
 1919SOL    HW1 7198   1.642   3.573   4.225
 1919SOL    HW2 7199   1.633   3.559   4.375
 1920SOL     OW 7200   0.584   2.564   3.987
 1920SOL    HW1 7201   0.609   2.653   3.961
 1920SOL    HW2 7202   0.529   2.576   4.065
 1921SOL     OW 7203   1.281   2.235   4.662
 1921SOL    HW1 7204   1.195   2.195   4.668
 1921SOL    HW2 7205   1.337   2.181   4.718
 1922SOL     OW 7206   1.580   3.542   4.029
 1922SOL    HW1 7207   1.673   3.565   4.030
 1922SOL    HW2 7208   1.561   3.523   3.937
 1923SOL     OW 7209   0.811   2.446   5.183
 1923SOL    HW1 7210   0.767   2.441   5.267
 1923SOL    HW2 7211   0.753   2.402   5.121
 1924SOL     OW 7212   1.389   2.329   5.408
 1924SOL    HW1 7213   1.394   2.379   5.489
 1924SOL    HW2 7214   1.455   2.261   5.418
 1925SOL     OW 7215   0.942   2.750   5.298
 1925SOL    HW1 7216   1.007   2.689   5.264
 1925SOL    HW2 7217   0.911   2.798   5.221
 1926SOL     OW 7218   0.954   2.198   4.973
 1926SOL    HW1 7219   0.892   2.265   5.002
 1926SOL    HW2 7220   0.958   2.210   4.878
 1927SOL     OW 7221   1.050   2.563   4.144
 1927SOL    HW1 7222   1.073   2.561   4.237
 1927SOL    HW2 7223   0.968   2.514   4.139
 1928SOL     OW 7224   0.102   2.647   4.501
 1928SOL    HW1 7225   0.186   2.654   4.546
 1928SOL    HW2 7226   0.048   2.715   4.541
 1929SOL     OW 7227   0.133   3.704   5.296
 1929SOL    HW1 7228   0.136   3.686   5.390
 1929SOL    HW2 7229   0.049   3.668   5.267
 1930SOL     OW 7230   0.896   2.211   3.920
 1930SOL    HW1 7231   0.941   2.271   3.860
 1930SOL    HW2 7232   0.908   2.125   3.881
 1931SOL     OW 7233   1.687   2.421   5.555
 1931SOL    HW1 7234   1.659   2.499   5.507
 1931SOL    HW2 7235   1.729   2.365   5.490
 1932SOL     OW 7236   1.391   3.002   4.261
 1932SOL    HW1 7237   1.477   2.997   4.220
 1932SOL    HW2 7238   1.344   3.069   4.213
 1933SOL     OW 7239   0.558   2.037   4.623
 1933SOL    HW1 7240   0.557   2.062   4.715
 1933SOL    HW2 7241   0.560   2.120   4.575
 1934SOL     OW 7242   0.993   3.297   4.186
 1934SOL    HW1 7243   0.976   3.382   4.146
 1934SOL    HW2 7244   0.976   3.310   4.279
 1935SOL     OW 7245   0.419   3.689   4.499
 1935SOL    HW1 7246   0.417   3.603   4.542
 1935SOL    HW2 7247   0.461   3.747   4.563
 1936SOL     OW 7248   1.788   2.899   4.603
 1936SOL    HW1 7249   1.736   2.932   4.530
 1936SOL    HW2 7250   1.732   2.911   4.680
 1937SOL     OW 7251   1.210   3.397   5.225
 1937SOL    HW1 7252   1.214   3.328   5.291
 1937SOL    HW2 7253   1.157   3.360   5.155
 1938SOL     OW 7254   0.308   2.815   3.972
 1938SOL    HW1 7255   0.392   2.842   3.935
 1938SOL    HW2 7256   0.298   2.723   3.948
 1939SOL     OW 7257   1.475   2.607   4.440
 1939SOL    HW1 7258   1.478   2.575   4.530
 1939SOL    HW2 7259   1.555   2.660   4.431
 1940SOL     OW 7260   0.459   3.129   5.465
 1940SOL    HW1 7261   0.438   3.133   5.372
 1940SOL    HW2 7262   0.374   3.121   5.509
 1941SOL     OW 7263   1.124   3.655   3.926
 1941SOL    HW1 7264   1.056   3.620   3.984
 1941SOL    HW2 7265   1.154   3.580   3.875
 1942SOL     OW 7266   0.188   2.134   5.224
 1942SOL    HW1 7267   0.169   2.216   5.270
 1942SOL    HW2 7268   0.157   2.066   5.283
 1943SOL     OW 7269   1.621   3.241   3.767
 1943SOL    HW1 7270   1.581   3.325   3.791
 1943SOL    HW2 7271   1.549   3.178   3.771
 1944SOL     OW 7272   0.475   3.611   4.068
 1944SOL    HW1 7273   0.505   3.669   4.138
 1944SOL    HW2 7274   0.514   3.526   4.088
 1945SOL     OW 7275   1.403   1.971   4.173
 1945SOL    HW1 7276   1.402   1.945   4.081
 1945SOL    HW2 7277   1.496   1.982   4.194
 1946SOL     OW 7278   0.253   3.656   4.960
 1946SOL    HW1 7279   0.300   3.575   4.978
 1946SOL    HW2 7280   0.219   3.645   4.871
 1947SOL     OW 7281   0.944   3.567   4.599
 1947SOL    HW1 7282   0.965   3.517   4.678
 1947SOL    HW2 7283   0.918   3.501   4.535
 1948SOL     OW 7284   0.403   2.562   4.195
 1948SOL    HW1 7285   0.419   2.469   4.210
 1948SOL    HW2 7286   0.312   2.575   4.222
 1949SOL     OW 7287   1.531   2.084   5.447
 1949SOL    HW1 7288   1.545   2.108   5.538
 1949SOL    HW2 7289   1.468   2.011   5.451
 1950SOL     OW 7290   0.652   1.976   3.824
 1950SOL    HW1 7291   0.699   1.899   3.855
 1950SOL    HW2 7292   0.599   1.944   3.751
 1951SOL     OW 7293   0.761   2.135   5.472
 1951SOL    HW1 7294   0.842   2.084   5.470
 1951SOL    HW2 7295   0.742   2.146   5.565
 1952SOL     OW 7296   0.852   3.454   4.847
 1952SOL    HW1 7297   0.825   3.390   4.782
 1952SOL    HW2 7298   0.905   3.405   4.910
 1953SOL     OW 7299   1.339   2.450   5.164
 1953SOL    HW1 7300   1.372   2.423   5.249
 1953SOL    HW2 7301   1.376   2.537   5.150
 1954SOL     OW 7302   0.818   3.268   4.652
 1954SOL    HW1 7303   0.905   3.242   4.622
 1954SOL    HW2 7304   0.758   3.233   4.586
 1955SOL     OW 7305   0.931   2.360   4.630
 1955SOL    HW1 7306   0.901   2.355   4.539
 1955SOL    HW2 7307   0.966   2.274   4.649
 1956SOL     OW 7308   0.557   1.927   4.216
 1956SOL    HW1 7309   0.478   1.927   4.270
 1956SOL    HW2 7310   0.546   2.002   4.157
 1957SOL     OW 7311   1.417   3.057   3.762
 1957SOL    HW1 7312   1.457   2.988   3.814
 1957SOL    HW2 7313   1.338   3.081   3.811
 1958SOL     OW 7314   0.280   1.911   3.899
 1958SOL    HW1 7315   0.340   1.982   3.878
 1958SOL    HW2 7316   0.333   1.848   3.948
 1959SOL     OW 7317   0.945   2.114   4.179
 1959SOL    HW1 7318   0.922   2.153   4.094
 1959SOL    HW2 7319   1.039   2.128   4.187
 1960SOL     OW 7320   1.081   2.552   5.168
 1960SOL    HW1 7321   1.019   2.485   5.197
 1960SOL    HW2 7322   1.167   2.510   5.179
 1961SOL     OW 7323   1.239   3.409   4.499
 1961SOL    HW1 7324   1.247   3.492   4.453
 1961SOL    HW2 7325   1.283   3.423   4.583
 1962SOL     OW 7326   0.476   3.017   4.443
 1962SOL    HW1 7327   0.412   2.995   4.511
 1962SOL    HW2 7328   0.433   2.993   4.361
 1963SOL     OW 7329   1.264   3.655   4.332
 1963SOL    HW1 7330   1.319   3.722   4.290
 1963SOL    HW2 7331   1.202   3.705   4.386
 1964SOL     OW 7332   1.031   2.386   3.752
 1964SOL    HW1 7333   0.988   2.471   3.739
 1964SOL    HW2 7334   1.093   2.402   3.823
 1965SOL     OW 7335   0.098   2.461   5.101
 1965SOL    HW1 7336   0.189   2.442   5.081
 1965SOL    HW2 7337   0.102   2.524   5.173
 1966SOL     OW 7338   0.555   2.071   4.899
 1966SOL    HW1 7339   0.585   1.988   4.935
 1966SOL    HW2 7340   0.464   2.077   4.927
 1967SOL     OW 7341   0.861   2.313   4.368
 1967SOL    HW1 7342   0.821   2.374   4.305
 1967SOL    HW2 7343   0.889   2.239   4.315
 1968SOL     OW 7344   1.019   1.917   4.470
 1968SOL    HW1 7345   0.961   1.911   4.394
 1968SOL    HW2 7346   0.995   1.842   4.525
 1969SOL     OW 7347   1.435   3.009   4.591
 1969SOL    HW1 7348   1.385   2.930   4.608
 1969SOL    HW2 7349   1.440   3.014   4.495
 1970SOL     OW 7350   1.460   2.480   4.688
 1970SOL    HW1 7351   1.404   2.403   4.695
 1970SOL    HW2 7352   1.521   2.472   4.761
 1971SOL     OW 7353   1.836   2.674   4.093
 1971SOL    HW1 7354   1.889   2.634   4.161
 1971SOL    HW2 7355   1.816   2.603   4.032
 1972SOL     OW 7356   0.482   3.291   3.864
 1972SOL    HW1 7357   0.404   3.263   3.911
 1972SOL    HW2 7358   0.496   3.224   3.797
 1973SOL     OW 7359   1.692   3.120   4.369
 1973SOL    HW1 7360   1.787   3.116   4.383
 1973SOL    HW2 7361   1.668   3.208   4.398
 1974SOL     OW 7362   1.393   2.440   3.794
 1974SOL    HW1 7363   1.337   2.412   3.866
 1974SOL    HW2 7364   1.481   2.417   3.822
 1975SOL     OW 7365   0.522   2.118   4.023
 1975SOL    HW1 7366   0.578   2.075   3.959
 1975SOL    HW2 7367   0.498   2.201   3.982
 1976SOL     OW 7368   1.746   3.108   5.275
 1976SOL    HW1 7369   1.834   3.073   5.259
 1976SOL    HW2 7370   1.761   3.196   5.309
 1977SOL     OW 7371   1.607   3.498   5.378
 1977SOL    HW1 7372   1.606   3.533   5.289
 1977SOL    HW2 7373   1.685   3.443   5.381
 1978SOL     OW 7374   1.094   3.039   4.824
 1978SOL    HW1 7375   1.070   3.101   4.892
 1978SOL    HW2 7376   1.099   3.092   4.744
 1979SOL     OW 7377   1.619   2.957   4.805
 1979SOL    HW1 7378   1.621   3.020   4.876
 1979SOL    HW2 7379   1.545   2.984   4.750
 1980SOL     OW 7380   0.982   2.982   5.445
 1980SOL    HW1 7381   0.893   3.007   5.466
 1980SOL    HW2 7382   0.973   2.903   5.390
 1981SOL     OW 7383   0.713   2.923   4.097
 1981SOL    HW1 7384   0.701   2.904   4.190
 1981SOL    HW2 7385   0.786   2.867   4.070
 1982SOL     OW 7386   0.433   2.679   4.982
 1982SOL    HW1 7387   0.503   2.692   5.047
 1982SOL    HW2 7388   0.402   2.590   4.997
 1983SOL     OW 7389   1.271   2.238   5.010
 1983SOL    HW1 7390   1.308   2.311   5.060
 1983SOL    HW2 7391   1.188   2.272   4.975
 1984SOL     OW 7392   0.047   3.465   5.043
 1984SOL    HW1 7393   0.105   3.537   5.019
 1984SOL    HW2 7394   0.086   3.427   5.121
 1985SOL     OW 7395   0.350   2.964   4.208
 1985SOL    HW1 7396   0.338   3.039   4.149
 1985SOL    HW2 7397   0.345   2.888   4.150
 1986SOL     OW 7398   0.551   2.383   4.574
 1986SOL    HW1 7399   0.568   2.444   4.502
 1986SOL    HW2 7400   0.613   2.409   4.643
 1987SOL     OW 7401   1.250   3.216   4.111
 1987SOL    HW1 7402   1.304   3.288   4.145
 1987SOL    HW2 7403   1.165   3.228   4.153
 1988SOL     OW 7404   1.282   3.329   4.868
 1988SOL    HW1 7405   1.347   3.339   4.939
 1988SOL    HW2 7406   1.203   3.300   4.913
 1989SOL     OW 7407   1.576   2.484   4.209
 1989SOL    HW1 7408   1.525   2.524   4.280
 1989SOL    HW2 7409   1.640   2.551   4.186
 1990SOL     OW 7410   0.346   3.393   5.035
 1990SOL    HW1 7411   0.331   3.345   4.954
 1990SOL    HW2 7412   0.441   3.405   5.039
 1991SOL     OW 7413   0.436   2.581   5.337
 1991SOL    HW1 7414   0.485   2.635   5.275
 1991SOL    HW2 7415   0.503   2.529   5.382
 1992SOL     OW 7416   1.603   2.633   5.413
 1992SOL    HW1 7417   1.518   2.677   5.410
 1992SOL    HW2 7418   1.656   2.680   5.349
 1993SOL     OW 7419   0.991   1.992   5.454
 1993SOL    HW1 7420   1.051   2.067   5.451
 1993SOL    HW2 7421   1.046   1.918   5.428
 1994SOL     OW 7422   0.500   1.901   5.471
 1994SOL    HW1 7423   0.449   1.853   5.406
 1994SOL    HW2 7424   0.449   1.980   5.489
 1995SOL     OW 7425   0.588   2.741   4.758
 1995SOL    HW1 7426   0.633   2.825   4.760
 1995SOL    HW2 7427   0.538   2.739   4.840
 1996SOL     OW 7428   1.336   2.738   4.715
 1996SOL    HW1 7429   1.245   2.710   4.705
 1996SOL    HW2 7430   1.386   2.656   4.717
 1997SOL     OW 7431   1.192   2.388   3.982
 1997SOL    HW1 7432   1.206   2.311   4.038
 1997SOL    HW2 7433   1.154   2.453   4.041
 1998SOL     OW 7434   0.291   2.054   4.972
 1998SOL    HW1 7435   0.254   2.086   5.054
 1998SOL    HW2 7436   0.277   1.960   4.974
 1999SOL     OW 7437   0.048   3.174   4.987
 1999SOL    HW1 7438   0.068   3.118   5.062
 1999SOL    HW2 7439   0.054   3.263   5.022
 2000SOL     OW 7440   0.705   2.482   4.777
 2000SOL    HW1 7441   0.793   2.477   4.740
 2000SOL    HW2 7442   0.682   2.575   4.771
 2001SOL     OW 7443   1.740   2.820   5.584
 2001SOL    HW1 7444   1.689   2.755   5.537
 2001SOL    HW2 7445   1.689   2.841   5.662
 2002SOL     OW 7446   0.311   1.934   4.338
 2002SOL    HW1 7447   0.285   2.023   4.363
 2002SOL    HW2 7448   0.320   1.888   4.421
 2003SOL     OW 7449   1.620   2.250   4.074
 2003SOL    HW1 7450   1.650   2.184   4.136
 2003SOL    HW2 7451   1.598   2.325   4.129
 2004SOL     OW 7452   1.029   2.613   4.674
 2004SOL    HW1 7453   1.017   2.630   4.767
 2004SOL    HW2 7454   1.001   2.522   4.663
 2005SOL     OW 7455   0.983   3.408   5.466
 2005SOL    HW1 7456   0.949   3.456   5.390
 2005SOL    HW2 7457   1.033   3.336   5.429
 2006SOL     OW 7458   1.846   3.364   5.325
 2006SOL    HW1 7459   1.875   3.392   5.238
 2006SOL    HW2 7460   1.922   3.375   5.381
 2007SOL     OW 7461   0.358   2.810   5.520
 2007SOL    HW1 7462   0.432   2.837   5.573
 2007SOL    HW2 7463   0.382   2.723   5.488
 2008SOL     OW 7464   1.519   2.138   3.846
 2008SOL    HW1 7465   1.464   2.067   3.880
 2008SOL    HW2 7466   1.558   2.177   3.924
 2009SOL     OW 7467   1.263   2.677   3.746
 2009SOL    HW1 7468   1.311   2.594   3.759
 2009SOL    HW2 7469   1.306   2.717   3.670
 2010SOL     OW 7470   1.061   3.200   4.558
 2010SOL    HW1 7471   1.077   3.126   4.499
 2010SOL    HW2 7472   1.128   3.264   4.534
 2011SOL     OW 7473   0.328   2.667   4.662
 2011SOL    HW1 7474   0.419   2.695   4.674
 2011SOL    HW2 7475   0.323   2.580   4.702
 2012SOL     OW 7476   0.338   2.381   4.740
 2012SOL    HW1 7477   0.301   2.295   4.724
 2012SOL    HW2 7478   0.412   2.387   4.680
 2013SOL     OW 7479   1.136   2.227   5.418
 2013SOL    HW1 7480   1.090   2.285   5.478
 2013SOL    HW2 7481   1.224   2.264   5.413
 2014SOL     OW 7482   1.147   2.070   5.190
 2014SOL    HW1 7483   1.143   2.126   5.268
 2014SOL    HW2 7484   1.203   2.118   5.129
 2015SOL     OW 7485   7.977   3.159   3.917
 2015SOL    HW1 7486   7.892   3.184   3.954
 2015SOL    HW2 7487   7.987   3.067   3.939
 2016SOL     OW 7488   0.493   3.437   4.625
 2016SOL    HW1 7489   0.553   3.506   4.655
 2016SOL    HW2 7490   0.550   3.366   4.597
 2017SOL     OW 7491   0.968   2.639   4.936
 2017SOL    HW1 7492   1.018   2.607   5.010
 2017SOL    HW2 7493   0.911   2.707   4.972
 2018SOL     OW 7494   0.075   2.409   4.837
 2018SOL    HW1 7495   0.169   2.407   4.822
 2018SOL    HW2 7496   0.066   2.427   4.931
 2019SOL     OW 7497   0.195   2.365   5.387
 2019SOL    HW1 7498   0.288   2.385   5.382
 2019SOL    HW2 7499   0.152   2.450   5.386
 2020SOL     OW 7500   1.378   2.784   5.376
 2020SOL    HW1 7501   1.408   2.875   5.381
 2020SOL    HW2 7502   1.381   2.763   5.282
 2021SOL     OW 7503   0.816   2.426   4.092
 2021SOL    HW1 7504   0.828   2.351   4.033
 2021SOL    HW2 7505   0.739   2.471   4.058
 2022SOL     OW 7506   1.642   2.454   4.888
 2022SOL    HW1 7507   1.636   2.411   4.973
 2022SOL    HW2 7508   1.733   2.441   4.861
 2023SOL     OW 7509   0.283   3.399   5.443
 2023SOL    HW1 7510   0.247   3.471   5.495
 2023SOL    HW2 7511   0.282   3.324   5.503
 2024SOL     OW 7512   0.686   2.303   4.985
 2024SOL    HW1 7513   0.636   2.230   4.949
 2024SOL    HW2 7514   0.685   2.369   4.915
 2025SOL     OW 7515   0.880   3.537   5.242
 2025SOL    HW1 7516   0.902   3.471   5.176
 2025SOL    HW2 7517   0.948   3.604   5.233
 2026SOL     OW 7518   0.441   2.345   3.886
 2026SOL    HW1 7519   0.498   2.418   3.910
 2026SOL    HW2 7520   0.364   2.356   3.942
 2027SOL     OW 7521   0.142   2.987   5.174
 2027SOL    HW1 7522   0.127   2.943   5.258
 2027SOL    HW2 7523   0.154   2.915   5.111
 2028SOL     OW 7524   1.305   2.894   4.946
 2028SOL    HW1 7525   1.331   2.848   4.866
 2028SOL    HW2 7526   1.233   2.951   4.917
 2029SOL     OW 7527   1.318   2.731   4.019
 2029SOL    HW1 7528   1.261   2.697   4.088
 2029SOL    HW2 7529   1.278   2.700   3.938
 2030SOL     OW 7530   1.743   3.599   4.850
 2030SOL    HW1 7531   1.820   3.623   4.799
 2030SOL    HW2 7532   1.737   3.504   4.842
 2031SOL     OW 7533   1.238   3.600   4.805
 2031SOL    HW1 7534   1.326   3.625   4.777
 2031SOL    HW2 7535   1.248   3.510   4.838
 2032SOL     OW 7536   0.066   3.048   4.752
 2032SOL    HW1 7537   0.069   3.090   4.838
 2032SOL    HW2 7538  -0.014   3.081   4.711
 2033SOL     OW 7539   0.693   3.540   5.459
 2033SOL    HW1 7540   0.639   3.618   5.450
 2033SOL    HW2 7541   0.758   3.548   5.389
 2034SOL     OW 7542   1.714   2.024   4.214
 2034SOL    HW1 7543   1.788   2.009   4.155
 2034SOL    HW2 7544   1.702   1.941   4.259
 2035SOL     OW 7545   1.384   3.437   4.197
 2035SOL    HW1 7546   1.452   3.479   4.144
 2035SOL    HW2 7547   1.342   3.510   4.244
 2036SOL     OW 7548   0.166   3.614   5.564
 2036SOL    HW1 7549   0.103   3.562   5.614
 2036SOL    HW2 7550   0.215   3.663   5.631
 2037SOL     OW 7551   1.278   2.786   4.378
 2037SOL    HW1 7552   1.352   2.729   4.400
 2037SOL    HW2 7553   1.318   2.860   4.332
 2038SOL     OW 7554   0.769   3.100   5.166
 2038SOL    HW1 7555   0.731   3.154   5.235
 2038SOL    HW2 7556   0.836   3.156   5.126
 2039SOL     OW 7557   0.664   3.496   3.863
 2039SOL    HW1 7558   0.690   3.485   3.772
 2039SOL    HW2 7559   0.612   3.419   3.884
 2040SOL     OW 7560   1.624   3.603   5.115
 2040SOL    HW1 7561   1.668   3.605   5.031
 2040SOL    HW2 7562   1.605   3.695   5.135
 2041SOL     OW 7563   1.840   2.028   4.691
 2041SOL    HW1 7564   1.873   1.941   4.668
 2041SOL    HW2 7565   1.754   2.033   4.649
 2042SOL     OW 7566   0.259   2.184   4.432
 2042SOL    HW1 7567   0.172   2.220   4.414
 2042SOL    HW2 7568   0.261   2.172   4.527
 2043SOL     OW 7569   1.203   3.450   3.757
 2043SOL    HW1 7570   1.194   3.363   3.796
 2043SOL    HW2 7571   1.126   3.458   3.700
 2044SOL     OW 7572   0.853   2.868   5.063
 2044SOL    HW1 7573   0.915   2.906   5.000
 2044SOL    HW2 7574   0.811   2.944   5.104
 2045SOL     OW 7575   0.908   2.761   3.998
 2045SOL    HW1 7576   0.972   2.804   3.942
 2045SOL    HW2 7577   0.959   2.702   4.053
 2046SOL     OW 7578   1.477   3.503   3.770
 2046SOL    HW1 7579   1.384   3.484   3.760
 2046SOL    HW2 7580   1.511   3.503   3.680
 2047SOL     OW 7581   0.359   3.160   5.215
 2047SOL    HW1 7582   0.346   3.242   5.167
 2047SOL    HW2 7583   0.282   3.107   5.194
 2048SOL     OW 7584   1.616   3.142   5.002
 2048SOL    HW1 7585   1.671   3.132   5.080
 2048SOL    HW2 7586   1.537   3.186   5.034
 2049SOL     OW 7587   1.065   2.966   4.416
 2049SOL    HW1 7588   0.998   2.919   4.465
 2049SOL    HW2 7589   1.135   2.901   4.403
 2050SOL     OW 7590   1.031   2.100   4.688
 2050SOL    HW1 7591   1.029   2.052   4.606
 2050SOL    HW2 7592   1.028   2.033   4.756
 2051SOL     OW 7593   0.575   3.374   4.157
 2051SOL    HW1 7594   0.634   3.308   4.119
 2051SOL    HW2 7595   0.496   3.326   4.179
 2052SOL     OW 7596   1.728   2.257   5.107
 2052SOL    HW1 7597   1.802   2.319   5.110
 2052SOL    HW2 7598   1.756   2.189   5.046
 2053SOL     OW 7599   0.246   3.208   3.994
 2053SOL    HW1 7600   0.150   3.211   3.993
 2053SOL    HW2 7601   0.270   3.243   4.080
 2054SOL     OW 7602   0.102   2.867   5.431
 2054SOL    HW1 7603   0.061   2.949   5.458
 2054SOL    HW2 7604   0.185   2.865   5.478
 2055SOL     OW 7605   0.748   2.065   5.197
 2055SOL    HW1 7606   0.702   2.139   5.157
 2055SOL    HW2 7607   0.747   2.084   5.291
 2056SOL     OW 7608   0.113   2.221   3.739
 2056SOL    HW1 7609   0.041   2.254   3.792
 2056SOL    HW2 7610   0.113   2.275   3.661
 2057SOL     OW 7611   1.422   2.710   5.114
 2057SOL    HW1 7612   1.373   2.774   5.062
 2057SOL    HW2 7613   1.513   2.721   5.087
 2058SOL     OW 7614   0.100   2.106   4.076
 2058SOL    HW1 7615   0.054   2.080   3.996
 2058SOL    HW2 7616   0.178   2.050   4.078
 2059SOL     OW 7617   1.172   3.189   3.853
 2059SOL    HW1 7618   1.103   3.124   3.865
 2059SOL    HW2 7619   1.207   3.203   3.941
 2060SOL     OW 7620   0.637   2.686   5.161
 2060SOL    HW1 7621   0.680   2.771   5.150
 2060SOL    HW2 7622   0.709   2.624   5.172
 2061SOL     OW 7623   1.496   3.654   4.714
 2061SOL    HW1 7624   1.525   3.726   4.658
 2061SOL    HW2 7625   1.574   3.630   4.764
 2062SOL     OW 7626   0.694   2.439   5.429
 2062SOL    HW1 7627   0.745   2.506   5.475
 2062SOL    HW2 7628   0.723   2.356   5.467
 2063SOL     OW 7629   1.485   3.034   5.371
 2063SOL    HW1 7630   1.469   3.057   5.463
 2063SOL    HW2 7631   1.575   3.063   5.355
 2064SOL     OW 7632   0.390   3.604   5.287
 2064SOL    HW1 7633   0.302   3.636   5.267
 2064SOL    HW2 7634   0.376   3.517   5.325
 2065SOL     OW 7635   1.662   2.741   4.974
 2065SOL    HW1 7636   1.666   2.661   4.922
 2065SOL    HW2 7637   1.654   2.811   4.909
 2066SOL     OW 7638   1.216   2.181   4.175
 2066SOL    HW1 7639   1.279   2.109   4.173
 2066SOL    HW2 7640   1.240   2.232   4.253
 2067SOL     OW 7641   0.599   2.588   4.393
 2067SOL    HW1 7642   0.639   2.675   4.391
 2067SOL    HW2 7643   0.531   2.591   4.326
 2068SOL     OW 7644   1.761   2.216   5.380
 2068SOL    HW1 7645   1.749   2.239   5.288
 2068SOL    HW2 7646   1.683   2.166   5.403
 2069SOL     OW 7647   1.723   2.796   5.238
 2069SOL    HW1 7648   1.737   2.889   5.255
 2069SOL    HW2 7649   1.721   2.789   5.142
 2070SOL     OW 7650   0.820   3.235   3.774
 2070SOL    HW1 7651   0.806   3.228   3.868
 2070SOL    HW2 7652   0.876   3.312   3.763
 2071SOL     OW 7653   0.669   3.646   4.651
 2071SOL    HW1 7654   0.664   3.741   4.650
 2071SOL    HW2 7655   0.762   3.626   4.665
 2072SOL     OW 7656   0.875   2.833   4.569
 2072SOL    HW1 7657   0.925   2.763   4.611
 2072SOL    HW2 7658   0.833   2.879   4.642
 2073SOL     OW 7659   1.072   2.861   3.806
 2073SOL    HW1 7660   1.055   2.906   3.723
 2073SOL    HW2 7661   1.141   2.799   3.786
 2074SOL     OW 7662   1.846   3.405   4.561
 2074SOL    HW1 7663   1.758   3.399   4.524
 2074SOL    HW2 7664   1.840   3.356   4.643
 2075SOL     OW 7665   0.212   3.159   5.580
 2075SOL    HW1 7666   0.119   3.145   5.563
 2075SOL    HW2 7667   0.219   3.164   5.675
 2076SOL     OW 7668   0.140   3.122   4.357
 2076SOL    HW1 7669   0.058   3.096   4.398
 2076SOL    HW2 7670   0.202   3.053   4.381
 2077SOL     OW 7671   0.671   3.274   5.356
 2077SOL    HW1 7672   0.591   3.243   5.398
 2077SOL    HW2 7673   0.685   3.361   5.394
 2078SOL     OW 7674   1.792   2.042   4.959
 2078SOL    HW1 7675   1.838   1.962   4.983
 2078SOL    HW2 7676   1.808   2.052   4.865
 2079SOL     OW 7677   0.426   2.298   4.239
 2079SOL    HW1 7678   0.468   2.223   4.197
 2079SOL    HW2 7679   0.381   2.261   4.314
 2080SOL     OW 7680   1.708   3.332   4.805
 2080SOL    HW1 7681   1.621   3.315   4.770
 2080SOL    HW2 7682   1.716   3.274   4.880
 2081SOL     OW 7683   0.355   2.418   5.020
 2081SOL    HW1 7684   0.404   2.358   5.076
 2081SOL    HW2 7685   0.373   2.387   4.931
 2082SOL     OW 7686   0.828   3.427   4.382
 2082SOL    HW1 7687   0.770   3.486   4.334
 2082SOL    HW2 7688   0.770   3.365   4.425
 2083SOL     OW 7689   1.437   2.097   4.843
 2083SOL    HW1 7690   1.491   2.036   4.894
 2083SOL    HW2 7691   1.386   2.144   4.909
 2084SOL     OW 7692   1.012   1.883   4.875
 2084SOL    HW1 7693   0.951   1.818   4.839
 2084SOL    HW2 7694   1.098   1.843   4.865
 2085SOL     OW 7695   0.778   3.193   4.044
 2085SOL    HW1 7696   0.759   3.102   4.065
 2085SOL    HW2 7697   0.854   3.215   4.098
 2086SOL     OW 7698   0.613   3.436   5.000
 2086SOL    HW1 7699   0.615   3.519   5.047
 2086SOL    HW2 7700   0.696   3.433   4.952
 2087SOL     OW 7701   1.369   1.908   3.903
 2087SOL    HW1 7702   1.408   1.830   3.863
 2087SOL    HW2 7703   1.277   1.884   3.918
 2088SOL     OW 7704   1.280   2.324   4.398
 2088SOL    HW1 7705   1.234   2.408   4.404
 2088SOL    HW2 7706   1.285   2.294   4.489
 2089SOL     OW 7707   1.578   2.049   4.607
 2089SOL    HW1 7708   1.528   2.078   4.683
 2089SOL    HW2 7709   1.583   2.126   4.551
 2090SOL     OW 7710   0.039   2.894   4.015
 2090SOL    HW1 7711   0.134   2.884   4.007
 2090SOL    HW2 7712   0.024   2.918   4.106
 2091SOL     OW 7713   0.899   3.525   4.048
 2091SOL    HW1 7714   0.818   3.502   4.002
 2091SOL    HW2 7715   0.875   3.596   4.107
 2092SOL     OW 7716   0.214   2.551   5.647
 2092SOL    HW1 7717   0.147   2.564   5.714
 2092SOL    HW2 7718   0.242   2.460   5.659
 2093SOL     OW 7719   0.234   2.132   6.580
 2093SOL    HW1 7720   0.279   2.106   6.661
 2093SOL    HW2 7721   0.143   2.106   6.594
 2094SOL     OW 7722   8.005   2.233   6.207
 2094SOL    HW1 7723   7.911   2.236   6.224
 2094SOL    HW2 7724   8.012   2.193   6.120
 2095SOL     OW 7725   0.557   3.157   6.770
 2095SOL    HW1 7726   0.476   3.182   6.725
 2095SOL    HW2 7727   0.590   3.238   6.808
 2096SOL     OW 7728   1.596   3.366   6.310
 2096SOL    HW1 7729   1.545   3.350   6.389
 2096SOL    HW2 7730   1.532   3.391   6.244
 2097SOL     OW 7731   1.121   2.563   6.279
 2097SOL    HW1 7732   1.176   2.639   6.263
 2097SOL    HW2 7733   1.078   2.580   6.363
 2098SOL     OW 7734   1.792   2.441   5.803
 2098SOL    HW1 7735   1.755   2.440   5.715
 2098SOL    HW2 7736   1.741   2.377   5.852
 2099SOL     OW 7737   0.726   2.989   6.632
 2099SOL    HW1 7738   0.664   3.033   6.690
 2099SOL    HW2 7739   0.775   3.060   6.591
 2100SOL     OW 7740   0.872   2.617   7.404
 2100SOL    HW1 7741   0.857   2.688   7.466
 2100SOL    HW2 7742   0.895   2.661   7.322
 2101SOL     OW 7743   0.684   2.851   6.233
 2101SOL    HW1 7744   0.754   2.848   6.298
 2101SOL    HW2 7745   0.620   2.912   6.269
 2102SOL     OW 7746   0.714   3.015   7.418
 2102SOL    HW1 7747   0.768   3.089   7.446
 2102SOL    HW2 7748   0.644   3.055   7.367
 2103SOL     OW 7749   0.336   3.280   6.645
 2103SOL    HW1 7750   0.294   3.222   6.581
 2103SOL    HW2 7751   0.389   3.340   6.592
 2104SOL     OW 7752   1.463   3.363   6.961
 2104SOL    HW1 7753   1.525   3.436   6.954
 2104SOL    HW2 7754   1.396   3.394   7.021
 2105SOL     OW 7755   0.457   2.242   7.070
 2105SOL    HW1 7756   0.548   2.212   7.067
 2105SOL    HW2 7757   0.409   2.170   7.111
 2106SOL     OW 7758   1.608   2.304   6.336
 2106SOL    HW1 7759   1.553   2.341   6.267
 2106SOL    HW2 7760   1.619   2.376   6.399
 2107SOL     OW 7761   0.230   3.568   6.069
 2107SOL    HW1 7762   0.247   3.648   6.119
 2107SOL    HW2 7763   0.298   3.568   6.001
 2108SOL     OW 7764   1.138   3.188   7.284
 2108SOL    HW1 7765   1.168   3.181   7.374
 2108SOL    HW2 7766   1.086   3.109   7.270
 2109SOL     OW 7767   0.279   3.293   6.098
 2109SOL    HW1 7768   0.267   3.386   6.119
 2109SOL    HW2 7769   0.231   3.247   6.167
 2110SOL     OW 7770   0.276   2.942   6.487
 2110SOL    HW1 7771   0.280   2.850   6.511
 2110SOL    HW2 7772   0.197   2.975   6.531
 2111SOL     OW 7773   0.583   3.684   6.974
 2111SOL    HW1 7774   0.518   3.651   7.036
 2111SOL    HW2 7775   0.624   3.758   7.019
 2112SOL     OW 7776   0.571   2.858   5.730
 2112SOL    HW1 7777   0.623   2.900   5.661
 2112SOL    HW2 7778   0.613   2.884   5.812
 2113SOL     OW 7779   1.590   1.989   7.048
 2113SOL    HW1 7780   1.640   2.054   6.998
 2113SOL    HW2 7781   1.569   2.034   7.130
 2114SOL     OW 7782   0.131   2.488   6.138
 2114SOL    HW1 7783   0.097   2.408   6.177
 2114SOL    HW2 7784   0.121   2.554   6.206
 2115SOL     OW 7785   1.847   3.614   5.909
 2115SOL    HW1 7786   1.916   3.589   5.972
 2115SOL    HW2 7787   1.865   3.706   5.891
 2116SOL     OW 7788   0.014   3.446   5.714
 2116SOL    HW1 7789  -0.008   3.355   5.696
 2116SOL    HW2 7790   0.010   3.454   5.809
 2117SOL     OW 7791   1.668   2.735   6.197
 2117SOL    HW1 7792   1.718   2.771   6.271
 2117SOL    HW2 7793   1.673   2.802   6.130
 2118SOL     OW 7794   1.662   2.963   6.023
 2118SOL    HW1 7795   1.748   2.964   5.983
 2118SOL    HW2 7796   1.670   3.019   6.100
 2119SOL     OW 7797   0.153   2.623   7.167
 2119SOL    HW1 7798   0.248   2.633   7.161
 2119SOL    HW2 7799   0.123   2.701   7.214
 2120SOL     OW 7800   0.594   3.258   6.321
 2120SOL    HW1 7801   0.561   3.168   6.326
 2120SOL    HW2 7802   0.590   3.279   6.227
 2121SOL     OW 7803   1.311   3.077   7.016
 2121SOL    HW1 7804   1.299   3.008   6.951
 2121SOL    HW2 7805   1.387   3.126   6.986
 2122SOL     OW 7806   0.822   1.861   6.102
 2122SOL    HW1 7807   0.864   1.944   6.078
 2122SOL    HW2 7808   0.728   1.883   6.105
 2123SOL     OW 7809   0.158   2.767   6.857
 2123SOL    HW1 7810   0.252   2.748   6.858
 2123SOL    HW2 7811   0.138   2.776   6.764
 2124SOL     OW 7812   1.539   2.858   5.795
 2124SOL    HW1 7813   1.477   2.794   5.830
 2124SOL    HW2 7814   1.582   2.895   5.873
 2125SOL     OW 7815   1.168   3.678   7.219
 2125SOL    HW1 7816   1.173   3.737   7.144
 2125SOL    HW2 7817   1.198   3.594   7.184
 2126SOL     OW 7818   0.342   2.118   7.380
 2126SOL    HW1 7819   0.391   2.191   7.417
 2126SOL    HW2 7820   0.251   2.135   7.408
 2127SOL     OW 7821   1.457   3.280   6.532
 2127SOL    HW1 7822   1.391   3.284   6.601
 2127SOL    HW2 7823   1.455   3.189   6.503
 2128SOL     OW 7824   1.650   3.638   6.163
 2128SOL    HW1 7825   1.612   3.590   6.089
 2128SOL    HW2 7826   1.652   3.573   6.234
 2129SOL     OW 7827   0.590   2.566   5.849
 2129SOL    HW1 7828   0.612   2.653   5.815
 2129SOL    HW2 7829   0.531   2.583   5.923
 2130SOL     OW 7830   1.284   2.234   6.524
 2130SOL    HW1 7831   1.195   2.199   6.532
 2130SOL    HW2 7832   1.337   2.180   6.583
 2131SOL     OW 7833   1.576   3.553   5.893
 2131SOL    HW1 7834   1.670   3.569   5.894
 2131SOL    HW2 7835   1.557   3.525   5.803
 2132SOL     OW 7836   0.786   2.483   7.027
 2132SOL    HW1 7837   0.762   2.454   7.115
 2132SOL    HW2 7838   0.754   2.413   6.969
 2133SOL     OW 7839   1.387   2.337   7.261
 2133SOL    HW1 7840   1.395   2.383   7.345
 2133SOL    HW2 7841   1.447   2.263   7.269
 2134SOL     OW 7842   0.940   2.743   7.168
 2134SOL    HW1 7843   0.998   2.676   7.131
 2134SOL    HW2 7844   0.902   2.787   7.092
 2135SOL     OW 7845   0.991   2.267   6.818
 2135SOL    HW1 7846   0.900   2.287   6.840
 2135SOL    HW2 7847   0.989   2.252   6.724
 2136SOL     OW 7848   1.045   2.551   6.011
 2136SOL    HW1 7849   1.069   2.555   6.104
 2136SOL    HW2 7850   0.962   2.503   6.010
 2137SOL     OW 7851   0.098   2.662   6.351
 2137SOL    HW1 7852   0.176   2.673   6.405
 2137SOL    HW2 7853   0.057   2.748   6.349
 2138SOL     OW 7854   0.140   3.693   7.158
 2138SOL    HW1 7855   0.138   3.675   7.252
 2138SOL    HW2 7856   0.050   3.682   7.129
 2139SOL     OW 7857   0.890   2.206   5.755
 2139SOL    HW1 7858   0.930   2.276   5.704
 2139SOL    HW2 7859   0.956   2.137   5.758
 2140SOL     OW 7860   1.682   2.434   7.418
 2140SOL    HW1 7861   1.659   2.509   7.364
 2140SOL    HW2 7862   1.722   2.371   7.357
 2141SOL     OW 7863   1.391   2.991   6.141
 2141SOL    HW1 7864   1.470   2.999   6.087
 2141SOL    HW2 7865   1.327   3.046   6.096
 2142SOL     OW 7866   0.556   2.038   6.485
 2142SOL    HW1 7867   0.560   2.067   6.576
 2142SOL    HW2 7868   0.564   2.118   6.433
 2143SOL     OW 7869   0.962   3.326   6.081
 2143SOL    HW1 7870   0.971   3.398   6.017
 2143SOL    HW2 7871   1.039   3.271   6.065
 2144SOL     OW 7872   0.372   3.689   6.447
 2144SOL    HW1 7873   0.418   3.606   6.460
 2144SOL    HW2 7874   0.438   3.756   6.467
 2145SOL     OW 7875   1.744   2.879   6.423
 2145SOL    HW1 7876   1.737   2.964   6.380
 2145SOL    HW2 7877   1.739   2.899   6.516
 2146SOL     OW 7878   1.243   3.418   7.126
 2146SOL    HW1 7879   1.211   3.328   7.130
 2146SOL    HW2 7880   1.205   3.453   7.046
 2147SOL     OW 7881   0.308   2.815   5.828
 2147SOL    HW1 7882   0.396   2.842   5.800
 2147SOL    HW2 7883   0.286   2.742   5.770
 2148SOL     OW 7884   1.469   2.593   6.306
 2148SOL    HW1 7885   1.483   2.567   6.397
 2148SOL    HW2 7886   1.547   2.644   6.284
 2149SOL     OW 7887   0.461   3.129   7.332
 2149SOL    HW1 7888   0.440   3.135   7.239
 2149SOL    HW2 7889   0.376   3.117   7.375
 2150SOL     OW 7890   1.127   3.657   5.789
 2150SOL    HW1 7891   1.054   3.620   5.839
 2150SOL    HW2 7892   1.155   3.585   5.732
 2151SOL     OW 7893   0.163   2.147   7.072
 2151SOL    HW1 7894   0.152   2.240   7.057
 2151SOL    HW2 7895   0.173   2.139   7.167
 2152SOL     OW 7896   1.621   3.245   5.664
 2152SOL    HW1 7897   1.579   3.331   5.657
 2152SOL    HW2 7898   1.548   3.183   5.656
 2153SOL     OW 7899   0.455   3.607   5.900
 2153SOL    HW1 7900   0.506   3.654   5.966
 2153SOL    HW2 7901   0.520   3.566   5.844
 2154SOL     OW 7902   1.404   1.969   6.037
 2154SOL    HW1 7903   1.403   1.948   5.944
 2154SOL    HW2 7904   1.495   1.989   6.057
 2155SOL     OW 7905   0.237   3.643   6.819
 2155SOL    HW1 7906   0.295   3.571   6.845
 2155SOL    HW2 7907   0.212   3.622   6.729
 2156SOL     OW 7908   0.946   3.568   6.490
 2156SOL    HW1 7909   1.032   3.527   6.498
 2156SOL    HW2 7910   0.901   3.517   6.423
 2157SOL     OW 7911   0.407   2.558   6.059
 2157SOL    HW1 7912   0.421   2.465   6.077
 2157SOL    HW2 7913   0.315   2.573   6.079
 2158SOL     OW 7914   1.520   2.091   7.306
 2158SOL    HW1 7915   1.529   2.110   7.399
 2158SOL    HW2 7916   1.457   2.020   7.302
 2159SOL     OW 7917   0.624   1.964   5.709
 2159SOL    HW1 7918   0.712   1.928   5.708
 2159SOL    HW2 7919   0.587   1.941   5.623
 2160SOL     OW 7920   0.759   2.141   7.340
 2160SOL    HW1 7921   0.844   2.096   7.337
 2160SOL    HW2 7922   0.719   2.111   7.421
 2161SOL     OW 7923   0.850   3.338   6.789
 2161SOL    HW1 7924   0.846   3.310   6.698
 2161SOL    HW2 7925   0.941   3.361   6.803
 2162SOL     OW 7926   1.336   2.453   7.015
 2162SOL    HW1 7927   1.370   2.424   7.099
 2162SOL    HW2 7928   1.374   2.539   7.001
 2163SOL     OW 7929   0.815   3.234   6.531
 2163SOL    HW1 7930   0.906   3.228   6.500
 2163SOL    HW2 7931   0.766   3.261   6.454
 2164SOL     OW 7932   0.925   2.357   6.495
 2164SOL    HW1 7933   0.897   2.354   6.403
 2164SOL    HW2 7934   0.963   2.271   6.510
 2165SOL     OW 7935   0.554   1.923   6.081
 2165SOL    HW1 7936   0.474   1.923   6.134
 2165SOL    HW2 7937   0.547   2.001   6.027
 2166SOL     OW 7938   1.421   3.059   5.641
 2166SOL    HW1 7939   1.457   2.988   5.696
 2166SOL    HW2 7940   1.341   3.086   5.686
 2167SOL     OW 7941   0.290   1.909   5.759
 2167SOL    HW1 7942   0.348   1.979   5.730
 2167SOL    HW2 7943   0.347   1.851   5.810
 2168SOL     OW 7944   0.939   2.106   6.041
 2168SOL    HW1 7945   0.907   2.164   5.972
 2168SOL    HW2 7946   1.033   2.124   6.045
 2169SOL     OW 7947   1.082   2.544   7.054
 2169SOL    HW1 7948   1.026   2.469   7.038
 2169SOL    HW2 7949   1.171   2.511   7.040
 2170SOL     OW 7950   1.202   3.454   6.410
 2170SOL    HW1 7951   1.230   3.470   6.320
 2170SOL    HW2 7952   1.281   3.469   6.462
 2171SOL     OW 7953   0.471   3.010   6.309
 2171SOL    HW1 7954   0.408   2.991   6.379
 2171SOL    HW2 7955   0.423   2.994   6.228
 2172SOL     OW 7956   1.249   3.669   6.177
 2172SOL    HW1 7957   1.297   3.731   6.122
 2172SOL    HW2 7958   1.250   3.709   6.264
 2173SOL     OW 7959   1.024   2.395   5.610
 2173SOL    HW1 7960   0.986   2.481   5.591
 2173SOL    HW2 7961   1.089   2.412   5.678
 2174SOL     OW 7962   0.110   2.425   6.981
 2174SOL    HW1 7963   0.199   2.426   6.946
 2174SOL    HW2 7964   0.106   2.499   7.041
 2175SOL     OW 7965   0.559   2.085   6.758
 2175SOL    HW1 7966   0.608   2.020   6.809
 2175SOL    HW2 7967   0.470   2.080   6.793
 2176SOL     OW 7968   0.852   2.307   6.234
 2176SOL    HW1 7969   0.814   2.368   6.170
 2176SOL    HW2 7970   0.886   2.235   6.181
 2177SOL     OW 7971   1.023   1.918   6.336
 2177SOL    HW1 7972   0.964   1.918   6.261
 2177SOL    HW2 7973   0.995   1.843   6.389
 2178SOL     OW 7974   1.453   3.023   6.440
 2178SOL    HW1 7975   1.369   2.985   6.415
 2178SOL    HW2 7976   1.502   3.030   6.358
 2179SOL     OW 7977   1.469   2.471   6.556
 2179SOL    HW1 7978   1.411   2.396   6.559
 2179SOL    HW2 7979   1.528   2.459   6.630
 2180SOL     OW 7980   1.858   2.670   5.939
 2180SOL    HW1 7981   1.901   2.632   6.015
 2180SOL    HW2 7982   1.831   2.594   5.886
 2181SOL     OW 7983   0.485   3.285   5.729
 2181SOL    HW1 7984   0.405   3.253   5.772
 2181SOL    HW2 7985   0.499   3.224   5.657
 2182SOL     OW 7986   1.690   3.108   6.254
 2182SOL    HW1 7987   1.786   3.111   6.250
 2182SOL    HW2 7988   1.664   3.199   6.268
 2183SOL     OW 7989   1.391   2.441   5.655
 2183SOL    HW1 7990   1.335   2.421   5.730
 2183SOL    HW2 7991   1.480   2.438   5.689
 2184SOL     OW 7992   0.517   2.123   5.901
 2184SOL    HW1 7993   0.563   2.070   5.836
 2184SOL    HW2 7994   0.500   2.206   5.857
 2185SOL     OW 7995   1.756   3.113   7.207
 2185SOL    HW1 7996   1.833   3.067   7.173
 2185SOL    HW2 7997   1.778   3.206   7.198
 2186SOL     OW 7998   1.073   3.187   6.911
 2186SOL    HW1 7999   0.996   3.170   6.965
 2186SOL    HW2 8000   1.146   3.153   6.963
 2187SOL     OW 8001   1.607   3.475   7.251
 2187SOL    HW1 8002   1.589   3.516   7.166
 2187SOL    HW2 8003   1.694   3.437   7.241
 2188SOL     OW 8004   1.087   3.037   6.682
 2188SOL    HW1 8005   1.080   3.101   6.753
 2188SOL    HW2 8006   1.089   3.088   6.602
 2189SOL     OW 8007   1.602   2.944   6.679
 2189SOL    HW1 8008   1.591   3.012   6.745
 2189SOL    HW2 8009   1.549   2.973   6.606
 2190SOL     OW 8010   0.921   1.950   6.972
 2190SOL    HW1 8011   0.943   1.934   6.880
 2190SOL    HW2 8012   0.999   1.991   7.009
 2191SOL     OW 8013   0.981   2.962   7.320
 2191SOL    HW1 8014   0.891   2.987   7.338
 2191SOL    HW2 8015   0.975   2.889   7.258
 2192SOL     OW 8016   0.707   2.917   5.961
 2192SOL    HW1 8017   0.697   2.902   6.055
 2192SOL    HW2 8018   0.781   2.864   5.935
 2193SOL     OW 8019   0.419   2.687   6.851
 2193SOL    HW1 8020   0.492   2.704   6.910
 2193SOL    HW2 8021   0.402   2.593   6.860
 2194SOL     OW 8022   1.259   2.230   6.875
 2194SOL    HW1 8023   1.294   2.310   6.913
 2194SOL    HW2 8024   1.169   2.252   6.851
 2195SOL     OW 8025   0.040   3.460   6.916
 2195SOL    HW1 8026   0.104   3.527   6.892
 2195SOL    HW2 8027   0.074   3.424   6.998
 2196SOL     OW 8028   0.321   2.973   6.077
 2196SOL    HW1 8029   0.344   3.052   6.028
 2196SOL    HW2 8030   0.328   2.902   6.013
 2197SOL     OW 8031   0.549   2.385   6.444
 2197SOL    HW1 8032   0.560   2.444   6.370
 2197SOL    HW2 8033   0.614   2.413   6.508
 2198SOL     OW 8034   1.295   3.291   6.745
 2198SOL    HW1 8035   1.353   3.333   6.808
 2198SOL    HW2 8036   1.207   3.313   6.776
 2199SOL     OW 8037   1.583   2.478   6.072
 2199SOL    HW1 8038   1.518   2.519   6.128
 2199SOL    HW2 8039   1.649   2.546   6.058
 2200SOL     OW 8040   0.346   3.385   6.897
 2200SOL    HW1 8041   0.332   3.344   6.812
 2200SOL    HW2 8042   0.440   3.400   6.901
 2201SOL     OW 8043   0.440   2.594   7.198
 2201SOL    HW1 8044   0.491   2.646   7.136
 2201SOL    HW2 8045   0.502   2.529   7.232
 2202SOL     OW 8046   1.610   2.653   7.272
 2202SOL    HW1 8047   1.527   2.698   7.259
 2202SOL    HW2 8048   1.668   2.688   7.203
 2203SOL     OW 8049   0.994   2.001   7.343
 2203SOL    HW1 8050   1.052   2.075   7.324
 2203SOL    HW2 8051   1.044   1.924   7.315
 2204SOL     OW 8052   0.493   1.894   7.329
 2204SOL    HW1 8053   0.441   1.842   7.267
 2204SOL    HW2 8054   0.441   1.973   7.343
 2205SOL     OW 8055   0.584   2.742   6.620
 2205SOL    HW1 8056   0.632   2.825   6.613
 2205SOL    HW2 8057   0.532   2.751   6.700
 2206SOL     OW 8058   1.334   2.706   6.623
 2206SOL    HW1 8059   1.281   2.719   6.544
 2206SOL    HW2 8060   1.389   2.631   6.603
 2207SOL     OW 8061   1.188   2.383   5.842
 2207SOL    HW1 8062   1.205   2.311   5.903
 2207SOL    HW2 8063   1.159   2.456   5.897
 2208SOL     OW 8064   0.299   2.053   6.843
 2208SOL    HW1 8065   0.257   2.086   6.922
 2208SOL    HW2 8066   0.278   1.960   6.842
 2209SOL     OW 8067   0.037   3.171   6.856
 2209SOL    HW1 8068   0.068   3.119   6.930
 2209SOL    HW2 8069   0.056   3.262   6.881
 2210SOL     OW 8070   0.711   2.491   6.636
 2210SOL    HW1 8071   0.795   2.484   6.592
 2210SOL    HW2 8072   0.686   2.583   6.625
 2211SOL     OW 8073   1.748   2.812   7.454
 2211SOL    HW1 8074   1.706   2.753   7.392
 2211SOL    HW2 8075   1.682   2.826   7.522
 2212SOL     OW 8076   0.307   1.924   6.205
 2212SOL    HW1 8077   0.284   2.015   6.225
 2212SOL    HW2 8078   0.322   1.884   6.290
 2213SOL     OW 8079   1.616   2.246   5.938
 2213SOL    HW1 8080   1.649   2.183   6.003
 2213SOL    HW2 8081   1.597   2.325   5.989
 2214SOL     OW 8082   1.015   2.612   6.536
 2214SOL    HW1 8083   1.016   2.632   6.630
 2214SOL    HW2 8084   0.997   2.519   6.531
 2215SOL     OW 8085   0.979   3.409   7.313
 2215SOL    HW1 8086   0.954   3.463   7.238
 2215SOL    HW2 8087   1.035   3.341   7.276
 2216SOL     OW 8088   1.849   3.369   7.187
 2216SOL    HW1 8089   1.871   3.392   7.096
 2216SOL    HW2 8090   1.932   3.381   7.235
 2217SOL     OW 8091   0.360   2.806   7.373
 2217SOL    HW1 8092   0.433   2.831   7.429
 2217SOL    HW2 8093   0.391   2.730   7.324
 2218SOL     OW 8094   1.530   2.126   5.709
 2218SOL    HW1 8095   1.468   2.062   5.745
 2218SOL    HW2 8096   1.563   2.173   5.785
 2219SOL     OW 8097   1.272   2.685   5.606
 2219SOL    HW1 8098   1.321   2.604   5.616
 2219SOL    HW2 8099   1.309   2.726   5.527
 2220SOL     OW 8100   1.071   3.204   6.457
 2220SOL    HW1 8101   1.080   3.137   6.389
 2220SOL    HW2 8102   1.125   3.277   6.426
 2221SOL     OW 8103   0.321   2.668   6.525
 2221SOL    HW1 8104   0.414   2.694   6.527
 2221SOL    HW2 8105   0.320   2.579   6.560
 2222SOL     OW 8106   0.334   2.384   6.603
 2222SOL    HW1 8107   0.297   2.298   6.584
 2222SOL    HW2 8108   0.410   2.391   6.545
 2223SOL     OW 8109   1.134   2.231   7.278
 2223SOL    HW1 8110   1.088   2.288   7.339
 2223SOL    HW2 8111   1.220   2.272   7.267
 2224SOL     OW 8112   1.159   2.055   7.064
 2224SOL    HW1 8113   1.149   2.119   7.134
 2224SOL    HW2 8114   1.204   2.103   6.994
 2225SOL     OW 8115   7.971   3.163   5.776
 2225SOL    HW1 8116   7.887   3.189   5.813
 2225SOL    HW2 8117   7.978   3.070   5.794
 2226SOL     OW 8118   0.137   3.617   6.554
 2226SOL    HW1 8119   0.109   3.544   6.498
 2226SOL    HW2 8120   0.217   3.649   6.512
 2227SOL     OW 8121   0.492   3.442   6.493
 2227SOL    HW1 8122   0.564   3.499   6.518
 2227SOL    HW2 8123   0.531   3.379   6.433
 2228SOL     OW 8124   0.968   2.630   6.806
 2228SOL    HW1 8125   1.043   2.636   6.866
 2228SOL    HW2 8126   0.895   2.605   6.863
 2229SOL     OW 8127   0.075   2.409   6.706
 2229SOL    HW1 8128   0.168   2.413   6.681
 2229SOL    HW2 8129   0.076   2.413   6.801
 2230SOL     OW 8130   0.214   2.383   7.279
 2230SOL    HW1 8131   0.301   2.378   7.239
 2230SOL    HW2 8132   0.177   2.465   7.247
 2231SOL     OW 8133   1.386   2.816   7.241
 2231SOL    HW1 8134   1.409   2.908   7.231
 2231SOL    HW2 8135   1.378   2.783   7.151
 2232SOL     OW 8136   0.807   2.409   5.956
 2232SOL    HW1 8137   0.815   2.352   5.880
 2232SOL    HW2 8138   0.741   2.473   5.931
 2233SOL     OW 8139   1.644   2.433   6.759
 2233SOL    HW1 8140   1.644   2.389   6.844
 2233SOL    HW2 8141   1.734   2.426   6.729
 2234SOL     OW 8142   0.289   3.394   7.304
 2234SOL    HW1 8143   0.252   3.466   7.354
 2234SOL    HW2 8144   0.282   3.318   7.362
 2235SOL     OW 8145   0.706   2.309   6.836
 2235SOL    HW1 8146   0.655   2.235   6.802
 2235SOL    HW2 8147   0.701   2.374   6.766
 2236SOL     OW 8148   0.884   3.553   7.095
 2236SOL    HW1 8149   0.928   3.508   7.022
 2236SOL    HW2 8150   0.903   3.646   7.079
 2237SOL     OW 8151   0.451   2.343   5.748
 2237SOL    HW1 8152   0.506   2.419   5.768
 2237SOL    HW2 8153   0.371   2.358   5.798
 2238SOL     OW 8154   0.147   2.984   7.036
 2238SOL    HW1 8155   0.133   2.941   7.120
 2238SOL    HW2 8156   0.153   2.913   6.973
 2239SOL     OW 8157   1.281   2.891   6.814
 2239SOL    HW1 8158   1.315   2.832   6.747
 2239SOL    HW2 8159   1.216   2.944   6.768
 2240SOL     OW 8160   1.329   2.696   5.881
 2240SOL    HW1 8161   1.264   2.731   5.942
 2240SOL    HW2 8162   1.289   2.705   5.795
 2241SOL     OW 8163   1.792   3.602   6.763
 2241SOL    HW1 8164   1.851   3.623   6.691
 2241SOL    HW2 8165   1.746   3.523   6.734
 2242SOL     OW 8166   0.052   3.045   6.618
 2242SOL    HW1 8167   0.051   3.091   6.702
 2242SOL    HW2 8168   0.000   3.100   6.560
 2243SOL     OW 8169   0.693   3.536   7.320
 2243SOL    HW1 8170   0.632   3.609   7.310
 2243SOL    HW2 8171   0.757   3.548   7.250
 2244SOL     OW 8172   1.716   2.023   6.082
 2244SOL    HW1 8173   1.788   2.009   6.021
 2244SOL    HW2 8174   1.704   1.938   6.126
 2245SOL     OW 8175   1.416   3.454   6.126
 2245SOL    HW1 8176   1.436   3.446   6.032
 2245SOL    HW2 8177   1.348   3.520   6.131
 2246SOL     OW 8178   0.170   3.602   7.428
 2246SOL    HW1 8179   0.104   3.557   7.482
 2246SOL    HW2 8180   0.214   3.661   7.489
 2247SOL     OW 8181   1.278   2.778   6.252
 2247SOL    HW1 8182   1.351   2.719   6.266
 2247SOL    HW2 8183   1.316   2.855   6.209
 2248SOL     OW 8184   0.817   3.143   7.017
 2248SOL    HW1 8185   0.775   3.183   7.093
 2248SOL    HW2 8186   0.795   3.201   6.944
 2249SOL     OW 8187   0.654   3.500   5.737
 2249SOL    HW1 8188   0.682   3.510   5.645
 2249SOL    HW2 8189   0.605   3.418   5.739
 2250SOL     OW 8190   1.623   3.587   6.989
 2250SOL    HW1 8191   1.682   3.590   6.913
 2250SOL    HW2 8192   1.601   3.678   7.006
 2251SOL     OW 8193   1.836   2.029   6.557
 2251SOL    HW1 8194   1.868   1.943   6.530
 2251SOL    HW2 8195   1.752   2.038   6.511
 2252SOL     OW 8196   0.260   2.172   6.299
 2252SOL    HW1 8197   0.173   2.205   6.277
 2252SOL    HW2 8198   0.260   2.165   6.395
 2253SOL     OW 8199   1.212   3.461   5.615
 2253SOL    HW1 8200   1.204   3.373   5.651
 2253SOL    HW2 8201   1.139   3.469   5.554
 2254SOL     OW 8202   0.830   2.877   6.954
 2254SOL    HW1 8203   0.869   2.876   6.866
 2254SOL    HW2 8204   0.822   2.969   6.976
 2255SOL     OW 8205   0.901   2.751   5.877
 2255SOL    HW1 8206   0.955   2.788   5.808
 2255SOL    HW2 8207   0.960   2.695   5.928
 2256SOL     OW 8208   1.488   3.501   5.629
 2256SOL    HW1 8209   1.394   3.485   5.614
 2256SOL    HW2 8210   1.526   3.504   5.541
 2257SOL     OW 8211   0.361   3.164   7.084
 2257SOL    HW1 8212   0.357   3.239   7.025
 2257SOL    HW2 8213   0.290   3.107   7.055
 2258SOL     OW 8214   1.585   3.126   6.895
 2258SOL    HW1 8215   1.680   3.138   6.896
 2258SOL    HW2 8216   1.550   3.215   6.904
 2259SOL     OW 8217   1.066   2.974   6.313
 2259SOL    HW1 8218   0.995   2.917   6.342
 2259SOL    HW2 8219   1.123   2.917   6.262
 2260SOL     OW 8220   1.031   2.105   6.551
 2260SOL    HW1 8221   1.033   2.056   6.469
 2260SOL    HW2 8222   1.024   2.038   6.619
 2261SOL     OW 8223   0.598   3.333   6.061
 2261SOL    HW1 8224   0.663   3.290   6.005
 2261SOL    HW2 8225   0.529   3.362   6.001
 2262SOL     OW 8226   1.737   2.254   6.980
 2262SOL    HW1 8227   1.811   2.314   6.979
 2262SOL    HW2 8228   1.759   2.186   6.916
 2263SOL     OW 8229   0.240   3.203   5.850
 2263SOL    HW1 8230   0.145   3.210   5.843
 2263SOL    HW2 8231   0.260   3.239   5.936
 2264SOL     OW 8232   0.101   2.861   7.295
 2264SOL    HW1 8233   0.068   2.947   7.321
 2264SOL    HW2 8234   0.187   2.854   7.336
 2265SOL     OW 8235   0.687   2.056   7.083
 2265SOL    HW1 8236   0.772   2.035   7.044
 2265SOL    HW2 8237   0.707   2.088   7.171
 2266SOL     OW 8238   0.108   2.214   5.601
 2266SOL    HW1 8239   0.041   2.255   5.655
 2266SOL    HW2 8240   0.118   2.273   5.526
 2267SOL     OW 8241   1.414   2.720   6.986
 2267SOL    HW1 8242   1.360   2.777   6.931
 2267SOL    HW2 8243   1.500   2.721   6.944
 2268SOL     OW 8244   0.081   2.100   5.959
 2268SOL    HW1 8245   0.033   2.084   5.877
 2268SOL    HW2 8246   0.167   2.061   5.944
 2269SOL     OW 8247   1.153   3.199   5.682
 2269SOL    HW1 8248   1.061   3.174   5.675
 2269SOL    HW2 8249   1.173   3.188   5.775
 2270SOL     OW 8250   0.626   2.703   7.024
 2270SOL    HW1 8251   0.681   2.779   7.006
 2270SOL    HW2 8252   0.687   2.629   7.026
 2271SOL     OW 8253   1.481   3.642   6.496
 2271SOL    HW1 8254   1.524   3.723   6.470
 2271SOL    HW2 8255   1.543   3.599   6.555
 2272SOL     OW 8256   0.703   2.422   7.283
 2272SOL    HW1 8257   0.756   2.482   7.335
 2272SOL    HW2 8258   0.727   2.335   7.314
 2273SOL     OW 8259   1.491   3.081   7.276
 2273SOL    HW1 8260   1.449   3.138   7.211
 2273SOL    HW2 8261   1.583   3.079   7.248
 2274SOL     OW 8262   0.395   3.599   7.152
 2274SOL    HW1 8263   0.307   3.634   7.133
 2274SOL    HW2 8264   0.379   3.512   7.187
 2275SOL     OW 8265   1.648   2.731   6.845
 2275SOL    HW1 8266   1.669   2.656   6.789
 2275SOL    HW2 8267   1.641   2.805   6.785
 2276SOL     OW 8268   1.207   2.174   6.039
 2276SOL    HW1 8269   1.275   2.106   6.038
 2276SOL    HW2 8270   1.229   2.228   6.115
 2277SOL     OW 8271   0.590   2.590   6.265
 2277SOL    HW1 8272   0.633   2.675   6.260
 2277SOL    HW2 8273   0.529   2.589   6.190
 2278SOL     OW 8274   1.758   2.218   7.255
 2278SOL    HW1 8275   1.756   2.238   7.161
 2278SOL    HW2 8276   1.679   2.168   7.271
 2279SOL     OW 8277   1.760   2.785   7.090
 2279SOL    HW1 8278   1.782   2.879   7.089
 2279SOL    HW2 8279   1.733   2.766   7.001
 2280SOL     OW 8280   0.850   3.220   5.631
 2280SOL    HW1 8281   0.833   3.245   5.722
 2280SOL    HW2 8282   0.884   3.299   5.590
 2281SOL     OW 8283   0.671   3.642   6.528
 2281SOL    HW1 8284   0.670   3.733   6.498
 2281SOL    HW2 8285   0.764   3.618   6.526
 2282SOL     OW 8286   0.865   2.825   6.438
 2282SOL    HW1 8287   0.920   2.755   6.474
 2282SOL    HW2 8288   0.836   2.875   6.514
 2283SOL     OW 8289   1.044   2.819   5.660
 2283SOL    HW1 8290   1.039   2.894   5.601
 2283SOL    HW2 8291   1.129   2.779   5.642
 2284SOL     OW 8292   1.849   3.406   6.429
 2284SOL    HW1 8293   1.766   3.391   6.384
 2284SOL    HW2 8294   1.860   3.329   6.485
 2285SOL     OW 8295   0.212   3.157   7.442
 2285SOL    HW1 8296   0.119   3.144   7.424
 2285SOL    HW2 8297   0.218   3.160   7.537
 2286SOL     OW 8298   0.140   3.116   6.253
 2286SOL    HW1 8299   0.069   3.062   6.288
 2286SOL    HW2 8300   0.200   3.054   6.211
 2287SOL     OW 8301   0.689   3.264   7.229
 2287SOL    HW1 8302   0.599   3.240   7.251
 2287SOL    HW2 8303   0.697   3.355   7.256
 2288SOL     OW 8304   1.785   2.039   6.825
 2288SOL    HW1 8305   1.829   1.956   6.843
 2288SOL    HW2 8306   1.802   2.055   6.732
 2289SOL     OW 8307   0.431   2.297   6.113
 2289SOL    HW1 8308   0.467   2.226   6.060
 2289SOL    HW2 8309   0.385   2.252   6.184
 2290SOL     OW 8310   1.664   3.378   6.684
 2290SOL    HW1 8311   1.586   3.348   6.636
 2290SOL    HW2 8312   1.731   3.313   6.664
 2291SOL     OW 8313   0.358   2.419   6.882
 2291SOL    HW1 8314   0.408   2.359   6.937
 2291SOL    HW2 8315   0.378   2.392   6.792
 2292SOL     OW 8316   0.824   3.434   6.291
 2292SOL    HW1 8317   0.881   3.400   6.223
 2292SOL    HW2 8318   0.738   3.399   6.270
 2293SOL     OW 8319   1.431   2.094   6.708
 2293SOL    HW1 8320   1.488   2.038   6.762
 2293SOL    HW2 8321   1.376   2.140   6.772
 2294SOL     OW 8322   1.008   1.873   6.715
 2294SOL    HW1 8323   0.959   1.811   6.661
 2294SOL    HW2 8324   1.097   1.838   6.716
 2295SOL     OW 8325   0.781   3.196   5.910
 2295SOL    HW1 8326   0.768   3.103   5.923
 2295SOL    HW2 8327   0.855   3.219   5.967
 2296SOL     OW 8328   0.612   3.423   6.877
 2296SOL    HW1 8329   0.617   3.514   6.907
 2296SOL    HW2 8330   0.701   3.404   6.846
 2297SOL     OW 8331   1.365   1.908   5.769
 2297SOL    HW1 8332   1.407   1.831   5.730
 2297SOL    HW2 8333   1.274   1.881   5.783
 2298SOL     OW 8334   1.266   2.319   6.259
 2298SOL    HW1 8335   1.230   2.407   6.265
 2298SOL    HW2 8336   1.284   2.293   6.350
 2299SOL     OW 8337   1.575   2.054   6.468
 2299SOL    HW1 8338   1.524   2.084   6.543
 2299SOL    HW2 8339   1.581   2.131   6.411
 2300SOL     OW 8340   0.034   2.891   5.862
 2300SOL    HW1 8341   0.129   2.885   5.853
 2300SOL    HW2 8342   0.020   2.918   5.953
 2301SOL     OW 8343   0.898   3.538   5.901
 2301SOL    HW1 8344   0.816   3.516   5.858
 2301SOL    HW2 8345   0.874   3.601   5.968
 2302SOL     OW 8346   0.243   2.560   7.536
 2302SOL    HW1 8347   0.211   2.503   7.607
 2302SOL    HW2 8348   0.242   2.504   7.459
 2303SOL     OW 8349   0.230   2.123   8.432
 2303SOL    HW1 8350   0.256   2.103   8.522
 2303SOL    HW2 8351   0.186   2.044   8.401
 2304SOL     OW 8352   7.998   2.222   8.083
 2304SOL    HW1 8353   7.904   2.227   8.102
 2304SOL    HW2 8354   8.004   2.173   8.001
 2305SOL     OW 8355   0.566   3.164   8.641
 2305SOL    HW1 8356   0.483   3.175   8.595
 2305SOL    HW2 8357   0.589   3.252   8.671
 2306SOL     OW 8358   1.584   3.375   8.153
 2306SOL    HW1 8359   1.536   3.349   8.231
 2306SOL    HW2 8360   1.518   3.380   8.084
 2307SOL     OW 8361   1.129   2.566   8.140
 2307SOL    HW1 8362   1.180   2.646   8.124
 2307SOL    HW2 8363   1.085   2.581   8.223
 2308SOL     OW 8364   1.760   2.462   7.674
 2308SOL    HW1 8365   1.736   2.460   7.582
 2308SOL    HW2 8366   1.737   2.375   7.707
 2309SOL     OW 8367   0.728   2.993   8.496
 2309SOL    HW1 8368   0.667   3.036   8.557
 2309SOL    HW2 8369   0.774   3.065   8.453
 2310SOL     OW 8370   0.874   2.620   9.265
 2310SOL    HW1 8371   0.874   2.692   9.328
 2310SOL    HW2 8372   0.896   2.661   9.181
 2311SOL     OW 8373   0.688   2.854   8.093
 2311SOL    HW1 8374   0.757   2.852   8.160
 2311SOL    HW2 8375   0.623   2.914   8.129
 2312SOL     OW 8376   0.678   2.995   9.264
 2312SOL    HW1 8377   0.708   3.082   9.239
 2312SOL    HW2 8378   0.588   2.990   9.232
 2313SOL     OW 8379   0.340   3.278   8.512
 2313SOL    HW1 8380   0.287   3.228   8.449
 2313SOL    HW2 8381   0.391   3.339   8.458
 2314SOL     OW 8382   1.457   3.365   8.815
 2314SOL    HW1 8383   1.513   3.442   8.824
 2314SOL    HW2 8384   1.386   3.379   8.877
 2315SOL     OW 8385   0.441   2.253   8.966
 2315SOL    HW1 8386   0.523   2.205   8.958
 2315SOL    HW2 8387   0.373   2.187   8.953
 2316SOL     OW 8388   1.603   2.304   8.196
 2316SOL    HW1 8389   1.558   2.332   8.116
 2316SOL    HW2 8390   1.586   2.375   8.258
 2317SOL     OW 8391   0.234   3.558   7.926
 2317SOL    HW1 8392   0.229   3.642   7.971
 2317SOL    HW2 8393   0.301   3.571   7.859
 2318SOL     OW 8394   1.133   3.206   9.143
 2318SOL    HW1 8395   1.184   3.186   9.221
 2318SOL    HW2 8396   1.081   3.127   9.127
 2319SOL     OW 8397   0.281   3.293   7.959
 2319SOL    HW1 8398   0.266   3.387   7.967
 2319SOL    HW2 8399   0.232   3.254   8.032
 2320SOL     OW 8400   0.278   2.942   8.344
 2320SOL    HW1 8401   0.281   2.850   8.372
 2320SOL    HW2 8402   0.203   2.978   8.390
 2321SOL     OW 8403   0.596   3.674   8.849
 2321SOL    HW1 8404   0.523   3.648   8.905
 2321SOL    HW2 8405   0.627   3.757   8.887
 2322SOL     OW 8406   0.571   2.854   7.594
 2322SOL    HW1 8407   0.620   2.900   7.526
 2322SOL    HW2 8408   0.613   2.880   7.675
 2323SOL     OW 8409   1.596   1.988   8.914
 2323SOL    HW1 8410   1.636   2.062   8.868
 2323SOL    HW2 8411   1.576   2.022   9.001
 2324SOL     OW 8412   0.130   2.480   7.996
 2324SOL    HW1 8413   0.095   2.400   8.036
 2324SOL    HW2 8414   0.117   2.547   8.063
 2325SOL     OW 8415   1.848   3.619   7.789
 2325SOL    HW1 8416   1.926   3.595   7.838
 2325SOL    HW2 8417   1.865   3.707   7.757
 2326SOL     OW 8418   0.010   3.447   7.591
 2326SOL    HW1 8419  -0.001   3.352   7.582
 2326SOL    HW2 8420  -0.002   3.464   7.684
 2327SOL     OW 8421   1.690   2.780   8.089
 2327SOL    HW1 8422   1.772   2.737   8.064
 2327SOL    HW2 8423   1.668   2.835   8.014
 2328SOL     OW 8424   1.651   2.968   7.871
 2328SOL    HW1 8425   1.738   2.958   7.832
 2328SOL    HW2 8426   1.664   3.029   7.943
 2329SOL     OW 8427   0.148   2.612   9.033
 2329SOL    HW1 8428   0.242   2.624   9.023
 2329SOL    HW2 8429   0.117   2.695   9.070
 2330SOL     OW 8430   0.608   3.255   8.191
 2330SOL    HW1 8431   0.567   3.168   8.191
 2330SOL    HW2 8432   0.599   3.285   8.100
 2331SOL     OW 8433   1.277   3.100   8.874
 2331SOL    HW1 8434   1.309   3.046   8.802
 2331SOL    HW2 8435   1.344   3.090   8.942
 2332SOL     OW 8436   0.830   1.867   7.971
 2332SOL    HW1 8437   0.871   1.948   7.942
 2332SOL    HW2 8438   0.736   1.887   7.970
 2333SOL     OW 8439   0.158   2.764   8.725
 2333SOL    HW1 8440   0.252   2.744   8.720
 2333SOL    HW2 8441   0.131   2.773   8.633
 2334SOL     OW 8442   1.501   2.897   7.649
 2334SOL    HW1 8443   1.444   2.828   7.682
 2334SOL    HW2 8444   1.559   2.918   7.722
 2335SOL     OW 8445   1.203   3.690   9.087
 2335SOL    HW1 8446   1.193   3.747   9.010
 2335SOL    HW2 8447   1.209   3.602   9.051
 2336SOL     OW 8448   0.351   2.105   9.295
 2336SOL    HW1 8449   0.399   2.187   9.287
 2336SOL    HW2 8450   0.260   2.132   9.305
 2337SOL     OW 8451   1.457   3.286   8.381
 2337SOL    HW1 8452   1.397   3.297   8.455
 2337SOL    HW2 8453   1.449   3.194   8.357
 2338SOL     OW 8454   1.647   3.630   8.026
 2338SOL    HW1 8455   1.646   3.595   7.937
 2338SOL    HW2 8456   1.640   3.552   8.082
 2339SOL     OW 8457   0.592   2.574   7.714
 2339SOL    HW1 8458   0.595   2.659   7.671
 2339SOL    HW2 8459   0.531   2.586   7.786
 2340SOL     OW 8460   1.279   2.242   8.385
 2340SOL    HW1 8461   1.191   2.204   8.392
 2340SOL    HW2 8462   1.334   2.185   8.439
 2341SOL     OW 8463   1.583   3.531   7.759
 2341SOL    HW1 8464   1.675   3.558   7.751
 2341SOL    HW2 8465   1.554   3.519   7.669
 2342SOL     OW 8466   0.784   2.480   8.891
 2342SOL    HW1 8467   0.757   2.451   8.979
 2342SOL    HW2 8468   0.752   2.410   8.833
 2343SOL     OW 8469   1.383   2.324   9.136
 2343SOL    HW1 8470   1.392   2.375   9.217
 2343SOL    HW2 8471   1.453   2.259   9.141
 2344SOL     OW 8472   0.945   2.747   9.033
 2344SOL    HW1 8473   1.002   2.680   8.996
 2344SOL    HW2 8474   0.904   2.788   8.957
 2345SOL     OW 8475   0.983   2.260   8.674
 2345SOL    HW1 8476   0.892   2.279   8.696
 2345SOL    HW2 8477   0.981   2.234   8.582
 2346SOL     OW 8478   1.056   2.561   7.869
 2346SOL    HW1 8479   1.075   2.558   7.962
 2346SOL    HW2 8480   0.971   2.517   7.860
 2347SOL     OW 8481   0.102   2.662   8.209
 2347SOL    HW1 8482   0.181   2.675   8.262
 2347SOL    HW2 8483   0.067   2.750   8.198
 2348SOL     OW 8484   0.125   3.694   9.016
 2348SOL    HW1 8485   0.124   3.680   9.111
 2348SOL    HW2 8486   0.038   3.665   8.987
 2349SOL     OW 8487   0.902   2.210   7.644
 2349SOL    HW1 8488   0.940   2.277   7.587
 2349SOL    HW2 8489   0.923   2.127   7.600
 2350SOL     OW 8490   1.707   2.438   9.287
 2350SOL    HW1 8491   1.675   2.512   9.236
 2350SOL    HW2 8492   1.729   2.372   9.222
 2351SOL     OW 8493   1.386   3.005   7.984
 2351SOL    HW1 8494   1.469   2.997   7.937
 2351SOL    HW2 8495   1.335   3.068   7.934
 2352SOL     OW 8496   0.556   2.031   8.339
 2352SOL    HW1 8497   0.559   2.068   8.427
 2352SOL    HW2 8498   0.561   2.107   8.281
 2353SOL     OW 8499   1.002   3.306   7.909
 2353SOL    HW1 8500   0.970   3.381   7.860
 2353SOL    HW2 8501   0.980   3.325   8.000
 2354SOL     OW 8502   0.368   3.691   8.312
 2354SOL    HW1 8503   0.414   3.607   8.323
 2354SOL    HW2 8504   0.436   3.757   8.324
 2355SOL     OW 8505   1.797   2.898   8.334
 2355SOL    HW1 8506   1.750   2.896   8.251
 2355SOL    HW2 8507   1.730   2.912   8.400
 2356SOL     OW 8508   1.230   3.410   8.966
 2356SOL    HW1 8509   1.214   3.330   9.015
 2356SOL    HW2 8510   1.152   3.421   8.911
 2357SOL     OW 8511   0.302   2.803   7.679
 2357SOL    HW1 8512   0.388   2.831   7.650
 2357SOL    HW2 8513   0.282   2.725   7.627
 2358SOL     OW 8514   1.481   2.619   8.164
 2358SOL    HW1 8515   1.480   2.584   8.253
 2358SOL    HW2 8516   1.559   2.674   8.161
 2359SOL     OW 8517   0.417   3.030   9.190
 2359SOL    HW1 8518   0.428   3.071   9.105
 2359SOL    HW2 8519   0.347   3.080   9.232
 2360SOL     OW 8520   1.123   3.634   7.680
 2360SOL    HW1 8521   1.045   3.594   7.717
 2360SOL    HW2 8522   1.149   3.575   7.608
 2361SOL     OW 8523   0.204   2.110   8.942
 2361SOL    HW1 8524   0.153   2.172   8.995
 2361SOL    HW2 8525   0.175   2.024   8.972
 2362SOL     OW 8526   1.592   3.220   7.522
 2362SOL    HW1 8527   1.568   3.312   7.532
 2362SOL    HW2 8528   1.645   3.217   7.443
 2363SOL     OW 8529   0.458   3.607   7.760
 2363SOL    HW1 8530   0.508   3.661   7.821
 2363SOL    HW2 8531   0.524   3.569   7.701
 2364SOL     OW 8532   1.400   1.966   7.897
 2364SOL    HW1 8533   1.392   1.943   7.805
 2364SOL    HW2 8534   1.493   1.981   7.911
 2365SOL     OW 8535   0.239   3.655   8.669
 2365SOL    HW1 8536   0.293   3.580   8.695
 2365SOL    HW2 8537   0.208   3.632   8.582
 2366SOL     OW 8538   0.946   3.559   8.339
 2366SOL    HW1 8539   1.032   3.518   8.348
 2366SOL    HW2 8540   0.904   3.510   8.268
 2367SOL     OW 8541   0.408   2.555   7.925
 2367SOL    HW1 8542   0.427   2.462   7.938
 2367SOL    HW2 8543   0.314   2.563   7.936
 2368SOL     OW 8544   1.530   2.084   9.172
 2368SOL    HW1 8545   1.537   2.101   9.266
 2368SOL    HW2 8546   1.453   2.028   9.164
 2369SOL     OW 8547   0.648   1.972   7.546
 2369SOL    HW1 8548   0.710   1.901   7.564
 2369SOL    HW2 8549   0.594   1.940   7.474
 2370SOL     OW 8550   0.763   2.143   9.206
 2370SOL    HW1 8551   0.845   2.094   9.204
 2370SOL    HW2 8552   0.721   2.116   9.287
 2371SOL     OW 8553   0.873   3.382   8.644
 2371SOL    HW1 8554   0.855   3.347   8.557
 2371SOL    HW2 8555   0.944   3.327   8.678
 2372SOL     OW 8556   1.313   2.413   8.888
 2372SOL    HW1 8557   1.347   2.388   8.974
 2372SOL    HW2 8558   1.364   2.491   8.865
 2373SOL     OW 8559   0.814   3.245   8.398
 2373SOL    HW1 8560   0.900   3.238   8.357
 2373SOL    HW2 8561   0.753   3.257   8.324
 2374SOL     OW 8562   0.925   2.366   8.347
 2374SOL    HW1 8563   0.900   2.360   8.255
 2374SOL    HW2 8564   0.961   2.279   8.368
 2375SOL     OW 8565   0.567   1.928   7.941
 2375SOL    HW1 8566   0.485   1.928   7.990
 2375SOL    HW2 8567   0.558   2.002   7.880
 2376SOL     OW 8568   0.290   1.906   7.616
 2376SOL    HW1 8569   0.338   1.988   7.618
 2376SOL    HW2 8570   0.346   1.845   7.665
 2377SOL     OW 8571   0.945   2.110   7.901
 2377SOL    HW1 8572   0.919   2.148   7.817
 2377SOL    HW2 8573   1.039   2.127   7.908
 2378SOL     OW 8574   1.076   2.542   8.915
 2378SOL    HW1 8575   1.015   2.470   8.899
 2378SOL    HW2 8576   1.162   2.502   8.905
 2379SOL     OW 8577   1.208   3.446   8.249
 2379SOL    HW1 8578   1.227   3.507   8.179
 2379SOL    HW2 8579   1.290   3.436   8.297
 2380SOL     OW 8580   0.473   3.014   8.168
 2380SOL    HW1 8581   0.410   2.992   8.236
 2380SOL    HW2 8582   0.426   2.999   8.086
 2381SOL     OW 8583   1.264   3.653   8.064
 2381SOL    HW1 8584   1.318   3.709   8.009
 2381SOL    HW2 8585   1.196   3.711   8.099
 2382SOL     OW 8586   1.022   2.393   7.477
 2382SOL    HW1 8587   0.981   2.476   7.454
 2382SOL    HW2 8588   1.091   2.416   7.539
 2383SOL     OW 8589   0.084   2.416   8.850
 2383SOL    HW1 8590   0.173   2.398   8.820
 2383SOL    HW2 8591   0.092   2.494   8.905
 2384SOL     OW 8592   0.562   2.087   8.614
 2384SOL    HW1 8593   0.606   2.009   8.648
 2384SOL    HW2 8594   0.471   2.077   8.641
 2385SOL     OW 8595   0.860   2.314   8.086
 2385SOL    HW1 8596   0.824   2.373   8.020
 2385SOL    HW2 8597   0.890   2.238   8.036
 2386SOL     OW 8598   1.015   1.922   8.198
 2386SOL    HW1 8599   0.958   1.917   8.121
 2386SOL    HW2 8600   0.992   1.844   8.249
 2387SOL     OW 8601   1.432   3.025   8.300
 2387SOL    HW1 8602   1.379   2.947   8.315
 2387SOL    HW2 8603   1.448   3.024   8.205
 2388SOL     OW 8604   1.458   2.473   8.405
 2388SOL    HW1 8605   1.392   2.404   8.403
 2388SOL    HW2 8606   1.514   2.451   8.479
 2389SOL     OW 8607   1.831   2.670   7.834
 2389SOL    HW1 8608   1.892   2.623   7.890
 2389SOL    HW2 8609   1.807   2.607   7.766
 2390SOL     OW 8610   0.491   3.281   7.585
 2390SOL    HW1 8611   0.412   3.249   7.629
 2390SOL    HW2 8612   0.495   3.231   7.503
 2391SOL     OW 8613   1.687   3.119   8.088
 2391SOL    HW1 8614   1.781   3.112   8.103
 2391SOL    HW2 8615   1.666   3.210   8.108
 2392SOL     OW 8616   1.394   2.441   7.514
 2392SOL    HW1 8617   1.341   2.412   7.589
 2392SOL    HW2 8618   1.483   2.418   7.538
 2393SOL     OW 8619   0.525   2.116   7.748
 2393SOL    HW1 8620   0.579   2.071   7.683
 2393SOL    HW2 8621   0.505   2.201   7.709
 2394SOL     OW 8622   1.743   3.113   9.007
 2394SOL    HW1 8623   1.827   3.074   8.983
 2394SOL    HW2 8624   1.765   3.202   9.034
 2395SOL     OW 8625   1.048   3.204   8.767
 2395SOL    HW1 8626   0.974   3.179   8.822
 2395SOL    HW2 8627   1.125   3.169   8.813
 2396SOL     OW 8628   1.616   3.498   9.117
 2396SOL    HW1 8629   1.598   3.529   9.028
 2396SOL    HW2 8630   1.696   3.445   9.109
 2397SOL     OW 8631   1.098   3.055   8.535
 2397SOL    HW1 8632   1.063   3.110   8.606
 2397SOL    HW2 8633   1.084   3.107   8.456
 2398SOL     OW 8634   1.623   2.957   8.536
 2398SOL    HW1 8635   1.618   3.022   8.606
 2398SOL    HW2 8636   1.536   2.960   8.495
 2399SOL     OW 8637   0.917   1.950   8.836
 2399SOL    HW1 8638   0.937   1.932   8.744
 2399SOL    HW2 8639   0.997   1.989   8.871
 2400SOL     OW 8640   0.978   2.975   9.179
 2400SOL    HW1 8641   0.885   2.998   9.185
 2400SOL    HW2 8642   0.980   2.899   9.120
 2401SOL     OW 8643   0.713   2.916   7.821
 2401SOL    HW1 8644   0.704   2.894   7.914
 2401SOL    HW2 8645   0.790   2.868   7.792
 2402SOL     OW 8646   0.419   2.681   8.709
 2402SOL    HW1 8647   0.492   2.696   8.770
 2402SOL    HW2 8648   0.397   2.588   8.721
 2403SOL     OW 8649   1.248   2.209   8.727
 2403SOL    HW1 8650   1.281   2.286   8.774
 2403SOL    HW2 8651   1.158   2.234   8.703
 2404SOL     OW 8652   0.053   3.459   8.764
 2404SOL    HW1 8653   0.095   3.540   8.736
 2404SOL    HW2 8654   0.113   3.423   8.830
 2405SOL     OW 8655   0.319   2.973   7.936
 2405SOL    HW1 8656   0.334   3.048   7.879
 2405SOL    HW2 8657   0.330   2.896   7.879
 2406SOL     OW 8658   0.539   2.394   8.315
 2406SOL    HW1 8659   0.552   2.452   8.239
 2406SOL    HW2 8660   0.610   2.417   8.375
 2407SOL     OW 8661   1.253   3.214   7.832
 2407SOL    HW1 8662   1.308   3.285   7.867
 2407SOL    HW2 8663   1.165   3.235   7.863
 2408SOL     OW 8664   1.295   3.323   8.599
 2408SOL    HW1 8665   1.355   3.333   8.673
 2408SOL    HW2 8666   1.240   3.248   8.623
 2409SOL     OW 8667   1.579   2.468   7.946
 2409SOL    HW1 8668   1.530   2.526   8.004
 2409SOL    HW2 8669   1.630   2.527   7.890
 2410SOL     OW 8670   0.345   3.393   8.760
 2410SOL    HW1 8671   0.331   3.347   8.678
 2410SOL    HW2 8672   0.440   3.404   8.765
 2411SOL     OW 8673   0.434   2.597   9.058
 2411SOL    HW1 8674   0.490   2.648   8.999
 2411SOL    HW2 8675   0.488   2.521   9.081
 2412SOL     OW 8676   1.622   2.646   9.138
 2412SOL    HW1 8677   1.535   2.651   9.099
 2412SOL    HW2 8678   1.682   2.673   9.068
 2413SOL     OW 8679   0.996   1.999   9.218
 2413SOL    HW1 8680   1.051   2.073   9.192
 2413SOL    HW2 8681   1.043   1.922   9.185
 2414SOL     OW 8682   0.498   1.889   9.209
 2414SOL    HW1 8683   0.455   1.840   9.139
 2414SOL    HW2 8684   0.443   1.966   9.223
 2415SOL     OW 8685   0.592   2.739   8.485
 2415SOL    HW1 8686   0.633   2.826   8.481
 2415SOL    HW2 8687   0.534   2.744   8.560
 2416SOL     OW 8688   1.345   2.742   8.451
 2416SOL    HW1 8689   1.256   2.716   8.426
 2416SOL    HW2 8690   1.393   2.659   8.458
 2417SOL     OW 8691   1.199   2.386   7.708
 2417SOL    HW1 8692   1.208   2.308   7.763
 2417SOL    HW2 8693   1.158   2.451   7.765
 2418SOL     OW 8694   0.303   2.047   8.690
 2418SOL    HW1 8695   0.263   2.080   8.771
 2418SOL    HW2 8696   0.284   1.953   8.691
 2419SOL     OW 8697   0.038   3.168   8.720
 2419SOL    HW1 8698   0.067   3.119   8.796
 2419SOL    HW2 8699   0.047   3.260   8.745
 2420SOL     OW 8700   0.718   2.488   8.500
 2420SOL    HW1 8701   0.796   2.476   8.447
 2420SOL    HW2 8702   0.693   2.579   8.486
 2421SOL     OW 8703   1.748   2.815   9.317
 2421SOL    HW1 8704   1.702   2.757   9.256
 2421SOL    HW2 8705   1.682   2.838   9.382
 2422SOL     OW 8706   0.323   1.942   8.055
 2422SOL    HW1 8707   0.296   2.028   8.086
 2422SOL    HW2 8708   0.317   1.886   8.132
 2423SOL     OW 8709   1.615   2.235   7.805
 2423SOL    HW1 8710   1.655   2.173   7.866
 2423SOL    HW2 8711   1.594   2.312   7.858
 2424SOL     OW 8712   1.023   2.618   8.401
 2424SOL    HW1 8713   1.015   2.634   8.495
 2424SOL    HW2 8714   1.000   2.526   8.390
 2425SOL     OW 8715   1.013   3.451   9.180
 2425SOL    HW1 8716   0.971   3.492   9.104
 2425SOL    HW2 8717   1.033   3.362   9.150
 2426SOL     OW 8718   1.849   3.366   9.051
 2426SOL    HW1 8719   1.871   3.390   8.961
 2426SOL    HW2 8720   1.931   3.378   9.100
 2427SOL     OW 8721   0.336   2.773   9.256
 2427SOL    HW1 8722   0.384   2.855   9.242
 2427SOL    HW2 8723   0.381   2.709   9.200
 2428SOL     OW 8724   1.514   2.133   7.571
 2428SOL    HW1 8725   1.456   2.064   7.603
 2428SOL    HW2 8726   1.553   2.171   7.649
 2429SOL     OW 8727   1.289   2.689   7.465
 2429SOL    HW1 8728   1.330   2.603   7.470
 2429SOL    HW2 8729   1.320   2.726   7.383
 2430SOL     OW 8730   1.064   3.209   8.304
 2430SOL    HW1 8731   1.076   3.136   8.243
 2430SOL    HW2 8732   1.121   3.278   8.271
 2431SOL     OW 8733   0.322   2.668   8.386
 2431SOL    HW1 8734   0.415   2.687   8.379
 2431SOL    HW2 8735   0.318   2.580   8.421
 2432SOL     OW 8736   0.324   2.378   8.470
 2432SOL    HW1 8737   0.290   2.291   8.449
 2432SOL    HW2 8738   0.400   2.388   8.413
 2433SOL     OW 8739   1.128   2.228   9.144
 2433SOL    HW1 8740   1.082   2.290   9.200
 2433SOL    HW2 8741   1.216   2.266   9.135
 2434SOL     OW 8742   1.157   2.049   8.931
 2434SOL    HW1 8743   1.146   2.118   8.996
 2434SOL    HW2 8744   1.198   2.093   8.856
 2435SOL     OW 8745   7.980   3.167   7.656
 2435SOL    HW1 8746   7.888   3.182   7.680
 2435SOL    HW2 8747   7.991   3.072   7.664
 2436SOL     OW 8748   0.135   3.613   8.418
 2436SOL    HW1 8749   0.099   3.555   8.351
 2436SOL    HW2 8750   0.212   3.652   8.378
 2437SOL     OW 8751   0.494   3.443   8.357
 2437SOL    HW1 8752   0.565   3.501   8.382
 2437SOL    HW2 8753   0.534   3.380   8.297
 2438SOL     OW 8754   0.974   2.642   8.669
 2438SOL    HW1 8755   1.046   2.639   8.733
 2438SOL    HW2 8756   0.899   2.605   8.716
 2439SOL     OW 8757   0.071   2.427   8.573
 2439SOL    HW1 8758   0.161   2.416   8.543
 2439SOL    HW2 8759   0.076   2.416   8.668
 2440SOL     OW 8760   0.213   2.370   9.142
 2440SOL    HW1 8761   0.293   2.347   9.095
 2440SOL    HW2 8762   0.184   2.452   9.102
 2441SOL     OW 8763   1.361   2.809   9.106
 2441SOL    HW1 8764   1.392   2.899   9.094
 2441SOL    HW2 8765   1.374   2.767   9.021
 2442SOL     OW 8766   0.816   2.430   7.820
 2442SOL    HW1 8767   0.826   2.358   7.757
 2442SOL    HW2 8768   0.743   2.481   7.785
 2443SOL     OW 8769   1.623   2.403   8.610
 2443SOL    HW1 8770   1.604   2.455   8.688
 2443SOL    HW2 8771   1.718   2.407   8.601
 2444SOL     OW 8772   0.282   3.396   9.158
 2444SOL    HW1 8773   0.249   3.469   9.210
 2444SOL    HW2 8774   0.281   3.321   9.218
 2445SOL     OW 8775   0.703   2.307   8.700
 2445SOL    HW1 8776   0.653   2.232   8.667
 2445SOL    HW2 8777   0.700   2.371   8.628
 2446SOL     OW 8778   0.947   3.542   8.906
 2446SOL    HW1 8779   0.910   3.494   8.832
 2446SOL    HW2 8780   0.920   3.633   8.891
 2447SOL     OW 8781   0.459   2.344   7.620
 2447SOL    HW1 8782   0.512   2.422   7.635
 2447SOL    HW2 8783   0.375   2.365   7.660
 2448SOL     OW 8784   0.143   2.980   8.902
 2448SOL    HW1 8785   0.126   2.934   8.984
 2448SOL    HW2 8786   0.152   2.910   8.837
 2449SOL     OW 8787   1.332   2.963   8.645
 2449SOL    HW1 8788   1.356   2.873   8.623
 2449SOL    HW2 8789   1.253   2.979   8.594
 2450SOL     OW 8790   1.319   2.714   7.745
 2450SOL    HW1 8791   1.246   2.682   7.799
 2450SOL    HW2 8792   1.292   2.696   7.655
 2451SOL     OW 8793   1.792   3.590   8.620
 2451SOL    HW1 8794   1.850   3.617   8.548
 2451SOL    HW2 8795   1.754   3.507   8.590
 2452SOL     OW 8796   1.242   3.598   8.559
 2452SOL    HW1 8797   1.323   3.624   8.516
 2452SOL    HW2 8798   1.252   3.504   8.574
 2453SOL     OW 8799   0.060   3.055   8.477
 2453SOL    HW1 8800   0.058   3.096   8.563
 2453SOL    HW2 8801   0.006   3.112   8.421
 2454SOL     OW 8802   0.709   3.579   9.239
 2454SOL    HW1 8803   0.650   3.621   9.176
 2454SOL    HW2 8804   0.724   3.492   9.203
 2455SOL     OW 8805   1.735   2.028   7.950
 2455SOL    HW1 8806   1.800   2.012   7.882
 2455SOL    HW2 8807   1.717   1.941   7.987
 2456SOL     OW 8808   1.400   3.428   7.941
 2456SOL    HW1 8809   1.459   3.462   7.874
 2456SOL    HW2 8810   1.349   3.504   7.968
 2457SOL     OW 8811   0.177   3.604   9.292
 2457SOL    HW1 8812   0.109   3.559   9.343
 2457SOL    HW2 8813   0.216   3.666   9.353
 2458SOL     OW 8814   1.276   2.792   8.110
 2458SOL    HW1 8815   1.351   2.734   8.125
 2458SOL    HW2 8816   1.312   2.864   8.058
 2459SOL     OW 8817   0.800   3.144   8.886
 2459SOL    HW1 8818   0.782   3.185   8.971
 2459SOL    HW2 8819   0.725   3.168   8.832
 2460SOL     OW 8820   0.666   3.491   7.600
 2460SOL    HW1 8821   0.686   3.507   7.507
 2460SOL    HW2 8822   0.611   3.413   7.600
 2461SOL     OW 8823   1.619   3.584   8.847
 2461SOL    HW1 8824   1.675   3.585   8.769
 2461SOL    HW2 8825   1.600   3.677   8.863
 2462SOL     OW 8826   1.844   2.028   8.414
 2462SOL    HW1 8827   1.872   1.941   8.386
 2462SOL    HW2 8828   1.758   2.040   8.374
 2463SOL     OW 8829   0.260   2.184   8.158
 2463SOL    HW1 8830   0.170   2.207   8.136
 2463SOL    HW2 8831   0.261   2.181   8.254
 2464SOL     OW 8832   1.214   3.473   7.475
 2464SOL    HW1 8833   1.193   3.380   7.477
 2464SOL    HW2 8834   1.167   3.507   7.398
 2465SOL     OW 8835   0.827   2.875   8.821
 2465SOL    HW1 8836   0.869   2.871   8.736
 2465SOL    HW2 8837   0.820   2.969   8.841
 2466SOL     OW 8838   0.927   2.777   7.735
 2466SOL    HW1 8839   0.989   2.816   7.673
 2466SOL    HW2 8840   0.977   2.709   7.780
 2467SOL     OW 8841   1.491   3.484   7.498
 2467SOL    HW1 8842   1.398   3.484   7.479
 2467SOL    HW2 8843   1.533   3.491   7.413
 2468SOL     OW 8844   0.363   3.151   8.950
 2468SOL    HW1 8845   0.362   3.234   8.904
 2468SOL    HW2 8846   0.284   3.106   8.920
 2469SOL     OW 8847   1.612   3.154   8.731
 2469SOL    HW1 8848   1.665   3.132   8.807
 2469SOL    HW2 8849   1.547   3.216   8.763
 2470SOL     OW 8850   1.068   2.977   8.163
 2470SOL    HW1 8851   0.997   2.925   8.200
 2470SOL    HW2 8852   1.134   2.912   8.138
 2471SOL     OW 8853   1.026   2.107   8.414
 2471SOL    HW1 8854   1.024   2.061   8.331
 2471SOL    HW2 8855   1.022   2.037   8.480
 2472SOL     OW 8856   0.610   3.353   7.937
 2472SOL    HW1 8857   0.662   3.301   7.877
 2472SOL    HW2 8858   0.534   3.381   7.886
 2473SOL     OW 8859   1.765   2.218   8.859
 2473SOL    HW1 8860   1.804   2.302   8.834
 2473SOL    HW2 8861   1.781   2.161   8.783
 2474SOL     OW 8862   0.249   3.194   7.713
 2474SOL    HW1 8863   0.154   3.199   7.707
 2474SOL    HW2 8864   0.269   3.236   7.797
 2475SOL     OW 8865   0.092   2.856   9.159
 2475SOL    HW1 8866   0.066   2.945   9.184
 2475SOL    HW2 8867   0.174   2.841   9.205
 2476SOL     OW 8868   0.678   2.059   8.950
 2476SOL    HW1 8869   0.760   2.038   8.905
 2476SOL    HW2 8870   0.706   2.092   9.036
 2477SOL     OW 8871   0.084   2.207   7.440
 2477SOL    HW1 8872   0.028   2.253   7.504
 2477SOL    HW2 8873   0.118   2.277   7.384
 2478SOL     OW 8874   0.105   2.121   7.815
 2478SOL    HW1 8875   0.058   2.087   7.739
 2478SOL    HW2 8876   0.147   2.045   7.854
 2479SOL     OW 8877   1.206   3.166   7.560
 2479SOL    HW1 8878   1.113   3.142   7.560
 2479SOL    HW2 8879   1.225   3.187   7.652
 2480SOL     OW 8880   0.624   2.700   8.886
 2480SOL    HW1 8881   0.680   2.776   8.869
 2480SOL    HW2 8882   0.685   2.625   8.888
 2481SOL     OW 8883   1.484   3.665   8.442
 2481SOL    HW1 8884   1.509   3.729   8.375
 2481SOL    HW2 8885   1.562   3.611   8.453
 2482SOL     OW 8886   0.703   2.423   9.148
 2482SOL    HW1 8887   0.755   2.485   9.199
 2482SOL    HW2 8888   0.730   2.337   9.178
 2483SOL     OW 8889   1.475   3.062   9.077
 2483SOL    HW1 8890   1.473   3.078   9.171
 2483SOL    HW2 8891   1.566   3.079   9.051
 2484SOL     OW 8892   0.387   3.609   9.011
 2484SOL    HW1 8893   0.297   3.637   8.992
 2484SOL    HW2 8894   0.377   3.520   9.045
 2485SOL     OW 8895   1.722   2.742   8.693
 2485SOL    HW1 8896   1.640   2.715   8.734
 2485SOL    HW2 8897   1.697   2.810   8.631
 2486SOL     OW 8898   1.213   2.177   7.903
 2486SOL    HW1 8899   1.278   2.107   7.899
 2486SOL    HW2 8900   1.239   2.230   7.978
 2487SOL     OW 8901   0.583   2.598   8.135
 2487SOL    HW1 8902   0.629   2.680   8.120
 2487SOL    HW2 8903   0.526   2.588   8.058
 2488SOL     OW 8904   1.764   2.223   9.128
 2488SOL    HW1 8905   1.767   2.231   9.033
 2488SOL    HW2 8906   1.689   2.166   9.145
 2489SOL     OW 8907   1.795   2.763   8.962
 2489SOL    HW1 8908   1.759   2.849   8.982
 2489SOL    HW2 8909   1.777   2.751   8.869
 2490SOL     OW 8910   0.884   3.223   7.499
 2490SOL    HW1 8911   0.839   3.269   7.569
 2490SOL    HW2 8912   0.904   3.292   7.434
 2491SOL     OW 8913   0.675   3.642   8.393
 2491SOL    HW1 8914   0.659   3.731   8.362
 2491SOL    HW2 8915   0.768   3.627   8.378
 2492SOL     OW 8916   0.872   2.835   8.301
 2492SOL    HW1 8917   0.924   2.762   8.336
 2492SOL    HW2 8918   0.835   2.877   8.378
 2493SOL     OW 8919   1.099   2.865   7.544
 2493SOL    HW1 8920   1.061   2.904   7.465
 2493SOL    HW2 8921   1.163   2.802   7.511
 2494SOL     OW 8922   1.847   3.415   8.289
 2494SOL    HW1 8923   1.770   3.401   8.234
 2494SOL    HW2 8924   1.855   3.334   8.340
 2495SOL     OW 8925   0.207   3.163   9.306
 2495SOL    HW1 8926   0.114   3.153   9.287
 2495SOL    HW2 8927   0.211   3.166   9.402
 2496SOL     OW 8928   0.133   3.120   8.114
 2496SOL    HW1 8929   0.061   3.064   8.144
 2496SOL    HW2 8930   0.195   3.059   8.074
 2497SOL     OW 8931   1.821   2.023   8.684
 2497SOL    HW1 8932   1.818   1.927   8.688
 2497SOL    HW2 8933   1.829   2.042   8.591
 2498SOL     OW 8934   0.440   2.293   7.971
 2498SOL    HW1 8935   0.466   2.221   7.914
 2498SOL    HW2 8936   0.385   2.252   8.037
 2499SOL     OW 8937   1.677   3.356   8.546
 2499SOL    HW1 8938   1.609   3.333   8.482
 2499SOL    HW2 8939   1.678   3.282   8.607
 2500SOL     OW 8940   0.341   2.413   8.748
 2500SOL    HW1 8941   0.402   2.361   8.799
 2500SOL    HW2 8942   0.359   2.388   8.657
 2501SOL     OW 8943   0.831   3.454   8.115
 2501SOL    HW1 8944   0.824   3.527   8.053
 2501SOL    HW2 8945   0.756   3.398   8.095
 2502SOL     OW 8946   1.422   2.084   8.558
 2502SOL    HW1 8947   1.443   2.001   8.600
 2502SOL    HW2 8948   1.371   2.132   8.623
 2503SOL     OW 8949   1.007   1.872   8.578
 2503SOL    HW1 8950   0.958   1.810   8.524
 2503SOL    HW2 8951   1.095   1.836   8.583
 2504SOL     OW 8952   0.768   3.192   7.787
 2504SOL    HW1 8953   0.750   3.098   7.786
 2504SOL    HW2 8954   0.858   3.199   7.819
 2505SOL     OW 8955   0.619   3.423   8.732
 2505SOL    HW1 8956   0.617   3.511   8.771
 2505SOL    HW2 8957   0.708   3.414   8.698
 2506SOL     OW 8958   1.361   1.908   7.631
 2506SOL    HW1 8959   1.398   1.841   7.575
 2506SOL    HW2 8960   1.271   1.880   7.647
 2507SOL     OW 8961   1.279   2.325   8.120
 2507SOL    HW1 8962   1.234   2.410   8.125
 2507SOL    HW2 8963   1.286   2.297   8.211
 2508SOL     OW 8964   1.584   2.056   8.333
 2508SOL    HW1 8965   1.530   2.084   8.407
 2508SOL    HW2 8966   1.585   2.132   8.274
 2509SOL     OW 8967   0.044   2.900   7.719
 2509SOL    HW1 8968   0.135   2.879   7.696
 2509SOL    HW2 8969   0.044   2.904   7.814
 2510SOL     OW 8970   0.885   3.524   7.785
 2510SOL    HW1 8971   0.810   3.511   7.727
 2510SOL    HW2 8972   0.860   3.599   7.839
 2511SOL     OW 8973   0.240   2.477   9.411
 2511SOL    HW1 8974   0.164   2.527   9.440
 2511SOL    HW2 8975   0.226   2.464   9.318
 2512SOL     OW 8976   0.236   2.123  10.294
 2512SOL    HW1 8977   0.259   2.097  10.383
 2512SOL    HW2 8978   0.175   2.054  10.265
 2513SOL     OW 8979   8.000   2.201   9.956
 2513SOL    HW1 8980   7.906   2.219   9.954
 2513SOL    HW2 8981   8.020   2.166   9.870
 2514SOL     OW 8982   0.578   3.172  10.492
 2514SOL    HW1 8983   0.492   3.179  10.451
 2514SOL    HW2 8984   0.595   3.259  10.528
 2515SOL     OW 8985   1.577   3.382  10.013
 2515SOL    HW1 8986   1.530   3.356  10.093
 2515SOL    HW2 8987   1.510   3.382   9.945
 2516SOL     OW 8988   1.134   2.562  10.004
 2516SOL    HW1 8989   1.183   2.643   9.989
 2516SOL    HW2 8990   1.088   2.577  10.087
 2517SOL     OW 8991   1.791   2.456   9.538
 2517SOL    HW1 8992   1.759   2.457   9.447
 2517SOL    HW2 8993   1.748   2.380   9.577
 2518SOL     OW 8994   0.733   2.992  10.355
 2518SOL    HW1 8995   0.674   3.044  10.409
 2518SOL    HW2 8996   0.792   3.056  10.315
 2519SOL     OW 8997   0.872   2.625  11.130
 2519SOL    HW1 8998   0.890   2.696  11.192
 2519SOL    HW2 8999   0.895   2.661  11.045
 2520SOL     OW 9000   0.684   2.853   9.963
 2520SOL    HW1 9001   0.754   2.849  10.028
 2520SOL    HW2 9002   0.620   2.914   9.999
 2521SOL     OW 9003   0.712   3.013  11.136
 2521SOL    HW1 9004   0.765   3.087  11.165
 2521SOL    HW2 9005   0.640   3.053  11.087
 2522SOL     OW 9006   0.344   3.276  10.374
 2522SOL    HW1 9007   0.278   3.237  10.316
 2522SOL    HW2 9008   0.392   3.338  10.318
 2523SOL     OW 9009   1.434   3.385  10.675
 2523SOL    HW1 9010   1.495   3.459  10.687
 2523SOL    HW2 9011   1.492   3.309  10.666
 2524SOL     OW 9012   0.437   2.255  10.827
 2524SOL    HW1 9013   0.532   2.266  10.822
 2524SOL    HW2 9014   0.423   2.160  10.820
 2525SOL     OW 9015   1.599   2.302  10.060
 2525SOL    HW1 9016   1.536   2.323   9.991
 2525SOL    HW2 9017   1.582   2.366  10.129
 2526SOL     OW 9018   0.222   3.555   9.786
 2526SOL    HW1 9019   0.203   3.640   9.827
 2526SOL    HW2 9020   0.289   3.575   9.721
 2527SOL     OW 9021   1.135   3.200  11.002
 2527SOL    HW1 9022   1.196   3.183  11.074
 2527SOL    HW2 9023   1.086   3.118  10.993
 2528SOL     OW 9024   0.294   3.298   9.828
 2528SOL    HW1 9025   0.267   3.390   9.830
 2528SOL    HW2 9026   0.238   3.256   9.894
 2529SOL     OW 9027   0.273   2.940  10.204
 2529SOL    HW1 9028   0.280   2.851  10.239
 2529SOL    HW2 9029   0.199   2.979  10.251
 2530SOL     OW 9030   0.588   3.676  10.708
 2530SOL    HW1 9031   0.517   3.648  10.765
 2530SOL    HW2 9032   0.621   3.756  10.748
 2531SOL     OW 9033   0.585   2.849   9.480
 2531SOL    HW1 9034   0.622   2.891   9.402
 2531SOL    HW2 9035   0.633   2.887   9.553
 2532SOL     OW 9036   1.587   1.982  10.772
 2532SOL    HW1 9037   1.568   2.066  10.730
 2532SOL    HW2 9038   1.572   1.997  10.866
 2533SOL     OW 9039   0.128   2.516   9.860
 2533SOL    HW1 9040   0.131   2.430   9.903
 2533SOL    HW2 9041   0.115   2.578   9.932
 2534SOL     OW 9042   1.843   3.616   9.644
 2534SOL    HW1 9043   1.920   3.593   9.697
 2534SOL    HW2 9044   1.863   3.704   9.611
 2535SOL     OW 9045   0.020   3.445   9.455
 2535SOL    HW1 9046   0.004   3.351   9.453
 2535SOL    HW2 9047  -0.005   3.472   9.543
 2536SOL     OW 9048   1.690   2.779   9.952
 2536SOL    HW1 9049   1.767   2.731   9.921
 2536SOL    HW2 9050   1.665   2.835   9.878
 2537SOL     OW 9051   1.650   2.963   9.744
 2537SOL    HW1 9052   1.735   2.962   9.700
 2537SOL    HW2 9053   1.660   3.029   9.813
 2538SOL     OW 9054   0.160   2.624  10.907
 2538SOL    HW1 9055   0.255   2.626  10.895
 2538SOL    HW2 9056   0.139   2.707  10.951
 2539SOL     OW 9057   0.615   3.257  10.043
 2539SOL    HW1 9058   0.573   3.172  10.048
 2539SOL    HW2 9059   0.597   3.288   9.954
 2540SOL     OW 9060   1.276   3.098  10.727
 2540SOL    HW1 9061   1.315   3.037  10.664
 2540SOL    HW2 9062   1.339   3.100  10.800
 2541SOL     OW 9063   0.824   1.867   9.833
 2541SOL    HW1 9064   0.867   1.947   9.803
 2541SOL    HW2 9065   0.731   1.887   9.830
 2542SOL     OW 9066   0.163   2.755  10.609
 2542SOL    HW1 9067   0.255   2.742  10.587
 2542SOL    HW2 9068   0.121   2.777  10.526
 2543SOL     OW 9069   1.533   2.863   9.512
 2543SOL    HW1 9070   1.464   2.805   9.543
 2543SOL    HW2 9071   1.574   2.896   9.592
 2544SOL     OW 9072   1.162   3.678  10.944
 2544SOL    HW1 9073   1.178   3.739  10.872
 2544SOL    HW2 9074   1.182   3.592  10.907
 2545SOL     OW 9075   0.354   2.106  11.135
 2545SOL    HW1 9076   0.404   2.186  11.149
 2545SOL    HW2 9077   0.263   2.131  11.154
 2546SOL     OW 9078   1.445   3.291  10.238
 2546SOL    HW1 9079   1.392   3.300  10.316
 2546SOL    HW2 9080   1.445   3.197  10.219
 2547SOL     OW 9081   1.636   3.635   9.882
 2547SOL    HW1 9082   1.629   3.595   9.795
 2547SOL    HW2 9083   1.632   3.561   9.942
 2548SOL     OW 9084   0.602   2.581   9.584
 2548SOL    HW1 9085   0.606   2.665   9.537
 2548SOL    HW2 9086   0.535   2.595   9.651
 2549SOL     OW 9087   1.283   2.230  10.244
 2549SOL    HW1 9088   1.194   2.199  10.257
 2549SOL    HW2 9089   1.337   2.174  10.301
 2550SOL     OW 9090   1.576   3.535   9.625
 2550SOL    HW1 9091   1.670   3.554   9.616
 2550SOL    HW2 9092   1.545   3.523   9.536
 2551SOL     OW 9093   0.742   2.497  10.751
 2551SOL    HW1 9094   0.751   2.461  10.839
 2551SOL    HW2 9095   0.734   2.420  10.694
 2552SOL     OW 9096   1.382   2.283  11.018
 2552SOL    HW1 9097   1.389   2.345  11.090
 2552SOL    HW2 9098   1.408   2.333  10.941
 2553SOL     OW 9099   0.944   2.733  10.891
 2553SOL    HW1 9100   0.993   2.660  10.852
 2553SOL    HW2 9101   0.901   2.775  10.817
 2554SOL     OW 9102   0.956   2.303  10.620
 2554SOL    HW1 9103   0.887   2.281  10.558
 2554SOL    HW2 9104   1.036   2.267  10.581
 2555SOL     OW 9105   1.058   2.556   9.734
 2555SOL    HW1 9106   1.077   2.551   9.828
 2555SOL    HW2 9107   0.973   2.512   9.725
 2556SOL     OW 9108   0.088   2.680  10.083
 2556SOL    HW1 9109   0.171   2.688  10.130
 2556SOL    HW2 9110   0.062   2.770  10.064
 2557SOL     OW 9111   0.128   3.679  10.874
 2557SOL    HW1 9112   0.126   3.673  10.970
 2557SOL    HW2 9113   0.040   3.655  10.847
 2558SOL     OW 9114   0.908   2.209   9.504
 2558SOL    HW1 9115   0.942   2.280   9.450
 2558SOL    HW2 9116   0.931   2.129   9.457
 2559SOL     OW 9117   1.696   2.434  11.145
 2559SOL    HW1 9118   1.668   2.508  11.091
 2559SOL    HW2 9119   1.720   2.367  11.081
 2560SOL     OW 9120   1.386   2.998   9.841
 2560SOL    HW1 9121   1.469   2.985   9.796
 2560SOL    HW2 9122   1.336   3.055   9.783
 2561SOL     OW 9123   0.554   2.035  10.200
 2561SOL    HW1 9124   0.557   2.067  10.290
 2561SOL    HW2 9125   0.568   2.114  10.146
 2562SOL     OW 9126   1.023   3.387   9.841
 2562SOL    HW1 9127   1.038   3.394   9.746
 2562SOL    HW2 9128   1.107   3.410   9.880
 2563SOL     OW 9129   0.366   3.689  10.175
 2563SOL    HW1 9130   0.415   3.607  10.185
 2563SOL    HW2 9131   0.431   3.758  10.192
 2564SOL     OW 9132   1.807   2.898  10.182
 2564SOL    HW1 9133   1.753   2.883  10.104
 2564SOL    HW2 9134   1.744   2.909  10.253
 2565SOL     OW 9135   1.216   3.422  10.841
 2565SOL    HW1 9136   1.201   3.335  10.879
 2565SOL    HW2 9137   1.289   3.410  10.780
 2566SOL     OW 9138   0.319   2.817   9.546
 2566SOL    HW1 9139   0.409   2.845   9.530
 2566SOL    HW2 9140   0.299   2.757   9.475
 2567SOL     OW 9141   1.480   2.617  10.029
 2567SOL    HW1 9142   1.484   2.574  10.115
 2567SOL    HW2 9143   1.561   2.669  10.025
 2568SOL     OW 9144   0.458   3.127  11.053
 2568SOL    HW1 9145   0.439   3.133  10.959
 2568SOL    HW2 9146   0.372   3.122  11.095
 2569SOL     OW 9147   1.136   3.625   9.547
 2569SOL    HW1 9148   1.048   3.594   9.568
 2569SOL    HW2 9149   1.165   3.569   9.475
 2570SOL     OW 9150   0.142   2.133  10.801
 2570SOL    HW1 9151   0.171   2.212  10.846
 2570SOL    HW2 9152   0.142   2.065  10.868
 2571SOL     OW 9153   1.630   3.256   9.422
 2571SOL    HW1 9154   1.596   3.339   9.387
 2571SOL    HW2 9155   1.567   3.191   9.394
 2572SOL     OW 9156   0.448   3.608   9.625
 2572SOL    HW1 9157   0.498   3.663   9.685
 2572SOL    HW2 9158   0.513   3.567   9.569
 2573SOL     OW 9159   1.399   1.965   9.759
 2573SOL    HW1 9160   1.390   1.942   9.667
 2573SOL    HW2 9161   1.493   1.978   9.772
 2574SOL     OW 9162   0.227   3.646  10.534
 2574SOL    HW1 9163   0.285   3.573  10.558
 2574SOL    HW2 9164   0.198   3.625  10.446
 2575SOL     OW 9165   0.951   3.552  10.212
 2575SOL    HW1 9166   1.041   3.522  10.208
 2575SOL    HW2 9167   0.899   3.473  10.227
 2576SOL     OW 9168   0.405   2.559   9.785
 2576SOL    HW1 9169   0.423   2.466   9.797
 2576SOL    HW2 9170   0.310   2.567   9.793
 2577SOL     OW 9171   1.540   2.056  11.036
 2577SOL    HW1 9172   1.554   2.069  11.129
 2577SOL    HW2 9173   1.464   2.110  11.015
 2578SOL     OW 9174   0.647   1.968   9.423
 2578SOL    HW1 9175   0.722   1.910   9.422
 2578SOL    HW2 9176   0.593   1.940   9.349
 2579SOL     OW 9177   0.763   2.140  11.068
 2579SOL    HW1 9178   0.842   2.087  11.062
 2579SOL    HW2 9179   0.748   2.151  11.162
 2580SOL     OW 9180   0.873   3.385  10.504
 2580SOL    HW1 9181   0.860   3.353  10.414
 2580SOL    HW2 9182   0.944   3.330  10.538
 2581SOL     OW 9183   1.339   2.491  10.805
 2581SOL    HW1 9184   1.346   2.419  10.742
 2581SOL    HW2 9185   1.379   2.565  10.761
 2582SOL     OW 9186   0.824   3.303  10.235
 2582SOL    HW1 9187   0.903   3.259  10.204
 2582SOL    HW2 9188   0.756   3.280  10.172
 2583SOL     OW 9189   0.925   2.368  10.211
 2583SOL    HW1 9190   0.902   2.358  10.119
 2583SOL    HW2 9191   0.961   2.283  10.236
 2584SOL     OW 9192   0.558   1.925   9.800
 2584SOL    HW1 9193   0.475   1.921   9.847
 2584SOL    HW2 9194   0.550   2.003   9.745
 2585SOL     OW 9195   1.439   3.074   9.354
 2585SOL    HW1 9196   1.462   2.992   9.398
 2585SOL    HW2 9197   1.348   3.089   9.379
 2586SOL     OW 9198   0.282   1.916   9.490
 2586SOL    HW1 9199   0.325   1.982   9.436
 2586SOL    HW2 9200   0.354   1.865   9.527
 2587SOL     OW 9201   0.945   2.108   9.763
 2587SOL    HW1 9202   0.920   2.145   9.678
 2587SOL    HW2 9203   1.038   2.125   9.770
 2588SOL     OW 9204   1.068   2.523  10.768
 2588SOL    HW1 9205   1.037   2.439  10.734
 2588SOL    HW2 9206   1.161   2.508  10.788
 2589SOL     OW 9207   1.208   3.439  10.103
 2589SOL    HW1 9208   1.234   3.513  10.047
 2589SOL    HW2 9209   1.285   3.423  10.158
 2590SOL     OW 9210   0.472   3.020  10.033
 2590SOL    HW1 9211   0.407   2.996  10.099
 2590SOL    HW2 9212   0.428   3.005   9.949
 2591SOL     OW 9213   1.253   3.654   9.927
 2591SOL    HW1 9214   1.302   3.712   9.870
 2591SOL    HW2 9215   1.187   3.710   9.969
 2592SOL     OW 9216   1.018   2.398   9.340
 2592SOL    HW1 9217   0.976   2.479   9.312
 2592SOL    HW2 9218   1.092   2.427   9.394
 2593SOL     OW 9219   0.104   2.447  10.704
 2593SOL    HW1 9220   0.192   2.429  10.669
 2593SOL    HW2 9221   0.116   2.523  10.760
 2594SOL     OW 9222   0.549   2.077  10.474
 2594SOL    HW1 9223   0.600   2.010  10.520
 2594SOL    HW2 9224   0.460   2.068  10.509
 2595SOL     OW 9225   0.862   2.313   9.948
 2595SOL    HW1 9226   0.826   2.371   9.880
 2595SOL    HW2 9227   0.891   2.236   9.899
 2596SOL     OW 9228   1.018   1.917  10.056
 2596SOL    HW1 9229   0.959   1.915   9.980
 2596SOL    HW2 9230   0.992   1.841  10.108
 2597SOL     OW 9231   1.442   3.025  10.164
 2597SOL    HW1 9232   1.377   2.954  10.164
 2597SOL    HW2 9233   1.474   3.028  10.073
 2598SOL     OW 9234   1.466   2.469  10.269
 2598SOL    HW1 9235   1.403   2.397  10.282
 2598SOL    HW2 9236   1.521   2.467  10.348
 2599SOL     OW 9237   1.840   2.669   9.701
 2599SOL    HW1 9238   1.900   2.620   9.757
 2599SOL    HW2 9239   1.817   2.607   9.632
 2600SOL     OW 9240   0.504   3.270   9.465
 2600SOL    HW1 9241   0.420   3.229   9.484
 2600SOL    HW2 9242   0.524   3.244   9.376
 2601SOL     OW 9243   1.678   3.125   9.956
 2601SOL    HW1 9244   1.773   3.120   9.968
 2601SOL    HW2 9245   1.658   3.218   9.971
 2602SOL     OW 9246   1.395   2.436   9.384
 2602SOL    HW1 9247   1.335   2.413   9.455
 2602SOL    HW2 9248   1.481   2.407   9.415
 2603SOL     OW 9249   0.526   2.126   9.619
 2603SOL    HW1 9250   0.574   2.077   9.553
 2603SOL    HW2 9251   0.502   2.208   9.576
 2604SOL     OW 9252   1.757   3.088  10.917
 2604SOL    HW1 9253   1.841   3.064  10.878
 2604SOL    HW2 9254   1.754   3.184  10.911
 2605SOL     OW 9255   1.043   3.197  10.622
 2605SOL    HW1 9256   0.970   3.176  10.679
 2605SOL    HW2 9257   1.121   3.172  10.672
 2606SOL     OW 9258   1.610   3.498  10.979
 2606SOL    HW1 9259   1.594   3.528  10.890
 2606SOL    HW2 9260   1.691   3.447  10.973
 2607SOL     OW 9261   1.124   3.059  10.402
 2607SOL    HW1 9262   1.080   3.107  10.472
 2607SOL    HW2 9263   1.102   3.108  10.323
 2608SOL     OW 9264   1.628   2.946  10.383
 2608SOL    HW1 9265   1.630   3.008  10.455
 2608SOL    HW2 9266   1.550   2.971  10.333
 2609SOL     OW 9267   0.919   1.948  10.695
 2609SOL    HW1 9268   0.942   1.930  10.604
 2609SOL    HW2 9269   0.997   1.990  10.732
 2610SOL     OW 9270   0.982   2.969  11.029
 2610SOL    HW1 9271   0.889   2.986  11.048
 2610SOL    HW2 9272   0.981   2.891  10.973
 2611SOL     OW 9273   0.722   2.931   9.700
 2611SOL    HW1 9274   0.705   2.901   9.789
 2611SOL    HW2 9275   0.796   2.877   9.670
 2612SOL     OW 9276   0.421   2.683  10.562
 2612SOL    HW1 9277   0.487   2.707  10.628
 2612SOL    HW2 9278   0.407   2.589  10.575
 2613SOL     OW 9279   0.049   3.451  10.633
 2613SOL    HW1 9280   0.097   3.529  10.607
 2613SOL    HW2 9281   0.096   3.417  10.710
 2614SOL     OW 9282   0.321   2.975   9.798
 2614SOL    HW1 9283   0.328   3.048   9.736
 2614SOL    HW2 9284   0.335   2.897   9.744
 2615SOL     OW 9285   0.554   2.386  10.167
 2615SOL    HW1 9286   0.562   2.445  10.092
 2615SOL    HW2 9287   0.624   2.413  10.227
 2616SOL     OW 9288   1.239   3.203   9.706
 2616SOL    HW1 9289   1.293   3.276   9.735
 2616SOL    HW2 9290   1.166   3.200   9.768
 2617SOL     OW 9291   1.286   3.326  10.457
 2617SOL    HW1 9292   1.338   3.346  10.534
 2617SOL    HW2 9293   1.235   3.249  10.481
 2618SOL     OW 9294   1.575   2.479   9.799
 2618SOL    HW1 9295   1.523   2.525   9.864
 2618SOL    HW2 9296   1.614   2.549   9.746
 2619SOL     OW 9297   0.350   3.391  10.621
 2619SOL    HW1 9298   0.335   3.346  10.538
 2619SOL    HW2 9299   0.444   3.406  10.624
 2620SOL     OW 9300   0.438   2.596  10.924
 2620SOL    HW1 9301   0.488   2.651  10.863
 2620SOL    HW2 9302   0.500   2.529  10.952
 2621SOL     OW 9303   1.615   2.650  11.000
 2621SOL    HW1 9304   1.527   2.685  10.990
 2621SOL    HW2 9305   1.666   2.691  10.930
 2622SOL     OW 9306   0.991   1.990  11.081
 2622SOL    HW1 9307   1.044   2.067  11.058
 2622SOL    HW2 9308   1.041   1.916  11.047
 2623SOL     OW 9309   0.503   1.887  11.066
 2623SOL    HW1 9310   0.458   1.839  10.996
 2623SOL    HW2 9311   0.451   1.967  11.077
 2624SOL     OW 9312   0.594   2.741  10.344
 2624SOL    HW1 9313   0.633   2.828  10.346
 2624SOL    HW2 9314   0.535   2.739  10.420
 2625SOL     OW 9315   1.339   2.719  10.318
 2625SOL    HW1 9316   1.254   2.699  10.279
 2625SOL    HW2 9317   1.388   2.637  10.310
 2626SOL     OW 9318   1.204   2.384   9.575
 2626SOL    HW1 9319   1.208   2.306   9.630
 2626SOL    HW2 9320   1.161   2.449   9.629
 2627SOL     OW 9321   0.278   2.053  10.561
 2627SOL    HW1 9322   0.238   2.084  10.642
 2627SOL    HW2 9323   0.267   1.958  10.563
 2628SOL     OW 9324   0.049   3.166  10.582
 2628SOL    HW1 9325   0.074   3.122  10.663
 2628SOL    HW2 9326   0.052   3.259  10.604
 2629SOL     OW 9327   0.719   2.486  10.362
 2629SOL    HW1 9328   0.799   2.470  10.312
 2629SOL    HW2 9329   0.699   2.578  10.346
 2630SOL     OW 9330   1.753   2.809  11.184
 2630SOL    HW1 9331   1.709   2.750  11.122
 2630SOL    HW2 9332   1.685   2.834  11.246
 2631SOL     OW 9333   0.312   1.909   9.924
 2631SOL    HW1 9334   0.288   2.001   9.937
 2631SOL    HW2 9335   0.324   1.875  10.013
 2632SOL     OW 9336   1.625   2.245   9.666
 2632SOL    HW1 9337   1.657   2.181   9.730
 2632SOL    HW2 9338   1.599   2.320   9.719
 2633SOL     OW 9339   1.027   2.618  10.266
 2633SOL    HW1 9340   1.017   2.634  10.360
 2633SOL    HW2 9341   1.002   2.527  10.255
 2634SOL     OW 9342   0.975   3.415  11.043
 2634SOL    HW1 9343   0.957   3.469  10.966
 2634SOL    HW2 9344   1.029   3.343  11.010
 2635SOL     OW 9345   1.848   3.369  10.921
 2635SOL    HW1 9346   1.864   3.404  10.833
 2635SOL    HW2 9347   1.933   3.373  10.965
 2636SOL     OW 9348   0.352   2.780  11.118
 2636SOL    HW1 9349   0.428   2.818  11.161
 2636SOL    HW2 9350   0.388   2.718  11.055
 2637SOL     OW 9351   1.522   2.131   9.436
 2637SOL    HW1 9352   1.459   2.067   9.470
 2637SOL    HW2 9353   1.559   2.171   9.515
 2638SOL     OW 9354   1.289   2.690   9.340
 2638SOL    HW1 9355   1.334   2.605   9.338
 2638SOL    HW2 9356   1.315   2.733   9.258
 2639SOL     OW 9357   1.062   3.200  10.169
 2639SOL    HW1 9358   1.071   3.125  10.109
 2639SOL    HW2 9359   1.121   3.267  10.132
 2640SOL     OW 9360   0.323   2.664  10.244
 2640SOL    HW1 9361   0.414   2.692  10.233
 2640SOL    HW2 9362   0.330   2.573  10.272
 2641SOL     OW 9363   0.341   2.371  10.321
 2641SOL    HW1 9364   0.310   2.282  10.305
 2641SOL    HW2 9365   0.418   2.380  10.265
 2642SOL     OW 9366   1.118   2.220  11.015
 2642SOL    HW1 9367   1.079   2.292  11.064
 2642SOL    HW2 9368   1.211   2.242  11.010
 2643SOL     OW 9369   1.151   2.053  10.793
 2643SOL    HW1 9370   1.135   2.117  10.863
 2643SOL    HW2 9371   1.212   2.097  10.734
 2644SOL     OW 9372   7.983   3.168   9.527
 2644SOL    HW1 9373   7.892   3.183   9.552
 2644SOL    HW2 9374   7.992   3.072   9.525
 2645SOL     OW 9375   0.135   3.602  10.279
 2645SOL    HW1 9376   0.092   3.563  10.203
 2645SOL    HW2 9377   0.212   3.646  10.243
 2646SOL     OW 9378   0.496   3.439  10.215
 2646SOL    HW1 9379   0.566   3.501  10.233
 2646SOL    HW2 9380   0.534   3.376  10.154
 2647SOL     OW 9381   0.964   2.641  10.534
 2647SOL    HW1 9382   1.031   2.622  10.599
 2647SOL    HW2 9383   0.884   2.602  10.570
 2648SOL     OW 9384   0.102   2.451  10.412
 2648SOL    HW1 9385   0.184   2.414  10.381
 2648SOL    HW2 9386   0.128   2.530  10.460
 2649SOL     OW 9387   0.212   2.366  10.990
 2649SOL    HW1 9388   0.297   2.350  10.951
 2649SOL    HW2 9389   0.185   2.451  10.956
 2650SOL     OW 9390   1.379   2.798  10.966
 2650SOL    HW1 9391   1.402   2.891  10.961
 2650SOL    HW2 9392   1.378   2.768  10.876
 2651SOL     OW 9393   0.817   2.428   9.685
 2651SOL    HW1 9394   0.826   2.358   9.620
 2651SOL    HW2 9395   0.748   2.484   9.651
 2652SOL     OW 9396   1.633   2.466  10.485
 2652SOL    HW1 9397   1.608   2.404  10.553
 2652SOL    HW2 9398   1.722   2.440  10.460
 2653SOL     OW 9399   0.286   3.395  11.032
 2653SOL    HW1 9400   0.250   3.470  11.079
 2653SOL    HW2 9401   0.277   3.322  11.094
 2654SOL     OW 9402   0.643   2.320  10.562
 2654SOL    HW1 9403   0.619   2.238  10.519
 2654SOL    HW2 9404   0.666   2.379  10.490
 2655SOL     OW 9405   0.879   3.557  10.819
 2655SOL    HW1 9406   0.898   3.503  10.742
 2655SOL    HW2 9407   0.890   3.647  10.788
 2656SOL     OW 9408   0.471   2.358   9.490
 2656SOL    HW1 9409   0.531   2.428   9.515
 2656SOL    HW2 9410   0.394   2.403   9.455
 2657SOL     OW 9411   0.155   2.980  10.771
 2657SOL    HW1 9412   0.134   2.941  10.856
 2657SOL    HW2 9413   0.161   2.906  10.711
 2658SOL     OW 9414   1.310   2.898  10.521
 2658SOL    HW1 9415   1.332   2.836  10.452
 2658SOL    HW2 9416   1.244   2.955  10.482
 2659SOL     OW 9417   1.318   2.716   9.613
 2659SOL    HW1 9418   1.241   2.683   9.658
 2659SOL    HW2 9419   1.297   2.706   9.520
 2660SOL     OW 9420   1.791   3.595  10.479
 2660SOL    HW1 9421   1.849   3.620  10.407
 2660SOL    HW2 9422   1.748   3.514  10.449
 2661SOL     OW 9423   1.235   3.597  10.402
 2661SOL    HW1 9424   1.320   3.623  10.366
 2661SOL    HW2 9425   1.246   3.505  10.427
 2662SOL     OW 9426   0.056   3.051  10.340
 2662SOL    HW1 9427   0.058   3.091  10.427
 2662SOL    HW2 9428   0.000   3.109  10.289
 2663SOL     OW 9429   0.689   3.537  11.049
 2663SOL    HW1 9430   0.628   3.609  11.033
 2663SOL    HW2 9431   0.757   3.549  10.983
 2664SOL     OW 9432   1.731   2.027   9.814
 2664SOL    HW1 9433   1.797   2.011   9.746
 2664SOL    HW2 9434   1.714   1.941   9.852
 2665SOL     OW 9435   1.381   3.428   9.801
 2665SOL    HW1 9436   1.443   3.455   9.733
 2665SOL    HW2 9437   1.341   3.510   9.830
 2666SOL     OW 9438   0.176   3.609  11.156
 2666SOL    HW1 9439   0.106   3.567  11.205
 2666SOL    HW2 9440   0.225   3.659  11.222
 2667SOL     OW 9441   1.279   2.794   9.981
 2667SOL    HW1 9442   1.352   2.733   9.994
 2667SOL    HW2 9443   1.314   2.861   9.923
 2668SOL     OW 9444   0.795   3.141  10.734
 2668SOL    HW1 9445   0.768   3.183  10.816
 2668SOL    HW2 9446   0.724   3.162  10.673
 2669SOL     OW 9447   0.656   3.492   9.486
 2669SOL    HW1 9448   0.676   3.519   9.397
 2669SOL    HW2 9449   0.611   3.408   9.477
 2670SOL     OW 9450   1.610   3.595  10.708
 2670SOL    HW1 9451   1.673   3.593  10.636
 2670SOL    HW2 9452   1.598   3.688  10.727
 2671SOL     OW 9453   1.845   2.024  10.275
 2671SOL    HW1 9454   1.873   1.937  10.250
 2671SOL    HW2 9455   1.760   2.035  10.231
 2672SOL     OW 9456   0.267   2.166  10.015
 2672SOL    HW1 9457   0.176   2.187   9.995
 2672SOL    HW2 9458   0.271   2.165  10.110
 2673SOL     OW 9459   1.222   3.459   9.352
 2673SOL    HW1 9460   1.216   3.364   9.368
 2673SOL    HW2 9461   1.160   3.475   9.280
 2674SOL     OW 9462   0.828   2.873  10.687
 2674SOL    HW1 9463   0.878   2.862  10.606
 2674SOL    HW2 9464   0.824   2.967  10.700
 2675SOL     OW 9465   0.924   2.776   9.618
 2675SOL    HW1 9466   0.974   2.804   9.541
 2675SOL    HW2 9467   0.975   2.704   9.655
 2676SOL     OW 9468   1.491   3.515   9.360
 2676SOL    HW1 9469   1.400   3.493   9.342
 2676SOL    HW2 9470   1.534   3.515   9.274
 2677SOL     OW 9471   0.368   3.162  10.801
 2677SOL    HW1 9472   0.355   3.241  10.749
 2677SOL    HW2 9473   0.292   3.107  10.781
 2678SOL     OW 9474   1.068   2.974  10.025
 2678SOL    HW1 9475   0.996   2.921  10.058
 2678SOL    HW2 9476   1.135   2.910  10.000
 2679SOL     OW 9477   1.027   2.108  10.267
 2679SOL    HW1 9478   1.028   2.057  10.186
 2679SOL    HW2 9479   1.021   2.042  10.336
 2680SOL     OW 9480   0.598   3.366   9.787
 2680SOL    HW1 9481   0.638   3.302   9.728
 2680SOL    HW2 9482   0.510   3.379   9.751
 2681SOL     OW 9483   1.744   2.249  10.707
 2681SOL    HW1 9484   1.812   2.315  10.692
 2681SOL    HW2 9485   1.766   2.179  10.645
 2682SOL     OW 9486   0.252   3.186   9.585
 2682SOL    HW1 9487   0.157   3.194   9.579
 2682SOL    HW2 9488   0.275   3.236   9.663
 2683SOL     OW 9489   0.097   2.860  11.027
 2683SOL    HW1 9490   0.059   2.945  11.047
 2683SOL    HW2 9491   0.180   2.858  11.075
 2684SOL     OW 9492   0.681   2.049  10.812
 2684SOL    HW1 9493   0.765   2.035  10.770
 2684SOL    HW2 9494   0.703   2.083  10.899
 2685SOL     OW 9495   0.098   2.203   9.336
 2685SOL    HW1 9496   0.030   2.242   9.390
 2685SOL    HW2 9497   0.116   2.268   9.268
 2686SOL     OW 9498   1.434   2.736  10.704
 2686SOL    HW1 9499   1.385   2.795  10.648
 2686SOL    HW2 9500   1.523   2.737  10.668
 2687SOL     OW 9501   0.090   2.080   9.716
 2687SOL    HW1 9502   0.102   2.168   9.681
 2687SOL    HW2 9503   0.146   2.024   9.662
 2688SOL     OW 9504   1.183   3.191   9.429
 2688SOL    HW1 9505   1.087   3.190   9.425
 2688SOL    HW2 9506   1.203   3.185   9.523
 2689SOL     OW 9507   0.608   2.723  10.752
 2689SOL    HW1 9508   0.671   2.793  10.736
 2689SOL    HW2 9509   0.660   2.643  10.751
 2690SOL     OW 9510   1.483   3.659  10.299
 2690SOL    HW1 9511   1.515   3.726  10.239
 2690SOL    HW2 9512   1.561   3.608  10.321
 2691SOL     OW 9513   0.700   2.427  11.017
 2691SOL    HW1 9514   0.754   2.490  11.065
 2691SOL    HW2 9515   0.737   2.342  11.041
 2692SOL     OW 9516   1.467   3.058  10.938
 2692SOL    HW1 9517   1.472   3.076  11.032
 2692SOL    HW2 9518   1.555   3.073  10.906
 2693SOL     OW 9519   0.388   3.601  10.876
 2693SOL    HW1 9520   0.300   3.633  10.855
 2693SOL    HW2 9521   0.374   3.514  10.913
 2694SOL     OW 9522   1.676   2.738  10.566
 2694SOL    HW1 9523   1.664   2.653  10.523
 2694SOL    HW2 9524   1.663   2.802  10.497
 2695SOL     OW 9525   1.213   2.176   9.772
 2695SOL    HW1 9526   1.276   2.104   9.765
 2695SOL    HW2 9527   1.244   2.229   9.845
 2696SOL     OW 9528   0.576   2.599   9.996
 2696SOL    HW1 9529   0.624   2.681   9.982
 2696SOL    HW2 9530   0.522   2.589   9.918
 2697SOL     OW 9531   1.753   2.218  10.977
 2697SOL    HW1 9532   1.746   2.236  10.883
 2697SOL    HW2 9533   1.682   2.157  10.995
 2698SOL     OW 9534   1.763   2.796  10.823
 2698SOL    HW1 9535   1.745   2.889  10.841
 2698SOL    HW2 9536   1.742   2.785  10.731
 2699SOL     OW 9537   0.908   3.270   9.411
 2699SOL    HW1 9538   0.833   3.239   9.361
 2699SOL    HW2 9539   0.946   3.340   9.358
 2700SOL     OW 9540   0.674   3.641  10.226
 2700SOL    HW1 9541   0.648   3.733  10.217
 2700SOL    HW2 9542   0.770   3.644  10.226
 2701SOL     OW 9543   0.874   2.831  10.164
 2701SOL    HW1 9544   0.926   2.758  10.197
 2701SOL    HW2 9545   0.830   2.866  10.242
 2702SOL     OW 9546   1.065   2.837   9.399
 2702SOL    HW1 9547   1.045   2.896   9.326
 2702SOL    HW2 9548   1.145   2.791   9.371
 2703SOL     OW 9549   1.846   3.416  10.145
 2703SOL    HW1 9550   1.766   3.405  10.094
 2703SOL    HW2 9551   1.842   3.349  10.213
 2704SOL     OW 9552   0.210   3.155  11.167
 2704SOL    HW1 9553   0.116   3.149  11.154
 2704SOL    HW2 9554   0.221   3.163  11.262
 2705SOL     OW 9555   0.133   3.118   9.966
 2705SOL    HW1 9556   0.065   3.061  10.000
 2705SOL    HW2 9557   0.196   3.058   9.925
 2706SOL     OW 9558   0.682   3.268  10.949
 2706SOL    HW1 9559   0.594   3.240  10.977
 2706SOL    HW2 9560   0.689   3.358  10.981
 2707SOL     OW 9561   1.825   2.044  10.547
 2707SOL    HW1 9562   1.811   1.950  10.559
 2707SOL    HW2 9563   1.831   2.056  10.453
 2708SOL     OW 9564   0.441   2.298   9.838
 2708SOL    HW1 9565   0.473   2.236   9.773
 2708SOL    HW2 9566   0.389   2.244   9.899
 2709SOL     OW 9567   1.671   3.373  10.386
 2709SOL    HW1 9568   1.597   3.345  10.330
 2709SOL    HW2 9569   1.671   3.310  10.458
 2710SOL     OW 9570   0.352   2.416  10.601
 2710SOL    HW1 9571   0.409   2.365  10.659
 2710SOL    HW2 9572   0.376   2.387  10.513
 2711SOL     OW 9573   1.444   2.071  10.406
 2711SOL    HW1 9574   1.460   1.989  10.452
 2711SOL    HW2 9575   1.414   2.131  10.475
 2712SOL     OW 9576   1.005   1.873  10.435
 2712SOL    HW1 9577   0.959   1.812  10.377
 2712SOL    HW2 9578   1.094   1.839  10.441
 2713SOL     OW 9579   0.778   3.204   9.666
 2713SOL    HW1 9580   0.761   3.110   9.672
 2713SOL    HW2 9581   0.822   3.215   9.582
 2714SOL     OW 9582   0.623   3.424  10.600
 2714SOL    HW1 9583   0.618   3.512  10.637
 2714SOL    HW2 9584   0.713   3.417  10.567
 2715SOL     OW 9585   1.357   1.911   9.494
 2715SOL    HW1 9586   1.391   1.851   9.427
 2715SOL    HW2 9587   1.269   1.880   9.512
 2716SOL     OW 9588   1.295   2.326   9.986
 2716SOL    HW1 9589   1.246   2.407   9.990
 2716SOL    HW2 9590   1.293   2.292  10.075
 2717SOL     OW 9591   1.590   2.046  10.178
 2717SOL    HW1 9592   1.536   2.068  10.254
 2717SOL    HW2 9593   1.589   2.124  10.124
 2718SOL     OW 9594   0.052   2.895   9.577
 2718SOL    HW1 9595   0.146   2.883   9.563
 2718SOL    HW2 9596   0.043   2.903   9.672
 2719SOL     OW 9597   0.878   3.541   9.631
 2719SOL    HW1 9598   0.816   3.508   9.567
 2719SOL    HW2 9599   0.859   3.635   9.637
 2720SOL     OW 9600   0.240   2.484  11.275
 2720SOL    HW1 9601   0.164   2.533  11.307
 2720SOL    HW2 9602   0.225   2.478  11.180
 2721SOL     OW 9603   0.226   2.143  12.162
 2721SOL    HW1 9604   0.289   2.111  12.226
 2721SOL    HW2 9605   0.141   2.116  12.196
 2722SOL     OW 9606   8.005   2.226  11.798
 2722SOL    HW1 9607   7.909   2.230  11.805
 2722SOL    HW2 9608   8.022   2.176  11.718
 2723SOL     OW 9609   0.543   3.111  12.339
 2723SOL    HW1 9610   0.470   3.154  12.296
 2723SOL    HW2 9611   0.567   3.171  12.410
 2724SOL     OW 9612   1.585   3.380  11.882
 2724SOL    HW1 9613   1.540   3.356  11.963
 2724SOL    HW2 9614   1.516   3.384  11.816
 2725SOL     OW 9615   1.130   2.568  11.866
 2725SOL    HW1 9616   1.180   2.649  11.855
 2725SOL    HW2 9617   1.082   2.581  11.948
 2726SOL     OW 9618   1.767   2.459  11.402
 2726SOL    HW1 9619   1.744   2.458  11.309
 2726SOL    HW2 9620   1.735   2.375  11.435
 2727SOL     OW 9621   0.753   2.987  12.231
 2727SOL    HW1 9622   0.673   3.021  12.271
 2727SOL    HW2 9623   0.788   3.061  12.181
 2728SOL     OW 9624   0.684   2.854  11.820
 2728SOL    HW1 9625   0.753   2.851  11.886
 2728SOL    HW2 9626   0.619   2.914  11.856
 2729SOL     OW 9627   0.348   3.274  12.225
 2729SOL    HW1 9628   0.280   3.235  12.170
 2729SOL    HW2 9629   0.394   3.335  12.167
 2730SOL     OW 9630   1.607   2.301  11.914
 2730SOL    HW1 9631   1.556   2.329  11.838
 2730SOL    HW2 9632   1.614   2.380  11.968
 2731SOL     OW 9633   0.232   3.561  11.657
 2731SOL    HW1 9634   0.237   3.646  11.701
 2731SOL    HW2 9635   0.293   3.569  11.583
 2732SOL     OW 9636   0.260   3.294  11.683
 2732SOL    HW1 9637   0.254   3.388  11.699
 2732SOL    HW2 9638   0.222   3.254  11.762
 2733SOL     OW 9639   0.273   2.948  12.074
 2733SOL    HW1 9640   0.277   2.856  12.100
 2733SOL    HW2 9641   0.192   2.981  12.114
 2734SOL     OW 9642   0.572   2.859  11.318
 2734SOL    HW1 9643   0.622   2.900  11.248
 2734SOL    HW2 9644   0.616   2.885  11.399
 2735SOL     OW 9645   0.099   2.495  11.727
 2735SOL    HW1 9646   0.082   2.410  11.768
 2735SOL    HW2 9647   0.103   2.556  11.801
 2736SOL     OW 9648   1.842   3.613  11.500
 2736SOL    HW1 9649   1.915   3.592  11.557
 2736SOL    HW2 9650   1.857   3.705  11.475
 2737SOL     OW 9651   7.997   3.482  11.311
 2737SOL    HW1 9652   7.976   3.403  11.361
 2737SOL    HW2 9653   7.929   3.545  11.336
 2738SOL     OW 9654   1.694   2.781  11.825
 2738SOL    HW1 9655   1.774   2.733  11.802
 2738SOL    HW2 9656   1.672   2.830  11.746
 2739SOL     OW 9657   1.651   2.962  11.609
 2739SOL    HW1 9658   1.737   2.962  11.566
 2739SOL    HW2 9659   1.661   3.026  11.680
 2740SOL     OW 9660   0.154   2.593   0.286
 2740SOL    HW1 9661   0.145   2.559   0.375
 2740SOL    HW2 9662   0.215   2.666   0.294
 2741SOL     OW 9663   0.606   3.257  11.906
 2741SOL    HW1 9664   0.564   3.172  11.910
 2741SOL    HW2 9665   0.595   3.286  11.816
 2742SOL     OW 9666   0.823   1.868  11.694
 2742SOL    HW1 9667   0.865   1.949  11.664
 2742SOL    HW2 9668   0.729   1.889  11.693
 2743SOL     OW 9669   0.164   2.761  12.419
 2743SOL    HW1 9670   0.258   2.752  12.432
 2743SOL    HW2 9671   0.153   2.773  12.325
 2744SOL     OW 9672   1.531   2.865  11.376
 2744SOL    HW1 9673   1.463   2.805  11.408
 2744SOL    HW2 9674   1.576   2.894  11.456
 2745SOL     OW 9675   1.471   3.279  12.114
 2745SOL    HW1 9676   1.405   3.293  12.182
 2745SOL    HW2 9677   1.458   3.189  12.086
 2746SOL     OW 9678   1.647   3.633  11.746
 2746SOL    HW1 9679   1.630   3.596  11.659
 2746SOL    HW2 9680   1.640   3.559  11.806
 2747SOL     OW 9681   0.602   2.576  11.442
 2747SOL    HW1 9682   0.611   2.661  11.399
 2747SOL    HW2 9683   0.539   2.591  11.513
 2748SOL     OW 9684   1.287   2.246  12.110
 2748SOL    HW1 9685   1.199   2.206  12.109
 2748SOL    HW2 9686   1.338   2.188  12.167
 2749SOL     OW 9687   1.576   3.537  11.488
 2749SOL    HW1 9688   1.669   3.557  11.478
 2749SOL    HW2 9689   1.544   3.523  11.399
 2750SOL     OW 9690   0.967   2.187  12.395
 2750SOL    HW1 9691   0.959   2.263  12.453
 2750SOL    HW2 9692   0.910   2.208  12.321
 2751SOL     OW 9693   1.057   2.557  11.596
 2751SOL    HW1 9694   1.076   2.554  11.689
 2751SOL    HW2 9695   0.974   2.511  11.586
 2752SOL     OW 9696   0.098   2.658  11.948
 2752SOL    HW1 9697   0.177   2.672  12.000
 2752SOL    HW2 9698   0.051   2.742  11.952
 2753SOL     OW 9699   0.055   3.619   0.281
 2753SOL    HW1 9700   0.045   3.658   0.368
 2753SOL    HW2 9701   0.042   3.692   0.221
 2754SOL     OW 9702   0.906   2.195  11.351
 2754SOL    HW1 9703   0.939   2.271  11.303
 2754SOL    HW2 9704   0.957   2.122  11.317
 2755SOL     OW 9705   1.380   3.000  11.704
 2755SOL    HW1 9706   1.461   2.988  11.654
 2755SOL    HW2 9707   1.330   3.065  11.654
 2756SOL     OW 9708   0.551   2.042  12.062
 2756SOL    HW1 9709   0.566   2.084  12.146
 2756SOL    HW2 9710   0.553   2.113  11.998
 2757SOL     OW 9711   0.998   3.311  11.641
 2757SOL    HW1 9712   0.969   3.385  11.587
 2757SOL    HW2 9713   0.970   3.334  11.729
 2758SOL     OW 9714   0.369   3.692  12.037
 2758SOL    HW1 9715   0.416   3.609  12.048
 2758SOL    HW2 9716   0.435   3.759  12.056
 2759SOL     OW 9717   1.802   2.917  12.058
 2759SOL    HW1 9718   1.756   2.896  11.977
 2759SOL    HW2 9719   1.734   2.919  12.125
 2760SOL     OW 9720   0.314   2.818  11.420
 2760SOL    HW1 9721   0.399   2.850  11.387
 2760SOL    HW2 9722   0.300   2.736  11.373
 2761SOL     OW 9723   1.480   2.623  11.896
 2761SOL    HW1 9724   1.484   2.578  11.980
 2761SOL    HW2 9725   1.561   2.673  11.891
 2762SOL     OW 9726   1.129   3.635  11.402
 2762SOL    HW1 9727   1.050   3.598  11.440
 2762SOL    HW2 9728   1.154   3.573  11.333
 2763SOL     OW 9729   1.635   3.256  11.285
 2763SOL    HW1 9730   1.597   3.338  11.255
 2763SOL    HW2 9731   1.573   3.189  11.255
 2764SOL     OW 9732   0.465   3.598  11.488
 2764SOL    HW1 9733   0.512   3.653  11.551
 2764SOL    HW2 9734   0.533   3.564  11.430
 2765SOL     OW 9735   1.403   1.969  11.623
 2765SOL    HW1 9736   1.395   1.946  11.530
 2765SOL    HW2 9737   1.497   1.976  11.638
 2766SOL     OW 9738   0.212   3.646  12.402
 2766SOL    HW1 9739   0.242   3.561  12.436
 2766SOL    HW2 9740   0.180   3.626  12.314
 2767SOL     OW 9741   0.952   3.554  12.066
 2767SOL    HW1 9742   1.037   3.511  12.064
 2767SOL    HW2 9743   0.901   3.508  11.999
 2768SOL     OW 9744   0.406   2.560  11.645
 2768SOL    HW1 9745   0.421   2.467  11.662
 2768SOL    HW2 9746   0.313   2.572  11.661
 2769SOL     OW 9747   0.625   1.961  11.301
 2769SOL    HW1 9748   0.717   1.936  11.293
 2769SOL    HW2 9749   0.587   1.935  11.217
 2770SOL     OW 9750   0.809   3.217  12.102
 2770SOL    HW1 9751   0.897   3.229  12.067
 2770SOL    HW2 9752   0.751   3.241  12.029
 2771SOL     OW 9753   0.928   2.369  12.066
 2771SOL    HW1 9754   0.900   2.361  11.975
 2771SOL    HW2 9755   0.969   2.285  12.086
 2772SOL     OW 9756   0.554   1.927  11.667
 2772SOL    HW1 9757   0.472   1.924  11.717
 2772SOL    HW2 9758   0.546   2.005  11.612
 2773SOL     OW 9759   1.441   3.073  11.216
 2773SOL    HW1 9760   1.467   2.994  11.264
 2773SOL    HW2 9761   1.353   3.093  11.248
 2774SOL     OW 9762   0.290   1.906  11.342
 2774SOL    HW1 9763   0.342   1.976  11.303
 2774SOL    HW2 9764   0.353   1.853  11.391
 2775SOL     OW 9765   0.942   2.109  11.621
 2775SOL    HW1 9766   0.919   2.143  11.534
 2775SOL    HW2 9767   1.036   2.124  11.629
 2776SOL     OW 9768   1.210   3.454  11.976
 2776SOL    HW1 9769   1.224   3.511  11.901
 2776SOL    HW2 9770   1.293   3.457  12.024
 2777SOL     OW 9771   0.471   3.016  11.896
 2777SOL    HW1 9772   0.407   2.997  11.964
 2777SOL    HW2 9773   0.424   2.999  11.814
 2778SOL     OW 9774   1.257   3.655  11.786
 2778SOL    HW1 9775   1.308   3.714  11.730
 2778SOL    HW2 9776   1.187   3.710  11.821
 2779SOL     OW 9777   1.014   2.399  11.207
 2779SOL    HW1 9778   0.976   2.483  11.181
 2779SOL    HW2 9779   1.090   2.422  11.261
 2780SOL     OW 9780   0.583   2.078  12.340
 2780SOL    HW1 9781   0.605   1.985  12.333
 2780SOL    HW2 9782   0.491   2.078  12.367
 2781SOL     OW 9783   0.860   2.315  11.805
 2781SOL    HW1 9784   0.824   2.371  11.737
 2781SOL    HW2 9785   0.890   2.237  11.759
 2782SOL     OW 9786   1.010   1.917  11.922
 2782SOL    HW1 9787   0.956   1.911  11.843
 2782SOL    HW2 9788   0.993   1.836  11.969
 2783SOL     OW 9789   1.447   3.021  12.021
 2783SOL    HW1 9790   1.375   2.962  11.997
 2783SOL    HW2 9791   1.495   3.034  11.940
 2784SOL     OW 9792   1.464   2.478  12.135
 2784SOL    HW1 9793   1.410   2.399  12.133
 2784SOL    HW2 9794   1.525   2.464  12.207
 2785SOL     OW 9795   1.830   2.671  11.561
 2785SOL    HW1 9796   1.890   2.621  11.617
 2785SOL    HW2 9797   1.807   2.609  11.491
 2786SOL     OW 9798   0.490   3.282  11.313
 2786SOL    HW1 9799   0.411   3.252  11.357
 2786SOL    HW2 9800   0.495   3.230  11.233
 2787SOL     OW 9801   1.680   3.120  11.828
 2787SOL    HW1 9802   1.776   3.115  11.835
 2787SOL    HW2 9803   1.660   3.213  11.837
 2788SOL     OW 9804   1.394   2.442  11.244
 2788SOL    HW1 9805   1.341   2.413  11.319
 2788SOL    HW2 9806   1.483   2.413  11.265
 2789SOL     OW 9807   0.514   2.128  11.487
 2789SOL    HW1 9808   0.559   2.073  11.423
 2789SOL    HW2 9809   0.496   2.209  11.440
 2790SOL     OW 9810   1.102   3.106  12.285
 2790SOL    HW1 9811   1.019   3.128  12.328
 2790SOL    HW2 9812   1.092   3.136  12.195
 2791SOL     OW 9813   1.601   2.950  12.248
 2791SOL    HW1 9814   1.565   2.989  12.328
 2791SOL    HW2 9815   1.537   2.971  12.181
 2792SOL     OW 9816   0.709   2.919  11.548
 2792SOL    HW1 9817   0.697   2.898  11.641
 2792SOL    HW2 9818   0.786   2.868  11.522
 2793SOL     OW 9819   0.429   2.691  12.458
 2793SOL    HW1 9820   0.493   2.713  12.525
 2793SOL    HW2 9821   0.398   2.604  12.481
 2794SOL     OW 9822   1.250   2.220  12.439
 2794SOL    HW1 9823   1.290   2.301  12.472
 2794SOL    HW2 9824   1.161   2.245  12.415
 2795SOL     OW 9825   0.321   2.975  11.663
 2795SOL    HW1 9826   0.330   3.053  11.609
 2795SOL    HW2 9827   0.331   2.902  11.601
 2796SOL     OW 9828   0.547   2.382  12.033
 2796SOL    HW1 9829   0.561   2.443  11.961
 2796SOL    HW2 9830   0.611   2.409  12.099
 2797SOL     OW 9831   1.246   3.212  11.569
 2797SOL    HW1 9832   1.303   3.282  11.599
 2797SOL    HW2 9833   1.158   3.237  11.599
 2798SOL     OW 9834   1.293   3.308  12.319
 2798SOL    HW1 9835   1.347   3.302  12.398
 2798SOL    HW2 9836   1.233   3.234  12.327
 2799SOL     OW 9837   1.578   2.471  11.669
 2799SOL    HW1 9838   1.524   2.531  11.720
 2799SOL    HW2 9839   1.628   2.527  11.610
 2800SOL     OW 9840   0.362   3.411  12.458
 2800SOL    HW1 9841   0.343   3.354  12.384
 2800SOL    HW2 9842   0.433   3.467  12.428
 2801SOL     OW 9843   0.578   2.736  12.216
 2801SOL    HW1 9844   0.619   2.823  12.214
 2801SOL    HW2 9845   0.532   2.733  12.300
 2802SOL     OW 9846   1.330   2.718  12.184
 2802SOL    HW1 9847   1.259   2.705  12.120
 2802SOL    HW2 9848   1.384   2.640  12.177
 2803SOL     OW 9849   1.201   2.381  11.436
 2803SOL    HW1 9850   1.209   2.303  11.492
 2803SOL    HW2 9851   1.160   2.447  11.492
 2804SOL     OW 9852   0.324   2.059  12.405
 2804SOL    HW1 9853   0.266   2.111  12.460
 2804SOL    HW2 9854   0.289   1.970  12.412
 2805SOL     OW 9855   0.078   3.194  12.437
 2805SOL    HW1 9856   0.049   3.161  12.521
 2805SOL    HW2 9857   0.091   3.288  12.451
 2806SOL     OW 9858   0.717   2.488  12.220
 2806SOL    HW1 9859   0.795   2.478  12.165
 2806SOL    HW2 9860   0.688   2.578  12.204
 2807SOL     OW 9861   0.306   1.921  11.789
 2807SOL    HW1 9862   0.285   2.012  11.811
 2807SOL    HW2 9863   0.318   1.879  11.874
 2808SOL     OW 9864   1.623   2.239  11.530
 2808SOL    HW1 9865   1.654   2.171  11.590
 2808SOL    HW2 9866   1.600   2.313  11.587
 2809SOL     OW 9867   1.018   2.617  12.134
 2809SOL    HW1 9868   1.020   2.624  12.230
 2809SOL    HW2 9869   0.996   2.526  12.117
 2810SOL     OW 9870   1.533   2.125  11.298
 2810SOL    HW1 9871   1.463   2.067  11.329
 2810SOL    HW2 9872   1.565   2.167  11.378
 2811SOL     OW 9873   1.285   2.690  11.199
 2811SOL    HW1 9874   1.328   2.604  11.202
 2811SOL    HW2 9875   1.316   2.729  11.118
 2812SOL     OW 9876   1.073   3.212  12.031
 2812SOL    HW1 9877   1.080   3.138  11.970
 2812SOL    HW2 9878   1.128   3.280  11.993
 2813SOL     OW 9879   0.314   2.676  12.127
 2813SOL    HW1 9880   0.407   2.698  12.131
 2813SOL    HW2 9881   0.310   2.582  12.141
 2814SOL     OW 9882   0.312   2.401  12.160
 2814SOL    HW1 9883   0.280   2.311  12.156
 2814SOL    HW2 9884   0.397   2.399  12.116
 2815SOL     OW 9885   1.180   2.070   0.156
 2815SOL    HW1 9886   1.163   2.135   0.224
 2815SOL    HW2 9887   1.203   2.122   0.079
 2816SOL     OW 9888   7.985   3.158  11.374
 2816SOL    HW1 9889   7.899   3.185  11.407
 2816SOL    HW2 9890   7.986   3.062  11.385
 2817SOL     OW 9891   0.140   3.599  12.145
 2817SOL    HW1 9892   0.086   3.576  12.069
 2817SOL    HW2 9893   0.216   3.643  12.108
 2818SOL     OW 9894   0.501   3.447  12.078
 2818SOL    HW1 9895   0.573   3.506  12.101
 2818SOL    HW2 9896   0.541   3.384  12.018
 2819SOL     OW 9897   0.974   2.644  12.415
 2819SOL    HW1 9898   1.025   2.713  12.458
 2819SOL    HW2 9899   0.883   2.668  12.430
 2820SOL     OW 9900   0.091   2.427  12.314
 2820SOL    HW1 9901   0.178   2.426  12.275
 2820SOL    HW2 9902   0.088   2.511  12.361
 2821SOL     OW 9903   0.819   2.425  11.541
 2821SOL    HW1 9904   0.826   2.356  11.475
 2821SOL    HW2 9905   0.748   2.482  11.509
 2822SOL     OW 9906   1.649   2.456  12.337
 2822SOL    HW1 9907   1.647   2.404  12.417
 2822SOL    HW2 9908   1.739   2.450  12.306
 2823SOL     OW 9909   0.701   2.317  12.433
 2823SOL    HW1 9910   0.654   2.243  12.395
 2823SOL    HW2 9911   0.700   2.384  12.364
 2824SOL     OW 9912   0.877   3.521   0.025
 2824SOL    HW1 9913   0.901   3.554  -0.061
 2824SOL    HW2 9914   0.897   3.593   0.085
 2825SOL     OW 9915   0.472   2.353  11.339
 2825SOL    HW1 9916   0.532   2.422  11.367
 2825SOL    HW2 9917   0.393   2.400  11.312
 2826SOL     OW 9918   1.274   2.905  12.373
 2826SOL    HW1 9919   1.301   2.845  12.303
 2826SOL    HW2 9920   1.225   2.973  12.328
 2827SOL     OW 9921   1.316   2.715  11.473
 2827SOL    HW1 9922   1.239   2.679  11.518
 2827SOL    HW2 9923   1.297   2.704  11.380
 2828SOL     OW 9924   1.760   3.615  12.308
 2828SOL    HW1 9925   1.830   3.628  12.243
 2828SOL    HW2 9926   1.742   3.521  12.303
 2829SOL     OW 9927   1.251   3.578  12.291
 2829SOL    HW1 9928   1.326   3.617  12.246
 2829SOL    HW2 9929   1.267   3.484  12.287
 2830SOL     OW 9930   0.040   3.049  12.211
 2830SOL    HW1 9931   0.064   3.093  12.293
 2830SOL    HW2 9932  -0.018   3.110  12.166
 2831SOL     OW 9933   1.722   2.021  11.673
 2831SOL    HW1 9934   1.790   2.004  11.607
 2831SOL    HW2 9935   1.707   1.936  11.714
 2832SOL     OW 9936   1.397   3.429  11.672
 2832SOL    HW1 9937   1.453   3.460  11.601
 2832SOL    HW2 9938   1.343   3.505  11.695
 2833SOL     OW 9939   1.279   2.799  11.852
 2833SOL    HW1 9940   1.352   2.737  11.861
 2833SOL    HW2 9941   1.311   2.864  11.790
 2834SOL     OW 9942   0.669   3.489  11.326
 2834SOL    HW1 9943   0.686   3.505  11.233
 2834SOL    HW2 9944   0.612   3.411  11.326
 2835SOL     OW 9945   1.623   3.653   0.039
 2835SOL    HW1 9946   1.676   3.639  -0.039
 2835SOL    HW2 9947   1.657   3.734   0.077
 2836SOL     OW 9948   1.835   2.030  12.146
 2836SOL    HW1 9949   1.871   1.945  12.122
 2836SOL    HW2 9950   1.751   2.035  12.100
 2837SOL     OW 9951   0.263   2.170  11.885
 2837SOL    HW1 9952   0.177   2.204  11.860
 2837SOL    HW2 9953   0.260   2.164  11.981
 2838SOL     OW 9954   1.209   3.457  11.209
 2838SOL    HW1 9955   1.201   3.364  11.228
 2838SOL    HW2 9956   1.149   3.472  11.136
 2839SOL     OW 9957   0.792   2.874  12.484
 2839SOL    HW1 9958   0.790   2.918  12.399
 2839SOL    HW2 9959   0.873   2.905  12.526
 2840SOL     OW 9960   0.919   2.771  11.475
 2840SOL    HW1 9961   0.970   2.800  11.399
 2840SOL    HW2 9962   0.972   2.703  11.515
 2841SOL     OW 9963   1.485   3.509  11.224
 2841SOL    HW1 9964   1.394   3.487  11.205
 2841SOL    HW2 9965   1.528   3.510  11.138
 2842SOL     OW 9966   1.066   2.979  11.894
 2842SOL    HW1 9967   0.993   2.926  11.924
 2842SOL    HW2 9968   1.132   2.916  11.864
 2843SOL     OW 9969   1.036   2.116  12.114
 2843SOL    HW1 9970   1.030   2.053  12.042
 2843SOL    HW2 9971   1.030   2.063  12.193
 2844SOL     OW 9972   0.605   3.358  11.656
 2844SOL    HW1 9973   0.658   3.304  11.597
 2844SOL    HW2 9974   0.534   3.390  11.601
 2845SOL     OW 9975   1.768   2.288   0.045
 2845SOL    HW1 9976   1.859   2.311   0.029
 2845SOL    HW2 9977   1.759   2.198   0.012
 2846SOL     OW 9978   0.248   3.195  11.437
 2846SOL    HW1 9979   0.153   3.197  11.425
 2846SOL    HW2 9980   0.262   3.238  11.522
 2847SOL     OW 9981   0.103   2.204  11.188
 2847SOL    HW1 9982   0.035   2.246  11.241
 2847SOL    HW2 9983   0.124   2.269  11.120
 2848SOL     OW 9984   0.075   2.073  11.575
 2848SOL    HW1 9985   0.066   2.150  11.518
 2848SOL    HW2 9986   0.166   2.045  11.562
 2849SOL     OW 9987   1.186   3.187  11.294
 2849SOL    HW1 9988   1.093   3.163  11.290
 2849SOL    HW2 9989   1.206   3.190  11.387
 2850SOL     OW 9990   1.485   3.650  12.159
 2850SOL    HW1 9991   1.507   3.720  12.097
 2850SOL    HW2 9992   1.569   3.623  12.196
 2851SOL     OW 9993   1.685   2.730  12.411
 2851SOL    HW1 9994   1.662   2.645  12.375
 2851SOL    HW2 9995   1.656   2.793  12.345
 2852SOL     OW 9996   1.211   2.174  11.631
 2852SOL    HW1 9997   1.277   2.105  11.625
 2852SOL    HW2 9998   1.238   2.227  11.705
 2853SOL     OW 9999   0.583   2.595  11.858
 2853SOL    HW110000   0.628   2.679  11.846
 2853SOL    HW210001   0.527   2.586  11.782
 2854SOL     OW10002   1.814   2.744   0.148
 2854SOL    HW110003   1.808   2.835   0.177
 2854SOL    HW210004   1.762   2.740   0.068
 2855SOL     OW10005   0.865   3.227  11.221
 2855SOL    HW110006   0.825   3.275  11.294
 2855SOL    HW210007   0.892   3.295  11.159
 2856SOL     OW10008   0.673   3.655  12.124
 2856SOL    HW110009   0.654   3.744  12.092
 2856SOL    HW210010   0.766   3.643  12.108
 2857SOL     OW10011   0.871   2.831  12.026
 2857SOL    HW110012   0.920   2.757  12.062
 2857SOL    HW210013   0.835   2.875  12.103
 2858SOL     OW10014   1.059   2.832  11.254
 2858SOL    HW110015   1.045   2.892  11.181
 2858SOL    HW210016   1.141   2.787  11.233
 2859SOL     OW10017   1.854   3.413  12.014
 2859SOL    HW110018   1.771   3.400  11.969
 2859SOL    HW210019   1.869   3.330  12.060
 2860SOL     OW10020   0.134   3.112  11.846
 2860SOL    HW110021   0.060   3.060  11.876
 2860SOL    HW210022   0.193   3.049  11.804
 2861SOL     OW10023   1.797   2.031  12.419
 2861SOL    HW110024   1.813   1.937  12.414
 2861SOL    HW210025   1.810   2.063  12.330
 2862SOL     OW10026   0.434   2.300  11.702
 2862SOL    HW110027   0.465   2.234  11.640
 2862SOL    HW210028   0.388   2.251  11.770
 2863SOL     OW10029   1.696   3.356  12.287
 2863SOL    HW110030   1.626   3.317  12.235
 2863SOL    HW210031   1.728   3.285  12.342
 2864SOL     OW10032   0.828   3.457  11.843
 2864SOL    HW110033   0.819   3.529  11.781
 2864SOL    HW210034   0.752   3.401  11.825
 2865SOL     OW10035   1.442   2.102  12.288
 2865SOL    HW110036   1.509   2.061  12.342
 2865SOL    HW210037   1.378   2.136  12.351
 2866SOL     OW10038   0.991   1.799  12.320
 2866SOL    HW110039   0.967   1.765  12.233
 2866SOL    HW210040   1.086   1.790  12.323
 2867SOL     OW10041   0.767   3.194  11.513
 2867SOL    HW110042   0.747   3.100  11.512
 2867SOL    HW210043   0.857   3.199  11.546
 2868SOL     OW10044   1.356   1.917  11.358
 2868SOL    HW110045   1.389   1.865  11.285
 2868SOL    HW210046   1.267   1.883  11.373
 2869SOL     OW10047   1.279   2.327  11.845
 2869SOL    HW110048   1.233   2.411  11.851
 2869SOL    HW210049   1.290   2.298  11.936
 2870SOL     OW10050   1.579   2.054  12.050
 2870SOL    HW110051   1.525   2.081  12.125
 2870SOL    HW210052   1.582   2.130  11.993
 2871SOL     OW10053   0.044   2.889  11.450
 2871SOL    HW110054   0.138   2.883  11.433
 2871SOL    HW210055   0.038   2.910  11.544
 2872SOL     OW10056   0.887   3.527  11.509
 2872SOL    HW110057   0.814   3.513  11.450
 2872SOL    HW210058   0.861   3.601  11.563
 2873SOL     OW10059   0.274   4.341   0.064
 2873SOL    HW110060   0.223   4.381   0.135
 2873SOL    HW210061   0.226   4.261   0.043
 2874SOL     OW10062   0.237   3.994   0.986
 2874SOL    HW110063   0.260   3.969   1.075
 2874SOL    HW210064   0.153   3.952   0.970
 2875SOL     OW10065   8.008   4.119   0.600
 2875SOL    HW110066   7.920   4.108   0.635
 2875SOL    HW210067   8.013   4.062   0.524
 2876SOL     OW10068   0.568   5.028   1.196
 2876SOL    HW110069   0.488   5.033   1.144
 2876SOL    HW210070   0.584   5.118   1.224
 2877SOL     OW10071   1.573   5.248   0.713
 2877SOL    HW110072   1.530   5.221   0.794
 2877SOL    HW210073   1.502   5.249   0.648
 2878SOL     OW10074   1.770   4.316   0.252
 2878SOL    HW110075   1.726   4.337   0.170
 2878SOL    HW210076   1.710   4.257   0.297
 2879SOL     OW10077   0.732   4.861   1.052
 2879SOL    HW110078   0.671   4.899   1.115
 2879SOL    HW210079   0.774   4.936   1.010
 2880SOL     OW10080   0.802   4.545   1.812
 2880SOL    HW110081   0.858   4.483   1.858
 2880SOL    HW210082   0.854   4.572   1.736
 2881SOL     OW10083   0.677   4.718   0.641
 2881SOL    HW110084   0.746   4.715   0.707
 2881SOL    HW210085   0.611   4.776   0.678
 2882SOL     OW10086   0.722   4.882   1.825
 2882SOL    HW110087   0.767   4.961   1.855
 2882SOL    HW210088   0.638   4.915   1.791
 2883SOL     OW10089   0.336   5.134   1.058
 2883SOL    HW110090   0.284   5.082   0.997
 2883SOL    HW210091   0.385   5.195   1.002
 2884SOL     OW10092   1.458   5.227   1.365
 2884SOL    HW110093   1.511   5.307   1.376
 2884SOL    HW210094   1.387   5.237   1.428
 2885SOL     OW10095   0.452   4.108   1.480
 2885SOL    HW110096   0.533   4.059   1.489
 2885SOL    HW210097   0.383   4.045   1.500
 2886SOL     OW10098   1.597   4.158   0.746
 2886SOL    HW110099   1.513   4.151   0.702
 2886SOL    HW210100   1.605   4.250   0.770
 2887SOL     OW10101   0.239   5.432   0.491
 2887SOL    HW110102   0.246   5.513   0.541
 2887SOL    HW210103   0.314   5.435   0.431
 2888SOL     OW10104   1.130   5.064   1.681
 2888SOL    HW110105   1.167   5.060   1.769
 2888SOL    HW210106   1.078   4.983   1.673
 2889SOL     OW10107   0.293   5.168   0.533
 2889SOL    HW110108   0.259   5.257   0.535
 2889SOL    HW210109   0.236   5.119   0.592
 2890SOL     OW10110   0.285   4.810   0.919
 2890SOL    HW110111   0.285   4.715   0.932
 2890SOL    HW210112   0.203   4.839   0.958
 2891SOL     OW10113   0.595   5.534   1.405
 2891SOL    HW110114   0.523   5.506   1.462
 2891SOL    HW210115   0.626   5.616   1.444
 2892SOL     OW10116   0.580   4.688   0.159
 2892SOL    HW110117   0.644   4.706   0.089
 2892SOL    HW210118   0.615   4.735   0.235
 2893SOL     OW10119   1.632   3.811   1.471
 2893SOL    HW110120   1.648   3.889   1.418
 2893SOL    HW210121   1.593   3.844   1.552
 2894SOL     OW10122   0.132   4.370   0.543
 2894SOL    HW110123   0.100   4.283   0.565
 2894SOL    HW210124   0.118   4.421   0.623
 2895SOL     OW10125   1.855   5.463   0.309
 2895SOL    HW110126   1.922   5.439   0.373
 2895SOL    HW210127   1.869   5.556   0.294
 2896SOL     OW10128   0.043   5.276   0.092
 2896SOL    HW110129   0.031   5.203   0.152
 2896SOL    HW210130   0.058   5.352   0.148
 2897SOL     OW10131   1.698   4.676   0.653
 2897SOL    HW110132   1.746   4.616   0.596
 2897SOL    HW210133   1.654   4.736   0.593
 2898SOL     OW10134   1.641   4.847   0.430
 2898SOL    HW110135   1.730   4.841   0.393
 2898SOL    HW210136   1.648   4.913   0.498
 2899SOL     OW10137   0.156   4.489   1.587
 2899SOL    HW110138   0.252   4.486   1.588
 2899SOL    HW210139   0.135   4.575   1.624
 2900SOL     OW10140   0.617   5.118   0.738
 2900SOL    HW110141   0.572   5.033   0.746
 2900SOL    HW210142   0.603   5.144   0.647
 2901SOL     OW10143   1.282   4.958   1.414
 2901SOL    HW110144   1.308   4.888   1.355
 2901SOL    HW210145   1.342   4.951   1.489
 2902SOL     OW10146   0.833   3.752   0.543
 2902SOL    HW110147   0.864   3.831   0.498
 2902SOL    HW210148   0.738   3.758   0.539
 2903SOL     OW10149   0.181   4.667   1.253
 2903SOL    HW110150   0.270   4.630   1.254
 2903SOL    HW210151   0.146   4.643   1.167
 2904SOL     OW10152   1.499   4.733   0.225
 2904SOL    HW110153   1.434   4.676   0.266
 2904SOL    HW210154   1.550   4.767   0.298
 2905SOL     OW10155   1.176   5.539   1.626
 2905SOL    HW110156   1.184   5.603   1.555
 2905SOL    HW210157   1.196   5.455   1.586
 2906SOL     OW10158   0.355   3.976   1.828
 2906SOL    HW110159   0.407   4.049   1.861
 2906SOL    HW210160   0.265   4.001   1.845
 2907SOL     OW10161   1.467   5.144   0.943
 2907SOL    HW110162   1.401   5.160   1.010
 2907SOL    HW210163   1.454   5.053   0.917
 2908SOL     OW10164   1.654   5.487   0.584
 2908SOL    HW110165   1.632   5.451   0.498
 2908SOL    HW210166   1.634   5.416   0.645
 2909SOL     OW10167   0.597   4.437   0.282
 2909SOL    HW110168   0.602   4.524   0.242
 2909SOL    HW210169   0.530   4.445   0.349
 2910SOL     OW10170   1.283   4.057   0.925
 2910SOL    HW110171   1.195   4.020   0.927
 2910SOL    HW210172   1.328   4.016   0.998
 2911SOL     OW10173   1.590   5.397   0.330
 2911SOL    HW110174   1.684   5.411   0.319
 2911SOL    HW210175   1.556   5.394   0.241
 2912SOL     OW10176   0.789   4.338   1.449
 2912SOL    HW110177   0.759   4.313   1.536
 2912SOL    HW210178   0.757   4.269   1.392
 2913SOL     OW10179   1.402   4.205   1.677
 2913SOL    HW110180   1.396   4.250   1.762
 2913SOL    HW210181   1.465   4.135   1.692
 2914SOL     OW10182   0.952   4.610   1.588
 2914SOL    HW110183   1.006   4.539   1.553
 2914SOL    HW210184   0.904   4.644   1.512
 2915SOL     OW10185   0.995   4.138   1.203
 2915SOL    HW110186   0.910   4.145   1.247
 2915SOL    HW210187   0.975   4.156   1.111
 2916SOL     OW10188   1.061   4.434   0.425
 2916SOL    HW110189   1.083   4.432   0.518
 2916SOL    HW210190   0.976   4.391   0.419
 2917SOL     OW10191   0.099   4.513   0.772
 2917SOL    HW110192   0.177   4.522   0.826
 2917SOL    HW210193   0.048   4.592   0.791
 2918SOL     OW10194   0.129   5.544   1.573
 2918SOL    HW110195   0.135   5.532   1.667
 2918SOL    HW210196   0.037   5.527   1.552
 2919SOL     OW10197   0.891   4.083   0.218
 2919SOL    HW110198   0.927   4.152   0.163
 2919SOL    HW210199   0.858   4.017   0.157
 2920SOL     OW10200   1.694   4.288   1.831
 2920SOL    HW110201   1.665   4.364   1.780
 2920SOL    HW210202   1.724   4.225   1.765
 2921SOL     OW10203   1.375   4.855   0.531
 2921SOL    HW110204   1.455   4.852   0.479
 2921SOL    HW210205   1.318   4.917   0.485
 2922SOL     OW10206   0.561   3.894   0.907
 2922SOL    HW110207   0.561   3.925   0.997
 2922SOL    HW210208   0.559   3.974   0.854
 2923SOL     OW10209   0.994   5.161   0.474
 2923SOL    HW110210   0.958   5.239   0.431
 2923SOL    HW210211   0.972   5.173   0.567
 2924SOL     OW10212   0.369   5.551   0.872
 2924SOL    HW110213   0.412   5.466   0.879
 2924SOL    HW210214   0.438   5.615   0.889
 2925SOL     OW10215   1.820   4.793   0.869
 2925SOL    HW110216   1.768   4.758   0.796
 2925SOL    HW210217   1.759   4.797   0.942
 2926SOL     OW10218   1.221   5.266   1.508
 2926SOL    HW110219   1.210   5.194   1.571
 2926SOL    HW210220   1.157   5.249   1.440
 2927SOL     OW10221   0.303   4.682   0.220
 2927SOL    HW110222   0.396   4.697   0.202
 2927SOL    HW210223   0.262   4.678   0.133
 2928SOL     OW10224   1.531   4.434   0.731
 2928SOL    HW110225   1.466   4.418   0.800
 2928SOL    HW210226   1.546   4.528   0.734
 2929SOL     OW10227   0.469   4.996   1.752
 2929SOL    HW110228   0.448   4.998   1.659
 2929SOL    HW210229   0.386   4.976   1.795
 2930SOL     OW10230   1.075   5.509   0.232
 2930SOL    HW110231   1.031   5.459   0.301
 2930SOL    HW210232   1.136   5.447   0.192
 2931SOL     OW10233   0.184   3.994   1.501
 2931SOL    HW110234   0.170   4.077   1.547
 2931SOL    HW210235   0.162   3.927   1.566
 2932SOL     OW10236   1.655   5.134   0.083
 2932SOL    HW110237   1.589   5.198   0.056
 2932SOL    HW210238   1.608   5.051   0.084
 2933SOL     OW10239   0.458   5.461   0.328
 2933SOL    HW110240   0.508   5.518   0.387
 2933SOL    HW210241   0.524   5.417   0.275
 2934SOL     OW10242   1.396   3.812   0.444
 2934SOL    HW110243   1.392   3.787   0.352
 2934SOL    HW210244   1.490   3.818   0.463
 2935SOL     OW10245   0.232   5.514   1.222
 2935SOL    HW110246   0.292   5.443   1.244
 2935SOL    HW210247   0.198   5.491   1.135
 2936SOL     OW10248   0.942   5.424   0.893
 2936SOL    HW110249   1.023   5.376   0.914
 2936SOL    HW210250   0.902   5.373   0.823
 2937SOL     OW10251   0.401   4.415   0.476
 2937SOL    HW110252   0.425   4.323   0.485
 2937SOL    HW210253   0.310   4.419   0.504
 2938SOL     OW10254   1.525   3.939   1.716
 2938SOL    HW110255   1.535   3.952   1.810
 2938SOL    HW210256   1.439   3.898   1.706
 2939SOL     OW10257   0.647   3.848   0.119
 2939SOL    HW110258   0.737   3.819   0.114
 2939SOL    HW210259   0.628   3.884   0.033
 2940SOL     OW10260   0.762   3.959   1.752
 2940SOL    HW110261   0.848   3.917   1.755
 2940SOL    HW210262   0.778   4.047   1.786
 2941SOL     OW10263   0.869   5.249   1.199
 2941SOL    HW110264   0.854   5.209   1.113
 2941SOL    HW210265   0.939   5.196   1.238
 2942SOL     OW10266   1.339   4.309   1.431
 2942SOL    HW110267   1.372   4.281   1.516
 2942SOL    HW210268   1.374   4.397   1.419
 2943SOL     OW10269   0.817   5.109   0.953
 2943SOL    HW110270   0.903   5.099   0.912
 2943SOL    HW210271   0.757   5.119   0.880
 2944SOL     OW10272   0.955   4.162   0.906
 2944SOL    HW110273   0.899   4.158   0.828
 2944SOL    HW210274   1.011   4.239   0.891
 2945SOL     OW10275   0.564   3.782   0.500
 2945SOL    HW110276   0.485   3.783   0.554
 2945SOL    HW210277   0.554   3.857   0.442
 2946SOL     OW10278   1.464   4.941   0.052
 2946SOL    HW110279   1.477   4.861   0.102
 2946SOL    HW210280   1.372   4.964   0.064
 2947SOL     OW10281   0.295   3.822   0.209
 2947SOL    HW110282   0.372   3.878   0.210
 2947SOL    HW210283   0.327   3.736   0.236
 2948SOL     OW10284   0.960   3.978   0.461
 2948SOL    HW110285   0.928   4.014   0.378
 2948SOL    HW210286   1.053   3.998   0.462
 2949SOL     OW10287   1.084   4.405   1.464
 2949SOL    HW110288   1.022   4.337   1.491
 2949SOL    HW210289   1.168   4.361   1.458
 2950SOL     OW10290   1.213   5.302   0.798
 2950SOL    HW110291   1.227   5.366   0.728
 2950SOL    HW210292   1.283   5.319   0.861
 2951SOL     OW10293   0.472   4.882   0.728
 2951SOL    HW110294   0.410   4.861   0.798
 2951SOL    HW210295   0.422   4.869   0.647
 2952SOL     OW10296   1.256   5.514   0.615
 2952SOL    HW110297   1.307   5.578   0.563
 2952SOL    HW210298   1.185   5.566   0.653
 2953SOL     OW10299   1.019   4.275   0.072
 2953SOL    HW110300   1.008   4.354   0.019
 2953SOL    HW210301   1.091   4.296   0.132
 2954SOL     OW10302   0.098   4.339   1.371
 2954SOL    HW110303   0.188   4.313   1.348
 2954SOL    HW210304   0.108   4.391   1.450
 2955SOL     OW10305   0.557   3.951   1.178
 2955SOL    HW110306   0.602   3.894   1.240
 2955SOL    HW210307   0.465   3.947   1.204
 2956SOL     OW10308   0.841   4.149   0.653
 2956SOL    HW110309   0.811   4.228   0.610
 2956SOL    HW210310   0.879   4.095   0.583
 2957SOL     OW10311   1.456   4.886   0.853
 2957SOL    HW110312   1.392   4.817   0.836
 2957SOL    HW210313   1.496   4.902   0.767
 2958SOL     OW10314   1.441   4.334   0.986
 2958SOL    HW110315   1.393   4.251   0.984
 2958SOL    HW210316   1.507   4.322   1.054
 2959SOL     OW10317   1.817   4.546   0.433
 2959SOL    HW110318   1.870   4.478   0.475
 2959SOL    HW210319   1.789   4.505   0.351
 2960SOL     OW10320   0.490   5.128   0.158
 2960SOL    HW110321   0.429   5.076   0.210
 2960SOL    HW210322   0.434   5.176   0.097
 2961SOL     OW10323   1.673   5.001   0.646
 2961SOL    HW110324   1.768   5.002   0.658
 2961SOL    HW210325   1.646   5.091   0.665
 2962SOL     OW10326   1.398   4.269   0.084
 2962SOL    HW110327   1.343   4.267   0.162
 2962SOL    HW210328   1.448   4.188   0.087
 2963SOL     OW10329   0.523   3.978   0.318
 2963SOL    HW110330   0.576   3.933   0.253
 2963SOL    HW210331   0.505   4.064   0.279
 2964SOL     OW10332   1.742   4.966   1.553
 2964SOL    HW110333   1.822   4.919   1.577
 2964SOL    HW210334   1.760   5.057   1.575
 2965SOL     OW10335   1.050   5.086   1.338
 2965SOL    HW110336   0.975   5.050   1.385
 2965SOL    HW210337   1.125   5.039   1.374
 2966SOL     OW10338   1.607   5.352   1.659
 2966SOL    HW110339   1.600   5.388   1.571
 2966SOL    HW210340   1.688   5.300   1.657
 2967SOL     OW10341   1.145   4.951   1.103
 2967SOL    HW110342   1.075   4.978   1.162
 2967SOL    HW210343   1.115   4.979   1.016
 2968SOL     OW10344   1.633   4.824   1.073
 2968SOL    HW110345   1.622   4.886   1.144
 2968SOL    HW210346   1.557   4.836   1.017
 2969SOL     OW10347   0.920   3.815   1.390
 2969SOL    HW110348   0.940   3.801   1.298
 2969SOL    HW210349   0.999   3.853   1.427
 2970SOL     OW10350   0.980   4.836   1.729
 2970SOL    HW110351   0.889   4.847   1.757
 2970SOL    HW210352   0.979   4.757   1.675
 2971SOL     OW10353   0.714   4.790   0.377
 2971SOL    HW110354   0.699   4.766   0.468
 2971SOL    HW210355   0.792   4.740   0.352
 2972SOL     OW10356   0.425   4.547   1.261
 2972SOL    HW110357   0.493   4.559   1.327
 2972SOL    HW210358   0.397   4.456   1.271
 2973SOL     OW10359   1.256   4.095   1.279
 2973SOL    HW110360   1.287   4.174   1.325
 2973SOL    HW210361   1.168   4.117   1.251
 2974SOL     OW10362   0.067   5.280   1.314
 2974SOL    HW110363   0.058   5.375   1.304
 2974SOL    HW210364   0.162   5.266   1.324
 2975SOL     OW10365   0.325   4.829   0.495
 2975SOL    HW110366   0.317   4.899   0.430
 2975SOL    HW210367   0.345   4.751   0.444
 2976SOL     OW10368   0.557   4.253   0.865
 2976SOL    HW110369   0.564   4.310   0.789
 2976SOL    HW210370   0.628   4.280   0.922
 2977SOL     OW10371   1.242   5.072   0.395
 2977SOL    HW110372   1.298   5.142   0.430
 2977SOL    HW210373   1.155   5.093   0.428
 2978SOL     OW10374   1.295   5.188   1.146
 2978SOL    HW110375   1.345   5.189   1.228
 2978SOL    HW210376   1.242   5.108   1.152
 2979SOL     OW10377   1.567   4.332   0.480
 2979SOL    HW110378   1.546   4.359   0.569
 2979SOL    HW210379   1.569   4.414   0.430
 2980SOL     OW10380   0.338   5.234   1.308
 2980SOL    HW110381   0.336   5.197   1.219
 2980SOL    HW210382   0.430   5.259   1.320
 2981SOL     OW10383   0.434   4.448   1.617
 2981SOL    HW110384   0.487   4.498   1.555
 2981SOL    HW210385   0.494   4.382   1.652
 2982SOL     OW10386   1.618   4.507   1.689
 2982SOL    HW110387   1.530   4.545   1.683
 2982SOL    HW210388   1.667   4.549   1.618
 2983SOL     OW10389   1.012   3.853   1.766
 2983SOL    HW110390   1.062   3.932   1.745
 2983SOL    HW210391   1.067   3.781   1.733
 2984SOL     OW10392   0.494   3.750   1.748
 2984SOL    HW110393   0.447   3.704   1.678
 2984SOL    HW210394   0.446   3.831   1.761
 2985SOL     OW10395   0.580   4.602   1.038
 2985SOL    HW110396   0.622   4.688   1.039
 2985SOL    HW210397   0.527   4.601   1.117
 2986SOL     OW10398   1.351   4.592   1.010
 2986SOL    HW110399   1.315   4.609   0.923
 2986SOL    HW210400   1.376   4.499   1.007
 2987SOL     OW10401   1.210   4.250   0.284
 2987SOL    HW110402   1.225   4.178   0.345
 2987SOL    HW210403   1.166   4.317   0.335
 2988SOL     OW10404   0.294   3.920   1.251
 2988SOL    HW110405   0.254   3.951   1.333
 2988SOL    HW210406   0.275   3.826   1.250
 2989SOL     OW10407   0.726   4.368   1.050
 2989SOL    HW110408   0.811   4.392   1.013
 2989SOL    HW210409   0.674   4.448   1.044
 2990SOL     OW10410   1.743   4.686   1.861
 2990SOL    HW110411   1.700   4.617   1.811
 2990SOL    HW210412   1.683   4.705   1.932
 2991SOL     OW10413   0.325   3.799   0.630
 2991SOL    HW110414   0.293   3.888   0.646
 2991SOL    HW210415   0.328   3.759   0.717
 2992SOL     OW10416   1.616   4.092   0.366
 2992SOL    HW110417   1.649   4.029   0.430
 2992SOL    HW210418   1.588   4.167   0.418
 2993SOL     OW10419   0.961   4.477   0.958
 2993SOL    HW110420   1.010   4.499   1.037
 2993SOL    HW210421   1.027   4.462   0.891
 2994SOL     OW10422   0.977   5.290   1.718
 2994SOL    HW110423   0.960   5.335   1.635
 2994SOL    HW210424   1.018   5.208   1.692
 2995SOL     OW10425   1.847   5.219   1.599
 2995SOL    HW110426   1.871   5.254   1.514
 2995SOL    HW210427   1.924   5.234   1.654
 2996SOL     OW10428   0.372   4.674   1.788
 2996SOL    HW110429   0.439   4.688   1.854
 2996SOL    HW210430   0.395   4.591   1.747
 2997SOL     OW10431   1.504   4.012   0.131
 2997SOL    HW110432   1.461   3.928   0.149
 2997SOL    HW210433   1.547   4.036   0.213
 2998SOL     OW10434   1.289   4.528   0.055
 2998SOL    HW110435   1.340   4.448   0.045
 2998SOL    HW210436   1.330   4.590  -0.005
 2999SOL     OW10437   1.068   5.069   0.860
 2999SOL    HW110438   1.073   4.996   0.798
 2999SOL    HW210439   1.125   5.137   0.823
 3000SOL     OW10440   0.320   4.528   0.940
 3000SOL    HW110441   0.413   4.550   0.942
 3000SOL    HW210442   0.316   4.439   0.974
 3001SOL     OW10443   0.337   4.245   1.017
 3001SOL    HW110444   0.301   4.158   0.999
 3001SOL    HW210445   0.415   4.251   0.962
 3002SOL     OW10446   1.156   4.078   1.676
 3002SOL    HW110447   1.091   4.129   1.725
 3002SOL    HW210448   1.235   4.131   1.677
 3003SOL     OW10449   1.168   3.909   1.464
 3003SOL    HW110450   1.161   3.968   1.539
 3003SOL    HW210451   1.203   3.963   1.394
 3004SOL     OW10452   7.999   5.054   0.244
 3004SOL    HW110453   7.904   5.066   0.249
 3004SOL    HW210454   8.013   4.960   0.255
 3005SOL     OW10455   0.132   5.467   0.970
 3005SOL    HW110456   0.097   5.410   0.902
 3005SOL    HW210457   0.210   5.507   0.931
 3006SOL     OW10458   0.492   5.300   0.908
 3006SOL    HW110459   0.563   5.360   0.931
 3006SOL    HW210460   0.532   5.239   0.846
 3007SOL     OW10461   0.981   4.525   1.239
 3007SOL    HW110462   1.037   4.495   1.311
 3007SOL    HW210463   0.899   4.476   1.250
 3008SOL     OW10464   0.074   4.270   1.110
 3008SOL    HW110465   0.168   4.268   1.094
 3008SOL    HW210466   0.066   4.290   1.204
 3009SOL     OW10467   0.201   4.229   1.667
 3009SOL    HW110468   0.293   4.234   1.642
 3009SOL    HW210469   0.166   4.317   1.650
 3010SOL     OW10470   1.386   4.651   1.656
 3010SOL    HW110471   1.406   4.745   1.648
 3010SOL    HW210472   1.376   4.621   1.566
 3011SOL     OW10473   0.822   4.302   0.382
 3011SOL    HW110474   0.827   4.226   0.324
 3011SOL    HW210475   0.747   4.352   0.349
 3012SOL     OW10476   1.640   4.321   1.180
 3012SOL    HW110477   1.633   4.263   1.255
 3012SOL    HW210478   1.728   4.305   1.145
 3013SOL     OW10479   0.294   5.262   1.728
 3013SOL    HW110480   0.255   5.333   1.778
 3013SOL    HW210481   0.292   5.187   1.786
 3014SOL     OW10482   0.715   4.173   1.245
 3014SOL    HW110483   0.656   4.103   1.217
 3014SOL    HW210484   0.710   4.238   1.174
 3015SOL     OW10485   0.908   5.406   1.475
 3015SOL    HW110486   0.888   5.362   1.392
 3015SOL    HW210487   0.907   5.499   1.454
 3016SOL     OW10488   0.476   4.207   0.192
 3016SOL    HW110489   0.532   4.281   0.217
 3016SOL    HW210490   0.406   4.248   0.140
 3017SOL     OW10491   0.148   4.861   1.438
 3017SOL    HW110492   0.142   4.816   1.522
 3017SOL    HW210493   0.161   4.790   1.374
 3018SOL     OW10494   1.317   4.766   1.213
 3018SOL    HW110495   1.334   4.701   1.145
 3018SOL    HW210496   1.256   4.828   1.174
 3019SOL     OW10497   1.304   4.569   0.327
 3019SOL    HW110498   1.229   4.533   0.374
 3019SOL    HW210499   1.289   4.544   0.236
 3020SOL     OW10500   1.770   5.451   1.155
 3020SOL    HW110501   1.836   5.478   1.091
 3020SOL    HW210502   1.747   5.362   1.130
 3021SOL     OW10503   1.239   5.456   1.098
 3021SOL    HW110504   1.324   5.482   1.061
 3021SOL    HW210505   1.250   5.364   1.121
 3022SOL     OW10506   8.028   4.921   1.007
 3022SOL    HW110507   7.953   4.969   1.042
 3022SOL    HW210508   8.010   4.913   0.913
 3023SOL     OW10509   0.685   5.398   1.746
 3023SOL    HW110510   0.626   5.473   1.734
 3023SOL    HW210511   0.760   5.418   1.690
 3024SOL     OW10512   0.917   3.798   0.094
 3024SOL    HW110513   0.942   3.814   0.003
 3024SOL    HW210514   0.995   3.821   0.145
 3025SOL     OW10515   1.730   3.883   0.513
 3025SOL    HW110516   1.796   3.859   0.447
 3025SOL    HW210517   1.706   3.800   0.553
 3026SOL     OW10518   1.392   5.291   0.501
 3026SOL    HW110519   1.453   5.325   0.435
 3026SOL    HW210520   1.340   5.367   0.527
 3027SOL     OW10521   0.168   5.471   1.845
 3027SOL    HW110522   0.105   5.421   1.896
 3027SOL    HW210523   0.212   5.528   1.908
 3028SOL     OW10524   1.303   4.681   0.737
 3028SOL    HW110525   1.262   4.598   0.716
 3028SOL    HW210526   1.324   4.720   0.652
 3029SOL     OW10527   0.798   5.003   1.421
 3029SOL    HW110528   0.771   5.044   1.503
 3029SOL    HW210529   0.723   5.015   1.362
 3030SOL     OW10530   0.665   5.334   0.197
 3030SOL    HW110531   0.724   5.340   0.122
 3030SOL    HW210532   0.616   5.252   0.182
 3031SOL     OW10533   1.615   5.454   1.392
 3031SOL    HW110534   1.665   5.459   1.311
 3031SOL    HW210535   1.601   5.546   1.417
 3032SOL     OW10536   1.837   3.891   0.972
 3032SOL    HW110537   1.867   3.803   0.948
 3032SOL    HW210538   1.752   3.899   0.930
 3033SOL     OW10539   0.256   4.048   0.710
 3033SOL    HW110540   0.169   4.080   0.686
 3033SOL    HW210541   0.253   4.039   0.805
 3034SOL     OW10542   1.202   5.330   0.073
 3034SOL    HW110543   1.198   5.236   0.090
 3034SOL    HW210544   1.158   5.341  -0.011
 3035SOL     OW10545   0.822   4.730   1.380
 3035SOL    HW110546   0.876   4.715   1.302
 3035SOL    HW210547   0.821   4.825   1.390
 3036SOL     OW10548   0.929   4.652   0.294
 3036SOL    HW110549   0.987   4.675   0.221
 3036SOL    HW210550   0.976   4.583   0.340
 3037SOL     OW10551   1.463   5.305   0.012
 3037SOL    HW110552   1.374   5.330   0.037
 3037SOL    HW210553   1.512   5.387   0.012
 3038SOL     OW10554   0.379   5.017   1.499
 3038SOL    HW110555   0.370   5.092   1.439
 3038SOL    HW210556   0.310   4.956   1.471
 3039SOL     OW10557   1.619   5.019   1.282
 3039SOL    HW110558   1.665   4.992   1.361
 3039SOL    HW210559   1.554   5.082   1.312
 3040SOL     OW10560   1.060   4.840   0.719
 3040SOL    HW110561   0.986   4.789   0.751
 3040SOL    HW210562   1.133   4.778   0.714
 3041SOL     OW10563   1.024   3.898   0.905
 3041SOL    HW110564   0.990   3.987   0.916
 3041SOL    HW210565   1.014   3.858   0.991
 3042SOL     OW10566   0.608   5.203   0.482
 3042SOL    HW110567   0.649   5.162   0.406
 3042SOL    HW210568   0.518   5.221   0.454
 3043SOL     OW10569   1.735   4.116   1.384
 3043SOL    HW110570   1.808   4.178   1.384
 3043SOL    HW210571   1.763   4.046   1.326
 3044SOL     OW10572   0.279   5.029   0.307
 3044SOL    HW110573   0.189   5.041   0.275
 3044SOL    HW210574   0.285   5.086   0.383
 3045SOL     OW10575   0.126   4.740   1.685
 3045SOL    HW110576   0.069   4.793   1.741
 3045SOL    HW210577   0.207   4.730   1.735
 3046SOL     OW10578   0.675   3.913   1.494
 3046SOL    HW110579   0.762   3.896   1.457
 3046SOL    HW210580   0.691   3.929   1.587
 3047SOL     OW10581   0.132   4.106   0.017
 3047SOL    HW110582   0.055   4.107   0.074
 3047SOL    HW210583   0.100   4.139  -0.067
 3048SOL     OW10584   1.420   4.578   1.393
 3048SOL    HW110585   1.367   4.636   1.339
 3048SOL    HW210586   1.507   4.580   1.354
 3049SOL     OW10587   0.071   3.963   0.362
 3049SOL    HW110588   0.029   4.014   0.293
 3049SOL    HW210589   0.152   3.932   0.322
 3050SOL     OW10590   1.195   5.057   0.117
 3050SOL    HW110591   1.100   5.051   0.106
 3050SOL    HW210592   1.208   5.049   0.211
 3051SOL     OW10593   0.623   4.554   1.443
 3051SOL    HW110594   0.680   4.630   1.429
 3051SOL    HW210595   0.682   4.479   1.446
 3052SOL     OW10596   1.487   5.517   0.989
 3052SOL    HW110597   1.508   5.587   0.928
 3052SOL    HW210598   1.570   5.493   1.028
 3053SOL     OW10599   0.688   4.320   1.705
 3053SOL    HW110600   0.699   4.408   1.741
 3053SOL    HW210601   0.760   4.270   1.743
 3054SOL     OW10602   1.472   4.914   1.621
 3054SOL    HW110603   1.460   4.931   1.714
 3054SOL    HW210604   1.563   4.937   1.604
 3055SOL     OW10605   0.386   5.458   1.560
 3055SOL    HW110606   0.297   5.491   1.544
 3055SOL    HW210607   0.373   5.376   1.606
 3056SOL     OW10608   1.659   4.600   1.250
 3056SOL    HW110609   1.652   4.514   1.208
 3056SOL    HW210610   1.649   4.663   1.179
 3057SOL     OW10611   1.229   4.035   0.457
 3057SOL    HW110612   1.288   3.960   0.447
 3057SOL    HW210613   1.262   4.081   0.534
 3058SOL     OW10614   0.585   4.455   0.679
 3058SOL    HW110615   0.626   4.540   0.666
 3058SOL    HW210616   0.523   4.447   0.606
 3059SOL     OW10617   1.753   4.079   1.656
 3059SOL    HW110618   1.743   4.100   1.563
 3059SOL    HW210619   1.679   4.022   1.676
 3060SOL     OW10620   1.749   4.658   1.502
 3060SOL    HW110621   1.729   4.751   1.511
 3060SOL    HW210622   1.727   4.637   1.411
 3061SOL     OW10623   0.923   5.093   0.066
 3061SOL    HW110624   0.865   5.074   0.139
 3061SOL    HW210625   0.903   5.184   0.042
 3062SOL     OW10626   0.671   5.501   0.939
 3062SOL    HW110627   0.656   5.593   0.919
 3062SOL    HW210628   0.766   5.489   0.929
 3063SOL     OW10629   0.854   4.708   0.850
 3063SOL    HW110630   0.884   4.623   0.881
 3063SOL    HW210631   0.816   4.750   0.927
 3064SOL     OW10632   1.085   4.710   0.070
 3064SOL    HW110633   1.126   4.785   0.026
 3064SOL    HW210634   1.155   4.646   0.078
 3065SOL     OW10635   1.847   5.275   0.851
 3065SOL    HW110636   1.776   5.267   0.786
 3065SOL    HW210637   1.813   5.231   0.929
 3066SOL     OW10638   0.214   5.022   1.862
 3066SOL    HW110639   0.121   5.002   1.849
 3066SOL    HW210640   0.224   5.028   1.957
 3067SOL     OW10641   0.151   4.977   0.671
 3067SOL    HW110642   0.069   4.934   0.694
 3067SOL    HW210643   0.201   4.909   0.624
 3068SOL     OW10644   0.685   5.136   1.635
 3068SOL    HW110645   0.607   5.096   1.672
 3068SOL    HW210646   0.685   5.225   1.670
 3069SOL     OW10647   1.824   3.904   1.244
 3069SOL    HW110648   1.908   3.860   1.258
 3069SOL    HW210649   1.815   3.909   1.149
 3070SOL     OW10650   0.435   4.155   0.526
 3070SOL    HW110651   0.464   4.083   0.470
 3070SOL    HW210652   0.381   4.114   0.593
 3071SOL     OW10653   1.701   5.197   1.077
 3071SOL    HW110654   1.619   5.183   1.030
 3071SOL    HW210655   1.698   5.135   1.150
 3072SOL     OW10656   0.353   4.285   1.296
 3072SOL    HW110657   0.399   4.225   1.355
 3072SOL    HW210658   0.371   4.251   1.208
 3073SOL     OW10659   0.831   5.300   0.679
 3073SOL    HW110660   0.811   5.357   0.605
 3073SOL    HW210661   0.757   5.240   0.684
 3074SOL     OW10662   1.431   3.953   1.128
 3074SOL    HW110663   1.453   3.874   1.178
 3074SOL    HW210664   1.378   4.005   1.187
 3075SOL     OW10665   1.007   3.726   1.136
 3075SOL    HW110666   0.949   3.651   1.129
 3075SOL    HW210667   1.095   3.689   1.131
 3076SOL     OW10668   0.790   5.048   0.308
 3076SOL    HW110669   0.756   4.961   0.328
 3076SOL    HW210670   0.862   5.061   0.370
 3077SOL     OW10671   0.612   5.287   1.285
 3077SOL    HW110672   0.612   5.374   1.326
 3077SOL    HW210673   0.702   5.277   1.252
 3078SOL     OW10674   1.374   3.770   0.177
 3078SOL    HW110675   1.378   3.711   0.102
 3078SOL    HW210676   1.285   3.804   0.176
 3079SOL     OW10677   1.325   4.160   0.678
 3079SOL    HW110678   1.280   4.244   0.679
 3079SOL    HW210679   1.310   4.124   0.766
 3080SOL     OW10680   1.576   3.914   0.890
 3080SOL    HW110681   1.527   3.944   0.966
 3080SOL    HW210682   1.582   3.991   0.834
 3081SOL     OW10683   0.051   4.795   0.283
 3081SOL    HW110684   0.138   4.758   0.273
 3081SOL    HW210685   0.019   4.760   0.366
 3082SOL     OW10686   0.874   5.382   0.373
 3082SOL    HW110687   0.795   5.365   0.322
 3082SOL    HW210688   0.855   5.463   0.420
 3083SOL     OW10689   0.237   4.424   1.946
 3083SOL    HW110690   0.197   4.379   2.020
 3083SOL    HW210691   0.249   4.355   1.880
 3084SOL     OW10692   0.236   3.991   2.843
 3084SOL    HW110693   0.257   3.963   2.932
 3084SOL    HW210694   0.150   3.953   2.826
 3085SOL     OW10695   8.009   4.119   2.462
 3085SOL    HW110696   7.923   4.107   2.502
 3085SOL    HW210697   8.009   4.060   2.386
 3086SOL     OW10698   0.576   5.026   3.059
 3086SOL    HW110699   0.487   5.026   3.023
 3086SOL    HW210700   0.590   5.115   3.090
 3087SOL     OW10701   1.584   5.231   2.580
 3087SOL    HW110702   1.538   5.218   2.663
 3087SOL    HW210703   1.520   5.275   2.524
 3088SOL     OW10704   1.139   4.428   2.553
 3088SOL    HW110705   1.186   4.511   2.543
 3088SOL    HW210706   1.089   4.438   2.634
 3089SOL     OW10707   1.802   4.328   2.073
 3089SOL    HW110708   1.764   4.320   1.985
 3089SOL    HW210709   1.771   4.250   2.119
 3090SOL     OW10710   0.739   4.861   2.911
 3090SOL    HW110711   0.675   4.896   2.973
 3090SOL    HW210712   0.780   4.938   2.872
 3091SOL     OW10713   0.878   4.482   3.692
 3091SOL    HW110714   0.878   4.543   3.766
 3091SOL    HW210715   0.902   4.534   3.616
 3092SOL     OW10716   0.692   4.720   2.506
 3092SOL    HW110717   0.759   4.719   2.574
 3092SOL    HW210718   0.623   4.776   2.542
 3093SOL     OW10719   0.714   4.876   3.678
 3093SOL    HW110720   0.755   4.955   3.713
 3093SOL    HW210721   0.631   4.907   3.642
 3094SOL     OW10722   0.339   5.127   2.934
 3094SOL    HW110723   0.265   5.082   2.892
 3094SOL    HW210724   0.375   5.184   2.866
 3095SOL     OW10725   1.476   5.224   3.222
 3095SOL    HW110726   1.529   5.303   3.221
 3095SOL    HW210727   1.442   5.218   3.311
 3096SOL     OW10728   0.462   4.097   3.323
 3096SOL    HW110729   0.536   4.042   3.349
 3096SOL    HW210730   0.385   4.052   3.357
 3097SOL     OW10731   1.598   4.154   2.598
 3097SOL    HW110732   1.516   4.173   2.552
 3097SOL    HW210733   1.619   4.236   2.644
 3098SOL     OW10734   0.233   5.420   2.342
 3098SOL    HW110735   0.233   5.503   2.390
 3098SOL    HW210736   0.300   5.431   2.274
 3099SOL     OW10737   1.131   5.069   3.568
 3099SOL    HW110738   1.174   5.059   3.653
 3099SOL    HW210739   1.077   4.991   3.558
 3100SOL     OW10740   0.308   5.159   2.374
 3100SOL    HW110741   0.277   5.249   2.383
 3100SOL    HW210742   0.252   5.108   2.433
 3101SOL     OW10743   0.285   4.808   2.751
 3101SOL    HW110744   0.276   4.719   2.786
 3101SOL    HW210745   0.218   4.858   2.796
 3102SOL     OW10746   0.630   5.507   3.318
 3102SOL    HW110747   0.540   5.489   3.346
 3102SOL    HW210748   0.640   5.601   3.329
 3103SOL     OW10749   0.569   4.708   2.005
 3103SOL    HW110750   0.633   4.727   1.936
 3103SOL    HW210751   0.610   4.741   2.085
 3104SOL     OW10752   1.573   3.847   3.317
 3104SOL    HW110753   1.636   3.907   3.278
 3104SOL    HW210754   1.562   3.878   3.406
 3105SOL     OW10755   0.137   4.360   2.407
 3105SOL    HW110756   0.098   4.278   2.436
 3105SOL    HW210757   0.122   4.420   2.481
 3106SOL     OW10758   1.844   5.469   2.192
 3106SOL    HW110759   1.916   5.447   2.250
 3106SOL    HW210760   1.855   5.563   2.174
 3107SOL     OW10761   0.019   5.305   2.001
 3107SOL    HW110762  -0.000   5.212   1.990
 3107SOL    HW210763   0.006   5.321   2.095
 3108SOL     OW10764   1.693   4.629   2.515
 3108SOL    HW110765   1.782   4.601   2.536
 3108SOL    HW210766   1.699   4.666   2.427
 3109SOL     OW10767   1.648   4.834   2.293
 3109SOL    HW110768   1.735   4.831   2.254
 3109SOL    HW210769   1.660   4.885   2.374
 3110SOL     OW10770   0.150   4.493   3.447
 3110SOL    HW110771   0.245   4.483   3.452
 3110SOL    HW210772   0.133   4.578   3.488
 3111SOL     OW10773   0.625   5.118   2.601
 3111SOL    HW110774   0.579   5.034   2.607
 3111SOL    HW210775   0.607   5.148   2.512
 3112SOL     OW10776   1.288   4.959   3.279
 3112SOL    HW110777   1.321   4.892   3.220
 3112SOL    HW210778   1.345   4.953   3.356
 3113SOL     OW10779   0.823   3.728   2.391
 3113SOL    HW110780   0.863   3.812   2.366
 3113SOL    HW210781   0.729   3.745   2.389
 3114SOL     OW10782   0.181   4.655   3.119
 3114SOL    HW110783   0.275   4.635   3.117
 3114SOL    HW210784   0.139   4.576   3.086
 3115SOL     OW10785   1.537   4.730   2.061
 3115SOL    HW110786   1.470   4.671   2.094
 3115SOL    HW210787   1.581   4.762   2.140
 3116SOL     OW10788   0.359   3.998   3.663
 3116SOL    HW110789   0.405   4.061   3.718
 3116SOL    HW210790   0.267   4.007   3.688
 3117SOL     OW10791   1.430   5.153   2.791
 3117SOL    HW110792   1.387   5.167   2.876
 3117SOL    HW210793   1.429   5.058   2.779
 3118SOL     OW10794   1.650   5.489   2.437
 3118SOL    HW110795   1.639   5.443   2.353
 3118SOL    HW210796   1.677   5.421   2.498
 3119SOL     OW10797   0.592   4.432   2.129
 3119SOL    HW110798   0.595   4.515   2.083
 3119SOL    HW210799   0.530   4.447   2.201
 3120SOL     OW10800   1.288   4.105   2.800
 3120SOL    HW110801   1.200   4.067   2.799
 3120SOL    HW210802   1.337   4.050   2.860
 3121SOL     OW10803   1.581   5.383   2.173
 3121SOL    HW110804   1.672   5.411   2.167
 3121SOL    HW210805   1.552   5.374   2.082
 3122SOL     OW10806   0.793   4.340   3.308
 3122SOL    HW110807   0.767   4.317   3.397
 3122SOL    HW210808   0.756   4.271   3.253
 3123SOL     OW10809   1.393   4.189   3.543
 3123SOL    HW110810   1.400   4.238   3.625
 3123SOL    HW210811   1.449   4.113   3.555
 3124SOL     OW10812   0.951   4.610   3.450
 3124SOL    HW110813   1.009   4.545   3.411
 3124SOL    HW210814   0.903   4.647   3.376
 3125SOL     OW10815   0.981   4.104   3.089
 3125SOL    HW110816   0.898   4.133   3.127
 3125SOL    HW210817   0.981   4.139   3.000
 3126SOL     OW10818   1.058   4.425   2.280
 3126SOL    HW110819   1.074   4.418   2.374
 3126SOL    HW210820   0.975   4.381   2.266
 3127SOL     OW10821   0.097   4.510   2.637
 3127SOL    HW110822   0.178   4.519   2.687
 3127SOL    HW210823   0.042   4.583   2.667
 3128SOL     OW10824   0.124   5.531   3.425
 3128SOL    HW110825   0.140   5.512   3.517
 3128SOL    HW210826   0.030   5.549   3.420
 3129SOL     OW10827   0.908   4.046   2.076
 3129SOL    HW110828   0.921   4.117   2.013
 3129SOL    HW210829   0.925   3.966   2.026
 3130SOL     OW10830   1.682   4.287   3.698
 3130SOL    HW110831   1.651   4.359   3.643
 3130SOL    HW210832   1.715   4.222   3.636
 3131SOL     OW10833   1.358   4.903   2.336
 3131SOL    HW110834   1.453   4.895   2.328
 3131SOL    HW210835   1.323   4.834   2.280
 3132SOL     OW10836   0.554   3.893   2.767
 3132SOL    HW110837   0.553   3.923   2.858
 3132SOL    HW210838   0.549   3.973   2.715
 3133SOL     OW10839   1.037   5.189   2.356
 3133SOL    HW110840   1.007   5.247   2.286
 3133SOL    HW210841   0.981   5.210   2.430
 3134SOL     OW10842   0.354   5.547   2.720
 3134SOL    HW110843   0.396   5.463   2.736
 3134SOL    HW210844   0.418   5.612   2.750
 3135SOL     OW10845   1.794   4.767   2.754
 3135SOL    HW110846   1.743   4.766   2.672
 3135SOL    HW210847   1.728   4.778   2.823
 3136SOL     OW10848   1.226   5.239   3.373
 3136SOL    HW110849   1.212   5.173   3.441
 3136SOL    HW210850   1.215   5.191   3.291
 3137SOL     OW10851   0.300   4.667   2.096
 3137SOL    HW110852   0.388   4.691   2.067
 3137SOL    HW210853   0.278   4.590   2.044
 3138SOL     OW10854   1.483   4.468   2.578
 3138SOL    HW110855   1.481   4.433   2.667
 3138SOL    HW210856   1.562   4.522   2.575
 3139SOL     OW10857   0.472   4.991   3.596
 3139SOL    HW110858   0.446   4.997   3.504
 3139SOL    HW210859   0.390   4.975   3.643
 3140SOL     OW10860   1.128   5.501   2.084
 3140SOL    HW110861   1.050   5.462   2.126
 3140SOL    HW210862   1.151   5.438   2.016
 3141SOL     OW10863   0.196   3.996   3.351
 3141SOL    HW110864   0.163   4.081   3.379
 3141SOL    HW210865   0.182   3.939   3.427
 3142SOL     OW10866   1.618   5.103   1.955
 3142SOL    HW110867   1.581   5.190   1.940
 3142SOL    HW210868   1.549   5.042   1.930
 3143SOL     OW10869   0.455   5.472   2.171
 3143SOL    HW110870   0.502   5.519   2.239
 3143SOL    HW210871   0.523   5.424   2.124
 3144SOL     OW10872   0.258   5.515   3.085
 3144SOL    HW110873   0.289   5.437   3.131
 3144SOL    HW210874   0.193   5.482   3.023
 3145SOL     OW10875   0.934   5.427   2.761
 3145SOL    HW110876   0.994   5.372   2.810
 3145SOL    HW210877   0.904   5.372   2.689
 3146SOL     OW10878   0.410   4.422   2.341
 3146SOL    HW110879   0.426   4.329   2.353
 3146SOL    HW210880   0.316   4.433   2.359
 3147SOL     OW10881   1.525   3.933   3.587
 3147SOL    HW110882   1.537   3.967   3.675
 3147SOL    HW210883   1.482   3.848   3.599
 3148SOL     OW10884   0.614   3.814   1.988
 3148SOL    HW110885   0.708   3.820   1.970
 3148SOL    HW210886   0.574   3.794   1.903
 3149SOL     OW10887   0.758   3.984   3.631
 3149SOL    HW110888   0.836   3.932   3.613
 3149SOL    HW210889   0.768   4.011   3.723
 3150SOL     OW10890   0.885   5.250   3.057
 3150SOL    HW110891   0.857   5.207   2.976
 3150SOL    HW210892   0.946   5.188   3.098
 3151SOL     OW10893   1.342   4.317   3.302
 3151SOL    HW110894   1.373   4.281   3.385
 3151SOL    HW210895   1.386   4.402   3.294
 3152SOL     OW10896   0.819   5.114   2.816
 3152SOL    HW110897   0.903   5.101   2.772
 3152SOL    HW210898   0.755   5.121   2.745
 3153SOL     OW10899   0.935   4.238   2.754
 3153SOL    HW110900   0.902   4.234   2.664
 3153SOL    HW210901   0.971   4.151   2.770
 3154SOL     OW10902   0.557   3.785   2.360
 3154SOL    HW110903   0.475   3.783   2.411
 3154SOL    HW210904   0.549   3.862   2.304
 3155SOL     OW10905   1.423   4.918   1.893
 3155SOL    HW110906   1.462   4.847   1.945
 3155SOL    HW210907   1.330   4.915   1.915
 3156SOL     OW10908   0.287   3.771   2.036
 3156SOL    HW110909   0.345   3.836   1.996
 3156SOL    HW210910   0.346   3.714   2.086
 3157SOL     OW10911   0.953   3.966   2.331
 3157SOL    HW110912   0.927   3.999   2.245
 3157SOL    HW210913   1.048   3.980   2.335
 3158SOL     OW10914   1.085   4.414   3.313
 3158SOL    HW110915   1.026   4.344   3.342
 3158SOL    HW210916   1.173   4.375   3.319
 3159SOL     OW10917   1.244   5.251   2.606
 3159SOL    HW110918   1.243   5.342   2.578
 3159SOL    HW210919   1.305   5.248   2.680
 3160SOL     OW10920   0.482   4.881   2.582
 3160SOL    HW110921   0.419   4.858   2.651
 3160SOL    HW210922   0.435   4.863   2.500
 3161SOL     OW10923   1.260   5.512   2.481
 3161SOL    HW110924   1.310   5.576   2.431
 3161SOL    HW210925   1.193   5.564   2.525
 3162SOL     OW10926   0.102   4.335   3.231
 3162SOL    HW110927   0.194   4.311   3.216
 3162SOL    HW210928   0.104   4.388   3.311
 3163SOL     OW10929   0.555   3.949   3.039
 3163SOL    HW110930   0.594   3.882   3.095
 3163SOL    HW210931   0.462   3.950   3.064
 3164SOL     OW10932   0.867   4.186   2.494
 3164SOL    HW110933   0.826   4.240   2.427
 3164SOL    HW210934   0.888   4.104   2.451
 3165SOL     OW10935   1.015   3.770   2.611
 3165SOL    HW110936   0.952   3.761   2.539
 3165SOL    HW210937   1.003   3.691   2.664
 3166SOL     OW10938   1.436   4.889   2.719
 3166SOL    HW110939   1.387   4.807   2.710
 3166SOL    HW210940   1.503   4.884   2.651
 3167SOL     OW10941   1.455   4.328   2.825
 3167SOL    HW110942   1.392   4.257   2.817
 3167SOL    HW210943   1.513   4.301   2.896
 3168SOL     OW10944   1.821   4.535   2.247
 3168SOL    HW110945   1.882   4.493   2.309
 3168SOL    HW210946   1.815   4.474   2.174
 3169SOL     OW10947   0.491   5.144   2.004
 3169SOL    HW110948   0.412   5.116   2.049
 3169SOL    HW210949   0.494   5.090   1.925
 3170SOL     OW10950   1.674   4.972   2.526
 3170SOL    HW110951   1.769   4.965   2.535
 3170SOL    HW210952   1.655   5.064   2.541
 3171SOL     OW10953   1.390   4.305   1.930
 3171SOL    HW110954   1.331   4.281   2.001
 3171SOL    HW210955   1.478   4.291   1.966
 3172SOL     OW10956   0.520   3.984   2.179
 3172SOL    HW110957   0.559   3.925   2.113
 3172SOL    HW210958   0.502   4.065   2.131
 3173SOL     OW10959   1.736   4.978   3.418
 3173SOL    HW110960   1.815   4.927   3.398
 3173SOL    HW210961   1.770   5.061   3.450
 3174SOL     OW10962   1.046   5.059   3.191
 3174SOL    HW110963   0.967   5.036   3.239
 3174SOL    HW210964   1.117   5.015   3.238
 3175SOL     OW10965   1.589   5.352   3.500
 3175SOL    HW110966   1.599   5.395   3.416
 3175SOL    HW210967   1.670   5.303   3.512
 3176SOL     OW10968   1.136   4.931   2.964
 3176SOL    HW110969   1.082   4.971   3.033
 3176SOL    HW210970   1.106   4.974   2.884
 3177SOL     OW10971   1.604   4.816   2.938
 3177SOL    HW110972   1.608   4.872   3.015
 3177SOL    HW210973   1.526   4.847   2.891
 3178SOL     OW10974   0.932   3.867   3.239
 3178SOL    HW110975   0.942   3.942   3.179
 3178SOL    HW210976   1.011   3.868   3.292
 3179SOL     OW10977   0.975   4.848   3.576
 3179SOL    HW110978   0.886   4.858   3.608
 3179SOL    HW210979   0.975   4.765   3.528
 3180SOL     OW10980   0.708   4.785   2.233
 3180SOL    HW110981   0.694   4.762   2.325
 3180SOL    HW210982   0.787   4.738   2.208
 3181SOL     OW10983   0.433   4.543   3.115
 3181SOL    HW110984   0.496   4.559   3.186
 3181SOL    HW210985   0.402   4.454   3.130
 3182SOL     OW10986   1.265   4.102   3.143
 3182SOL    HW110987   1.295   4.179   3.192
 3182SOL    HW210988   1.172   4.117   3.130
 3183SOL     OW10989   0.047   5.329   3.200
 3183SOL    HW110990   0.054   5.416   3.239
 3183SOL    HW210991   0.095   5.272   3.260
 3184SOL     OW10992   0.341   4.828   2.348
 3184SOL    HW110993   0.341   4.902   2.287
 3184SOL    HW210994   0.340   4.751   2.292
 3185SOL     OW10995   0.550   4.244   2.717
 3185SOL    HW110996   0.564   4.304   2.644
 3185SOL    HW210997   0.613   4.272   2.783
 3186SOL     OW10998   1.295   5.185   3.025
 3186SOL    HW110999   1.360   5.196   3.094
 3186SOL    HW211000   1.248   5.105   3.048
 3187SOL     OW11001   1.583   4.336   2.335
 3187SOL    HW111002   1.530   4.378   2.403
 3187SOL    HW211003   1.646   4.404   2.309
 3188SOL     OW11004   0.350   5.261   3.172
 3188SOL    HW111005   0.331   5.209   3.094
 3188SOL    HW211006   0.446   5.268   3.174
 3189SOL     OW11007   0.426   4.440   3.469
 3189SOL    HW111008   0.480   4.498   3.415
 3189SOL    HW211009   0.488   4.381   3.511
 3190SOL     OW11010   1.595   4.482   3.533
 3190SOL    HW111011   1.517   4.536   3.546
 3190SOL    HW211012   1.649   4.532   3.472
 3191SOL     OW11013   0.988   3.853   3.582
 3191SOL    HW111014   1.050   3.925   3.586
 3191SOL    HW211015   1.041   3.776   3.563
 3192SOL     OW11016   0.493   3.757   3.635
 3192SOL    HW111017   0.454   3.710   3.562
 3192SOL    HW211018   0.449   3.843   3.634
 3193SOL     OW11019   0.592   4.598   2.898
 3193SOL    HW111020   0.623   4.688   2.900
 3193SOL    HW211021   0.535   4.591   2.974
 3194SOL     OW11022   1.336   4.579   2.871
 3194SOL    HW111023   1.245   4.558   2.851
 3194SOL    HW211024   1.382   4.495   2.865
 3195SOL     OW11025   1.234   4.253   2.146
 3195SOL    HW111026   1.197   4.172   2.181
 3195SOL    HW211027   1.174   4.321   2.177
 3196SOL     OW11028   0.290   3.918   3.104
 3196SOL    HW111029   0.260   3.947   3.191
 3196SOL    HW211030   0.282   3.823   3.107
 3197SOL     OW11031   0.052   5.031   3.129
 3197SOL    HW111032   0.080   4.971   3.199
 3197SOL    HW211033   0.044   5.116   3.173
 3198SOL     OW11034   0.714   4.349   2.909
 3198SOL    HW111035   0.793   4.346   2.855
 3198SOL    HW211036   0.683   4.439   2.900
 3199SOL     OW11037   1.710   4.687   3.710
 3199SOL    HW111038   1.692   4.594   3.697
 3199SOL    HW211039   1.662   4.709   3.790
 3200SOL     OW11040   0.308   3.789   2.478
 3200SOL    HW111041   0.284   3.879   2.499
 3200SOL    HW211042   0.315   3.745   2.563
 3201SOL     OW11043   1.553   4.076   2.245
 3201SOL    HW111044   1.621   4.032   2.296
 3201SOL    HW211045   1.556   4.167   2.276
 3202SOL     OW11046   1.032   4.485   2.817
 3202SOL    HW111047   1.017   4.499   2.910
 3202SOL    HW211048   1.003   4.395   2.801
 3203SOL     OW11049   1.007   5.315   3.569
 3203SOL    HW111050   0.913   5.319   3.547
 3203SOL    HW211051   1.028   5.222   3.565
 3204SOL     OW11052   1.839   5.236   3.467
 3204SOL    HW111053   1.871   5.259   3.379
 3204SOL    HW211054   1.917   5.242   3.523
 3205SOL     OW11055   0.361   4.672   3.665
 3205SOL    HW111056   0.436   4.685   3.723
 3205SOL    HW211057   0.360   4.577   3.649
 3206SOL     OW11058   1.519   3.981   1.986
 3206SOL    HW111059   1.451   3.921   2.018
 3206SOL    HW211060   1.544   4.032   2.062
 3207SOL     OW11061   1.295   4.564   1.903
 3207SOL    HW111062   1.317   4.471   1.904
 3207SOL    HW211063   1.324   4.594   1.816
 3208SOL     OW11064   1.068   5.066   2.722
 3208SOL    HW111065   1.076   4.990   2.666
 3208SOL    HW211066   1.129   5.130   2.685
 3209SOL     OW11067   0.320   4.524   2.801
 3209SOL    HW111068   0.413   4.548   2.802
 3209SOL    HW211069   0.317   4.436   2.839
 3210SOL     OW11070   0.335   4.240   2.878
 3210SOL    HW111071   0.297   4.154   2.861
 3210SOL    HW211072   0.410   4.246   2.818
 3211SOL     OW11073   1.135   4.098   3.549
 3211SOL    HW111074   1.089   4.148   3.616
 3211SOL    HW211075   1.224   4.132   3.550
 3212SOL     OW11076   1.181   3.921   3.343
 3212SOL    HW111077   1.165   3.983   3.414
 3212SOL    HW211078   1.231   3.971   3.279
 3213SOL     OW11079   7.977   5.025   2.058
 3213SOL    HW111080   7.888   5.045   2.088
 3213SOL    HW211081   7.987   4.931   2.075
 3214SOL     OW11082   0.095   5.472   2.799
 3214SOL    HW111083   0.114   5.381   2.776
 3214SOL    HW211084   0.174   5.520   2.775
 3215SOL     OW11085   0.482   5.299   2.762
 3215SOL    HW111086   0.550   5.361   2.787
 3215SOL    HW211087   0.528   5.235   2.707
 3216SOL     OW11088   0.966   4.497   3.080
 3216SOL    HW111089   1.027   4.482   3.153
 3216SOL    HW211090   0.880   4.477   3.117
 3217SOL     OW11091   0.073   4.269   2.973
 3217SOL    HW111092   0.167   4.266   2.957
 3217SOL    HW211093   0.065   4.290   3.066
 3218SOL     OW11094   0.185   4.225   3.518
 3218SOL    HW111095   0.281   4.232   3.517
 3218SOL    HW211096   0.154   4.315   3.528
 3219SOL     OW11097   1.381   4.657   3.524
 3219SOL    HW111098   1.405   4.749   3.525
 3219SOL    HW211099   1.378   4.633   3.431
 3220SOL     OW11100   0.818   4.295   2.231
 3220SOL    HW111101   0.827   4.223   2.169
 3220SOL    HW211102   0.744   4.345   2.199
 3221SOL     OW11103   0.297   5.257   3.587
 3221SOL    HW111104   0.254   5.327   3.636
 3221SOL    HW211105   0.283   5.179   3.641
 3222SOL     OW11106   0.714   4.167   3.112
 3222SOL    HW111107   0.651   4.098   3.093
 3222SOL    HW211108   0.701   4.231   3.043
 3223SOL     OW11109   0.961   5.437   3.294
 3223SOL    HW111110   0.927   5.376   3.228
 3223SOL    HW211111   0.915   5.519   3.277
 3224SOL     OW11112   0.452   4.204   2.033
 3224SOL    HW111113   0.509   4.279   2.049
 3224SOL    HW211114   0.369   4.227   2.075
 3225SOL     OW11115   0.161   4.852   3.311
 3225SOL    HW111116   0.138   4.811   3.394
 3225SOL    HW211117   0.165   4.779   3.248
 3226SOL     OW11118   1.324   4.763   3.075
 3226SOL    HW111119   1.339   4.698   3.006
 3226SOL    HW211120   1.256   4.820   3.039
 3227SOL     OW11121   1.299   4.619   2.181
 3227SOL    HW111122   1.239   4.559   2.225
 3227SOL    HW211123   1.286   4.602   2.088
 3228SOL     OW11124   1.748   5.467   2.993
 3228SOL    HW111125   1.822   5.490   2.937
 3228SOL    HW211126   1.738   5.372   2.982
 3229SOL     OW11127   1.235   5.450   2.950
 3229SOL    HW111128   1.319   5.481   2.917
 3229SOL    HW211129   1.253   5.361   2.980
 3230SOL     OW11130   0.093   4.957   2.876
 3230SOL    HW111131   0.079   4.982   2.967
 3230SOL    HW211132   0.005   4.943   2.841
 3231SOL     OW11133   0.679   5.411   3.583
 3231SOL    HW111134   0.617   5.477   3.613
 3231SOL    HW211135   0.686   5.427   3.489
 3232SOL     OW11136   1.721   3.874   2.342
 3232SOL    HW111137   1.797   3.878   2.284
 3232SOL    HW211138   1.746   3.813   2.411
 3233SOL     OW11139   1.385   5.295   2.347
 3233SOL    HW111140   1.450   5.321   2.282
 3233SOL    HW211141   1.345   5.377   2.375
 3234SOL     OW11142   0.167   5.469   3.694
 3234SOL    HW111143   0.106   5.420   3.749
 3234SOL    HW211144   0.214   5.526   3.754
 3235SOL     OW11145   1.293   4.660   2.533
 3235SOL    HW111146   1.359   4.592   2.550
 3235SOL    HW211147   1.330   4.711   2.461
 3236SOL     OW11148   0.790   5.004   3.280
 3236SOL    HW111149   0.765   5.048   3.361
 3236SOL    HW211150   0.713   5.012   3.224
 3237SOL     OW11151   0.668   5.349   2.019
 3237SOL    HW111152   0.680   5.366   1.926
 3237SOL    HW211153   0.611   5.272   2.023
 3238SOL     OW11154   1.610   5.463   3.241
 3238SOL    HW111155   1.664   5.467   3.163
 3238SOL    HW211156   1.598   5.554   3.267
 3239SOL     OW11157   1.837   3.891   2.830
 3239SOL    HW111158   1.874   3.805   2.810
 3239SOL    HW211159   1.750   3.890   2.790
 3240SOL     OW11160   0.258   4.040   2.568
 3240SOL    HW111161   0.172   4.076   2.546
 3240SOL    HW211162   0.257   4.031   2.663
 3241SOL     OW11163   1.207   5.322   1.890
 3241SOL    HW111164   1.189   5.232   1.916
 3241SOL    HW211165   1.143   5.341   1.821
 3242SOL     OW11166   0.826   4.734   3.238
 3242SOL    HW111167   0.863   4.735   3.149
 3242SOL    HW211168   0.815   4.827   3.260
 3243SOL     OW11169   0.933   4.656   2.166
 3243SOL    HW111170   0.986   4.684   2.092
 3243SOL    HW211171   0.975   4.576   2.196
 3244SOL     OW11172   1.485   5.353   1.908
 3244SOL    HW111173   1.392   5.344   1.892
 3244SOL    HW211174   1.525   5.360   1.821
 3245SOL     OW11175   0.376   5.024   3.345
 3245SOL    HW111176   0.348   5.107   3.306
 3245SOL    HW211177   0.302   4.965   3.332
 3246SOL     OW11178   1.604   4.991   3.143
 3246SOL    HW111179   1.681   4.982   3.199
 3246SOL    HW211180   1.558   5.067   3.178
 3247SOL     OW11181   1.083   4.844   2.570
 3247SOL    HW111182   1.006   4.800   2.605
 3247SOL    HW211183   1.147   4.775   2.557
 3248SOL     OW11184   1.040   3.982   2.794
 3248SOL    HW111185   1.033   3.922   2.720
 3248SOL    HW211186   1.016   3.930   2.870
 3249SOL     OW11187   0.604   5.213   2.347
 3249SOL    HW111188   0.651   5.167   2.278
 3249SOL    HW211189   0.512   5.208   2.322
 3250SOL     OW11190   1.739   4.152   3.227
 3250SOL    HW111191   1.826   4.173   3.261
 3250SOL    HW211192   1.752   4.072   3.175
 3251SOL     OW11193   0.248   5.064   2.131
 3251SOL    HW111194   0.152   5.069   2.127
 3251SOL    HW211195   0.270   5.102   2.215
 3252SOL     OW11196   0.109   4.733   3.557
 3252SOL    HW111197   0.051   4.797   3.598
 3252SOL    HW211198   0.188   4.734   3.612
 3253SOL     OW11199   0.679   3.908   3.374
 3253SOL    HW111200   0.768   3.903   3.338
 3253SOL    HW211201   0.692   3.934   3.465
 3254SOL     OW11202   0.106   4.080   1.878
 3254SOL    HW111203   0.037   4.122   1.929
 3254SOL    HW211204   0.119   4.139   1.804
 3255SOL     OW11205   1.443   4.588   3.262
 3255SOL    HW111206   1.405   4.651   3.201
 3255SOL    HW211207   1.532   4.618   3.277
 3256SOL     OW11208   0.092   3.963   2.223
 3256SOL    HW111209   0.044   3.943   2.143
 3256SOL    HW211210   0.176   3.918   2.213
 3257SOL     OW11211   1.141   5.060   1.961
 3257SOL    HW111212   1.048   5.061   1.940
 3257SOL    HW211213   1.148   5.001   2.037
 3258SOL     OW11214   0.625   4.556   3.304
 3258SOL    HW111215   0.682   4.632   3.293
 3258SOL    HW211216   0.685   4.482   3.311
 3259SOL     OW11217   1.492   5.515   2.854
 3259SOL    HW111218   1.515   5.588   2.796
 3259SOL    HW211219   1.573   5.493   2.898
 3260SOL     OW11220   0.714   4.294   3.563
 3260SOL    HW111221   0.762   4.356   3.618
 3260SOL    HW211222   0.724   4.210   3.607
 3261SOL     OW11223   1.471   4.922   3.489
 3261SOL    HW111224   1.463   4.932   3.583
 3261SOL    HW211225   1.562   4.943   3.470
 3262SOL     OW11226   0.388   5.458   3.424
 3262SOL    HW111227   0.301   5.488   3.399
 3262SOL    HW211228   0.373   5.375   3.469
 3263SOL     OW11229   1.687   4.562   3.040
 3263SOL    HW111230   1.613   4.617   3.016
 3263SOL    HW211231   1.764   4.619   3.029
 3264SOL     OW11232   1.232   4.026   2.328
 3264SOL    HW111233   1.314   4.039   2.279
 3264SOL    HW211234   1.243   4.078   2.407
 3265SOL     OW11235   0.597   4.456   2.542
 3265SOL    HW111236   0.636   4.543   2.529
 3265SOL    HW211237   0.532   4.449   2.472
 3266SOL     OW11238   1.731   4.102   3.508
 3266SOL    HW111239   1.716   4.114   3.414
 3266SOL    HW211240   1.674   4.028   3.532
 3267SOL     OW11241   1.701   4.668   3.356
 3267SOL    HW111242   1.688   4.727   3.430
 3267SOL    HW211243   1.787   4.690   3.321
 3268SOL     OW11244   0.873   5.101   1.915
 3268SOL    HW111245   0.824   5.125   1.993
 3268SOL    HW211246   0.875   5.180   1.862
 3269SOL     OW11247   0.661   5.502   2.789
 3269SOL    HW111248   0.641   5.595   2.777
 3269SOL    HW211249   0.756   5.497   2.787
 3270SOL     OW11250   0.882   4.711   2.714
 3270SOL    HW111251   0.926   4.635   2.750
 3270SOL    HW211252   0.834   4.749   2.788
 3271SOL     OW11253   1.097   4.743   1.961
 3271SOL    HW111254   1.054   4.774   1.881
 3271SOL    HW211255   1.157   4.675   1.932
 3272SOL     OW11256   1.864   5.260   2.697
 3272SOL    HW111257   1.771   5.243   2.684
 3272SOL    HW211258   1.892   5.192   2.759
 3273SOL     OW11259   0.220   5.023   3.714
 3273SOL    HW111260   0.129   5.007   3.689
 3273SOL    HW211261   0.218   5.024   3.810
 3274SOL     OW11262   0.139   4.987   2.504
 3274SOL    HW111263   0.060   4.952   2.547
 3274SOL    HW211264   0.199   4.913   2.500
 3275SOL     OW11265   0.687   5.144   3.494
 3275SOL    HW111266   0.612   5.093   3.524
 3275SOL    HW211267   0.676   5.230   3.535
 3276SOL     OW11268   1.779   3.916   3.100
 3276SOL    HW111269   1.838   3.851   3.138
 3276SOL    HW211270   1.798   3.914   3.006
 3277SOL     OW11271   0.435   4.160   2.386
 3277SOL    HW111272   0.467   4.088   2.331
 3277SOL    HW211273   0.384   4.116   2.455
 3278SOL     OW11274   1.706   5.204   2.960
 3278SOL    HW111275   1.625   5.155   2.945
 3278SOL    HW211276   1.760   5.146   3.014
 3279SOL     OW11277   0.358   4.284   3.155
 3279SOL    HW111278   0.402   4.222   3.214
 3279SOL    HW211279   0.370   4.247   3.068
 3280SOL     OW11280   0.844   5.298   2.532
 3280SOL    HW111281   0.815   5.370   2.477
 3280SOL    HW211282   0.767   5.242   2.541
 3281SOL     OW11283   1.437   3.962   2.981
 3281SOL    HW111284   1.487   3.897   3.031
 3281SOL    HW211285   1.384   4.007   3.047
 3282SOL     OW11286   0.768   5.055   2.186
 3282SOL    HW111287   0.735   4.965   2.188
 3282SOL    HW211288   0.851   5.051   2.234
 3283SOL     OW11289   0.627   5.283   3.152
 3283SOL    HW111290   0.629   5.360   3.209
 3283SOL    HW211291   0.716   5.278   3.115
 3284SOL     OW11292   1.372   3.770   2.093
 3284SOL    HW111293   1.403   3.713   2.023
 3284SOL    HW211294   1.281   3.745   2.107
 3285SOL     OW11295   1.293   4.189   2.539
 3285SOL    HW111296   1.243   4.270   2.538
 3285SOL    HW211297   1.289   4.159   2.630
 3286SOL     OW11298   1.574   3.911   2.741
 3286SOL    HW111299   1.527   3.937   2.820
 3286SOL    HW211300   1.580   3.991   2.689
 3287SOL     OW11301   0.040   4.760   2.142
 3287SOL    HW111302   0.132   4.741   2.126
 3287SOL    HW211303   0.035   4.777   2.237
 3288SOL     OW11304   0.898   5.379   2.196
 3288SOL    HW111305   0.820   5.362   2.143
 3288SOL    HW211306   0.872   5.448   2.256
 3289SOL     OW11307   0.234   4.400   3.767
 3289SOL    HW111308   0.162   4.424   3.826
 3289SOL    HW211309   0.268   4.318   3.803
 3290SOL     OW11310   0.243   3.977   4.705
 3290SOL    HW111311   0.267   3.968   4.797
 3290SOL    HW211312   0.203   3.893   4.683
 3291SOL     OW11313   8.003   4.129   4.355
 3291SOL    HW111314   7.980   4.182   4.431
 3291SOL    HW211315   7.930   4.068   4.345
 3292SOL     OW11316   0.568   5.026   4.912
 3292SOL    HW111317   0.477   5.032   4.883
 3292SOL    HW211318   0.591   5.114   4.939
 3293SOL     OW11319   1.573   5.256   4.442
 3293SOL    HW111320   1.530   5.225   4.522
 3293SOL    HW211321   1.513   5.231   4.372
 3294SOL     OW11322   1.124   4.430   4.412
 3294SOL    HW111323   1.178   4.509   4.405
 3294SOL    HW211324   1.082   4.438   4.498
 3295SOL     OW11325   1.786   4.315   3.946
 3295SOL    HW111326   1.751   4.307   3.857
 3295SOL    HW211327   1.741   4.245   3.995
 3296SOL     OW11328   0.728   4.854   4.766
 3296SOL    HW111329   0.667   4.895   4.828
 3296SOL    HW211330   0.783   4.926   4.736
 3297SOL     OW11331   0.883   4.483   5.550
 3297SOL    HW111332   0.915   4.551   5.609
 3297SOL    HW211333   0.896   4.520   5.462
 3298SOL     OW11334   0.690   4.719   4.368
 3298SOL    HW111335   0.758   4.713   4.435
 3298SOL    HW211336   0.624   4.775   4.407
 3299SOL     OW11337   0.713   4.884   5.546
 3299SOL    HW111338   0.760   4.967   5.545
 3299SOL    HW211339   0.627   4.904   5.509
 3300SOL     OW11340   0.327   5.144   4.796
 3300SOL    HW111341   0.276   5.085   4.741
 3300SOL    HW211342   0.380   5.195   4.735
 3301SOL     OW11343   1.454   5.225   5.087
 3301SOL    HW111344   1.503   5.306   5.100
 3301SOL    HW211345   1.381   5.230   5.149
 3302SOL     OW11346   0.445   4.110   5.213
 3302SOL    HW111347   0.531   4.069   5.217
 3302SOL    HW211348   0.383   4.037   5.225
 3303SOL     OW11349   1.599   4.160   4.475
 3303SOL    HW111350   1.521   4.185   4.426
 3303SOL    HW211351   1.604   4.223   4.547
 3304SOL     OW11352   0.225   5.414   4.196
 3304SOL    HW111353   0.232   5.492   4.251
 3304SOL    HW211354   0.290   5.428   4.127
 3305SOL     OW11355   1.135   5.063   5.413
 3305SOL    HW111356   1.181   5.055   5.497
 3305SOL    HW211357   1.082   4.984   5.406
 3306SOL     OW11358   0.314   5.159   4.236
 3306SOL    HW111359   0.280   5.248   4.243
 3306SOL    HW211360   0.260   5.107   4.295
 3307SOL     OW11361   0.280   4.809   4.612
 3307SOL    HW111362   0.285   4.717   4.640
 3307SOL    HW211363   0.207   4.845   4.662
 3308SOL     OW11364   0.600   5.544   5.111
 3308SOL    HW111365   0.534   5.510   5.171
 3308SOL    HW211366   0.639   5.618   5.157
 3309SOL     OW11367   0.572   4.716   3.868
 3309SOL    HW111368   0.627   4.756   3.801
 3309SOL    HW211369   0.611   4.743   3.951
 3310SOL     OW11370   1.580   3.866   5.178
 3310SOL    HW111371   1.630   3.937   5.138
 3310SOL    HW211372   1.562   3.897   5.267
 3311SOL     OW11373   0.144   4.349   4.249
 3311SOL    HW111374   0.091   4.274   4.278
 3311SOL    HW211375   0.112   4.422   4.301
 3312SOL     OW11376   1.827   5.482   4.072
 3312SOL    HW111377   1.906   5.456   4.120
 3312SOL    HW211378   1.849   5.568   4.036
 3313SOL     OW11379   0.023   5.305   3.860
 3313SOL    HW111380   0.006   5.211   3.852
 3313SOL    HW211381   0.004   5.324   3.952
 3314SOL     OW11382   1.695   4.628   4.379
 3314SOL    HW111383   1.782   4.597   4.402
 3314SOL    HW211384   1.705   4.667   4.292
 3315SOL     OW11385   1.658   4.836   4.147
 3315SOL    HW111386   1.745   4.826   4.109
 3315SOL    HW211387   1.670   4.895   4.221
 3316SOL     OW11388   0.143   4.491   5.304
 3316SOL    HW111389   0.238   4.478   5.306
 3316SOL    HW211390   0.130   4.576   5.347
 3317SOL     OW11391   0.626   5.118   4.460
 3317SOL    HW111392   0.581   5.033   4.466
 3317SOL    HW211393   0.610   5.146   4.369
 3318SOL     OW11394   1.284   4.957   5.138
 3318SOL    HW111395   1.318   4.889   5.080
 3318SOL    HW211396   1.342   4.954   5.214
 3319SOL     OW11397   0.813   3.740   4.190
 3319SOL    HW111398   0.855   3.826   4.188
 3319SOL    HW211399   0.727   3.757   4.227
 3320SOL     OW11400   0.176   4.645   4.989
 3320SOL    HW111401   0.268   4.620   5.000
 3320SOL    HW211402   0.158   4.628   4.896
 3321SOL     OW11403   1.530   4.733   3.926
 3321SOL    HW111404   1.459   4.678   3.962
 3321SOL    HW211405   1.578   4.763   4.003
 3322SOL     OW11406   1.197   5.555   5.356
 3322SOL    HW111407   1.195   5.595   5.269
 3322SOL    HW211408   1.202   5.461   5.340
 3323SOL     OW11409   0.372   3.992   5.543
 3323SOL    HW111410   0.424   4.062   5.584
 3323SOL    HW211411   0.282   4.012   5.567
 3324SOL     OW11412   1.411   5.148   4.639
 3324SOL    HW111413   1.377   5.162   4.728
 3324SOL    HW211414   1.421   5.053   4.633
 3325SOL     OW11415   1.625   5.504   4.299
 3325SOL    HW111416   1.676   5.459   4.232
 3325SOL    HW211417   1.614   5.438   4.369
 3326SOL     OW11418   0.591   4.427   3.985
 3326SOL    HW111419   0.604   4.516   3.954
 3326SOL    HW211420   0.533   4.437   4.061
 3327SOL     OW11421   1.275   4.090   4.655
 3327SOL    HW111422   1.189   4.054   4.672
 3327SOL    HW211423   1.334   4.041   4.713
 3328SOL     OW11424   1.561   5.426   4.014
 3328SOL    HW111425   1.655   5.437   4.027
 3328SOL    HW211426   1.553   5.384   3.928
 3329SOL     OW11427   0.778   4.344   5.168
 3329SOL    HW111428   0.761   4.314   5.257
 3329SOL    HW211429   0.751   4.271   5.112
 3330SOL     OW11430   1.393   4.193   5.402
 3330SOL    HW111431   1.403   4.240   5.485
 3330SOL    HW211432   1.447   4.114   5.413
 3331SOL     OW11433   0.946   4.602   5.310
 3331SOL    HW111434   1.004   4.538   5.269
 3331SOL    HW211435   0.899   4.641   5.236
 3332SOL     OW11436   0.996   4.141   4.951
 3332SOL    HW111437   0.908   4.148   4.989
 3332SOL    HW211438   0.989   4.068   4.889
 3333SOL     OW11439   1.047   4.418   4.147
 3333SOL    HW111440   1.072   4.420   4.239
 3333SOL    HW211441   0.966   4.368   4.145
 3334SOL     OW11442   0.108   4.510   4.488
 3334SOL    HW111443   0.180   4.531   4.547
 3334SOL    HW211444   0.055   4.590   4.484
 3335SOL     OW11445   0.149   5.566   5.321
 3335SOL    HW111446   0.163   5.517   5.402
 3335SOL    HW211447   0.061   5.601   5.329
 3336SOL     OW11448   0.860   4.066   3.878
 3336SOL    HW111449   0.922   4.123   3.834
 3336SOL    HW211450   0.915   4.003   3.926
 3337SOL     OW11451   1.687   4.289   5.562
 3337SOL    HW111452   1.662   4.365   5.509
 3337SOL    HW211453   1.726   4.228   5.499
 3338SOL     OW11454   1.393   4.862   4.261
 3338SOL    HW111455   1.478   4.855   4.218
 3338SOL    HW211456   1.344   4.924   4.207
 3339SOL     OW11457   0.568   3.917   4.624
 3339SOL    HW111458   0.567   3.924   4.719
 3339SOL    HW211459   0.569   4.007   4.593
 3340SOL     OW11460   0.992   5.167   4.187
 3340SOL    HW111461   0.970   5.250   4.146
 3340SOL    HW211462   0.976   5.181   4.280
 3341SOL     OW11463   0.352   5.542   4.604
 3341SOL    HW111464   0.401   5.460   4.610
 3341SOL    HW211465   0.418   5.610   4.619
 3342SOL     OW11466   1.793   4.789   4.601
 3342SOL    HW111467   1.736   4.764   4.528
 3342SOL    HW211468   1.735   4.791   4.677
 3343SOL     OW11469   1.224   5.268   5.233
 3343SOL    HW111470   1.207   5.193   5.291
 3343SOL    HW211471   1.136   5.298   5.207
 3344SOL     OW11472   0.307   4.678   3.981
 3344SOL    HW111473   0.389   4.701   3.937
 3344SOL    HW211474   0.292   4.587   3.958
 3345SOL     OW11475   1.480   4.472   4.443
 3345SOL    HW111476   1.480   4.433   4.530
 3345SOL    HW211477   1.559   4.526   4.440
 3346SOL     OW11478   0.456   4.953   5.484
 3346SOL    HW111479   0.462   4.983   5.393
 3346SOL    HW211480   0.364   4.963   5.506
 3347SOL     OW11481   1.130   5.507   3.944
 3347SOL    HW111482   1.053   5.473   3.991
 3347SOL    HW211483   1.156   5.436   3.886
 3348SOL     OW11484   0.182   3.974   5.217
 3348SOL    HW111485   0.167   4.031   5.292
 3348SOL    HW211486   0.164   3.886   5.250
 3349SOL     OW11487   1.621   5.102   3.804
 3349SOL    HW111488   1.579   5.187   3.794
 3349SOL    HW211489   1.551   5.039   3.789
 3350SOL     OW11490   0.451   5.469   4.032
 3350SOL    HW111491   0.492   5.517   4.103
 3350SOL    HW211492   0.521   5.416   3.994
 3351SOL     OW11493   1.408   3.842   4.167
 3351SOL    HW111494   1.414   3.805   4.079
 3351SOL    HW211495   1.499   3.851   4.195
 3352SOL     OW11496   0.247   5.498   4.956
 3352SOL    HW111497   0.301   5.431   4.998
 3352SOL    HW211498   0.252   5.479   4.862
 3353SOL     OW11499   0.942   5.429   4.615
 3353SOL    HW111500   1.016   5.382   4.653
 3353SOL    HW211501   0.910   5.372   4.545
 3354SOL     OW11502   0.411   4.418   4.192
 3354SOL    HW111503   0.430   4.326   4.211
 3354SOL    HW211504   0.319   4.429   4.216
 3355SOL     OW11505   1.527   3.945   5.449
 3355SOL    HW111506   1.531   3.974   5.540
 3355SOL    HW211507   1.487   3.858   5.453
 3356SOL     OW11508   0.759   4.007   5.487
 3356SOL    HW111509   0.842   3.960   5.475
 3356SOL    HW211510   0.717   3.965   5.562
 3357SOL     OW11511   0.874   5.247   4.913
 3357SOL    HW111512   0.855   5.201   4.831
 3357SOL    HW211513   0.944   5.196   4.954
 3358SOL     OW11514   1.340   4.317   5.162
 3358SOL    HW111515   1.373   4.281   5.244
 3358SOL    HW211516   1.383   4.403   5.154
 3359SOL     OW11517   0.818   5.108   4.678
 3359SOL    HW111518   0.903   5.093   4.637
 3359SOL    HW211519   0.756   5.108   4.605
 3360SOL     OW11520   0.934   4.234   4.634
 3360SOL    HW111521   0.910   4.219   4.542
 3360SOL    HW211522   0.964   4.149   4.665
 3361SOL     OW11523   0.549   3.783   4.258
 3361SOL    HW111524   0.510   3.766   4.344
 3361SOL    HW211525   0.511   3.867   4.231
 3362SOL     OW11526   1.419   4.920   3.761
 3362SOL    HW111527   1.459   4.850   3.812
 3362SOL    HW211528   1.339   4.942   3.808
 3363SOL     OW11529   0.315   3.765   3.898
 3363SOL    HW111530   0.269   3.844   3.929
 3363SOL    HW211531   0.328   3.713   3.976
 3364SOL     OW11532   0.940   3.992   4.168
 3364SOL    HW111533   0.929   4.084   4.144
 3364SOL    HW211534   1.034   3.983   4.184
 3365SOL     OW11535   1.084   4.408   5.177
 3365SOL    HW111536   1.032   4.329   5.192
 3365SOL    HW211537   1.175   4.377   5.175
 3366SOL     OW11538   1.207   5.277   4.508
 3366SOL    HW111539   1.240   5.353   4.459
 3366SOL    HW211540   1.283   5.246   4.558
 3367SOL     OW11541   0.481   4.885   4.445
 3367SOL    HW111542   0.418   4.860   4.513
 3367SOL    HW211543   0.435   4.866   4.363
 3368SOL     OW11544   1.262   5.501   4.340
 3368SOL    HW111545   1.311   5.571   4.297
 3368SOL    HW211546   1.187   5.545   4.380
 3369SOL     OW11547   1.024   4.248   3.754
 3369SOL    HW111548   0.987   4.334   3.740
 3369SOL    HW211549   1.088   4.260   3.825
 3370SOL     OW11550   0.086   4.325   5.090
 3370SOL    HW111551   0.176   4.294   5.077
 3370SOL    HW211552   0.090   4.379   5.169
 3371SOL     OW11553   0.565   3.935   4.901
 3371SOL    HW111554   0.607   3.864   4.951
 3371SOL    HW211555   0.474   3.935   4.930
 3372SOL     OW11556   0.863   4.182   4.376
 3372SOL    HW111557   0.804   4.230   4.319
 3372SOL    HW211558   0.875   4.097   4.334
 3373SOL     OW11559   1.027   3.783   4.465
 3373SOL    HW111560   0.967   3.765   4.392
 3373SOL    HW211561   1.012   3.711   4.526
 3374SOL     OW11562   1.431   4.873   4.589
 3374SOL    HW111563   1.381   4.793   4.607
 3374SOL    HW211564   1.445   4.871   4.494
 3375SOL     OW11565   1.466   4.336   4.689
 3375SOL    HW111566   1.408   4.262   4.701
 3375SOL    HW211567   1.527   4.331   4.762
 3376SOL     OW11568   1.826   4.534   4.102
 3376SOL    HW111569   1.883   4.494   4.168
 3376SOL    HW211570   1.811   4.465   4.038
 3377SOL     OW11571   0.491   5.148   3.865
 3377SOL    HW111572   0.412   5.123   3.913
 3377SOL    HW211573   0.490   5.093   3.786
 3378SOL     OW11574   1.700   4.997   4.356
 3378SOL    HW111575   1.791   4.979   4.378
 3378SOL    HW211576   1.680   5.078   4.404
 3379SOL     OW11577   1.392   4.301   3.794
 3379SOL    HW111578   1.338   4.272   3.867
 3379SOL    HW211579   1.482   4.279   3.820
 3380SOL     OW11580   0.543   3.975   4.020
 3380SOL    HW111581   0.635   3.998   4.035
 3380SOL    HW211582   0.508   4.048   3.969
 3381SOL     OW11583   1.748   4.967   5.285
 3381SOL    HW111584   1.835   4.929   5.279
 3381SOL    HW211585   1.763   5.058   5.310
 3382SOL     OW11586   1.056   5.065   5.034
 3382SOL    HW111587   0.979   5.042   5.087
 3382SOL    HW211588   1.130   5.036   5.086
 3383SOL     OW11589   1.604   5.356   5.397
 3383SOL    HW111590   1.585   5.387   5.308
 3383SOL    HW211591   1.685   5.306   5.389
 3384SOL     OW11592   1.112   4.909   4.815
 3384SOL    HW111593   1.083   4.964   4.888
 3384SOL    HW211594   1.099   4.964   4.738
 3385SOL     OW11595   1.613   4.814   4.801
 3385SOL    HW111596   1.610   4.876   4.874
 3385SOL    HW211597   1.541   4.840   4.744
 3386SOL     OW11598   0.910   3.862   5.098
 3386SOL    HW111599   0.936   3.812   5.020
 3386SOL    HW211600   0.992   3.880   5.143
 3387SOL     OW11601   0.979   4.836   5.445
 3387SOL    HW111602   0.887   4.850   5.470
 3387SOL    HW211603   0.978   4.757   5.393
 3388SOL     OW11604   0.714   4.782   4.098
 3388SOL    HW111605   0.701   4.763   4.190
 3388SOL    HW211606   0.786   4.725   4.071
 3389SOL     OW11607   0.428   4.537   4.983
 3389SOL    HW111608   0.494   4.552   5.050
 3389SOL    HW211609   0.402   4.445   4.994
 3390SOL     OW11610   1.267   4.110   4.999
 3390SOL    HW111611   1.299   4.184   5.051
 3390SOL    HW211612   1.176   4.132   4.981
 3391SOL     OW11613   0.050   5.324   5.055
 3391SOL    HW111614   0.110   5.391   5.022
 3391SOL    HW211615   0.094   5.289   5.132
 3392SOL     OW11616   0.343   4.836   4.213
 3392SOL    HW111617   0.334   4.909   4.152
 3392SOL    HW211618   0.333   4.758   4.158
 3393SOL     OW11619   0.553   4.243   4.568
 3393SOL    HW111620   0.570   4.306   4.498
 3393SOL    HW211621   0.612   4.270   4.639
 3394SOL     OW11622   1.247   5.075   4.110
 3394SOL    HW111623   1.304   5.143   4.145
 3394SOL    HW211624   1.163   5.090   4.152
 3395SOL     OW11625   1.282   5.191   4.882
 3395SOL    HW111626   1.350   5.200   4.948
 3395SOL    HW211627   1.212   5.142   4.926
 3396SOL     OW11628   1.570   4.354   4.202
 3396SOL    HW111629   1.525   4.389   4.279
 3396SOL    HW211630   1.638   4.418   4.183
 3397SOL     OW11631   0.348   5.250   5.046
 3397SOL    HW111632   0.332   5.207   4.962
 3397SOL    HW211633   0.444   5.260   5.050
 3398SOL     OW11634   0.425   4.449   5.334
 3398SOL    HW111635   0.483   4.501   5.279
 3398SOL    HW211636   0.479   4.374   5.361
 3399SOL     OW11637   1.608   4.506   5.419
 3399SOL    HW111638   1.522   4.548   5.415
 3399SOL    HW211639   1.659   4.549   5.350
 3400SOL     OW11640   0.988   3.865   5.463
 3400SOL    HW111641   1.055   3.931   5.446
 3400SOL    HW211642   1.028   3.782   5.435
 3401SOL     OW11643   0.508   3.761   5.475
 3401SOL    HW111644   0.461   3.707   5.411
 3401SOL    HW211645   0.456   3.841   5.480
 3402SOL     OW11646   0.582   4.605   4.756
 3402SOL    HW111647   0.628   4.689   4.762
 3402SOL    HW211648   0.538   4.596   4.841
 3403SOL     OW11649   1.338   4.590   4.717
 3403SOL    HW111650   1.248   4.560   4.708
 3403SOL    HW211651   1.390   4.510   4.720
 3404SOL     OW11652   1.187   4.245   3.981
 3404SOL    HW111653   1.209   4.171   4.039
 3404SOL    HW211654   1.151   4.311   4.040
 3405SOL     OW11655   0.300   3.925   4.971
 3405SOL    HW111656   0.255   3.953   5.050
 3405SOL    HW211657   0.290   3.830   4.970
 3406SOL     OW11658   0.019   5.036   4.995
 3406SOL    HW111659   0.054   4.977   5.062
 3406SOL    HW211660   0.043   5.124   5.026
 3407SOL     OW11661   0.710   4.341   4.765
 3407SOL    HW111662   0.797   4.325   4.728
 3407SOL    HW211663   0.697   4.436   4.756
 3408SOL     OW11664   1.741   4.689   5.585
 3408SOL    HW111665   1.700   4.617   5.536
 3408SOL    HW211666   1.682   4.705   5.658
 3409SOL     OW11667   0.237   3.793   4.333
 3409SOL    HW111668   0.240   3.885   4.359
 3409SOL    HW211669   0.284   3.747   4.402
 3410SOL     OW11670   1.624   4.116   4.073
 3410SOL    HW111671   1.647   4.046   4.133
 3410SOL    HW211672   1.598   4.189   4.130
 3411SOL     OW11673   1.030   4.484   4.685
 3411SOL    HW111674   1.017   4.502   4.778
 3411SOL    HW211675   1.006   4.392   4.674
 3412SOL     OW11676   1.017   5.309   5.445
 3412SOL    HW111677   0.946   5.326   5.383
 3412SOL    HW211678   1.039   5.216   5.431
 3413SOL     OW11679   1.843   5.228   5.325
 3413SOL    HW111680   1.856   5.275   5.243
 3413SOL    HW211681   1.926   5.237   5.372
 3414SOL     OW11682   0.353   4.652   5.526
 3414SOL    HW111683   0.433   4.698   5.553
 3414SOL    HW211684   0.384   4.577   5.477
 3415SOL     OW11685   1.520   4.005   3.845
 3415SOL    HW111686   1.469   3.931   3.877
 3415SOL    HW211687   1.559   4.043   3.923
 3416SOL     OW11688   1.266   4.539   3.744
 3416SOL    HW111689   1.314   4.457   3.757
 3416SOL    HW211690   1.310   4.581   3.670
 3417SOL     OW11691   1.059   5.057   4.575
 3417SOL    HW111692   1.074   4.985   4.514
 3417SOL    HW211693   1.116   5.127   4.545
 3418SOL     OW11694   0.321   4.534   4.670
 3418SOL    HW111695   0.413   4.558   4.684
 3418SOL    HW211696   0.317   4.441   4.694
 3419SOL     OW11697   0.334   4.233   4.722
 3419SOL    HW111698   0.306   4.142   4.712
 3419SOL    HW211699   0.411   4.242   4.666
 3420SOL     OW11700   1.135   4.102   5.403
 3420SOL    HW111701   1.090   4.150   5.473
 3420SOL    HW211702   1.224   4.136   5.403
 3421SOL     OW11703   1.162   3.930   5.189
 3421SOL    HW111704   1.152   3.991   5.263
 3421SOL    HW211705   1.213   3.978   5.124
 3422SOL     OW11706   7.984   5.026   3.928
 3422SOL    HW111707   7.894   5.044   3.954
 3422SOL    HW211708   7.997   4.934   3.950
 3423SOL     OW11709   0.083   5.457   4.644
 3423SOL    HW111710   0.117   5.371   4.619
 3423SOL    HW211711   0.157   5.517   4.631
 3424SOL     OW11712   0.487   5.294   4.628
 3424SOL    HW111713   0.556   5.357   4.652
 3424SOL    HW211714   0.532   5.231   4.572
 3425SOL     OW11715   0.961   4.506   4.949
 3425SOL    HW111716   1.030   4.489   5.014
 3425SOL    HW211717   0.884   4.463   4.986
 3426SOL     OW11718   0.091   4.273   4.827
 3426SOL    HW111719   0.181   4.261   4.796
 3426SOL    HW211720   0.100   4.323   4.908
 3427SOL     OW11721   0.177   4.213   5.375
 3427SOL    HW111722   0.269   4.206   5.353
 3427SOL    HW211723   0.164   4.305   5.398
 3428SOL     OW11724   1.378   4.656   5.381
 3428SOL    HW111725   1.404   4.748   5.377
 3428SOL    HW211726   1.379   4.627   5.290
 3429SOL     OW11727   0.814   4.266   4.078
 3429SOL    HW111728   0.813   4.211   4.000
 3429SOL    HW211729   0.745   4.331   4.062
 3430SOL     OW11730   1.648   4.323   4.892
 3430SOL    HW111731   1.642   4.268   4.971
 3430SOL    HW211732   1.738   4.311   4.861
 3431SOL     OW11733   0.282   5.262   5.428
 3431SOL    HW111734   0.255   5.326   5.493
 3431SOL    HW211735   0.297   5.182   5.478
 3432SOL     OW11736   0.707   4.166   4.977
 3432SOL    HW111737   0.660   4.086   4.955
 3432SOL    HW211738   0.698   4.222   4.900
 3433SOL     OW11739   0.967   5.396   5.166
 3433SOL    HW111740   0.900   5.346   5.118
 3433SOL    HW211741   0.930   5.483   5.176
 3434SOL     OW11742   0.459   4.200   3.881
 3434SOL    HW111743   0.513   4.277   3.902
 3434SOL    HW211744   0.380   4.212   3.934
 3435SOL     OW11745   0.133   4.855   5.168
 3435SOL    HW111746   0.127   4.815   5.255
 3435SOL    HW211747   0.151   4.782   5.109
 3436SOL     OW11748   1.312   4.760   4.935
 3436SOL    HW111749   1.339   4.703   4.863
 3436SOL    HW211750   1.241   4.813   4.898
 3437SOL     OW11751   1.312   4.597   4.020
 3437SOL    HW111752   1.260   4.556   4.089
 3437SOL    HW211753   1.275   4.563   3.939
 3438SOL     OW11754   1.725   5.502   4.797
 3438SOL    HW111755   1.807   5.496   4.748
 3438SOL    HW211756   1.741   5.449   4.876
 3439SOL     OW11757   1.230   5.458   4.812
 3439SOL    HW111758   1.315   5.484   4.777
 3439SOL    HW211759   1.244   5.369   4.844
 3440SOL     OW11760   0.070   4.918   4.754
 3440SOL    HW111761   0.053   4.963   4.836
 3440SOL    HW211762   0.000   4.947   4.695
 3441SOL     OW11763   0.702   5.448   5.521
 3441SOL    HW111764   0.637   5.496   5.470
 3441SOL    HW211765   0.715   5.366   5.474
 3442SOL     OW11766   1.693   3.876   4.205
 3442SOL    HW111767   1.778   3.867   4.161
 3442SOL    HW211768   1.685   3.796   4.257
 3443SOL     OW11769   1.392   5.290   4.201
 3443SOL    HW111770   1.452   5.336   4.143
 3443SOL    HW211771   1.344   5.360   4.247
 3444SOL     OW11772   0.166   5.457   5.577
 3444SOL    HW111773   0.097   5.417   5.630
 3444SOL    HW211774   0.215   5.512   5.638
 3445SOL     OW11775   1.279   4.650   4.385
 3445SOL    HW111776   1.352   4.592   4.406
 3445SOL    HW211777   1.319   4.722   4.336
 3446SOL     OW11778   0.802   5.002   5.139
 3446SOL    HW111779   0.789   5.049   5.222
 3446SOL    HW211780   0.719   5.011   5.093
 3447SOL     OW11781   0.671   5.352   3.872
 3447SOL    HW111782   0.677   5.368   3.778
 3447SOL    HW211783   0.615   5.276   3.880
 3448SOL     OW11784   1.581   5.458   5.137
 3448SOL    HW111785   1.671   5.438   5.111
 3448SOL    HW211786   1.577   5.553   5.140
 3449SOL     OW11787   1.842   3.890   4.687
 3449SOL    HW111788   1.877   3.803   4.667
 3449SOL    HW211789   1.753   3.888   4.649
 3450SOL     OW11790   0.260   4.047   4.427
 3450SOL    HW111791   0.173   4.082   4.411
 3450SOL    HW211792   0.262   4.030   4.522
 3451SOL     OW11793   1.212   5.320   3.754
 3451SOL    HW111794   1.211   5.233   3.794
 3451SOL    HW211795   1.133   5.321   3.700
 3452SOL     OW11796   0.824   4.731   5.100
 3452SOL    HW111797   0.880   4.719   5.023
 3452SOL    HW211798   0.824   4.825   5.115
 3453SOL     OW11799   0.909   4.619   4.003
 3453SOL    HW111800   0.971   4.660   3.943
 3453SOL    HW211801   0.963   4.561   4.057
 3454SOL     OW11802   1.491   5.349   3.759
 3454SOL    HW111803   1.396   5.342   3.748
 3454SOL    HW211804   1.525   5.355   3.670
 3455SOL     OW11805   0.357   5.017   5.227
 3455SOL    HW111806   0.353   5.099   5.178
 3455SOL    HW211807   0.280   4.968   5.197
 3456SOL     OW11808   1.601   5.009   4.993
 3456SOL    HW111809   1.679   5.006   5.048
 3456SOL    HW211810   1.543   5.072   5.036
 3457SOL     OW11811   1.065   4.831   4.424
 3457SOL    HW111812   0.998   4.782   4.471
 3457SOL    HW211813   1.136   4.767   4.410
 3458SOL     OW11814   1.024   3.959   4.694
 3458SOL    HW111815   1.027   3.913   4.610
 3458SOL    HW211816   1.017   3.889   4.759
 3459SOL     OW11817   0.601   5.212   4.199
 3459SOL    HW111818   0.643   5.159   4.131
 3459SOL    HW211819   0.508   5.196   4.188
 3460SOL     OW11820   1.730   4.126   5.105
 3460SOL    HW111821   1.806   4.185   5.109
 3460SOL    HW211822   1.758   4.055   5.046
 3461SOL     OW11823   0.252   5.066   3.991
 3461SOL    HW111824   0.157   5.064   3.987
 3461SOL    HW211825   0.273   5.103   4.076
 3462SOL     OW11826   0.117   4.735   5.418
 3462SOL    HW111827   0.069   4.798   5.472
 3462SOL    HW211828   0.197   4.718   5.468
 3463SOL     OW11829   0.677   3.940   5.225
 3463SOL    HW111830   0.759   3.918   5.181
 3463SOL    HW211831   0.703   3.959   5.316
 3464SOL     OW11832   0.088   4.061   3.711
 3464SOL    HW111833   0.036   4.112   3.773
 3464SOL    HW211834   0.112   4.124   3.643
 3465SOL     OW11835   1.421   4.583   5.120
 3465SOL    HW111836   1.375   4.645   5.064
 3465SOL    HW211837   1.512   4.586   5.090
 3466SOL     OW11838   0.132   3.942   4.023
 3466SOL    HW111839   0.068   4.011   4.008
 3466SOL    HW211840   0.096   3.890   4.095
 3467SOL     OW11841   1.175   5.061   3.849
 3467SOL    HW111842   1.089   5.020   3.856
 3467SOL    HW211843   1.208   5.063   3.939
 3468SOL     OW11844   0.619   4.561   5.169
 3468SOL    HW111845   0.677   4.635   5.155
 3468SOL    HW211846   0.677   4.485   5.173
 3469SOL     OW11847   1.472   5.530   4.703
 3469SOL    HW111848   1.501   5.551   4.614
 3469SOL    HW211849   1.552   5.503   4.748
 3470SOL     OW11850   0.710   4.282   5.426
 3470SOL    HW111851   0.762   4.337   5.485
 3470SOL    HW211852   0.729   4.193   5.455
 3471SOL     OW11853   1.474   4.916   5.346
 3471SOL    HW111854   1.464   4.932   5.440
 3471SOL    HW211855   1.566   4.933   5.328
 3472SOL     OW11856   0.402   5.465   5.278
 3472SOL    HW111857   0.311   5.492   5.268
 3472SOL    HW211858   0.397   5.376   5.313
 3473SOL     OW11859   1.659   4.599   4.977
 3473SOL    HW111860   1.666   4.514   4.935
 3473SOL    HW211861   1.653   4.661   4.905
 3474SOL     OW11862   1.218   4.044   4.175
 3474SOL    HW111863   1.282   3.973   4.171
 3474SOL    HW211864   1.242   4.094   4.253
 3475SOL     OW11865   0.606   4.448   4.388
 3475SOL    HW111866   0.642   4.537   4.389
 3475SOL    HW211867   0.535   4.452   4.324
 3476SOL     OW11868   1.755   4.088   5.382
 3476SOL    HW111869   1.744   4.107   5.288
 3476SOL    HW211870   1.683   4.029   5.403
 3477SOL     OW11871   1.724   4.664   5.236
 3477SOL    HW111872   1.732   4.759   5.244
 3477SOL    HW211873   1.719   4.649   5.142
 3478SOL     OW11874   0.844   5.097   3.785
 3478SOL    HW111875   0.820   5.075   3.875
 3478SOL    HW211876   0.847   5.192   3.783
 3479SOL     OW11877   0.664   5.499   4.648
 3479SOL    HW111878   0.647   5.594   4.641
 3479SOL    HW211879   0.759   5.492   4.651
 3480SOL     OW11880   0.874   4.696   4.575
 3480SOL    HW111881   0.926   4.625   4.614
 3480SOL    HW211882   0.832   4.738   4.650
 3481SOL     OW11883   1.066   4.713   3.804
 3481SOL    HW111884   1.054   4.767   3.726
 3481SOL    HW211885   1.140   4.656   3.783
 3482SOL     OW11886   1.835   5.283   4.565
 3482SOL    HW111887   1.750   5.274   4.522
 3482SOL    HW211888   1.825   5.238   4.649
 3483SOL     OW11889   0.207   5.028   5.572
 3483SOL    HW111890   0.114   5.011   5.559
 3483SOL    HW211891   0.219   5.029   5.667
 3484SOL     OW11892   0.143   4.993   4.370
 3484SOL    HW111893   0.062   4.962   4.412
 3484SOL    HW211894   0.197   4.914   4.363
 3485SOL     OW11895   1.799   3.913   4.957
 3485SOL    HW111896   1.852   3.841   4.989
 3485SOL    HW211897   1.813   3.914   4.863
 3486SOL     OW11898   0.440   4.156   4.244
 3486SOL    HW111899   0.452   4.075   4.193
 3486SOL    HW211900   0.389   4.129   4.320
 3487SOL     OW11901   1.723   5.186   4.803
 3487SOL    HW111902   1.654   5.132   4.842
 3487SOL    HW211903   1.788   5.196   4.873
 3488SOL     OW11904   0.347   4.273   5.018
 3488SOL    HW111905   0.388   4.221   5.087
 3488SOL    HW211906   0.374   4.231   4.937
 3489SOL     OW11907   0.832   5.296   4.398
 3489SOL    HW111908   0.783   5.347   4.333
 3489SOL    HW211909   0.769   5.231   4.430
 3490SOL     OW11910   1.435   3.964   4.839
 3490SOL    HW111911   1.473   3.891   4.888
 3490SOL    HW211912   1.384   4.012   4.903
 3491SOL     OW11913   1.002   3.732   4.863
 3491SOL    HW111914   0.945   3.655   4.865
 3491SOL    HW211915   1.090   3.696   4.851
 3492SOL     OW11916   0.783   5.046   4.043
 3492SOL    HW111917   0.759   4.956   4.066
 3492SOL    HW211918   0.856   5.067   4.101
 3493SOL     OW11919   0.617   5.291   4.992
 3493SOL    HW111920   0.617   5.377   5.034
 3493SOL    HW211921   0.708   5.277   4.966
 3494SOL     OW11922   1.374   3.769   3.890
 3494SOL    HW111923   1.417   3.685   3.872
 3494SOL    HW211924   1.283   3.747   3.907
 3495SOL     OW11925   1.281   4.188   4.398
 3495SOL    HW111926   1.234   4.271   4.408
 3495SOL    HW211927   1.282   4.150   4.486
 3496SOL     OW11928   1.579   3.908   4.606
 3496SOL    HW111929   1.530   3.935   4.683
 3496SOL    HW211930   1.583   3.986   4.551
 3497SOL     OW11931   0.036   4.766   4.001
 3497SOL    HW111932   0.130   4.749   4.003
 3497SOL    HW211933   0.000   4.717   4.075
 3498SOL     OW11934   0.894   5.398   4.056
 3498SOL    HW111935   0.815   5.376   4.008
 3498SOL    HW211936   0.866   5.462   4.122
 3499SOL     OW11937   0.209   4.376   5.630
 3499SOL    HW111938   0.174   4.349   5.714
 3499SOL    HW211939   0.287   4.321   5.618
 3500SOL     OW11940   0.227   3.972   6.569
 3500SOL    HW111941   0.259   3.953   6.657
 3500SOL    HW211942   0.173   3.897   6.546
 3501SOL     OW11943   7.989   4.118   6.255
 3501SOL    HW111944   7.895   4.122   6.273
 3501SOL    HW211945   8.000   4.035   6.208
 3502SOL     OW11946   0.577   5.022   6.773
 3502SOL    HW111947   0.492   5.029   6.730
 3502SOL    HW211948   0.593   5.109   6.810
 3503SOL     OW11949   1.580   5.234   6.292
 3503SOL    HW111950   1.532   5.215   6.373
 3503SOL    HW211951   1.512   5.236   6.225
 3504SOL     OW11952   1.122   4.446   6.289
 3504SOL    HW111953   1.217   4.442   6.292
 3504SOL    HW211954   1.094   4.430   6.379
 3505SOL     OW11955   1.749   4.322   5.823
 3505SOL    HW111956   1.733   4.317   5.729
 3505SOL    HW211957   1.727   4.235   5.855
 3506SOL     OW11958   0.737   4.862   6.616
 3506SOL    HW111959   0.678   4.898   6.682
 3506SOL    HW211960   0.785   4.938   6.582
 3507SOL     OW11961   0.882   4.481   7.415
 3507SOL    HW111962   0.881   4.555   7.477
 3507SOL    HW211963   0.901   4.522   7.330
 3508SOL     OW11964   0.699   4.729   6.241
 3508SOL    HW111965   0.756   4.720   6.317
 3508SOL    HW211966   0.626   4.781   6.271
 3509SOL     OW11967   0.714   4.876   7.413
 3509SOL    HW111968   0.764   4.953   7.442
 3509SOL    HW211969   0.637   4.912   7.369
 3510SOL     OW11970   0.350   5.119   6.645
 3510SOL    HW111971   0.269   5.087   6.603
 3510SOL    HW211972   0.385   5.182   6.583
 3511SOL     OW11973   1.461   5.228   6.953
 3511SOL    HW111974   1.520   5.304   6.960
 3511SOL    HW211975   1.398   5.241   7.023
 3512SOL     OW11976   0.459   4.100   7.045
 3512SOL    HW111977   0.537   4.046   7.050
 3512SOL    HW211978   0.415   4.087   7.129
 3513SOL     OW11979   1.603   4.159   6.333
 3513SOL    HW111980   1.558   4.199   6.258
 3513SOL    HW211981   1.641   4.233   6.380
 3514SOL     OW11982   0.224   5.431   6.057
 3514SOL    HW111983   0.238   5.507   6.114
 3514SOL    HW211984   0.297   5.433   5.996
 3515SOL     OW11985   1.135   5.066   7.279
 3515SOL    HW111986   1.186   5.053   7.358
 3515SOL    HW211987   1.083   4.986   7.270
 3516SOL     OW11988   0.281   5.159   6.091
 3516SOL    HW111989   0.262   5.250   6.111
 3516SOL    HW211990   0.231   5.109   6.156
 3517SOL     OW11991   0.260   4.795   6.465
 3517SOL    HW111992   0.282   4.732   6.534
 3517SOL    HW211993   0.207   4.861   6.510
 3518SOL     OW11994   0.654   5.532   6.969
 3518SOL    HW111995   0.567   5.529   7.008
 3518SOL    HW211996   0.694   5.610   7.008
 3519SOL     OW11997   0.575   4.724   5.737
 3519SOL    HW111998   0.624   4.766   5.667
 3519SOL    HW211999   0.619   4.749   5.817
 3520SOL     OW12000   1.585   3.851   7.038
 3520SOL    HW112001   1.641   3.893   6.973
 3520SOL    HW212002   1.575   3.916   7.107
 3521SOL     OW12003   0.131   4.356   6.134
 3521SOL    HW112004   0.089   4.277   6.168
 3521SOL    HW212005   0.105   4.426   6.194
 3522SOL     OW12006   1.840   5.472   5.918
 3522SOL    HW112007   1.912   5.449   5.976
 3522SOL    HW212008   1.854   5.565   5.898
 3523SOL     OW12009   7.961   5.297   5.708
 3523SOL    HW112010   7.986   5.205   5.717
 3523SOL    HW212011   7.960   5.330   5.798
 3524SOL     OW12012   1.686   4.614   6.245
 3524SOL    HW112013   1.772   4.584   6.273
 3524SOL    HW212014   1.700   4.648   6.157
 3525SOL     OW12015   1.652   4.830   6.013
 3525SOL    HW112016   1.739   4.823   5.975
 3525SOL    HW212017   1.664   4.882   6.093
 3526SOL     OW12018   0.096   4.546   7.106
 3526SOL    HW112019   0.136   4.466   7.139
 3526SOL    HW212020   0.110   4.610   7.176
 3527SOL     OW12021   0.619   5.114   6.324
 3527SOL    HW112022   0.575   5.029   6.331
 3527SOL    HW212023   0.604   5.141   6.233
 3528SOL     OW12024   1.285   4.959   7.006
 3528SOL    HW112025   1.315   4.894   6.943
 3528SOL    HW212026   1.348   4.955   7.078
 3529SOL     OW12027   0.828   3.740   6.071
 3529SOL    HW112028   0.866   3.828   6.068
 3529SOL    HW212029   0.735   3.754   6.090
 3530SOL     OW12030   0.186   4.645   6.848
 3530SOL    HW112031   0.278   4.623   6.837
 3530SOL    HW212032   0.157   4.590   6.921
 3531SOL     OW12033   1.522   4.733   5.789
 3531SOL    HW112034   1.454   4.676   5.827
 3531SOL    HW212035   1.573   4.762   5.865
 3532SOL     OW12036   1.179   5.542   7.219
 3532SOL    HW112037   1.189   5.601   7.144
 3532SOL    HW212038   1.201   5.455   7.184
 3533SOL     OW12039   0.357   3.978   7.419
 3533SOL    HW112040   0.409   4.058   7.429
 3533SOL    HW212041   0.267   4.004   7.440
 3534SOL     OW12042   1.438   5.157   6.517
 3534SOL    HW112043   1.390   5.166   6.599
 3534SOL    HW212044   1.437   5.063   6.498
 3535SOL     OW12045   1.639   5.487   6.166
 3535SOL    HW112046   1.635   5.446   6.080
 3535SOL    HW212047   1.639   5.413   6.227
 3536SOL     OW12048   0.585   4.435   5.846
 3536SOL    HW112049   0.593   4.520   5.803
 3536SOL    HW212050   0.528   4.450   5.921
 3537SOL     OW12051   1.273   4.091   6.522
 3537SOL    HW112052   1.187   4.053   6.532
 3537SOL    HW212053   1.330   4.039   6.577
 3538SOL     OW12054   1.575   5.398   5.900
 3538SOL    HW112055   1.669   5.416   5.894
 3538SOL    HW212056   1.547   5.383   5.810
 3539SOL     OW12057   0.783   4.345   7.023
 3539SOL    HW112058   0.768   4.316   7.113
 3539SOL    HW212059   0.759   4.269   6.969
 3540SOL     OW12060   1.387   4.201   7.261
 3540SOL    HW112061   1.399   4.246   7.344
 3540SOL    HW212062   1.444   4.124   7.267
 3541SOL     OW12063   0.947   4.603   7.176
 3541SOL    HW112064   1.003   4.537   7.136
 3541SOL    HW212065   0.898   4.641   7.103
 3542SOL     OW12066   0.999   4.142   6.806
 3542SOL    HW112067   0.907   4.144   6.835
 3542SOL    HW212068   0.999   4.079   6.734
 3543SOL     OW12069   1.048   4.417   6.016
 3543SOL    HW112070   1.069   4.397   6.108
 3543SOL    HW212071   0.968   4.368   5.999
 3544SOL     OW12072   0.104   4.558   6.344
 3544SOL    HW112073   0.180   4.615   6.356
 3544SOL    HW212074   0.029   4.618   6.339
 3545SOL     OW12075   0.083   5.610   7.097
 3545SOL    HW112076   0.170   5.574   7.112
 3545SOL    HW212077   0.024   5.547   7.137
 3546SOL     OW12078   0.898   4.076   5.784
 3546SOL    HW112079   0.942   4.133   5.721
 3546SOL    HW212080   0.904   3.988   5.747
 3547SOL     OW12081   1.681   4.297   7.427
 3547SOL    HW112082   1.660   4.373   7.372
 3547SOL    HW212083   1.722   4.235   7.368
 3548SOL     OW12084   1.383   4.873   6.100
 3548SOL    HW112085   1.469   4.859   6.061
 3548SOL    HW212086   1.341   4.938   6.044
 3549SOL     OW12087   0.544   3.907   6.483
 3549SOL    HW112088   0.553   3.928   6.576
 3549SOL    HW212089   0.568   3.988   6.438
 3550SOL     OW12090   0.992   5.164   6.055
 3550SOL    HW112091   0.969   5.241   6.003
 3550SOL    HW212092   0.971   5.190   6.145
 3551SOL     OW12093   0.353   5.548   6.444
 3551SOL    HW112094   0.394   5.463   6.459
 3551SOL    HW212095   0.417   5.611   6.476
 3552SOL     OW12096   1.790   4.792   6.467
 3552SOL    HW112097   1.737   4.761   6.394
 3552SOL    HW212098   1.731   4.791   6.542
 3553SOL     OW12099   1.227   5.273   7.109
 3553SOL    HW112100   1.216   5.195   7.164
 3553SOL    HW212101   1.159   5.265   7.042
 3554SOL     OW12102   0.305   4.675   5.817
 3554SOL    HW112103   0.394   4.704   5.794
 3554SOL    HW212104   0.282   4.614   5.747
 3555SOL     OW12105   1.450   4.498   6.328
 3555SOL    HW112106   1.463   4.441   6.403
 3555SOL    HW212107   1.537   4.535   6.310
 3556SOL     OW12108   0.460   4.992   7.333
 3556SOL    HW112109   0.435   4.999   7.241
 3556SOL    HW212110   0.378   4.968   7.378
 3557SOL     OW12111   1.126   5.511   5.806
 3557SOL    HW112112   1.053   5.470   5.853
 3557SOL    HW212113   1.153   5.445   5.742
 3558SOL     OW12114   0.153   3.987   7.066
 3558SOL    HW112115   0.162   4.063   7.124
 3558SOL    HW212116   0.153   3.912   7.126
 3559SOL     OW12117   1.618   5.113   5.684
 3559SOL    HW112118   1.578   5.197   5.660
 3559SOL    HW212119   1.554   5.048   5.656
 3560SOL     OW12120   0.451   5.472   5.902
 3560SOL    HW112121   0.501   5.520   5.968
 3560SOL    HW212122   0.518   5.425   5.851
 3561SOL     OW12123   1.407   3.840   6.023
 3561SOL    HW112124   1.407   3.804   5.934
 3561SOL    HW212125   1.498   3.833   6.052
 3562SOL     OW12126   0.261   5.527   6.815
 3562SOL    HW112127   0.299   5.528   6.902
 3562SOL    HW212128   0.254   5.435   6.792
 3563SOL     OW12129   0.945   5.429   6.480
 3563SOL    HW112130   1.031   5.391   6.498
 3563SOL    HW212131   0.908   5.374   6.412
 3564SOL     OW12132   0.408   4.423   6.064
 3564SOL    HW112133   0.427   4.330   6.075
 3564SOL    HW212134   0.314   4.430   6.081
 3565SOL     OW12135   1.523   3.962   7.304
 3565SOL    HW112136   1.525   3.976   7.399
 3565SOL    HW212137   1.482   3.876   7.293
 3566SOL     OW12138   0.650   3.837   5.693
 3566SOL    HW112139   0.703   3.763   5.723
 3566SOL    HW212140   0.601   3.803   5.618
 3567SOL     OW12141   0.762   4.002   7.348
 3567SOL    HW112142   0.845   3.956   7.341
 3567SOL    HW212143   0.720   3.965   7.425
 3568SOL     OW12144   0.880   5.241   6.773
 3568SOL    HW112145   0.867   5.200   6.687
 3568SOL    HW212146   0.948   5.189   6.815
 3569SOL     OW12147   1.336   4.321   7.019
 3569SOL    HW112148   1.370   4.284   7.102
 3569SOL    HW212149   1.382   4.404   7.009
 3570SOL     OW12150   0.840   5.100   6.524
 3570SOL    HW112151   0.923   5.094   6.477
 3570SOL    HW212152   0.775   5.119   6.456
 3571SOL     OW12153   0.930   4.237   6.481
 3571SOL    HW112154   0.905   4.223   6.390
 3571SOL    HW212155   0.958   4.151   6.512
 3572SOL     OW12156   0.558   3.794   6.076
 3572SOL    HW112157   0.478   3.791   6.130
 3572SOL    HW212158   0.545   3.869   6.018
 3573SOL     OW12159   1.426   4.928   5.618
 3573SOL    HW112160   1.457   4.855   5.672
 3573SOL    HW212161   1.340   4.950   5.655
 3574SOL     OW12162   0.284   3.773   5.762
 3574SOL    HW112163   0.347   3.831   5.719
 3574SOL    HW212164   0.338   3.711   5.812
 3575SOL     OW12165   0.950   3.990   6.044
 3575SOL    HW112166   0.929   4.018   5.955
 3575SOL    HW212167   1.045   3.990   6.048
 3576SOL     OW12168   1.082   4.410   7.042
 3576SOL    HW112169   1.029   4.330   7.045
 3576SOL    HW212170   1.172   4.377   7.036
 3577SOL     OW12171   1.209   5.312   6.391
 3577SOL    HW112172   1.232   5.374   6.322
 3577SOL    HW212173   1.291   5.299   6.440
 3578SOL     OW12174   0.473   4.873   6.306
 3578SOL    HW112175   0.408   4.851   6.373
 3578SOL    HW212176   0.428   4.857   6.223
 3579SOL     OW12177   1.265   5.518   6.199
 3579SOL    HW112178   1.318   5.578   6.147
 3579SOL    HW212179   1.200   5.574   6.241
 3580SOL     OW12180   1.028   4.250   5.614
 3580SOL    HW112181   0.990   4.336   5.597
 3580SOL    HW212182   1.095   4.266   5.680
 3581SOL     OW12183   0.094   4.307   6.924
 3581SOL    HW112184   0.188   4.296   6.909
 3581SOL    HW212185   0.084   4.293   7.019
 3582SOL     OW12186   0.557   3.945   6.758
 3582SOL    HW112187   0.605   3.870   6.794
 3582SOL    HW212188   0.469   3.938   6.795
 3583SOL     OW12189   0.874   4.194   6.217
 3583SOL    HW112190   0.826   4.237   6.145
 3583SOL    HW212191   0.900   4.109   6.181
 3584SOL     OW12192   0.982   3.798   6.343
 3584SOL    HW112193   0.973   3.769   6.253
 3584SOL    HW212194   0.977   3.718   6.395
 3585SOL     OW12195   1.431   4.895   6.437
 3585SOL    HW112196   1.391   4.808   6.432
 3585SOL    HW212197   1.489   4.899   6.361
 3586SOL     OW12198   1.463   4.342   6.562
 3586SOL    HW112199   1.418   4.257   6.559
 3586SOL    HW212200   1.529   4.331   6.630
 3587SOL     OW12201   1.823   4.539   5.970
 3587SOL    HW112202   1.881   4.494   6.031
 3587SOL    HW212203   1.801   4.473   5.904
 3588SOL     OW12204   0.491   5.145   5.719
 3588SOL    HW112205   0.413   5.104   5.758
 3588SOL    HW212206   0.509   5.094   5.640
 3589SOL     OW12207   1.682   4.975   6.241
 3589SOL    HW112208   1.776   4.966   6.256
 3589SOL    HW212209   1.664   5.068   6.253
 3590SOL     OW12210   1.397   4.304   5.654
 3590SOL    HW112211   1.343   4.270   5.725
 3590SOL    HW212212   1.485   4.273   5.674
 3591SOL     OW12213   0.523   3.990   5.887
 3591SOL    HW112214   0.577   3.939   5.827
 3591SOL    HW212215   0.500   4.069   5.838
 3592SOL     OW12216   1.747   4.978   7.159
 3592SOL    HW112217   1.831   4.937   7.140
 3592SOL    HW212218   1.768   5.068   7.184
 3593SOL     OW12219   1.056   5.069   6.909
 3593SOL    HW112220   0.979   5.044   6.959
 3593SOL    HW212221   1.130   5.031   6.957
 3594SOL     OW12222   1.605   5.363   7.251
 3594SOL    HW112223   1.595   5.395   7.161
 3594SOL    HW212224   1.686   5.312   7.249
 3595SOL     OW12225   1.106   4.919   6.681
 3595SOL    HW112226   1.074   4.971   6.755
 3595SOL    HW212227   1.092   4.975   6.605
 3596SOL     OW12228   1.606   4.806   6.668
 3596SOL    HW112229   1.607   4.865   6.743
 3596SOL    HW212230   1.524   4.826   6.623
 3597SOL     OW12231   0.904   3.837   6.975
 3597SOL    HW112232   0.922   3.800   6.888
 3597SOL    HW212233   0.990   3.865   7.007
 3598SOL     OW12234   0.980   4.839   7.307
 3598SOL    HW112235   0.889   4.852   7.332
 3598SOL    HW212236   0.979   4.759   7.255
 3599SOL     OW12237   0.713   4.784   5.966
 3599SOL    HW112238   0.699   4.766   6.059
 3599SOL    HW212239   0.795   4.738   5.945
 3600SOL     OW12240   0.432   4.526   6.822
 3600SOL    HW112241   0.494   4.548   6.891
 3600SOL    HW212242   0.406   4.436   6.841
 3601SOL     OW12243   1.264   4.098   6.874
 3601SOL    HW112244   1.299   4.176   6.917
 3601SOL    HW212245   1.175   4.123   6.849
 3602SOL     OW12246   0.057   5.334   6.900
 3602SOL    HW112247   0.068   5.424   6.931
 3602SOL    HW212248   0.136   5.289   6.927
 3603SOL     OW12249   0.330   4.827   6.072
 3603SOL    HW112250   0.343   4.904   6.017
 3603SOL    HW212251   0.335   4.753   6.012
 3604SOL     OW12252   0.547   4.252   6.438
 3604SOL    HW112253   0.565   4.315   6.368
 3604SOL    HW212254   0.610   4.273   6.507
 3605SOL     OW12255   1.241   5.081   5.970
 3605SOL    HW112256   1.299   5.149   6.003
 3605SOL    HW212257   1.155   5.103   6.005
 3606SOL     OW12258   1.291   5.188   6.747
 3606SOL    HW112259   1.359   5.200   6.814
 3606SOL    HW212260   1.230   5.125   6.785
 3607SOL     OW12261   1.584   4.338   6.080
 3607SOL    HW112262   1.556   4.420   6.123
 3607SOL    HW212263   1.646   4.367   6.013
 3608SOL     OW12264   0.319   5.235   6.894
 3608SOL    HW112265   0.339   5.188   6.813
 3608SOL    HW212266   0.403   5.272   6.921
 3609SOL     OW12267   0.423   4.493   7.196
 3609SOL    HW112268   0.495   4.515   7.137
 3609SOL    HW212269   0.418   4.398   7.194
 3610SOL     OW12270   1.610   4.514   7.281
 3610SOL    HW112271   1.525   4.556   7.270
 3610SOL    HW212272   1.664   4.551   7.212
 3611SOL     OW12273   0.998   3.867   7.345
 3611SOL    HW112274   1.053   3.941   7.320
 3611SOL    HW212275   1.044   3.790   7.313
 3612SOL     OW12276   0.501   3.754   7.347
 3612SOL    HW112277   0.459   3.703   7.278
 3612SOL    HW212278   0.445   3.832   7.356
 3613SOL     OW12279   0.613   4.609   6.614
 3613SOL    HW112280   0.652   4.697   6.619
 3613SOL    HW212281   0.563   4.601   6.695
 3614SOL     OW12282   1.336   4.586   6.604
 3614SOL    HW112283   1.249   4.548   6.590
 3614SOL    HW212284   1.396   4.512   6.599
 3615SOL     OW12285   1.194   4.249   5.843
 3615SOL    HW112286   1.211   4.169   5.892
 3615SOL    HW212287   1.151   4.307   5.906
 3616SOL     OW12288   0.285   3.914   6.831
 3616SOL    HW112289   0.256   3.949   6.915
 3616SOL    HW212290   0.276   3.819   6.840
 3617SOL     OW12291   0.042   5.035   6.857
 3617SOL    HW112292   0.070   4.972   6.923
 3617SOL    HW212293   0.049   5.120   6.900
 3618SOL     OW12294   0.717   4.344   6.629
 3618SOL    HW112295   0.799   4.325   6.583
 3618SOL    HW212296   0.705   4.438   6.617
 3619SOL     OW12297   1.743   4.684   7.458
 3619SOL    HW112298   1.707   4.618   7.398
 3619SOL    HW212299   1.674   4.698   7.523
 3620SOL     OW12300   0.315   3.790   6.203
 3620SOL    HW112301   0.286   3.879   6.225
 3620SOL    HW212302   0.332   3.749   6.288
 3621SOL     OW12303   1.621   4.100   5.941
 3621SOL    HW112304   1.655   4.028   5.993
 3621SOL    HW212305   1.597   4.167   6.005
 3622SOL     OW12306   1.030   4.479   6.555
 3622SOL    HW112307   1.017   4.496   6.648
 3622SOL    HW212308   1.003   4.388   6.543
 3623SOL     OW12309   0.978   5.286   7.310
 3623SOL    HW112310   0.964   5.331   7.227
 3623SOL    HW212311   1.025   5.206   7.287
 3624SOL     OW12312   1.845   5.240   7.194
 3624SOL    HW112313   1.875   5.257   7.105
 3624SOL    HW212314   1.925   5.244   7.247
 3625SOL     OW12315   0.361   4.658   7.400
 3625SOL    HW112316   0.444   4.671   7.446
 3625SOL    HW212317   0.382   4.598   7.329
 3626SOL     OW12318   1.508   4.008   5.709
 3626SOL    HW112319   1.460   3.930   5.735
 3626SOL    HW212320   1.552   4.038   5.789
 3627SOL     OW12321   1.279   4.549   5.614
 3627SOL    HW112322   1.324   4.465   5.620
 3627SOL    HW212323   1.313   4.589   5.535
 3628SOL     OW12324   1.098   5.064   6.430
 3628SOL    HW112325   1.171   5.007   6.405
 3628SOL    HW212326   1.130   5.153   6.414
 3629SOL     OW12327   0.340   4.533   6.554
 3629SOL    HW112328   0.419   4.547   6.502
 3629SOL    HW212329   0.372   4.512   6.642
 3630SOL     OW12330   0.306   4.233   6.551
 3630SOL    HW112331   0.288   4.139   6.559
 3630SOL    HW212332   0.392   4.238   6.509
 3631SOL     OW12333   1.132   4.103   7.276
 3631SOL    HW112334   1.089   4.156   7.343
 3631SOL    HW212335   1.220   4.139   7.269
 3632SOL     OW12336   1.147   3.926   7.063
 3632SOL    HW112337   1.144   3.992   7.132
 3632SOL    HW212338   1.202   3.965   6.995
 3633SOL     OW12339   7.970   5.029   5.779
 3633SOL    HW112340   7.882   5.042   5.815
 3633SOL    HW212341   7.993   4.939   5.804
 3634SOL     OW12342   0.082   5.463   6.483
 3634SOL    HW112343   0.106   5.391   6.541
 3634SOL    HW212344   0.163   5.512   6.469
 3635SOL     OW12345   0.483   5.300   6.481
 3635SOL    HW112346   0.551   5.362   6.507
 3635SOL    HW212347   0.529   5.235   6.427
 3636SOL     OW12348   0.960   4.509   6.816
 3636SOL    HW112349   1.028   4.494   6.881
 3636SOL    HW212350   0.884   4.461   6.849
 3637SOL     OW12351   0.033   4.242   6.672
 3637SOL    HW112352   0.054   4.149   6.675
 3637SOL    HW212353   0.046   4.272   6.761
 3638SOL     OW12354   1.378   4.661   7.241
 3638SOL    HW112355   1.406   4.753   7.234
 3638SOL    HW212356   1.378   4.630   7.151
 3639SOL     OW12357   0.813   4.292   5.950
 3639SOL    HW112358   0.829   4.216   5.895
 3639SOL    HW212359   0.738   4.336   5.910
 3640SOL     OW12360   1.653   4.319   6.760
 3640SOL    HW112361   1.648   4.260   6.835
 3640SOL    HW212362   1.742   4.311   6.728
 3641SOL     OW12363   0.260   5.242   7.312
 3641SOL    HW112364   0.243   5.331   7.342
 3641SOL    HW212365   0.284   5.194   7.391
 3642SOL     OW12366   0.720   4.162   6.833
 3642SOL    HW112367   0.663   4.088   6.813
 3642SOL    HW212368   0.707   4.223   6.760
 3643SOL     OW12369   0.926   5.399   7.059
 3643SOL    HW112370   0.887   5.359   6.981
 3643SOL    HW212371   0.918   5.493   7.043
 3644SOL     OW12372   0.441   4.216   5.745
 3644SOL    HW112373   0.502   4.286   5.768
 3644SOL    HW212374   0.364   4.231   5.800
 3645SOL     OW12375   0.150   4.852   7.034
 3645SOL    HW112376   0.136   4.807   7.117
 3645SOL    HW212377   0.163   4.782   6.970
 3646SOL     OW12378   1.306   4.768   6.801
 3646SOL    HW112379   1.331   4.705   6.734
 3646SOL    HW212380   1.235   4.819   6.760
 3647SOL     OW12381   1.298   4.589   5.886
 3647SOL    HW112382   1.247   4.520   5.928
 3647SOL    HW212383   1.287   4.574   5.792
 3648SOL     OW12384   1.790   5.472   6.756
 3648SOL    HW112385   1.850   5.491   6.683
 3648SOL    HW212386   1.754   5.386   6.734
 3649SOL     OW12387   1.237   5.459   6.688
 3649SOL    HW112388   1.321   5.485   6.649
 3649SOL    HW212389   1.250   5.367   6.712
 3650SOL     OW12390   0.093   4.971   6.599
 3650SOL    HW112391   0.083   4.995   6.691
 3650SOL    HW212392   0.008   4.938   6.572
 3651SOL     OW12393   0.671   5.388   7.330
 3651SOL    HW112394   0.593   5.435   7.300
 3651SOL    HW212395   0.741   5.417   7.271
 3652SOL     OW12396   1.721   3.885   6.074
 3652SOL    HW112397   1.796   3.869   6.016
 3652SOL    HW212398   1.707   3.801   6.118
 3653SOL     OW12399   1.391   5.290   6.079
 3653SOL    HW112400   1.452   5.323   6.013
 3653SOL    HW212401   1.346   5.368   6.111
 3654SOL     OW12402   0.171   5.460   7.447
 3654SOL    HW112403   0.099   5.423   7.499
 3654SOL    HW212404   0.214   5.521   7.507
 3655SOL     OW12405   1.273   4.695   6.264
 3655SOL    HW112406   1.339   4.628   6.285
 3655SOL    HW212407   1.318   4.755   6.204
 3656SOL     OW12408   0.802   5.006   7.005
 3656SOL    HW112409   0.775   5.045   7.089
 3656SOL    HW212410   0.726   5.018   6.948
 3657SOL     OW12411   0.661   5.353   5.770
 3657SOL    HW112412   0.686   5.383   5.682
 3657SOL    HW212413   0.613   5.272   5.754
 3658SOL     OW12414   1.614   5.456   6.982
 3658SOL    HW112415   1.675   5.456   6.908
 3658SOL    HW212416   1.598   5.548   7.000
 3659SOL     OW12417   1.840   3.889   6.561
 3659SOL    HW112418   1.876   3.803   6.541
 3659SOL    HW212419   1.755   3.891   6.516
 3660SOL     OW12420   0.262   4.042   6.297
 3660SOL    HW112421   0.172   4.073   6.286
 3660SOL    HW212422   0.268   4.018   6.390
 3661SOL     OW12423   1.213   5.323   5.628
 3661SOL    HW112424   1.207   5.230   5.653
 3661SOL    HW212425   1.146   5.333   5.560
 3662SOL     OW12426   0.825   4.734   6.966
 3662SOL    HW112427   0.881   4.720   6.890
 3662SOL    HW212428   0.824   4.828   6.979
 3663SOL     OW12429   0.948   4.658   5.924
 3663SOL    HW112430   0.982   4.680   5.838
 3663SOL    HW212431   0.983   4.570   5.942
 3664SOL     OW12432   1.481   5.379   5.638
 3664SOL    HW112433   1.390   5.356   5.621
 3664SOL    HW212434   1.524   5.375   5.552
 3665SOL     OW12435   0.367   5.017   7.080
 3665SOL    HW112436   0.346   5.101   7.038
 3665SOL    HW212437   0.291   4.962   7.063
 3666SOL     OW12438   1.590   4.992   6.867
 3666SOL    HW112439   1.679   4.999   6.901
 3666SOL    HW212440   1.543   5.066   6.906
 3667SOL     OW12441   1.014   3.976   6.552
 3667SOL    HW112442   1.005   3.931   6.468
 3667SOL    HW212443   1.010   3.906   6.618
 3668SOL     OW12444   0.604   5.208   6.071
 3668SOL    HW112445   0.660   5.162   6.009
 3668SOL    HW212446   0.524   5.228   6.022
 3669SOL     OW12447   1.729   4.124   6.970
 3669SOL    HW112448   1.808   4.178   6.973
 3669SOL    HW212449   1.752   4.050   6.914
 3670SOL     OW12450   0.246   5.061   5.844
 3670SOL    HW112451   0.150   5.057   5.844
 3670SOL    HW212452   0.269   5.101   5.928
 3671SOL     OW12453   0.119   4.735   7.298
 3671SOL    HW112454   0.096   4.821   7.332
 3671SOL    HW212455   0.202   4.713   7.342
 3672SOL     OW12456   0.675   3.928   7.090
 3672SOL    HW112457   0.757   3.905   7.046
 3672SOL    HW212458   0.702   3.956   7.177
 3673SOL     OW12459   0.125   4.080   5.613
 3673SOL    HW112460   0.043   4.089   5.660
 3673SOL    HW212461   0.116   4.136   5.536
 3674SOL     OW12462   1.421   4.587   6.982
 3674SOL    HW112463   1.375   4.650   6.926
 3674SOL    HW212464   1.510   4.585   6.947
 3675SOL     OW12465   0.133   3.983   5.914
 3675SOL    HW112466   0.071   3.949   5.849
 3675SOL    HW212467   0.208   3.925   5.908
 3676SOL     OW12468   1.177   5.055   5.698
 3676SOL    HW112469   1.082   5.059   5.691
 3676SOL    HW212470   1.195   5.055   5.792
 3677SOL     OW12471   0.621   4.558   7.012
 3677SOL    HW112472   0.681   4.632   7.005
 3677SOL    HW212473   0.678   4.482   7.020
 3678SOL     OW12474   1.484   5.520   6.580
 3678SOL    HW112475   1.517   5.585   6.518
 3678SOL    HW212476   1.560   5.466   6.601
 3679SOL     OW12477   0.731   4.275   7.279
 3679SOL    HW112478   0.773   4.332   7.344
 3679SOL    HW212479   0.745   4.186   7.313
 3680SOL     OW12480   1.476   4.921   7.211
 3680SOL    HW112481   1.471   4.934   7.305
 3680SOL    HW212482   1.568   4.936   7.189
 3681SOL     OW12483   1.660   4.591   6.844
 3681SOL    HW112484   1.670   4.505   6.805
 3681SOL    HW212485   1.654   4.651   6.769
 3682SOL     OW12486   1.224   4.045   6.032
 3682SOL    HW112487   1.284   3.972   6.023
 3682SOL    HW212488   1.252   4.091   6.111
 3683SOL     OW12489   0.584   4.472   6.271
 3683SOL    HW112490   0.630   4.553   6.253
 3683SOL    HW212491   0.528   4.458   6.194
 3684SOL     OW12492   1.756   4.094   7.252
 3684SOL    HW112493   1.754   4.113   7.158
 3684SOL    HW212494   1.679   4.039   7.267
 3685SOL     OW12495   1.744   4.657   7.097
 3685SOL    HW112496   1.757   4.752   7.098
 3685SOL    HW212497   1.729   4.636   7.005
 3686SOL     OW12498   0.904   5.105   5.655
 3686SOL    HW112499   0.834   5.113   5.719
 3686SOL    HW212500   0.872   5.152   5.578
 3687SOL     OW12501   0.665   5.499   6.509
 3687SOL    HW112502   0.649   5.593   6.501
 3687SOL    HW212503   0.760   5.491   6.515
 3688SOL     OW12504   0.905   4.696   6.433
 3688SOL    HW112505   0.942   4.623   6.484
 3688SOL    HW212506   0.862   4.751   6.498
 3689SOL     OW12507   1.045   4.683   5.669
 3689SOL    HW112508   1.038   4.753   5.603
 3689SOL    HW212509   1.129   4.641   5.650
 3690SOL     OW12510   1.861   5.266   6.436
 3690SOL    HW112511   1.782   5.243   6.386
 3690SOL    HW212512   1.882   5.187   6.485
 3691SOL     OW12513   0.212   4.980   7.455
 3691SOL    HW112514   0.121   4.998   7.431
 3691SOL    HW212515   0.214   4.992   7.550
 3692SOL     OW12516   0.129   4.977   6.229
 3692SOL    HW112517   0.060   4.932   6.277
 3692SOL    HW212518   0.194   4.910   6.210
 3693SOL     OW12519   0.684   5.127   7.223
 3693SOL    HW112520   0.599   5.091   7.248
 3693SOL    HW212521   0.684   5.215   7.259
 3694SOL     OW12522   1.781   3.896   6.830
 3694SOL    HW112523   1.812   3.806   6.842
 3694SOL    HW212524   1.802   3.917   6.739
 3695SOL     OW12525   0.431   4.160   6.102
 3695SOL    HW112526   0.469   4.089   6.050
 3695SOL    HW212527   0.386   4.115   6.174
 3696SOL     OW12528   1.684   5.231   6.700
 3696SOL    HW112529   1.620   5.186   6.644
 3696SOL    HW212530   1.735   5.161   6.740
 3697SOL     OW12531   0.357   4.268   6.860
 3697SOL    HW112532   0.393   4.214   6.929
 3697SOL    HW212533   0.373   4.220   6.779
 3698SOL     OW12534   0.837   5.302   6.261
 3698SOL    HW112535   0.817   5.371   6.198
 3698SOL    HW212536   0.758   5.248   6.263
 3699SOL     OW12537   1.420   3.948   6.699
 3699SOL    HW112538   1.431   3.859   6.732
 3699SOL    HW212539   1.378   3.996   6.771
 3700SOL     OW12540   0.986   3.753   6.708
 3700SOL    HW112541   0.957   3.690   6.642
 3700SOL    HW212542   1.044   3.703   6.766
 3701SOL     OW12543   0.767   5.056   5.914
 3701SOL    HW112544   0.748   4.962   5.920
 3701SOL    HW212545   0.854   5.066   5.951
 3702SOL     OW12546   0.624   5.277   6.863
 3702SOL    HW112547   0.623   5.364   6.904
 3702SOL    HW212548   0.713   5.269   6.827
 3703SOL     OW12549   1.375   3.769   5.755
 3703SOL    HW112550   1.418   3.687   5.730
 3703SOL    HW212551   1.283   3.744   5.767
 3704SOL     OW12552   1.276   4.182   6.262
 3704SOL    HW112553   1.196   4.229   6.285
 3704SOL    HW212554   1.303   4.138   6.343
 3705SOL     OW12555   1.581   3.911   6.469
 3705SOL    HW112556   1.529   3.935   6.546
 3705SOL    HW212557   1.583   3.990   6.415
 3706SOL     OW12558   0.054   4.790   5.872
 3706SOL    HW112559   0.138   4.754   5.846
 3706SOL    HW212560   0.051   4.777   5.967
 3707SOL     OW12561   0.894   5.389   5.929
 3707SOL    HW112562   0.817   5.371   5.875
 3707SOL    HW212563   0.868   5.462   5.985
 3708SOL     OW12564   0.246   4.368   7.536
 3708SOL    HW112565   0.160   4.392   7.572
 3708SOL    HW212566   0.229   4.351   7.443
 3709SOL     OW12567   0.228   4.004   8.431
 3709SOL    HW112568   0.255   3.968   8.516
 3709SOL    HW212569   0.157   3.947   8.401
 3710SOL     OW12570   8.001   4.101   8.066
 3710SOL    HW112571   7.907   4.092   8.078
 3710SOL    HW212572   8.020   4.053   7.986
 3711SOL     OW12573   0.571   5.026   8.645
 3711SOL    HW112574   0.488   5.033   8.597
 3711SOL    HW212575   0.589   5.115   8.675
 3712SOL     OW12576   1.585   5.245   8.153
 3712SOL    HW112577   1.538   5.215   8.230
 3712SOL    HW212578   1.519   5.246   8.083
 3713SOL     OW12579   1.133   4.432   8.139
 3713SOL    HW112580   1.184   4.512   8.126
 3713SOL    HW212581   1.086   4.446   8.221
 3714SOL     OW12582   1.735   4.327   7.690
 3714SOL    HW112583   1.721   4.331   7.595
 3714SOL    HW212584   1.740   4.233   7.709
 3715SOL     OW12585   0.736   4.859   8.502
 3715SOL    HW112586   0.675   4.902   8.561
 3715SOL    HW212587   0.778   4.931   8.455
 3716SOL     OW12588   0.872   4.476   9.267
 3716SOL    HW112589   0.852   4.547   9.329
 3716SOL    HW212590   0.894   4.521   9.186
 3717SOL     OW12591   0.686   4.721   8.092
 3717SOL    HW112592   0.755   4.716   8.159
 3717SOL    HW212593   0.620   4.779   8.130
 3718SOL     OW12594   0.714   4.874   9.274
 3718SOL    HW112595   0.763   4.950   9.306
 3718SOL    HW212596   0.639   4.912   9.229
 3719SOL     OW12597   0.343   5.133   8.512
 3719SOL    HW112598   0.285   5.083   8.454
 3719SOL    HW212599   0.388   5.194   8.454
 3720SOL     OW12600   1.459   5.221   8.820
 3720SOL    HW112601   1.512   5.301   8.825
 3720SOL    HW212602   1.387   5.237   8.881
 3721SOL     OW12603   0.453   4.100   8.916
 3721SOL    HW112604   0.530   4.044   8.929
 3721SOL    HW212605   0.379   4.048   8.948
 3722SOL     OW12606   1.603   4.164   8.189
 3722SOL    HW112607   1.539   4.177   8.119
 3722SOL    HW212608   1.641   4.250   8.204
 3723SOL     OW12609   0.227   5.418   7.925
 3723SOL    HW112610   0.218   5.503   7.969
 3723SOL    HW212611   0.296   5.432   7.859
 3724SOL     OW12612   1.136   5.065   9.148
 3724SOL    HW112613   1.173   5.057   9.236
 3724SOL    HW212614   1.086   4.985   9.135
 3725SOL     OW12615   0.295   5.159   7.967
 3725SOL    HW112616   0.270   5.251   7.972
 3725SOL    HW212617   0.241   5.115   8.032
 3726SOL     OW12618   0.283   4.807   8.359
 3726SOL    HW112619   0.279   4.714   8.378
 3726SOL    HW212620   0.201   4.842   8.393
 3727SOL     OW12621   0.604   5.526   8.866
 3727SOL    HW112622   0.526   5.503   8.916
 3727SOL    HW212623   0.628   5.614   8.896
 3728SOL     OW12624   0.576   4.715   7.595
 3728SOL    HW112625   0.626   4.758   7.525
 3728SOL    HW212626   0.618   4.744   7.676
 3729SOL     OW12627   1.586   3.847   8.903
 3729SOL    HW112628   1.636   3.903   8.843
 3729SOL    HW212629   1.562   3.904   8.976
 3730SOL     OW12630   0.137   4.381   7.998
 3730SOL    HW112631   0.111   4.291   8.018
 3730SOL    HW212632   0.112   4.431   8.075
 3731SOL     OW12633   1.842   5.477   7.780
 3731SOL    HW112634   1.916   5.452   7.835
 3731SOL    HW212635   1.863   5.566   7.750
 3732SOL     OW12636   7.989   5.326   7.606
 3732SOL    HW112637   7.988   5.234   7.581
 3732SOL    HW212638   7.982   5.325   7.702
 3733SOL     OW12639   1.701   4.643   8.101
 3733SOL    HW112640   1.773   4.588   8.072
 3733SOL    HW212641   1.674   4.691   8.022
 3734SOL     OW12642   1.652   4.824   7.882
 3734SOL    HW112643   1.737   4.819   7.840
 3734SOL    HW212644   1.664   4.888   7.953
 3735SOL     OW12645   0.144   4.490   9.023
 3735SOL    HW112646   0.239   4.491   9.028
 3735SOL    HW212647   0.116   4.567   9.072
 3736SOL     OW12648   0.611   5.117   8.191
 3736SOL    HW112649   0.569   5.031   8.193
 3736SOL    HW212650   0.601   5.146   8.100
 3737SOL     OW12651   1.277   4.955   8.872
 3737SOL    HW112652   1.304   4.889   8.809
 3737SOL    HW212653   1.345   4.954   8.939
 3738SOL     OW12654   0.825   3.732   7.968
 3738SOL    HW112655   0.867   3.813   7.939
 3738SOL    HW212656   0.731   3.752   7.966
 3739SOL     OW12657   0.190   4.643   8.709
 3739SOL    HW112658   0.273   4.664   8.666
 3739SOL    HW212659   0.126   4.639   8.638
 3740SOL     OW12660   1.525   4.730   7.651
 3740SOL    HW112661   1.459   4.669   7.684
 3740SOL    HW212662   1.574   4.757   7.729
 3741SOL     OW12663   1.194   5.543   9.079
 3741SOL    HW112664   1.188   5.602   9.004
 3741SOL    HW212665   1.203   5.456   9.040
 3742SOL     OW12666   0.346   3.991   9.307
 3742SOL    HW112667   0.391   4.071   9.331
 3742SOL    HW212668   0.253   4.012   9.315
 3743SOL     OW12669   1.461   5.152   8.380
 3743SOL    HW112670   1.400   5.162   8.453
 3743SOL    HW212671   1.454   5.059   8.357
 3744SOL     OW12672   1.641   5.501   8.021
 3744SOL    HW112673   1.634   5.463   7.934
 3744SOL    HW212674   1.635   5.425   8.080
 3745SOL     OW12675   0.600   4.440   7.722
 3745SOL    HW112676   0.601   4.524   7.676
 3745SOL    HW212677   0.533   4.452   7.790
 3746SOL     OW12678   1.277   4.104   8.387
 3746SOL    HW112679   1.191   4.063   8.392
 3746SOL    HW212680   1.334   4.048   8.440
 3747SOL     OW12681   1.575   5.404   7.761
 3747SOL    HW112682   1.669   5.418   7.751
 3747SOL    HW212683   1.544   5.387   7.672
 3748SOL     OW12684   0.786   4.324   8.885
 3748SOL    HW112685   0.761   4.299   8.974
 3748SOL    HW212686   0.732   4.267   8.829
 3749SOL     OW12687   1.411   4.206   9.127
 3749SOL    HW112688   1.482   4.248   9.175
 3749SOL    HW212689   1.437   4.114   9.122
 3750SOL     OW12690   0.946   4.605   9.036
 3750SOL    HW112691   1.000   4.538   8.994
 3750SOL    HW212692   0.901   4.648   8.963
 3751SOL     OW12693   1.006   4.135   8.670
 3751SOL    HW112694   0.916   4.143   8.701
 3751SOL    HW212695   0.998   4.095   8.584
 3752SOL     OW12696   1.058   4.422   7.870
 3752SOL    HW112697   1.077   4.418   7.964
 3752SOL    HW212698   0.974   4.376   7.860
 3753SOL     OW12699   0.087   4.529   8.226
 3753SOL    HW112700   0.165   4.541   8.280
 3753SOL    HW212701   0.052   4.617   8.213
 3754SOL     OW12702   0.128   5.560   9.014
 3754SOL    HW112703   0.127   5.547   9.109
 3754SOL    HW212704   0.044   5.526   8.984
 3755SOL     OW12705   0.904   4.073   7.647
 3755SOL    HW112706   0.944   4.140   7.590
 3755SOL    HW212707   0.915   3.991   7.598
 3756SOL     OW12708   1.641   4.294   9.273
 3756SOL    HW112709   1.640   4.375   9.221
 3756SOL    HW212710   1.691   4.233   9.219
 3757SOL     OW12711   1.384   4.865   7.980
 3757SOL    HW112712   1.464   4.850   7.929
 3757SOL    HW212713   1.333   4.926   7.926
 3758SOL     OW12714   0.556   3.895   8.335
 3758SOL    HW112715   0.561   3.932   8.423
 3758SOL    HW212716   0.559   3.971   8.276
 3759SOL     OW12717   1.001   5.177   7.916
 3759SOL    HW112718   0.971   5.249   7.861
 3759SOL    HW212719   0.969   5.198   8.003
 3760SOL     OW12720   0.367   5.551   8.311
 3760SOL    HW112721   0.412   5.467   8.323
 3760SOL    HW212722   0.434   5.617   8.327
 3761SOL     OW12723   1.804   4.783   8.333
 3761SOL    HW112724   1.764   4.757   8.250
 3761SOL    HW212725   1.734   4.778   8.397
 3762SOL     OW12726   1.223   5.265   8.964
 3762SOL    HW112727   1.212   5.193   9.027
 3762SOL    HW212728   1.162   5.245   8.894
 3763SOL     OW12729   0.310   4.667   7.696
 3763SOL    HW112730   0.389   4.704   7.656
 3763SOL    HW212731   0.297   4.583   7.652
 3764SOL     OW12732   1.477   4.499   8.187
 3764SOL    HW112733   1.488   4.443   8.264
 3764SOL    HW212734   1.564   4.537   8.173
 3765SOL     OW12735   0.465   4.990   9.188
 3765SOL    HW112736   0.443   4.996   9.095
 3765SOL    HW212737   0.381   4.974   9.232
 3766SOL     OW12738   1.134   5.500   7.678
 3766SOL    HW112739   1.053   5.466   7.717
 3766SOL    HW212740   1.156   5.438   7.609
 3767SOL     OW12741   0.199   3.977   8.957
 3767SOL    HW112742   0.123   4.033   8.972
 3767SOL    HW212743   0.172   3.891   8.988
 3768SOL     OW12744   1.619   5.118   7.558
 3768SOL    HW112745   1.582   5.199   7.521
 3768SOL    HW212746   1.561   5.049   7.526
 3769SOL     OW12747   0.452   5.470   7.760
 3769SOL    HW112748   0.505   5.520   7.823
 3769SOL    HW212749   0.517   5.428   7.703
 3770SOL     OW12750   1.399   3.828   7.897
 3770SOL    HW112751   1.391   3.805   7.805
 3770SOL    HW212752   1.494   3.838   7.911
 3771SOL     OW12753   0.232   5.507   8.672
 3771SOL    HW112754   0.287   5.432   8.696
 3771SOL    HW212755   0.201   5.487   8.584
 3772SOL     OW12756   0.948   5.422   8.338
 3772SOL    HW112757   1.034   5.381   8.344
 3772SOL    HW212758   0.903   5.374   8.269
 3773SOL     OW12759   0.405   4.416   7.923
 3773SOL    HW112760   0.427   4.324   7.937
 3773SOL    HW212761   0.311   4.421   7.939
 3774SOL     OW12762   1.509   3.948   9.171
 3774SOL    HW112763   1.506   3.966   9.265
 3774SOL    HW212764   1.465   3.864   9.161
 3775SOL     OW12765   0.653   3.835   7.556
 3775SOL    HW112766   0.719   3.766   7.567
 3775SOL    HW212767   0.598   3.804   7.484
 3776SOL     OW12768   0.768   4.005   9.210
 3776SOL    HW112769   0.850   3.956   9.205
 3776SOL    HW212770   0.714   3.954   9.271
 3777SOL     OW12771   0.874   5.249   8.646
 3777SOL    HW112772   0.859   5.212   8.559
 3777SOL    HW212773   0.946   5.197   8.682
 3778SOL     OW12774   1.332   4.318   8.880
 3778SOL    HW112775   1.373   4.290   8.962
 3778SOL    HW212776   1.371   4.403   8.861
 3779SOL     OW12777   0.817   5.109   8.399
 3779SOL    HW112778   0.903   5.100   8.358
 3779SOL    HW212779   0.756   5.120   8.326
 3780SOL     OW12780   0.930   4.229   8.342
 3780SOL    HW112781   0.906   4.222   8.249
 3780SOL    HW212782   0.963   4.143   8.365
 3781SOL     OW12783   0.559   3.793   7.937
 3781SOL    HW112784   0.477   3.791   7.987
 3781SOL    HW212785   0.550   3.869   7.879
 3782SOL     OW12786   1.432   4.930   7.485
 3782SOL    HW112787   1.463   4.854   7.534
 3782SOL    HW212788   1.345   4.947   7.520
 3783SOL     OW12789   0.281   3.773   7.615
 3783SOL    HW112790   0.334   3.841   7.574
 3783SOL    HW212791   0.344   3.720   7.665
 3784SOL     OW12792   0.946   3.974   7.903
 3784SOL    HW112793   0.922   4.009   7.817
 3784SOL    HW212794   1.041   3.988   7.909
 3785SOL     OW12795   1.074   4.406   8.903
 3785SOL    HW112796   1.013   4.332   8.896
 3785SOL    HW212797   1.161   4.367   8.892
 3786SOL     OW12798   1.204   5.311   8.252
 3786SOL    HW112799   1.223   5.371   8.179
 3786SOL    HW212800   1.288   5.300   8.296
 3787SOL     OW12801   0.472   4.879   8.173
 3787SOL    HW112802   0.410   4.857   8.242
 3787SOL    HW212803   0.425   4.863   8.092
 3788SOL     OW12804   1.258   5.517   8.064
 3788SOL    HW112805   1.307   5.576   8.007
 3788SOL    HW212806   1.186   5.571   8.099
 3789SOL     OW12807   1.026   4.256   7.483
 3789SOL    HW112808   0.986   4.340   7.462
 3789SOL    HW212809   1.097   4.278   7.543
 3790SOL     OW12810   0.208   4.287   8.840
 3790SOL    HW112811   0.152   4.273   8.764
 3790SOL    HW212812   0.163   4.354   8.891
 3791SOL     OW12813   0.568   3.939   8.613
 3791SOL    HW112814   0.612   3.859   8.641
 3791SOL    HW212815   0.478   3.929   8.644
 3792SOL     OW12816   0.863   4.179   8.082
 3792SOL    HW112817   0.827   4.234   8.013
 3792SOL    HW212818   0.892   4.099   8.037
 3793SOL     OW12819   1.003   3.792   8.203
 3793SOL    HW112820   0.953   3.783   8.122
 3793SOL    HW212821   0.988   3.710   8.250
 3794SOL     OW12822   1.451   4.888   8.298
 3794SOL    HW112823   1.379   4.830   8.276
 3794SOL    HW212824   1.502   4.895   8.216
 3795SOL     OW12825   1.463   4.344   8.422
 3795SOL    HW112826   1.415   4.262   8.410
 3795SOL    HW212827   1.525   4.325   8.493
 3796SOL     OW12828   1.826   4.539   7.838
 3796SOL    HW112829   1.887   4.487   7.891
 3796SOL    HW212830   1.798   4.479   7.769
 3797SOL     OW12831   0.486   5.143   7.586
 3797SOL    HW112832   0.410   5.107   7.631
 3797SOL    HW212833   0.490   5.094   7.503
 3798SOL     OW12834   1.686   4.983   8.102
 3798SOL    HW112835   1.782   4.976   8.108
 3798SOL    HW212836   1.668   5.077   8.106
 3799SOL     OW12837   1.396   4.306   7.515
 3799SOL    HW112838   1.347   4.270   7.589
 3799SOL    HW212839   1.487   4.279   7.531
 3800SOL     OW12840   0.523   3.991   7.751
 3800SOL    HW112841   0.575   3.943   7.686
 3800SOL    HW212842   0.498   4.072   7.706
 3801SOL     OW12843   1.751   4.966   9.024
 3801SOL    HW112844   1.836   4.930   8.998
 3801SOL    HW212845   1.768   5.058   9.044
 3802SOL     OW12846   1.051   5.088   8.791
 3802SOL    HW112847   0.974   5.051   8.834
 3802SOL    HW212848   1.125   5.038   8.826
 3803SOL     OW12849   1.615   5.357   9.113
 3803SOL    HW112850   1.599   5.390   9.024
 3803SOL    HW212851   1.694   5.304   9.104
 3804SOL     OW12852   1.144   4.954   8.552
 3804SOL    HW112853   1.072   4.982   8.609
 3804SOL    HW212854   1.117   4.981   8.464
 3805SOL     OW12855   1.607   4.803   8.524
 3805SOL    HW112856   1.594   4.869   8.593
 3805SOL    HW212857   1.539   4.823   8.459
 3806SOL     OW12858   0.911   3.826   8.829
 3806SOL    HW112859   0.935   3.798   8.740
 3806SOL    HW212860   0.993   3.858   8.866
 3807SOL     OW12861   0.984   4.834   9.179
 3807SOL    HW112862   0.893   4.854   9.199
 3807SOL    HW212863   0.979   4.757   9.121
 3808SOL     OW12864   0.712   4.786   7.823
 3808SOL    HW112865   0.700   4.763   7.915
 3808SOL    HW212866   0.789   4.735   7.796
 3809SOL     OW12867   0.428   4.476   8.726
 3809SOL    HW112868   0.499   4.511   8.779
 3809SOL    HW212869   0.349   4.513   8.766
 3810SOL     OW12870   1.267   4.089   8.740
 3810SOL    HW112871   1.299   4.171   8.777
 3810SOL    HW212872   1.179   4.110   8.707
 3811SOL     OW12873   0.044   5.319   8.775
 3811SOL    HW112874   0.104   5.388   8.749
 3811SOL    HW212875   0.084   5.282   8.854
 3812SOL     OW12876   0.321   4.834   7.940
 3812SOL    HW112877   0.334   4.904   7.876
 3812SOL    HW212878   0.330   4.754   7.888
 3813SOL     OW12879   0.557   4.255   8.312
 3813SOL    HW112880   0.557   4.312   8.235
 3813SOL    HW212881   0.639   4.274   8.356
 3814SOL     OW12882   1.246   5.074   7.840
 3814SOL    HW112883   1.304   5.143   7.872
 3814SOL    HW212884   1.159   5.099   7.873
 3815SOL     OW12885   1.298   5.187   8.596
 3815SOL    HW112886   1.351   5.186   8.675
 3815SOL    HW212887   1.246   5.107   8.599
 3816SOL     OW12888   1.588   4.329   7.942
 3816SOL    HW112889   1.529   4.401   7.962
 3816SOL    HW212890   1.639   4.360   7.867
 3817SOL     OW12891   0.348   5.259   8.754
 3817SOL    HW112892   0.333   5.209   8.673
 3817SOL    HW212893   0.443   5.269   8.759
 3818SOL     OW12894   0.425   4.469   9.054
 3818SOL    HW112895   0.494   4.510   9.002
 3818SOL    HW212896   0.463   4.388   9.086
 3819SOL     OW12897   1.603   4.521   9.136
 3819SOL    HW112898   1.521   4.567   9.119
 3819SOL    HW212899   1.663   4.552   9.067
 3820SOL     OW12900   1.002   3.867   9.213
 3820SOL    HW112901   1.064   3.934   9.185
 3820SOL    HW212902   1.043   3.784   9.187
 3821SOL     OW12903   0.486   3.780   9.199
 3821SOL    HW112904   0.446   3.724   9.133
 3821SOL    HW212905   0.425   3.852   9.211
 3822SOL     OW12906   0.617   4.593   8.491
 3822SOL    HW112907   0.640   4.685   8.486
 3822SOL    HW212908   0.542   4.590   8.550
 3823SOL     OW12909   1.336   4.581   8.475
 3823SOL    HW112910   1.268   4.577   8.407
 3823SOL    HW212911   1.387   4.501   8.462
 3824SOL     OW12912   1.203   4.247   7.710
 3824SOL    HW112913   1.211   4.167   7.764
 3824SOL    HW212914   1.160   4.310   7.768
 3825SOL     OW12915   0.301   3.919   8.696
 3825SOL    HW112916   0.268   3.944   8.782
 3825SOL    HW212917   0.285   3.824   8.691
 3826SOL     OW12918   0.049   5.030   8.720
 3826SOL    HW112919   0.075   4.979   8.797
 3826SOL    HW212920   0.052   5.121   8.750
 3827SOL     OW12921   0.744   4.350   8.507
 3827SOL    HW112922   0.814   4.334   8.444
 3827SOL    HW212923   0.713   4.438   8.487
 3828SOL     OW12924   1.747   4.678   9.319
 3828SOL    HW112925   1.703   4.624   9.254
 3828SOL    HW212926   1.678   4.700   9.382
 3829SOL     OW12927   0.315   3.791   8.063
 3829SOL    HW112928   0.288   3.881   8.083
 3829SOL    HW212929   0.324   3.749   8.148
 3830SOL     OW12930   1.606   4.085   7.812
 3830SOL    HW112931   1.652   4.023   7.868
 3830SOL    HW212932   1.593   4.162   7.866
 3831SOL     OW12933   1.021   4.484   8.397
 3831SOL    HW112934   1.019   4.500   8.491
 3831SOL    HW212935   1.004   4.390   8.388
 3832SOL     OW12936   0.985   5.294   9.173
 3832SOL    HW112937   0.964   5.336   9.089
 3832SOL    HW212938   1.024   5.210   9.149
 3833SOL     OW12939   1.851   5.226   9.051
 3833SOL    HW112940   1.873   5.249   8.960
 3833SOL    HW212941   1.933   5.237   9.098
 3834SOL     OW12942   0.360   4.677   9.235
 3834SOL    HW112943   0.432   4.686   9.298
 3834SOL    HW212944   0.384   4.600   9.184
 3835SOL     OW12945   1.506   3.998   7.571
 3835SOL    HW112946   1.448   3.927   7.602
 3835SOL    HW212947   1.546   4.031   7.651
 3836SOL     OW12948   1.285   4.552   7.475
 3836SOL    HW112949   1.328   4.466   7.480
 3836SOL    HW212950   1.318   4.590   7.394
 3837SOL     OW12951   1.069   5.069   8.310
 3837SOL    HW112952   1.074   4.996   8.248
 3837SOL    HW212953   1.121   5.139   8.270
 3838SOL     OW12954   0.323   4.528   8.390
 3838SOL    HW112955   0.407   4.529   8.344
 3838SOL    HW212956   0.324   4.445   8.439
 3839SOL     OW12957   0.368   4.233   8.498
 3839SOL    HW112958   0.310   4.164   8.467
 3839SOL    HW212959   0.435   4.241   8.430
 3840SOL     OW12960   1.145   4.101   9.138
 3840SOL    HW112961   1.093   4.154   9.199
 3840SOL    HW212962   1.228   4.148   9.131
 3841SOL     OW12963   1.151   3.921   8.925
 3841SOL    HW112964   1.146   3.986   8.995
 3841SOL    HW212965   1.199   3.964   8.855
 3842SOL     OW12966   7.984   5.031   7.665
 3842SOL    HW112967   7.891   5.045   7.683
 3842SOL    HW212968   7.995   4.936   7.668
 3843SOL     OW12969   0.130   5.474   8.415
 3843SOL    HW112970   0.105   5.406   8.353
 3843SOL    HW212971   0.206   5.516   8.376
 3844SOL     OW12972   0.492   5.303   8.355
 3844SOL    HW112973   0.563   5.362   8.381
 3844SOL    HW212974   0.533   5.240   8.296
 3845SOL     OW12975   0.967   4.513   8.667
 3845SOL    HW112976   1.024   4.493   8.742
 3845SOL    HW212977   0.890   4.458   8.681
 3846SOL     OW12978   0.075   4.231   8.613
 3846SOL    HW112979   0.072   4.138   8.592
 3846SOL    HW212980  -0.013   4.251   8.645
 3847SOL     OW12981   0.193   4.256   9.167
 3847SOL    HW112982   0.240   4.209   9.098
 3847SOL    HW212983   0.155   4.331   9.121
 3848SOL     OW12984   1.376   4.669   9.091
 3848SOL    HW112985   1.400   4.762   9.084
 3848SOL    HW212986   1.372   4.639   9.001
 3849SOL     OW12987   0.819   4.292   7.822
 3849SOL    HW112988   0.828   4.220   7.760
 3849SOL    HW212989   0.747   4.344   7.787
 3850SOL     OW12990   1.643   4.320   8.633
 3850SOL    HW112991   1.636   4.254   8.702
 3850SOL    HW212992   1.731   4.308   8.597
 3851SOL     OW12993   0.292   5.258   9.169
 3851SOL    HW112994   0.252   5.330   9.219
 3851SOL    HW212995   0.283   5.182   9.226
 3852SOL     OW12996   0.641   4.192   8.693
 3852SOL    HW112997   0.634   4.103   8.658
 3852SOL    HW212998   0.678   4.244   8.621
 3853SOL     OW12999   0.910   5.406   8.928
 3853SOL    HW113000   0.894   5.358   8.847
 3853SOL    HW213001   0.903   5.498   8.903
 3854SOL     OW13002   0.467   4.221   7.613
 3854SOL    HW113003   0.530   4.287   7.643
 3854SOL    HW213004   0.392   4.272   7.582
 3855SOL     OW13005   0.158   4.843   8.904
 3855SOL    HW113006   0.132   4.801   8.986
 3855SOL    HW213007   0.165   4.772   8.841
 3856SOL     OW13008   1.307   4.766   8.669
 3856SOL    HW113009   1.325   4.701   8.601
 3856SOL    HW213010   1.250   4.830   8.626
 3857SOL     OW13011   1.312   4.577   7.751
 3857SOL    HW113012   1.237   4.537   7.795
 3857SOL    HW213013   1.295   4.564   7.658
 3858SOL     OW13014   1.798   5.456   8.625
 3858SOL    HW113015   1.854   5.480   8.550
 3858SOL    HW213016   1.753   5.377   8.596
 3859SOL     OW13017   1.244   5.462   8.566
 3859SOL    HW113018   1.324   5.486   8.520
 3859SOL    HW213019   1.251   5.367   8.579
 3860SOL     OW13020   0.056   4.921   8.475
 3860SOL    HW113021   0.057   4.960   8.562
 3860SOL    HW213022  -0.017   4.963   8.430
 3861SOL     OW13023   0.684   5.395   9.185
 3861SOL    HW113024   0.624   5.469   9.176
 3861SOL    HW213025   0.755   5.414   9.124
 3862SOL     OW13026   1.736   3.887   7.951
 3862SOL    HW113027   1.800   3.870   7.882
 3862SOL    HW213028   1.717   3.801   7.988
 3863SOL     OW13029   1.399   5.291   7.946
 3863SOL    HW113030   1.454   5.323   7.874
 3863SOL    HW213031   1.343   5.366   7.969
 3864SOL     OW13032   0.171   5.466   9.292
 3864SOL    HW113033   0.104   5.420   9.342
 3864SOL    HW213034   0.215   5.522   9.355
 3865SOL     OW13035   1.278   4.667   8.129
 3865SOL    HW113036   1.350   4.607   8.145
 3865SOL    HW213037   1.311   4.730   8.066
 3866SOL     OW13038   0.796   5.003   8.868
 3866SOL    HW113039   0.768   5.045   8.950
 3866SOL    HW213040   0.726   5.021   8.806
 3867SOL     OW13041   0.662   5.352   7.605
 3867SOL    HW113042   0.674   5.369   7.511
 3867SOL    HW213043   0.608   5.273   7.608
 3868SOL     OW13044   1.617   5.450   8.847
 3868SOL    HW113045   1.674   5.450   8.770
 3868SOL    HW213046   1.602   5.543   8.866
 3869SOL     OW13047   1.840   3.890   8.423
 3869SOL    HW113048   1.874   3.804   8.398
 3869SOL    HW213049   1.757   3.898   8.376
 3870SOL     OW13050   0.259   4.043   8.152
 3870SOL    HW113051   0.171   4.071   8.127
 3870SOL    HW213052   0.258   4.044   8.248
 3871SOL     OW13053   1.204   5.320   7.484
 3871SOL    HW113054   1.197   5.228   7.508
 3871SOL    HW213055   1.138   5.332   7.416
 3872SOL     OW13056   0.825   4.733   8.827
 3872SOL    HW113057   0.865   4.721   8.741
 3872SOL    HW213058   0.819   4.828   8.837
 3873SOL     OW13059   0.923   4.640   7.748
 3873SOL    HW113060   0.978   4.670   7.675
 3873SOL    HW213061   0.973   4.569   7.788
 3874SOL     OW13062   1.478   5.381   7.495
 3874SOL    HW113063   1.388   5.356   7.478
 3874SOL    HW213064   1.521   5.379   7.410
 3875SOL     OW13065   0.369   5.024   8.938
 3875SOL    HW113066   0.351   5.103   8.886
 3875SOL    HW213067   0.295   4.967   8.920
 3876SOL     OW13068   1.593   5.000   8.717
 3876SOL    HW113069   1.680   5.002   8.757
 3876SOL    HW213070   1.544   5.067   8.764
 3877SOL     OW13071   1.064   4.842   8.167
 3877SOL    HW113072   0.991   4.788   8.198
 3877SOL    HW213073   1.131   4.779   8.141
 3878SOL     OW13074   1.023   3.969   8.420
 3878SOL    HW113075   1.018   3.925   8.335
 3878SOL    HW213076   1.021   3.897   8.484
 3879SOL     OW13077   0.612   5.216   7.938
 3879SOL    HW113078   0.664   5.165   7.875
 3879SOL    HW213079   0.527   5.227   7.895
 3880SOL     OW13080   1.740   4.112   8.843
 3880SOL    HW113081   1.814   4.173   8.836
 3880SOL    HW213082   1.761   4.043   8.780
 3881SOL     OW13083   0.253   5.054   7.723
 3881SOL    HW113084   0.158   5.062   7.716
 3881SOL    HW213085   0.273   5.097   7.806
 3882SOL     OW13086   0.099   4.726   9.160
 3882SOL    HW113087   0.065   4.812   9.186
 3882SOL    HW213088   0.184   4.720   9.201
 3883SOL     OW13089   0.681   3.930   8.948
 3883SOL    HW113090   0.762   3.902   8.905
 3883SOL    HW213091   0.708   3.957   9.035
 3884SOL     OW13092   0.117   4.089   7.495
 3884SOL    HW113093   0.035   4.111   7.539
 3884SOL    HW213094   0.117   4.142   7.415
 3885SOL     OW13095   1.421   4.581   8.838
 3885SOL    HW113096   1.369   4.639   8.783
 3885SOL    HW213097   1.508   4.581   8.800
 3886SOL     OW13098   0.067   3.936   7.847
 3886SOL    HW113099   0.028   3.965   7.765
 3886SOL    HW213100   0.161   3.935   7.830
 3887SOL     OW13101   1.178   5.054   7.566
 3887SOL    HW113102   1.087   5.024   7.565
 3887SOL    HW213103   1.203   5.052   7.659
 3888SOL     OW13104   0.630   4.551   8.889
 3888SOL    HW113105   0.684   4.628   8.872
 3888SOL    HW213106   0.692   4.478   8.890
 3889SOL     OW13107   1.482   5.523   8.442
 3889SOL    HW113108   1.511   5.584   8.374
 3889SOL    HW213109   1.553   5.459   8.447
 3890SOL     OW13110   0.710   4.276   9.141
 3890SOL    HW113111   0.757   4.335   9.201
 3890SOL    HW213112   0.728   4.188   9.175
 3891SOL     OW13113   1.478   4.922   9.075
 3891SOL    HW113114   1.470   4.942   9.168
 3891SOL    HW213115   1.570   4.940   9.054
 3892SOL     OW13116   0.386   5.467   9.015
 3892SOL    HW113117   0.299   5.499   8.992
 3892SOL    HW213118   0.371   5.380   9.052
 3893SOL     OW13119   1.661   4.596   8.707
 3893SOL    HW113120   1.662   4.510   8.665
 3893SOL    HW213121   1.649   4.657   8.635
 3894SOL     OW13122   1.215   4.039   7.907
 3894SOL    HW113123   1.279   3.969   7.900
 3894SOL    HW213124   1.244   4.091   7.981
 3895SOL     OW13125   0.567   4.472   8.140
 3895SOL    HW113126   0.619   4.549   8.118
 3895SOL    HW213127   0.516   4.454   8.060
 3896SOL     OW13128   1.741   4.091   9.120
 3896SOL    HW113129   1.749   4.104   9.025
 3896SOL    HW213130   1.673   4.025   9.130
 3897SOL     OW13131   1.759   4.652   8.958
 3897SOL    HW113132   1.747   4.747   8.965
 3897SOL    HW213133   1.738   4.632   8.867
 3898SOL     OW13134   0.867   5.093   7.498
 3898SOL    HW113135   0.824   5.131   7.574
 3898SOL    HW213136   0.884   5.168   7.441
 3899SOL     OW13137   0.672   5.503   8.391
 3899SOL    HW113138   0.655   5.594   8.366
 3899SOL    HW213139   0.766   5.492   8.377
 3900SOL     OW13140   0.868   4.699   8.301
 3900SOL    HW113141   0.918   4.623   8.332
 3900SOL    HW213142   0.829   4.736   8.380
 3901SOL     OW13143   1.070   4.709   7.534
 3901SOL    HW113144   1.053   4.762   7.456
 3901SOL    HW213145   1.147   4.656   7.510
 3902SOL     OW13146   1.851   5.274   8.296
 3902SOL    HW113147   1.775   5.259   8.240
 3902SOL    HW213148   1.871   5.188   8.334
 3903SOL     OW13149   0.212   5.023   9.301
 3903SOL    HW113150   0.120   5.010   9.279
 3903SOL    HW213151   0.216   5.021   9.396
 3904SOL     OW13152   0.135   4.982   8.105
 3904SOL    HW113153   0.063   4.928   8.140
 3904SOL    HW213154   0.194   4.919   8.064
 3905SOL     OW13155   0.687   5.130   9.086
 3905SOL    HW113156   0.602   5.095   9.114
 3905SOL    HW213157   0.687   5.220   9.118
 3906SOL     OW13158   1.794   3.894   8.692
 3906SOL    HW113159   1.811   3.800   8.701
 3906SOL    HW213160   1.809   3.913   8.600
 3907SOL     OW13161   0.453   4.158   7.983
 3907SOL    HW113162   0.472   4.096   7.912
 3907SOL    HW213163   0.389   4.113   8.038
 3908SOL     OW13164   1.670   5.230   8.553
 3908SOL    HW113165   1.605   5.206   8.486
 3908SOL    HW213166   1.684   5.150   8.603
 3909SOL     OW13167   0.832   5.315   8.116
 3909SOL    HW113168   0.819   5.388   8.056
 3909SOL    HW213169   0.756   5.258   8.101
 3910SOL     OW13170   1.426   3.953   8.558
 3910SOL    HW113171   1.439   3.861   8.582
 3910SOL    HW213172   1.380   3.991   8.633
 3911SOL     OW13173   1.006   3.735   8.580
 3911SOL    HW113174   0.956   3.671   8.529
 3911SOL    HW213175   1.094   3.697   8.585
 3912SOL     OW13176   0.771   5.058   7.784
 3912SOL    HW113177   0.748   4.965   7.784
 3912SOL    HW213178   0.860   5.061   7.819
 3913SOL     OW13179   0.622   5.283   8.738
 3913SOL    HW113180   0.621   5.368   8.782
 3913SOL    HW213181   0.709   5.277   8.700
 3914SOL     OW13182   1.355   3.772   7.633
 3914SOL    HW113183   1.391   3.711   7.568
 3914SOL    HW213184   1.266   3.741   7.650
 3915SOL     OW13185   1.285   4.190   8.123
 3915SOL    HW113186   1.238   4.274   8.127
 3915SOL    HW213187   1.288   4.161   8.214
 3916SOL     OW13188   1.584   3.921   8.330
 3916SOL    HW113189   1.531   3.949   8.404
 3916SOL    HW213190   1.586   3.997   8.271
 3917SOL     OW13191   0.050   4.762   7.719
 3917SOL    HW113192   0.142   4.743   7.702
 3917SOL    HW213193   0.042   4.758   7.814
 3918SOL     OW13194   0.888   5.392   7.782
 3918SOL    HW113195   0.812   5.375   7.727
 3918SOL    HW213196   0.860   5.464   7.839
 3919SOL     OW13197   0.250   4.425   9.398
 3919SOL    HW113198   0.209   4.376   9.470
 3919SOL    HW213199   0.239   4.369   9.322
 3920SOL     OW13200   0.235   3.990  10.290
 3920SOL    HW113201   0.256   3.962  10.379
 3920SOL    HW213202   0.155   3.942  10.268
 3921SOL     OW13203   8.006   4.102   9.920
 3921SOL    HW113204   7.913   4.097   9.941
 3921SOL    HW213205   8.015   4.055   9.837
 3922SOL     OW13206   0.576   5.024  10.508
 3922SOL    HW113207   0.493   5.025  10.461
 3922SOL    HW213208   0.590   5.115  10.534
 3923SOL     OW13209   1.590   5.248  10.021
 3923SOL    HW113210   1.542   5.219  10.098
 3923SOL    HW213211   1.524   5.254   9.952
 3924SOL     OW13212   1.138   4.415   9.999
 3924SOL    HW113213   1.186   4.496   9.982
 3924SOL    HW213214   1.089   4.433  10.079
 3925SOL     OW13215   1.728   4.311   9.526
 3925SOL    HW113216   1.712   4.316   9.431
 3925SOL    HW213217   1.784   4.234   9.537
 3926SOL     OW13218   0.747   4.862  10.365
 3926SOL    HW113219   0.683   4.901  10.424
 3926SOL    HW213220   0.782   4.935  10.314
 3927SOL     OW13221   0.879   4.478  11.131
 3927SOL    HW113222   0.869   4.549  11.195
 3927SOL    HW213223   0.899   4.522  11.049
 3928SOL     OW13224   0.688   4.716   9.954
 3928SOL    HW113225   0.753   4.714  10.024
 3928SOL    HW213226   0.618   4.773   9.988
 3929SOL     OW13227   0.715   4.876  11.138
 3929SOL    HW113228   0.766   4.952  11.166
 3929SOL    HW213229   0.640   4.914  11.092
 3930SOL     OW13230   0.342   5.137  10.373
 3930SOL    HW113231   0.294   5.080  10.313
 3930SOL    HW213232   0.390   5.197  10.317
 3931SOL     OW13233   1.457   5.224  10.679
 3931SOL    HW113234   1.510   5.303  10.687
 3931SOL    HW213235   1.384   5.237  10.740
 3932SOL     OW13236   0.446   4.111  10.807
 3932SOL    HW113237   0.525   4.057  10.807
 3932SOL    HW213238   0.374   4.047  10.803
 3933SOL     OW13239   1.589   4.161  10.044
 3933SOL    HW113240   1.502   4.168  10.004
 3933SOL    HW213241   1.596   4.240  10.098
 3934SOL     OW13242   0.227   5.428   9.786
 3934SOL    HW113243   0.236   5.509   9.835
 3934SOL    HW213244   0.295   5.433   9.719
 3935SOL     OW13245   1.139   5.066  11.007
 3935SOL    HW113246   1.178   5.055  11.094
 3935SOL    HW213247   1.088   4.986  10.994
 3936SOL     OW13248   0.278   5.159   9.821
 3936SOL    HW113249   0.262   5.253   9.835
 3936SOL    HW213250   0.232   5.115   9.893
 3937SOL     OW13251   0.284   4.806  10.223
 3937SOL    HW113252   0.280   4.712  10.242
 3937SOL    HW213253   0.203   4.841  10.260
 3938SOL     OW13254   0.607   5.522  10.738
 3938SOL    HW113255   0.526   5.504  10.784
 3938SOL    HW213256   0.628   5.613  10.760
 3939SOL     OW13257   0.574   4.714   9.456
 3939SOL    HW113258   0.623   4.759   9.387
 3939SOL    HW213259   0.614   4.745   9.537
 3940SOL     OW13260   1.587   3.861  10.767
 3940SOL    HW113261   1.625   3.937  10.723
 3940SOL    HW213262   1.568   3.891  10.856
 3941SOL     OW13263   0.142   4.347   9.863
 3941SOL    HW113264   0.095   4.269   9.892
 3941SOL    HW213265   0.118   4.415   9.926
 3942SOL     OW13266   1.909   5.472   9.699
 3942SOL    HW113267   1.833   5.466   9.756
 3942SOL    HW213268   1.901   5.558   9.658
 3943SOL     OW13269   0.013   5.312   9.454
 3943SOL    HW113270  -0.000   5.218   9.445
 3943SOL    HW213271  -0.006   5.330   9.546
 3944SOL     OW13272   1.697   4.651   9.958
 3944SOL    HW113273   1.773   4.602   9.926
 3944SOL    HW213274   1.669   4.703   9.883
 3945SOL     OW13275   1.653   4.826   9.739
 3945SOL    HW113276   1.738   4.820   9.695
 3945SOL    HW213277   1.665   4.894   9.805
 3946SOL     OW13278   0.157   4.474  10.906
 3946SOL    HW113279   0.252   4.488  10.899
 3946SOL    HW213280   0.124   4.557  10.940
 3947SOL     OW13281   0.587   5.111  10.062
 3947SOL    HW113282   0.551   5.023  10.054
 3947SOL    HW213283   0.598   5.141   9.971
 3948SOL     OW13284   1.279   4.954  10.733
 3948SOL    HW113285   1.306   4.887  10.670
 3948SOL    HW213286   1.343   4.947  10.804
 3949SOL     OW13287   0.820   3.724   9.853
 3949SOL    HW113288   0.866   3.801   9.818
 3949SOL    HW213289   0.727   3.747   9.846
 3950SOL     OW13290   0.170   4.639  10.588
 3950SOL    HW113291   0.262   4.615  10.576
 3950SOL    HW213292   0.133   4.641  10.500
 3951SOL     OW13293   1.531   4.722   9.511
 3951SOL    HW113294   1.464   4.662   9.541
 3951SOL    HW213295   1.571   4.757   9.590
 3952SOL     OW13296   1.183   5.541  10.939
 3952SOL    HW113297   1.183   5.603  10.867
 3952SOL    HW213298   1.197   5.455  10.898
 3953SOL     OW13299   0.357   3.977  11.156
 3953SOL    HW113300   0.395   4.064  11.173
 3953SOL    HW213301   0.263   3.991  11.159
 3954SOL     OW13302   1.471   5.147  10.246
 3954SOL    HW113303   1.403   5.165  10.312
 3954SOL    HW213304   1.453   5.057  10.219
 3955SOL     OW13305   1.682   5.470   9.848
 3955SOL    HW113306   1.627   5.446   9.773
 3955SOL    HW213307   1.652   5.412   9.919
 3956SOL     OW13308   0.595   4.439   9.581
 3956SOL    HW113309   0.594   4.524   9.536
 3956SOL    HW213310   0.532   4.448   9.652
 3957SOL     OW13311   1.281   4.101  10.247
 3957SOL    HW113312   1.192   4.067  10.256
 3957SOL    HW213313   1.333   4.046  10.304
 3958SOL     OW13314   1.581   5.407   9.598
 3958SOL    HW113315   1.667   5.419   9.557
 3958SOL    HW213316   1.523   5.387   9.525
 3959SOL     OW13317   0.791   4.338  10.757
 3959SOL    HW113318   0.762   4.310  10.843
 3959SOL    HW213319   0.761   4.269  10.697
 3960SOL     OW13320   1.391   4.199  10.985
 3960SOL    HW113321   1.397   4.242  11.071
 3960SOL    HW213322   1.444   4.120  10.994
 3961SOL     OW13323   0.947   4.608  10.896
 3961SOL    HW113324   1.001   4.540  10.855
 3961SOL    HW213325   0.900   4.648  10.823
 3962SOL     OW13326   0.997   4.131  10.536
 3962SOL    HW113327   0.905   4.144  10.561
 3962SOL    HW213328   0.993   4.094  10.448
 3963SOL     OW13329   1.064   4.412   9.724
 3963SOL    HW113330   1.079   4.409   9.819
 3963SOL    HW213331   0.979   4.370   9.712
 3964SOL     OW13332   0.091   4.524  10.077
 3964SOL    HW113333   0.168   4.535  10.132
 3964SOL    HW213334   0.055   4.612  10.067
 3965SOL     OW13335   0.131   5.583  10.873
 3965SOL    HW113336   0.122   5.565  10.966
 3965SOL    HW213337   0.054   5.541  10.833
 3966SOL     OW13338   0.900   4.073   9.508
 3966SOL    HW113339   0.945   4.135   9.450
 3966SOL    HW213340   0.874   4.001   9.450
 3967SOL     OW13341   1.699   4.296  11.146
 3967SOL    HW113342   1.669   4.370  11.093
 3967SOL    HW213343   1.725   4.230  11.081
 3968SOL     OW13344   1.393   4.866   9.860
 3968SOL    HW113345   1.469   4.857   9.803
 3968SOL    HW213346   1.336   4.928   9.815
 3969SOL     OW13347   0.558   3.893  10.211
 3969SOL    HW113348   0.560   3.929  10.299
 3969SOL    HW213349   0.551   3.970  10.154
 3970SOL     OW13350   0.366   5.551  10.174
 3970SOL    HW113351   0.412   5.468  10.186
 3970SOL    HW213352   0.434   5.618  10.187
 3971SOL     OW13353   1.806   4.783  10.183
 3971SOL    HW113354   1.758   4.757  10.104
 3971SOL    HW213355   1.739   4.785  10.251
 3972SOL     OW13356   1.222   5.265  10.824
 3972SOL    HW113357   1.212   5.192  10.886
 3972SOL    HW213358   1.160   5.245  10.754
 3973SOL     OW13359   0.310   4.662   9.550
 3973SOL    HW113360   0.396   4.688   9.515
 3973SOL    HW213361   0.287   4.584   9.499
 3974SOL     OW13362   1.497   4.470  10.023
 3974SOL    HW113363   1.488   4.437  10.112
 3974SOL    HW213364   1.571   4.531  10.027
 3975SOL     OW13365   0.464   4.993  11.054
 3975SOL    HW113366   0.441   4.999  10.961
 3975SOL    HW213367   0.380   4.980  11.098
 3976SOL     OW13368   1.137   5.510   9.539
 3976SOL    HW113369   1.047   5.498   9.568
 3976SOL    HW213370   1.151   5.439   9.476
 3977SOL     OW13371   0.194   3.987  10.797
 3977SOL    HW113372   0.149   4.065  10.830
 3977SOL    HW213373   0.160   3.915  10.850
 3978SOL     OW13374   1.635   5.118   9.414
 3978SOL    HW113375   1.592   5.199   9.388
 3978SOL    HW213376   1.572   5.049   9.391
 3979SOL     OW13377   0.455   5.470   9.621
 3979SOL    HW113378   0.509   5.516   9.686
 3979SOL    HW213379   0.519   5.426   9.564
 3980SOL     OW13380   1.395   3.819   9.754
 3980SOL    HW113381   1.389   3.796   9.661
 3980SOL    HW213382   1.488   3.806   9.775
 3981SOL     OW13383   0.238   5.505  10.537
 3981SOL    HW113384   0.291   5.428  10.557
 3981SOL    HW213385   0.206   5.489  10.448
 3982SOL     OW13386   0.946   5.423  10.211
 3982SOL    HW113387   1.033   5.383  10.205
 3982SOL    HW213388   0.894   5.379  10.144
 3983SOL     OW13389   0.414   4.413   9.793
 3983SOL    HW113390   0.434   4.320   9.804
 3983SOL    HW213391   0.319   4.419   9.805
 3984SOL     OW13392   1.520   3.950  11.031
 3984SOL    HW113393   1.528   3.970  11.125
 3984SOL    HW213394   1.462   3.873  11.028
 3985SOL     OW13395   0.659   3.822   9.400
 3985SOL    HW113396   0.718   3.748   9.384
 3985SOL    HW213397   0.588   3.810   9.336
 3986SOL     OW13398   0.760   4.005  11.068
 3986SOL    HW113399   0.844   3.958  11.064
 3986SOL    HW213400   0.715   3.967  11.144
 3987SOL     OW13401   0.872   5.246  10.507
 3987SOL    HW113402   0.860   5.214  10.418
 3987SOL    HW213403   0.946   5.196  10.541
 3988SOL     OW13404   1.334   4.314  10.741
 3988SOL    HW113405   1.366   4.283  10.826
 3988SOL    HW213406   1.373   4.401  10.731
 3989SOL     OW13407   0.822   5.107  10.255
 3989SOL    HW113408   0.907   5.100  10.213
 3989SOL    HW213409   0.762   5.130  10.183
 3990SOL     OW13410   0.930   4.233  10.205
 3990SOL    HW113411   0.905   4.224  10.113
 3990SOL    HW213412   0.959   4.146  10.230
 3991SOL     OW13413   0.562   3.784   9.803
 3991SOL    HW113414   0.479   3.786   9.850
 3991SOL    HW213415   0.557   3.857   9.742
 3992SOL     OW13416   1.436   4.936   9.354
 3992SOL    HW113417   1.457   4.857   9.402
 3992SOL    HW213418   1.347   4.959   9.383
 3993SOL     OW13419   0.279   3.783   9.486
 3993SOL    HW113420   0.328   3.847   9.434
 3993SOL    HW213421   0.347   3.729   9.526
 3994SOL     OW13422   0.945   3.961   9.763
 3994SOL    HW113423   0.920   3.998   9.678
 3994SOL    HW213424   1.039   3.979   9.770
 3995SOL     OW13425   1.078   4.410  10.764
 3995SOL    HW113426   1.014   4.339  10.764
 3995SOL    HW213427   1.163   4.367  10.756
 3996SOL     OW13428   1.196   5.332  10.131
 3996SOL    HW113429   1.207   5.371  10.045
 3996SOL    HW213430   1.283   5.335  10.170
 3997SOL     OW13431   0.470   4.865  10.032
 3997SOL    HW113432   0.407   4.848  10.102
 3997SOL    HW213433   0.420   4.853   9.951
 3998SOL     OW13434   1.263   5.518   9.924
 3998SOL    HW113435   1.304   5.581   9.865
 3998SOL    HW213436   1.183   5.561   9.953
 3999SOL     OW13437   1.025   4.261   9.341
 3999SOL    HW113438   0.969   4.334   9.312
 3999SOL    HW213439   1.093   4.304   9.393
 4000SOL     OW13440   0.105   4.311  10.694
 4000SOL    HW113441   0.196   4.301  10.666
 4000SOL    HW213442   0.107   4.375  10.764
 4001SOL     OW13443   0.562   3.949  10.486
 4001SOL    HW113444   0.602   3.874  10.531
 4001SOL    HW213445   0.469   3.942  10.507
 4002SOL     OW13446   0.868   4.176   9.944
 4002SOL    HW113447   0.824   4.234   9.882
 4002SOL    HW213448   0.889   4.098   9.892
 4003SOL     OW13449   1.016   3.777  10.066
 4003SOL    HW113450   0.953   3.776   9.994
 4003SOL    HW213451   0.994   3.700  10.119
 4004SOL     OW13452   1.430   4.887  10.160
 4004SOL    HW113453   1.345   4.844  10.171
 4004SOL    HW213454   1.445   4.887  10.065
 4005SOL     OW13455   1.463   4.339  10.270
 4005SOL    HW113456   1.404   4.264  10.274
 4005SOL    HW213457   1.520   4.328  10.347
 4006SOL     OW13458   1.813   4.525   9.696
 4006SOL    HW113459   1.876   4.475   9.747
 4006SOL    HW213460   1.792   4.468   9.622
 4007SOL     OW13461   0.487   5.135   9.445
 4007SOL    HW113462   0.409   5.104   9.491
 4007SOL    HW213463   0.488   5.086   9.364
 4008SOL     OW13464   1.702   4.999   9.936
 4008SOL    HW113465   1.796   5.001   9.955
 4008SOL    HW213466   1.670   5.084   9.967
 4009SOL     OW13467   0.541   3.972   9.609
 4009SOL    HW113468   0.586   3.924   9.540
 4009SOL    HW213469   0.516   4.055   9.569
 4010SOL     OW13470   1.745   4.967  10.859
 4010SOL    HW113471   1.832   4.931  10.847
 4010SOL    HW213472   1.760   5.056  10.892
 4011SOL     OW13473   1.054   5.092  10.656
 4011SOL    HW113474   0.976   5.053  10.696
 4011SOL    HW213475   1.126   5.038  10.688
 4012SOL     OW13476   1.613   5.356  10.977
 4012SOL    HW113477   1.599   5.389  10.889
 4012SOL    HW213478   1.692   5.303  10.971
 4013SOL     OW13479   1.147   4.952  10.410
 4013SOL    HW113480   1.069   4.971  10.462
 4013SOL    HW213481   1.125   4.981  10.322
 4014SOL     OW13482   1.617   4.817  10.381
 4014SOL    HW113483   1.609   4.882  10.450
 4014SOL    HW213484   1.543   4.834  10.323
 4015SOL     OW13485   0.917   3.816  10.702
 4015SOL    HW113486   0.938   3.796  10.611
 4015SOL    HW213487   0.997   3.854  10.738
 4016SOL     OW13488   0.984   4.837  11.035
 4016SOL    HW113489   0.893   4.855  11.057
 4016SOL    HW213490   0.981   4.759  10.979
 4017SOL     OW13491   0.713   4.789   9.684
 4017SOL    HW113492   0.700   4.768   9.776
 4017SOL    HW213493   0.789   4.737   9.658
 4018SOL     OW13494   0.428   4.547  10.565
 4018SOL    HW113495   0.496   4.560  10.631
 4018SOL    HW213496   0.402   4.456  10.576
 4019SOL     OW13497   1.262   4.093  10.597
 4019SOL    HW113498   1.293   4.173  10.639
 4019SOL    HW213499   1.171   4.113  10.572
 4020SOL     OW13500   0.046   5.321  10.635
 4020SOL    HW113501   0.108   5.387  10.606
 4020SOL    HW213502   0.086   5.283  10.714
 4021SOL     OW13503   0.320   4.833   9.798
 4021SOL    HW113504   0.333   4.907   9.738
 4021SOL    HW213505   0.327   4.755   9.743
 4022SOL     OW13506   0.547   4.253  10.178
 4022SOL    HW113507   0.559   4.310  10.102
 4022SOL    HW213508   0.617   4.279  10.239
 4023SOL     OW13509   1.267   5.067   9.707
 4023SOL    HW113510   1.319   5.141   9.738
 4023SOL    HW213511   1.180   5.083   9.742
 4024SOL     OW13512   1.298   5.189  10.453
 4024SOL    HW113513   1.346   5.186  10.536
 4024SOL    HW213514   1.242   5.111  10.456
 4025SOL     OW13515   1.553   4.360   9.769
 4025SOL    HW113516   1.515   4.391   9.852
 4025SOL    HW213517   1.624   4.422   9.751
 4026SOL     OW13518   0.349   5.257  10.616
 4026SOL    HW113519   0.333   5.208  10.535
 4026SOL    HW213520   0.444   5.267  10.620
 4027SOL     OW13521   0.438   4.462  10.926
 4027SOL    HW113522   0.493   4.507  10.862
 4027SOL    HW213523   0.488   4.383  10.949
 4028SOL     OW13524   1.618   4.511  11.001
 4028SOL    HW113525   1.531   4.550  10.992
 4028SOL    HW213526   1.669   4.549  10.930
 4029SOL     OW13527   0.994   3.866  11.073
 4029SOL    HW113528   1.053   3.938  11.049
 4029SOL    HW213529   1.039   3.787  11.042
 4030SOL     OW13530   0.498   3.758  11.068
 4030SOL    HW113531   0.453   3.708  11.000
 4030SOL    HW213532   0.444   3.836  11.080
 4031SOL     OW13533   0.596   4.595  10.347
 4031SOL    HW113534   0.623   4.687  10.339
 4031SOL    HW213535   0.532   4.595  10.418
 4032SOL     OW13536   1.333   4.580  10.330
 4032SOL    HW113537   1.248   4.565  10.289
 4032SOL    HW213538   1.382   4.499  10.313
 4033SOL     OW13539   1.253   4.247   9.599
 4033SOL    HW113540   1.226   4.166   9.641
 4033SOL    HW213541   1.194   4.314   9.635
 4034SOL     OW13542   0.300   3.910  10.552
 4034SOL    HW113543   0.258   3.943  10.632
 4034SOL    HW213544   0.280   3.816  10.553
 4035SOL     OW13545   0.042   5.029  10.584
 4035SOL    HW113546   0.073   4.976  10.657
 4035SOL    HW213547   0.050   5.119  10.615
 4036SOL     OW13548   0.726   4.353  10.365
 4036SOL    HW113549   0.799   4.343  10.304
 4036SOL    HW213550   0.693   4.441  10.349
 4037SOL     OW13551   1.746   4.687  11.175
 4037SOL    HW113552   1.706   4.618  11.122
 4037SOL    HW213553   1.681   4.704  11.243
 4038SOL     OW13554   0.321   3.791   9.924
 4038SOL    HW113555   0.290   3.879   9.944
 4038SOL    HW213556   0.323   3.747  10.009
 4039SOL     OW13557   1.604   4.089   9.700
 4039SOL    HW113558   1.650   4.016   9.741
 4039SOL    HW213559   1.612   4.161   9.763
 4040SOL     OW13560   1.035   4.480  10.265
 4040SOL    HW113561   1.021   4.496  10.358
 4040SOL    HW213562   1.006   4.390  10.251
 4041SOL     OW13563   0.981   5.288  11.033
 4041SOL    HW113564   0.963   5.333  10.950
 4041SOL    HW213565   1.026   5.208  11.008
 4042SOL     OW13566   1.847   5.222  10.915
 4042SOL    HW113567   1.869   5.250  10.826
 4042SOL    HW213568   1.928   5.233  10.965
 4043SOL     OW13569   0.365   4.661  11.107
 4043SOL    HW113570   0.441   4.680  11.161
 4043SOL    HW213571   0.394   4.592  11.048
 4044SOL     OW13572   1.485   4.021   9.455
 4044SOL    HW113573   1.428   3.944   9.459
 4044SOL    HW213574   1.547   4.008   9.526
 4045SOL     OW13575   1.293   4.552   9.319
 4045SOL    HW113576   1.347   4.474   9.307
 4045SOL    HW213577   1.310   4.605   9.241
 4046SOL     OW13578   1.078   5.063  10.169
 4046SOL    HW113579   1.079   4.988  10.110
 4046SOL    HW213580   1.104   5.137  10.114
 4047SOL     OW13581   0.318   4.527  10.244
 4047SOL    HW113582   0.411   4.540  10.228
 4047SOL    HW213583   0.312   4.440  10.282
 4048SOL     OW13584   0.330   4.240  10.332
 4048SOL    HW113585   0.294   4.154  10.311
 4048SOL    HW213586   0.407   4.248  10.275
 4049SOL     OW13587   1.134   4.096  10.999
 4049SOL    HW113588   1.088   4.151  11.062
 4049SOL    HW213589   1.220   4.137  10.991
 4050SOL     OW13590   1.158   3.919  10.787
 4050SOL    HW113591   1.148   3.983  10.857
 4050SOL    HW213592   1.203   3.966  10.717
 4051SOL     OW13593   7.983   5.032   9.517
 4051SOL    HW113594   7.891   5.043   9.542
 4051SOL    HW213595   8.000   4.938   9.525
 4052SOL     OW13596   0.131   5.482  10.286
 4052SOL    HW113597   0.103   5.410  10.230
 4052SOL    HW213598   0.208   5.518  10.241
 4053SOL     OW13599   0.493   5.309  10.222
 4053SOL    HW113600   0.567   5.364  10.246
 4053SOL    HW213601   0.530   5.243  10.163
 4054SOL     OW13602   0.967   4.506  10.528
 4054SOL    HW113603   1.024   4.490  10.603
 4054SOL    HW213604   0.884   4.464  10.551
 4055SOL     OW13605   0.071   4.280  10.425
 4055SOL    HW113606   0.164   4.271  10.403
 4055SOL    HW213607   0.070   4.285  10.521
 4056SOL     OW13608   0.209   4.222  11.001
 4056SOL    HW113609   0.289   4.204  10.953
 4056SOL    HW213610   0.176   4.304  10.964
 4057SOL     OW13611   1.384   4.652  10.965
 4057SOL    HW113612   1.405   4.745  10.959
 4057SOL    HW213613   1.377   4.623  10.874
 4058SOL     OW13614   0.820   4.294   9.677
 4058SOL    HW113615   0.824   4.220   9.617
 4058SOL    HW213616   0.745   4.346   9.646
 4059SOL     OW13617   1.637   4.325  10.485
 4059SOL    HW113618   1.627   4.263  10.558
 4059SOL    HW213619   1.726   4.310  10.453
 4060SOL     OW13620   0.289   5.262  11.034
 4060SOL    HW113621   0.246   5.333  11.083
 4060SOL    HW213622   0.278   5.185  11.090
 4061SOL     OW13623   0.718   4.166  10.561
 4061SOL    HW113624   0.662   4.093  10.534
 4061SOL    HW213625   0.711   4.230  10.490
 4062SOL     OW13626   0.909   5.404  10.790
 4062SOL    HW113627   0.894   5.356  10.709
 4062SOL    HW213628   0.902   5.496  10.765
 4063SOL     OW13629   0.465   4.203   9.490
 4063SOL    HW113630   0.515   4.284   9.502
 4063SOL    HW213631   0.379   4.223   9.526
 4064SOL     OW13632   0.157   4.848  10.767
 4064SOL    HW113633   0.135   4.803  10.848
 4064SOL    HW213634   0.162   4.778  10.701
 4065SOL     OW13635   1.314   4.767  10.527
 4065SOL    HW113636   1.330   4.702  10.458
 4065SOL    HW213637   1.256   4.831  10.486
 4066SOL     OW13638   1.327   4.558   9.597
 4066SOL    HW113639   1.251   4.552   9.656
 4066SOL    HW213640   1.289   4.565   9.510
 4067SOL     OW13641   1.791   5.453  10.478
 4067SOL    HW113642   1.847   5.479  10.406
 4067SOL    HW213643   1.755   5.369  10.451
 4068SOL     OW13644   1.248   5.466  10.438
 4068SOL    HW113645   1.325   5.487  10.385
 4068SOL    HW213646   1.249   5.370  10.444
 4069SOL     OW13647   0.056   4.915  10.340
 4069SOL    HW113648   0.054   4.957  10.426
 4069SOL    HW213649  -0.009   4.963  10.289
 4070SOL     OW13650   0.686   5.399  11.053
 4070SOL    HW113651   0.621   5.463  11.024
 4070SOL    HW213652   0.759   5.411  10.992
 4071SOL     OW13653   1.744   3.885   9.812
 4071SOL    HW113654   1.808   3.866   9.744
 4071SOL    HW213655   1.719   3.799   9.847
 4072SOL     OW13656   1.414   5.300   9.813
 4072SOL    HW113657   1.444   5.331   9.728
 4072SOL    HW213658   1.343   5.359   9.837
 4073SOL     OW13659   0.166   5.474  11.153
 4073SOL    HW113660   0.102   5.425  11.205
 4073SOL    HW213661   0.220   5.519  11.218
 4074SOL     OW13662   1.286   4.636   9.956
 4074SOL    HW113663   1.364   4.582   9.973
 4074SOL    HW213664   1.320   4.717   9.918
 4075SOL     OW13665   0.798   5.004  10.731
 4075SOL    HW113666   0.768   5.046  10.811
 4075SOL    HW213667   0.729   5.023  10.667
 4076SOL     OW13668   0.650   5.352   9.458
 4076SOL    HW113669   0.669   5.365   9.365
 4076SOL    HW213670   0.600   5.270   9.461
 4077SOL     OW13671   1.617   5.451  10.708
 4077SOL    HW113672   1.672   5.453  10.630
 4077SOL    HW213673   1.602   5.543  10.729
 4078SOL     OW13674   1.843   3.889  10.277
 4078SOL    HW113675   1.873   3.801  10.254
 4078SOL    HW213676   1.757   3.896  10.237
 4079SOL     OW13677   0.261   4.040  10.013
 4079SOL    HW113678   0.174   4.071   9.989
 4079SOL    HW213679   0.259   4.035  10.109
 4080SOL     OW13680   1.205   5.321   9.346
 4080SOL    HW113681   1.192   5.230   9.375
 4080SOL    HW213682   1.137   5.335   9.280
 4081SOL     OW13683   0.824   4.735  10.687
 4081SOL    HW113684   0.856   4.727  10.597
 4081SOL    HW213685   0.817   4.829  10.702
 4082SOL     OW13686   0.921   4.635   9.608
 4082SOL    HW113687   0.977   4.667   9.538
 4082SOL    HW213688   0.970   4.563   9.647
 4083SOL     OW13689   1.479   5.358   9.350
 4083SOL    HW113690   1.386   5.343   9.333
 4083SOL    HW213691   1.518   5.361   9.263
 4084SOL     OW13692   0.368   5.029  10.805
 4084SOL    HW113693   0.354   5.104  10.747
 4084SOL    HW213694   0.297   4.968  10.782
 4085SOL     OW13695   1.608   5.012  10.586
 4085SOL    HW113696   1.661   4.989  10.662
 4085SOL    HW213697   1.546   5.077  10.619
 4086SOL     OW13698   1.086   4.817  10.057
 4086SOL    HW113699   1.001   4.777  10.076
 4086SOL    HW213700   1.128   4.756   9.996
 4087SOL     OW13701   1.028   3.970  10.279
 4087SOL    HW113702   1.026   3.923  10.196
 4087SOL    HW213703   1.022   3.902  10.346
 4088SOL     OW13704   0.610   5.211   9.805
 4088SOL    HW113705   0.670   5.168   9.744
 4088SOL    HW213706   0.530   5.225   9.755
 4089SOL     OW13707   1.736   4.111  10.694
 4089SOL    HW113708   1.807   4.175  10.691
 4089SOL    HW213709   1.763   4.041  10.635
 4090SOL     OW13710   0.252   5.055   9.577
 4090SOL    HW113711   0.156   5.053   9.569
 4090SOL    HW213712   0.268   5.098   9.661
 4091SOL     OW13713   0.108   4.724  11.018
 4091SOL    HW113714   0.073   4.809  11.048
 4091SOL    HW213715   0.192   4.716  11.064
 4092SOL     OW13716   0.678   3.921  10.812
 4092SOL    HW113717   0.761   3.899  10.770
 4092SOL    HW213718   0.702   3.953  10.898
 4093SOL     OW13719   0.091   4.078   9.351
 4093SOL    HW113720   0.017   4.113   9.400
 4093SOL    HW213721   0.107   4.142   9.282
 4094SOL     OW13722   1.421   4.580  10.704
 4094SOL    HW113723   1.369   4.640  10.650
 4094SOL    HW213724   1.508   4.583  10.665
 4095SOL     OW13725   0.083   3.964   9.678
 4095SOL    HW113726   0.027   3.951   9.602
 4095SOL    HW213727   0.167   3.926   9.653
 4096SOL     OW13728   1.176   5.054   9.432
 4096SOL    HW113729   1.082   5.036   9.431
 4096SOL    HW213730   1.199   5.054   9.525
 4097SOL     OW13731   0.627   4.556  10.751
 4097SOL    HW113732   0.683   4.632  10.734
 4097SOL    HW213733   0.686   4.482  10.753
 4098SOL     OW13734   1.479   5.523  10.300
 4098SOL    HW113735   1.500   5.589  10.233
 4098SOL    HW213736   1.563   5.482  10.320
 4099SOL     OW13737   0.708   4.281  11.010
 4099SOL    HW113738   0.760   4.337  11.066
 4099SOL    HW213739   0.728   4.192  11.040
 4100SOL     OW13740   1.475   4.912  10.936
 4100SOL    HW113741   1.466   4.932  11.029
 4100SOL    HW213742   1.566   4.934  10.915
 4101SOL     OW13743   0.384   5.473  10.883
 4101SOL    HW113744   0.299   5.506  10.856
 4101SOL    HW213745   0.366   5.385  10.918
 4102SOL     OW13746   1.660   4.601  10.564
 4102SOL    HW113747   1.656   4.516  10.521
 4102SOL    HW213748   1.648   4.664  10.493
 4103SOL     OW13749   1.216   4.032   9.776
 4103SOL    HW113750   1.278   3.959   9.768
 4103SOL    HW213751   1.249   4.083   9.850
 4104SOL     OW13752   0.590   4.458   9.999
 4104SOL    HW113753   0.633   4.542   9.981
 4104SOL    HW213754   0.530   4.445   9.925
 4105SOL     OW13755   1.751   4.089  10.970
 4105SOL    HW113756   1.744   4.104  10.876
 4105SOL    HW213757   1.677   4.032  10.991
 4106SOL     OW13758   1.760   4.654  10.816
 4106SOL    HW113759   1.741   4.747  10.829
 4106SOL    HW213760   1.735   4.636  10.725
 4107SOL     OW13761   0.875   5.084   9.369
 4107SOL    HW113762   0.836   5.104   9.454
 4107SOL    HW213763   0.878   5.168   9.323
 4108SOL     OW13764   0.675   5.511  10.266
 4108SOL    HW113765   0.657   5.595  10.224
 4108SOL    HW213766   0.765   5.490  10.241
 4109SOL     OW13767   0.864   4.693  10.168
 4109SOL    HW113768   0.916   4.621  10.205
 4109SOL    HW213769   0.828   4.738  10.243
 4110SOL     OW13770   1.080   4.704   9.402
 4110SOL    HW113771   1.051   4.762   9.332
 4110SOL    HW213772   1.152   4.653   9.364
 4111SOL     OW13773   1.852   5.272  10.123
 4111SOL    HW113774   1.762   5.269  10.091
 4111SOL    HW213775   1.856   5.206  10.191
 4112SOL     OW13776   0.212   5.026  11.165
 4112SOL    HW113777   0.120   5.009  11.143
 4112SOL    HW213778   0.214   5.025  11.261
 4113SOL     OW13779   0.139   4.981   9.976
 4113SOL    HW113780   0.064   4.928  10.005
 4113SOL    HW213781   0.196   4.919   9.931
 4114SOL     OW13782   0.687   5.130  10.951
 4114SOL    HW113783   0.602   5.095  10.975
 4114SOL    HW213784   0.686   5.220  10.982
 4115SOL     OW13785   1.812   3.900  10.548
 4115SOL    HW113786   1.812   3.806  10.562
 4115SOL    HW213787   1.824   3.910  10.453
 4116SOL     OW13788   0.454   4.151   9.840
 4116SOL    HW113789   0.472   4.083   9.775
 4116SOL    HW213790   0.391   4.110   9.900
 4117SOL     OW13791   1.692   5.214  10.398
 4117SOL    HW113792   1.616   5.194  10.343
 4117SOL    HW213793   1.693   5.143  10.463
 4118SOL     OW13794   0.360   4.286  10.607
 4118SOL    HW113795   0.407   4.224  10.662
 4118SOL    HW213796   0.370   4.251  10.518
 4119SOL     OW13797   0.813   5.305  10.011
 4119SOL    HW113798   0.881   5.262   9.959
 4119SOL    HW213799   0.734   5.299   9.957
 4120SOL     OW13800   1.426   3.955  10.424
 4120SOL    HW113801   1.440   3.866  10.457
 4120SOL    HW213802   1.378   3.999  10.494
 4121SOL     OW13803   1.007   3.742  10.444
 4121SOL    HW113804   0.952   3.674  10.405
 4121SOL    HW213805   1.096   3.704  10.443
 4122SOL     OW13806   0.781   5.070   9.636
 4122SOL    HW113807   0.763   4.977   9.650
 4122SOL    HW213808   0.855   5.089   9.693
 4123SOL     OW13809   0.621   5.284  10.601
 4123SOL    HW113810   0.622   5.368  10.647
 4123SOL    HW213811   0.708   5.276  10.562
 4124SOL     OW13812   1.365   3.771   9.481
 4124SOL    HW113813   1.406   3.701   9.430
 4124SOL    HW213814   1.275   3.741   9.496
 4125SOL     OW13815   1.307   4.188   9.988
 4125SOL    HW113816   1.252   4.266   9.983
 4125SOL    HW213817   1.294   4.155  10.077
 4126SOL     OW13818   1.584   3.916  10.195
 4126SOL    HW113819   1.530   3.944  10.269
 4126SOL    HW213820   1.581   3.990  10.134
 4127SOL     OW13821   0.062   4.777   9.578
 4127SOL    HW113822   0.150   4.743   9.565
 4127SOL    HW213823   0.040   4.753   9.668
 4128SOL     OW13824   0.873   5.451   9.607
 4128SOL    HW113825   0.802   5.402   9.566
 4128SOL    HW213826   0.883   5.411   9.693
 4129SOL     OW13827   0.215   4.422  11.266
 4129SOL    HW113828   0.213   4.342  11.318
 4129SOL    HW213829   0.223   4.392  11.176
 4130SOL     OW13830   0.238   3.997  12.148
 4130SOL    HW113831   0.272   3.969  12.233
 4130SOL    HW213832   0.153   3.953  12.141
 4131SOL     OW13833   7.990   4.078  11.815
 4131SOL    HW113834   7.897   4.091  11.831
 4131SOL    HW213835   7.996   3.992  11.772
 4132SOL     OW13836   0.545   4.971  12.341
 4132SOL    HW113837   0.471   5.012  12.296
 4132SOL    HW213838   0.554   5.022  12.422
 4133SOL     OW13839   1.583   5.244  11.885
 4133SOL    HW113840   1.540   5.218  11.965
 4133SOL    HW213841   1.513   5.247  11.819
 4134SOL     OW13842   1.135   4.424  11.865
 4134SOL    HW113843   1.181   4.508  11.854
 4134SOL    HW213844   1.083   4.435  11.945
 4135SOL     OW13845   1.777   4.320  11.401
 4135SOL    HW113846   1.750   4.318  11.309
 4135SOL    HW213847   1.740   4.239  11.438
 4136SOL     OW13848   0.763   4.859  12.236
 4136SOL    HW113849   0.681   4.889  12.275
 4136SOL    HW213850   0.795   4.934  12.185
 4137SOL     OW13851   0.689   4.719  11.819
 4137SOL    HW113852   0.755   4.716  11.888
 4137SOL    HW213853   0.620   4.776  11.854
 4138SOL     OW13854   0.345   5.131  12.227
 4138SOL    HW113855   0.279   5.083  12.177
 4138SOL    HW213856   0.386   5.189  12.163
 4139SOL     OW13857   1.600   4.161  11.918
 4139SOL    HW113858   1.538   4.176  11.847
 4139SOL    HW213859   1.591   4.238  11.974
 4140SOL     OW13860   0.228   5.415  11.658
 4140SOL    HW113861   0.199   5.501  11.689
 4140SOL    HW213862   0.299   5.434  11.597
 4141SOL     OW13863   0.304   5.157  11.691
 4141SOL    HW113864   0.274   5.247  11.698
 4141SOL    HW213865   0.248   5.108  11.751
 4142SOL     OW13866   0.280   4.812  12.078
 4142SOL    HW113867   0.278   4.718  12.097
 4142SOL    HW213868   0.198   4.845  12.113
 4143SOL     OW13869   0.577   4.713  11.317
 4143SOL    HW113870   0.626   4.759  11.249
 4143SOL    HW213871   0.616   4.743  11.399
 4144SOL     OW13872   0.004   4.351  11.740
 4144SOL    HW113873   0.016   4.263  11.774
 4144SOL    HW213874   0.047   4.408  11.804
 4145SOL     OW13875   1.843   5.476  11.496
 4145SOL    HW113876   1.915   5.453  11.555
 4145SOL    HW213877   1.858   5.568  11.474
 4146SOL     OW13878   0.013   5.321  11.316
 4146SOL    HW113879  -0.002   5.228  11.296
 4146SOL    HW213880   0.000   5.327  11.411
 4147SOL     OW13881   1.695   4.647  11.821
 4147SOL    HW113882   1.770   4.597  11.790
 4147SOL    HW213883   1.668   4.699  11.745
 4148SOL     OW13884   1.651   4.826  11.604
 4148SOL    HW113885   1.737   4.823  11.562
 4148SOL    HW213886   1.660   4.891  11.673
 4149SOL     OW13887   0.154   4.457   0.285
 4149SOL    HW113888   0.149   4.425   0.375
 4149SOL    HW213889   0.217   4.528   0.288
 4150SOL     OW13890   0.613   5.120  11.903
 4150SOL    HW113891   0.568   5.036  11.909
 4150SOL    HW213892   0.597   5.149  11.813
 4151SOL     OW13893   0.827   3.733  11.695
 4151SOL    HW113894   0.868   3.814  11.665
 4151SOL    HW213895   0.733   3.751  11.693
 4152SOL     OW13896   0.184   4.645  12.450
 4152SOL    HW113897   0.273   4.617  12.430
 4152SOL    HW213898   0.143   4.655  12.364
 4153SOL     OW13899   1.531   4.728  11.373
 4153SOL    HW113900   1.463   4.669  11.404
 4153SOL    HW213901   1.574   4.759  11.452
 4154SOL     OW13902   1.474   5.138  12.117
 4154SOL    HW113903   1.405   5.154  12.182
 4154SOL    HW213904   1.458   5.048  12.087
 4155SOL     OW13905   1.649   5.495  11.744
 4155SOL    HW113906   1.629   5.456  11.659
 4155SOL    HW213907   1.639   5.422  11.806
 4156SOL     OW13908   0.599   4.438  11.434
 4156SOL    HW113909   0.601   4.523  11.391
 4156SOL    HW213910   0.543   4.450  11.511
 4157SOL     OW13911   1.285   4.105  12.109
 4157SOL    HW113912   1.197   4.068  12.108
 4157SOL    HW213913   1.335   4.047  12.167
 4158SOL     OW13914   1.576   5.401  11.487
 4158SOL    HW113915   1.669   5.421  11.475
 4158SOL    HW213916   1.544   5.385  11.398
 4159SOL     OW13917   0.982   4.060  12.386
 4159SOL    HW113918   0.939   4.125  12.441
 4159SOL    HW213919   0.932   4.062  12.304
 4160SOL     OW13920   1.056   4.421  11.595
 4160SOL    HW113921   1.075   4.415  11.688
 4160SOL    HW213922   0.972   4.377  11.584
 4161SOL     OW13923   0.097   4.516  11.944
 4161SOL    HW113924   0.178   4.527  11.994
 4161SOL    HW213925   0.055   4.602  11.947
 4162SOL     OW13926   0.063   5.471   0.278
 4162SOL    HW113927   0.106   5.482   0.362
 4162SOL    HW213928  -0.017   5.523   0.285
 4163SOL     OW13929   0.901   4.073  11.368
 4163SOL    HW113930   0.942   4.138  11.311
 4163SOL    HW213931   0.904   3.992  11.318
 4164SOL     OW13932   1.383   4.867  11.710
 4164SOL    HW113933   1.462   4.854  11.656
 4164SOL    HW213934   1.330   4.928  11.660
 4165SOL     OW13935   0.560   3.906  12.064
 4165SOL    HW113936   0.561   3.968  12.137
 4165SOL    HW213937   0.554   3.961  11.986
 4166SOL     OW13938   0.998   5.174  11.640
 4166SOL    HW113939   0.968   5.248  11.586
 4166SOL    HW213940   0.968   5.195  11.728
 4167SOL     OW13941   0.361   5.550  12.031
 4167SOL    HW113942   0.405   5.465  12.042
 4167SOL    HW213943   0.428   5.614  12.052
 4168SOL     OW13944   1.802   4.780  12.050
 4168SOL    HW113945   1.755   4.755  11.971
 4168SOL    HW213946   1.735   4.783  12.118
 4169SOL     OW13947   0.312   4.664  11.416
 4169SOL    HW113948   0.396   4.692  11.380
 4169SOL    HW213949   0.284   4.592  11.360
 4170SOL     OW13950   1.482   4.483  11.887
 4170SOL    HW113951   1.481   4.440  11.973
 4170SOL    HW213952   1.562   4.535  11.888
 4171SOL     OW13953   1.129   5.498  11.403
 4171SOL    HW113954   1.049   5.463  11.441
 4171SOL    HW213955   1.152   5.436  11.334
 4172SOL     OW13956   1.634   5.112  11.273
 4172SOL    HW113957   1.592   5.196  11.254
 4172SOL    HW213958   1.568   5.046  11.248
 4173SOL     OW13959   0.455   5.467  11.489
 4173SOL    HW113960   0.507   5.514  11.555
 4173SOL    HW213961   0.520   5.421  11.436
 4174SOL     OW13962   1.397   3.828  11.618
 4174SOL    HW113963   1.390   3.803  11.526
 4174SOL    HW213964   1.491   3.828  11.635
 4175SOL     OW13965   0.224   5.514  12.393
 4175SOL    HW113966   0.238   5.430  12.438
 4175SOL    HW213967   0.180   5.491  12.312
 4176SOL     OW13968   0.948   5.418  12.067
 4176SOL    HW113969   1.030   5.370  12.074
 4176SOL    HW213970   0.899   5.372  11.999
 4177SOL     OW13971   0.422   4.422  11.645
 4177SOL    HW113972   0.428   4.328  11.663
 4177SOL    HW213973   0.330   4.436  11.623
 4178SOL     OW13974   0.655   3.832  11.275
 4178SOL    HW113975   0.719   3.761  11.283
 4178SOL    HW213976   0.598   3.805  11.203
 4179SOL     OW13977   0.811   5.087  12.102
 4179SOL    HW113978   0.899   5.095  12.065
 4179SOL    HW213979   0.752   5.104  12.029
 4180SOL     OW13980   0.933   4.234  12.064
 4180SOL    HW113981   0.903   4.226  11.973
 4180SOL    HW213982   0.969   4.147  12.084
 4181SOL     OW13983   0.561   3.787  11.665
 4181SOL    HW113984   0.479   3.786  11.713
 4181SOL    HW213985   0.554   3.861  11.605
 4182SOL     OW13986   1.434   4.932  11.210
 4182SOL    HW113987   1.460   4.855  11.261
 4182SOL    HW213988   1.346   4.952  11.243
 4183SOL     OW13989   0.294   3.769  11.353
 4183SOL    HW113990   0.351   3.831  11.308
 4183SOL    HW213991   0.354   3.710  11.399
 4184SOL     OW13992   0.946   3.974  11.624
 4184SOL    HW113993   0.922   4.009  11.539
 4184SOL    HW213994   1.041   3.990  11.631
 4185SOL     OW13995   1.213   5.310  11.974
 4185SOL    HW113996   1.226   5.369  11.899
 4185SOL    HW213997   1.292   5.321  12.027
 4186SOL     OW13998   0.475   4.879  11.895
 4186SOL    HW113999   0.411   4.859  11.964
 4186SOL    HW214000   0.428   4.863  11.814
 4187SOL     OW14001   1.257   5.516  11.786
 4187SOL    HW114002   1.306   5.577  11.731
 4187SOL    HW214003   1.185   5.567  11.822
 4188SOL     OW14004   1.025   4.254  11.201
 4188SOL    HW114005   0.982   4.337  11.179
 4188SOL    HW214006   1.092   4.279  11.265
 4189SOL     OW14007   0.577   3.931  12.360
 4189SOL    HW114008   0.588   3.849  12.312
 4189SOL    HW214009   0.482   3.936  12.377
 4190SOL     OW14010   0.865   4.180  11.804
 4190SOL    HW114011   0.823   4.237  11.739
 4190SOL    HW214012   0.891   4.102  11.756
 4191SOL     OW14013   1.016   3.774  11.913
 4191SOL    HW114014   0.957   3.770  11.838
 4191SOL    HW214015   0.994   3.695  11.964
 4192SOL     OW14016   1.437   4.880  12.022
 4192SOL    HW114017   1.367   4.815  12.015
 4192SOL    HW214018   1.468   4.892  11.932
 4193SOL     OW14019   1.461   4.338  12.126
 4193SOL    HW114020   1.404   4.261  12.130
 4193SOL    HW214021   1.521   4.327  12.199
 4194SOL     OW14022   1.836   4.531  11.563
 4194SOL    HW114023   1.897   4.483  11.619
 4194SOL    HW214024   1.812   4.469  11.494
 4195SOL     OW14025   0.490   5.145  11.313
 4195SOL    HW114026   0.410   5.116  11.357
 4195SOL    HW214027   0.491   5.096  11.231
 4196SOL     OW14028   1.683   4.990  11.814
 4196SOL    HW114029   1.778   4.986  11.827
 4196SOL    HW214030   1.660   5.081  11.834
 4197SOL     OW14031   1.394   4.297  11.241
 4197SOL    HW114032   1.334   4.273  11.312
 4197SOL    HW214033   1.478   4.261  11.268
 4198SOL     OW14034   0.532   3.980  11.477
 4198SOL    HW114035   0.583   3.935  11.409
 4198SOL    HW214036   0.505   4.062  11.436
 4199SOL     OW14037   1.106   4.965  12.286
 4199SOL    HW114038   1.021   4.980  12.328
 4199SOL    HW214039   1.092   4.994  12.195
 4200SOL     OW14040   1.602   4.815  12.243
 4200SOL    HW114041   1.566   4.852  12.323
 4200SOL    HW214042   1.537   4.835  12.176
 4201SOL     OW14043   0.712   4.787  11.547
 4201SOL    HW114044   0.698   4.764  11.639
 4201SOL    HW214045   0.788   4.735  11.521
 4202SOL     OW14046   0.439   4.538  12.447
 4202SOL    HW114047   0.493   4.566  12.521
 4202SOL    HW214048   0.395   4.459  12.478
 4203SOL     OW14049   1.247   4.079  12.438
 4203SOL    HW114050   1.273   4.166  12.468
 4203SOL    HW214051   1.155   4.089  12.414
 4204SOL     OW14052   0.331   4.834  11.659
 4204SOL    HW114053   0.332   4.907  11.598
 4204SOL    HW214054   0.333   4.756  11.603
 4205SOL     OW14055   0.553   4.243  12.035
 4205SOL    HW114056   0.566   4.303  11.962
 4205SOL    HW214057   0.615   4.272  12.101
 4206SOL     OW14058   1.246   5.074  11.567
 4206SOL    HW114059   1.302   5.144  11.599
 4206SOL    HW214060   1.158   5.098  11.598
 4207SOL     OW14061   1.290   5.171  12.317
 4207SOL    HW114062   1.342   5.163  12.396
 4207SOL    HW214063   1.229   5.097  12.321
 4208SOL     OW14064   1.574   4.335  11.663
 4208SOL    HW114065   1.524   4.386  11.726
 4208SOL    HW214066   1.614   4.400  11.605
 4209SOL     OW14067   0.366   5.269  12.460
 4209SOL    HW114068   0.341   5.211  12.388
 4209SOL    HW214069   0.431   5.328  12.422
 4210SOL     OW14070   0.584   4.592  12.215
 4210SOL    HW114071   0.603   4.686  12.214
 4210SOL    HW214072   0.533   4.579  12.295
 4211SOL     OW14073   1.322   4.578  12.174
 4211SOL    HW114074   1.237   4.554  12.137
 4211SOL    HW214075   1.376   4.500  12.163
 4212SOL     OW14076   1.200   4.249  11.432
 4212SOL    HW114077   1.207   4.170  11.486
 4212SOL    HW214078   1.158   4.313  11.489
 4213SOL     OW14079   0.310   3.916  12.400
 4213SOL    HW114080   0.256   3.973  12.456
 4213SOL    HW214081   0.277   3.828  12.418
 4214SOL     OW14082   0.083   5.056  12.431
 4214SOL    HW114083   0.067   5.002  12.509
 4214SOL    HW214084   0.087   5.146  12.464
 4215SOL     OW14085   0.719   4.349  12.224
 4215SOL    HW114086   0.795   4.343  12.166
 4215SOL    HW214087   0.686   4.438  12.211
 4216SOL     OW14088   0.318   3.790  11.788
 4216SOL    HW114089   0.284   3.878  11.802
 4216SOL    HW214090   0.323   3.751  11.875
 4217SOL     OW14091   1.626   4.103  11.527
 4217SOL    HW114092   1.659   4.037  11.588
 4217SOL    HW214093   1.600   4.176  11.583
 4218SOL     OW14094   1.028   4.478  12.139
 4218SOL    HW114095   1.019   4.487  12.234
 4218SOL    HW214096   1.002   4.389  12.120
 4219SOL     OW14097   1.515   3.999  11.296
 4219SOL    HW114098   1.459   3.927  11.326
 4219SOL    HW214099   1.556   4.033  11.376
 4220SOL     OW14100   1.288   4.548  11.199
 4220SOL    HW114101   1.329   4.461  11.203
 4220SOL    HW214102   1.319   4.585  11.117
 4221SOL     OW14103   1.074   5.072  12.031
 4221SOL    HW114104   1.081   4.998  11.970
 4221SOL    HW214105   1.129   5.140  11.993
 4222SOL     OW14106   0.322   4.533  12.110
 4222SOL    HW114107   0.415   4.552  12.114
 4222SOL    HW214108   0.315   4.440  12.134
 4223SOL     OW14109   0.318   4.258  12.164
 4223SOL    HW114110   0.285   4.169  12.156
 4223SOL    HW214111   0.402   4.257  12.117
 4224SOL     OW14112   1.158   3.934   0.154
 4224SOL    HW114113   1.142   4.004   0.217
 4224SOL    HW214114   1.190   3.978   0.076
 4225SOL     OW14115   7.984   5.041  11.366
 4225SOL    HW114116   7.894   5.054  11.396
 4225SOL    HW214117   8.002   4.949  11.384
 4226SOL     OW14118   0.120   5.475  12.140
 4226SOL    HW114119   0.095   5.408  12.076
 4226SOL    HW214120   0.196   5.518  12.102
 4227SOL     OW14121   0.495   5.307  12.074
 4227SOL    HW114122   0.566   5.366  12.101
 4227SOL    HW214123   0.537   5.244  12.015
 4228SOL     OW14124   0.971   4.507  12.413
 4228SOL    HW114125   1.014   4.579  12.459
 4228SOL    HW214126   0.877   4.524  12.425
 4229SOL     OW14127   0.093   4.293  12.312
 4229SOL    HW114128   0.181   4.290  12.273
 4229SOL    HW214129   0.085   4.381  12.348
 4230SOL     OW14130   0.818   4.293  11.540
 4230SOL    HW114131   0.827   4.219  11.480
 4230SOL    HW214132   0.746   4.344  11.505
 4231SOL     OW14133   1.653   4.328  12.323
 4231SOL    HW114134   1.652   4.268  12.397
 4231SOL    HW214135   1.746   4.338  12.301
 4232SOL     OW14136   0.726   4.166  12.431
 4232SOL    HW114137   0.661   4.100  12.407
 4232SOL    HW214138   0.713   4.236  12.367
 4233SOL     OW14139   0.889   5.378   0.030
 4233SOL    HW114140   0.894   5.437  -0.045
 4233SOL    HW214141   0.928   5.427   0.102
 4234SOL     OW14142   0.451   4.210  11.358
 4234SOL    HW114143   0.507   4.287  11.369
 4234SOL    HW214144   0.372   4.232  11.408
 4235SOL     OW14145   1.284   4.764  12.369
 4235SOL    HW114146   1.304   4.705  12.296
 4235SOL    HW214147   1.231   4.833  12.329
 4236SOL     OW14148   1.319   4.579  11.473
 4236SOL    HW114149   1.244   4.545  11.522
 4236SOL    HW214150   1.295   4.566  11.381
 4237SOL     OW14151   1.759   5.477  12.304
 4237SOL    HW114152   1.828   5.492  12.240
 4237SOL    HW214153   1.741   5.383  12.300
 4238SOL     OW14154   1.248   5.442  12.283
 4238SOL    HW114155   1.327   5.477  12.241
 4238SOL    HW214156   1.263   5.348  12.287
 4239SOL     OW14157   0.050   4.918  12.200
 4239SOL    HW114158   0.064   4.969  12.280
 4239SOL    HW214159  -0.030   4.955  12.162
 4240SOL     OW14160   1.735   3.891  11.676
 4240SOL    HW114161   1.799   3.873  11.607
 4240SOL    HW214162   1.714   3.805  11.712
 4241SOL     OW14163   1.397   5.291  11.672
 4241SOL    HW114164   1.452   5.324  11.601
 4241SOL    HW214165   1.343   5.366  11.696
 4242SOL     OW14166   1.278   4.658  11.845
 4242SOL    HW114167   1.351   4.597  11.855
 4242SOL    HW214168   1.311   4.727  11.788
 4243SOL     OW14169   0.665   5.354  11.328
 4243SOL    HW114170   0.680   5.370  11.235
 4243SOL    HW214171   0.611   5.275  11.330
 4244SOL     OW14172   1.622   5.519   0.038
 4244SOL    HW114173   1.675   5.505  -0.040
 4244SOL    HW214174   1.655   5.601   0.074
 4245SOL     OW14175   1.844   3.893  12.143
 4245SOL    HW114176   1.874   3.806  12.118
 4245SOL    HW214177   1.758   3.902  12.102
 4246SOL     OW14178   0.259   4.042  11.874
 4246SOL    HW114179   0.170   4.069  11.853
 4246SOL    HW214180   0.260   4.034  11.970
 4247SOL     OW14181   1.208   5.321  11.207
 4247SOL    HW114182   1.197   5.229  11.231
 4247SOL    HW214183   1.144   5.336  11.138
 4248SOL     OW14184   0.789   4.736  12.485
 4248SOL    HW114185   0.789   4.781  12.401
 4248SOL    HW214186   0.868   4.767  12.529
 4249SOL     OW14187   0.922   4.638  11.471
 4249SOL    HW114188   0.977   4.669  11.399
 4249SOL    HW214189   0.972   4.568  11.512
 4250SOL     OW14190   1.486   5.362  11.223
 4250SOL    HW114191   1.393   5.346  11.205
 4250SOL    HW214192   1.527   5.366  11.136
 4251SOL     OW14193   1.068   4.840  11.893
 4251SOL    HW114194   0.994   4.789  11.925
 4251SOL    HW214195   1.131   4.774  11.863
 4252SOL     OW14196   1.035   3.972  12.110
 4252SOL    HW114197   1.030   3.914  12.034
 4252SOL    HW214198   1.033   3.913  12.185
 4253SOL     OW14199   0.607   5.219  11.651
 4253SOL    HW114200   0.657   5.169  11.587
 4253SOL    HW214201   0.516   5.215  11.619
 4254SOL     OW14202   1.767   4.148   0.007
 4254SOL    HW114203   1.804   4.153   0.095
 4254SOL    HW214204   1.766   4.054  -0.013
 4255SOL     OW14205   0.253   5.066  11.443
 4255SOL    HW114206   0.158   5.069  11.436
 4255SOL    HW214207   0.272   5.104  11.529
 4256SOL     OW14208   0.039   4.162  11.222
 4256SOL    HW114209   0.048   4.067  11.230
 4256SOL    HW214210   0.088   4.184  11.142
 4257SOL     OW14211   0.120   3.955  11.510
 4257SOL    HW114212   0.060   3.952  11.435
 4257SOL    HW214213   0.193   3.899  11.485
 4258SOL     OW14214   1.177   5.053  11.290
 4258SOL    HW114215   1.084   5.031  11.287
 4258SOL    HW214216   1.199   5.052  11.383
 4259SOL     OW14217   1.487   5.511  12.159
 4259SOL    HW114218   1.510   5.581  12.097
 4259SOL    HW214219   1.570   5.488  12.200
 4260SOL     OW14220   1.689   4.597  12.401
 4260SOL    HW114221   1.660   4.514  12.365
 4260SOL    HW214222   1.660   4.663  12.338
 4261SOL     OW14223   1.216   4.042  11.629
 4261SOL    HW114224   1.278   3.969  11.623
 4261SOL    HW214225   1.247   4.094  11.704
 4262SOL     OW14226   0.593   4.456  11.860
 4262SOL    HW114227   0.634   4.542  11.845
 4262SOL    HW214228   0.533   4.446  11.786
 4263SOL     OW14229   1.812   4.609   0.139
 4263SOL    HW114230   1.789   4.695   0.174
 4263SOL    HW214231   1.765   4.602   0.057
 4264SOL     OW14232   0.877   5.090  11.225
 4264SOL    HW114233   0.829   5.122  11.301
 4264SOL    HW214234   0.887   5.166  11.168
 4265SOL     OW14235   0.669   5.516  12.125
 4265SOL    HW114236   0.651   5.604  12.093
 4265SOL    HW214237   0.763   5.503  12.109
 4266SOL     OW14238   0.873   4.696  12.030
 4266SOL    HW114239   0.920   4.621  12.066
 4266SOL    HW214240   0.836   4.741  12.106
 4267SOL     OW14241   1.075   4.709  11.261
 4267SOL    HW114242   1.054   4.762  11.185
 4267SOL    HW214243   1.150   4.655  11.234
 4268SOL     OW14244   1.848   5.281  12.013
 4268SOL    HW114245   1.764   5.270  11.967
 4268SOL    HW214246   1.853   5.206  12.072
 4269SOL     OW14247   0.140   4.983  11.825
 4269SOL    HW114248   0.063   4.937  11.861
 4269SOL    HW214249   0.195   4.913  11.791
 4270SOL     OW14250   1.813   3.891  12.416
 4270SOL    HW114251   1.834   3.797  12.422
 4270SOL    HW214252   1.818   3.910  12.323
 4271SOL     OW14253   0.439   4.158  11.697
 4271SOL    HW114254   0.468   4.087  11.640
 4271SOL    HW214255   0.381   4.116  11.761
 4272SOL     OW14256   1.701   5.216  12.278
 4272SOL    HW114257   1.625   5.180  12.233
 4272SOL    HW214258   1.722   5.152  12.346
 4273SOL     OW14259   0.828   5.312  11.847
 4273SOL    HW114260   0.809   5.377  11.779
 4273SOL    HW214261   0.754   5.251  11.843
 4274SOL     OW14262   1.439   3.961  12.290
 4274SOL    HW114263   1.500   3.914  12.347
 4274SOL    HW214264   1.374   3.999  12.350
 4275SOL     OW14265   0.996   3.680  12.313
 4275SOL    HW114266   0.967   3.642  12.230
 4275SOL    HW214267   1.090   3.663  12.315
 4276SOL     OW14268   0.771   5.058  11.501
 4276SOL    HW114269   0.747   4.966  11.506
 4276SOL    HW214270   0.857   5.062  11.544
 4277SOL     OW14271   1.366   3.768  11.352
 4277SOL    HW114272   1.406   3.697  11.300
 4277SOL    HW214273   1.275   3.740  11.365
 4278SOL     OW14274   1.296   4.190  11.846
 4278SOL    HW114275   1.245   4.271  11.848
 4278SOL    HW214276   1.294   4.159  11.936
 4279SOL     OW14277   1.586   3.916  12.058
 4279SOL    HW114278   1.528   3.941  12.129
 4279SOL    HW214279   1.585   3.991  11.998
 4280SOL     OW14280   0.059   4.792  11.441
 4280SOL    HW114281   0.144   4.748  11.437
 4280SOL    HW214282   0.026   4.773  11.528
 4281SOL     OW14283   0.888   5.391  11.508
 4281SOL    HW114284   0.812   5.374  11.452
 4281SOL    HW214285   0.861   5.463  11.565
 4282SOL     OW14286   0.258   6.199   0.072
 4282SOL    HW114287   0.206   6.248   0.135
 4282SOL    HW214288   0.200   6.129   0.041
 4283SOL     OW14289   0.233   5.853   0.982
 4283SOL    HW114290   0.258   5.821   1.069
 4283SOL    HW214291   0.160   5.797   0.956
 4284SOL     OW14292   8.014   5.964   0.607
 4284SOL    HW114293   7.922   5.978   0.628
 4284SOL    HW214294   8.013   5.921   0.521
 4285SOL     OW14295   0.572   6.895   1.171
 4285SOL    HW114296   0.479   6.891   1.149
 4285SOL    HW214297   0.584   6.982   1.209
 4286SOL     OW14298   1.581   7.107   0.713
 4286SOL    HW114299   1.535   7.080   0.792
 4286SOL    HW214300   1.513   7.109   0.645
 4287SOL     OW14301   1.134   6.289   0.693
 4287SOL    HW114302   1.182   6.371   0.682
 4287SOL    HW214303   1.087   6.299   0.776
 4288SOL     OW14304   1.733   6.197   0.268
 4288SOL    HW114305   1.725   6.202   0.173
 4288SOL    HW214306   1.702   6.109   0.290
 4289SOL     OW14307   0.735   6.712   1.051
 4289SOL    HW114308   0.672   6.760   1.104
 4289SOL    HW214309   0.788   6.780   1.009
 4290SOL     OW14310   0.877   6.339   1.828
 4290SOL    HW114311   0.883   6.405   1.898
 4290SOL    HW214312   0.900   6.387   1.749
 4291SOL     OW14313   0.686   6.580   0.648
 4291SOL    HW114314   0.751   6.571   0.718
 4291SOL    HW214315   0.617   6.635   0.687
 4292SOL     OW14316   0.709   6.734   1.814
 4292SOL    HW114317   0.755   6.810   1.849
 4292SOL    HW214318   0.629   6.769   1.775
 4293SOL     OW14319   0.318   6.991   1.049
 4293SOL    HW114320   0.244   6.931   1.053
 4293SOL    HW214321   0.334   7.002   0.955
 4294SOL     OW14322   1.463   7.093   1.368
 4294SOL    HW114323   1.519   7.169   1.384
 4294SOL    HW214324   1.392   7.103   1.431
 4295SOL     OW14325   0.451   5.967   1.479
 4295SOL    HW114326   0.534   5.920   1.487
 4295SOL    HW214327   0.384   5.901   1.499
 4296SOL     OW14328   1.605   6.026   0.751
 4296SOL    HW114329   1.558   6.057   0.674
 4296SOL    HW214330   1.586   6.091   0.819
 4297SOL     OW14331   0.232   7.350   0.482
 4297SOL    HW114332   0.270   7.418   0.538
 4297SOL    HW214333   0.306   7.313   0.434
 4298SOL     OW14334   1.136   6.932   1.697
 4298SOL    HW114335   1.180   6.924   1.782
 4298SOL    HW214336   1.083   6.852   1.689
 4299SOL     OW14337   0.269   7.056   0.553
 4299SOL    HW114338   0.196   7.117   0.543
 4299SOL    HW214339   0.230   6.981   0.598
 4300SOL     OW14340   0.278   6.662   0.894
 4300SOL    HW114341   0.281   6.575   0.934
 4300SOL    HW214342   0.214   6.710   0.946
 4301SOL     OW14343   0.603   7.380   1.401
 4301SOL    HW114344   0.528   7.355   1.455
 4301SOL    HW214345   0.630   7.465   1.435
 4302SOL     OW14346   0.583   6.557   0.163
 4302SOL    HW114347   0.645   6.577   0.093
 4302SOL    HW214348   0.621   6.600   0.240
 4303SOL     OW14349   1.596   5.716   1.461
 4303SOL    HW114350   1.625   5.794   1.414
 4303SOL    HW214351   1.573   5.748   1.549
 4304SOL     OW14352   0.120   6.234   0.552
 4304SOL    HW114353   0.119   6.140   0.569
 4304SOL    HW214354   0.030   6.262   0.563
 4305SOL     OW14355   1.854   7.325   0.312
 4305SOL    HW114356   1.922   7.303   0.375
 4305SOL    HW214357   1.868   7.418   0.292
 4306SOL     OW14358   0.021   7.120   0.090
 4306SOL    HW114359   0.022   7.055   0.160
 4306SOL    HW214360   0.054   7.200   0.130
 4307SOL     OW14361   1.688   6.520   0.656
 4307SOL    HW114362   1.753   6.470   0.608
 4307SOL    HW214363   1.652   6.582   0.591
 4308SOL     OW14364   1.643   6.700   0.439
 4308SOL    HW114365   1.729   6.697   0.396
 4308SOL    HW214366   1.654   6.764   0.509
 4309SOL     OW14367   0.152   6.358   1.607
 4309SOL    HW114368   0.247   6.348   1.612
 4309SOL    HW214369   0.134   6.440   1.651
 4310SOL     OW14370   0.565   6.991   0.757
 4310SOL    HW114371   0.529   6.902   0.756
 4310SOL    HW214372   0.569   7.016   0.665
 4311SOL     OW14373   1.286   6.823   1.414
 4311SOL    HW114374   1.315   6.749   1.359
 4311SOL    HW214375   1.340   6.816   1.493
 4312SOL     OW14376   0.830   5.602   0.530
 4312SOL    HW114377   0.867   5.685   0.501
 4312SOL    HW214378   0.735   5.617   0.529
 4313SOL     OW14379   0.199   6.526   1.286
 4313SOL    HW114380   0.286   6.487   1.274
 4313SOL    HW214381   0.155   6.513   1.202
 4314SOL     OW14382   1.498   6.597   0.229
 4314SOL    HW114383   1.434   6.537   0.268
 4314SOL    HW214384   1.552   6.626   0.302
 4315SOL     OW14385   1.187   7.399   1.626
 4315SOL    HW114386   1.195   7.460   1.554
 4315SOL    HW214387   1.209   7.314   1.588
 4316SOL     OW14388   0.364   5.844   1.832
 4316SOL    HW114389   0.412   5.919   1.867
 4316SOL    HW214390   0.272   5.866   1.845
 4317SOL     OW14391   1.466   7.007   0.941
 4317SOL    HW114392   1.403   7.021   1.011
 4317SOL    HW214393   1.453   6.915   0.915
 4318SOL     OW14394   1.649   7.351   0.580
 4318SOL    HW114395   1.630   7.314   0.494
 4318SOL    HW214396   1.639   7.278   0.641
 4319SOL     OW14397   0.591   6.303   0.280
 4319SOL    HW114398   0.600   6.390   0.243
 4319SOL    HW214399   0.524   6.311   0.347
 4320SOL     OW14400   1.279   5.963   0.937
 4320SOL    HW114401   1.191   5.927   0.943
 4320SOL    HW214402   1.332   5.907   0.994
 4321SOL     OW14403   1.589   7.253   0.328
 4321SOL    HW114404   1.682   7.271   0.315
 4321SOL    HW214405   1.556   7.237   0.240
 4322SOL     OW14406   0.786   6.204   1.445
 4322SOL    HW114407   0.763   6.176   1.533
 4322SOL    HW214408   0.759   6.131   1.388
 4323SOL     OW14409   1.391   6.057   1.679
 4323SOL    HW114410   1.396   6.105   1.762
 4323SOL    HW214411   1.451   5.984   1.690
 4324SOL     OW14412   0.948   6.467   1.592
 4324SOL    HW114413   1.006   6.402   1.551
 4324SOL    HW214414   0.897   6.503   1.520
 4325SOL     OW14415   0.998   5.994   1.224
 4325SOL    HW114416   0.907   6.007   1.251
 4325SOL    HW214417   0.992   5.946   1.141
 4326SOL     OW14418   1.059   6.287   0.424
 4326SOL    HW114419   1.075   6.281   0.519
 4326SOL    HW214420   0.974   6.245   0.412
 4327SOL     OW14421   0.073   6.423   0.821
 4327SOL    HW114422   0.168   6.412   0.824
 4327SOL    HW214423   0.059   6.493   0.757
 4328SOL     OW14424   0.130   7.396   1.570
 4328SOL    HW114425   0.140   7.369   1.662
 4328SOL    HW214426   0.056   7.457   1.571
 4329SOL     OW14427   0.892   5.947   0.221
 4329SOL    HW114428   0.924   6.016   0.163
 4329SOL    HW214429   0.879   5.871   0.163
 4330SOL     OW14430   1.679   6.140   1.827
 4330SOL    HW114431   1.652   6.218   1.780
 4330SOL    HW214432   1.721   6.085   1.760
 4331SOL     OW14433   1.381   6.728   0.536
 4331SOL    HW114434   1.462   6.719   0.487
 4331SOL    HW214435   1.328   6.788   0.484
 4332SOL     OW14436   0.559   5.758   0.901
 4332SOL    HW114437   0.560   5.791   0.991
 4332SOL    HW214438   0.558   5.836   0.847
 4333SOL     OW14439   1.002   7.020   0.475
 4333SOL    HW114440   0.968   7.098   0.431
 4333SOL    HW214441   0.994   7.040   0.569
 4334SOL     OW14442   0.352   7.422   0.879
 4334SOL    HW114443   0.428   7.364   0.876
 4334SOL    HW214444   0.385   7.503   0.918
 4335SOL     OW14445   1.806   6.640   0.881
 4335SOL    HW114446   1.759   6.615   0.802
 4335SOL    HW214447   1.739   6.645   0.949
 4336SOL     OW14448   1.228   7.128   1.514
 4336SOL    HW114449   1.217   7.059   1.580
 4336SOL    HW214450   1.150   7.122   1.459
 4337SOL     OW14451   0.308   6.544   0.207
 4337SOL    HW114452   0.401   6.554   0.190
 4337SOL    HW214453   0.268   6.538   0.120
 4338SOL     OW14454   1.480   6.348   0.723
 4338SOL    HW114455   1.482   6.301   0.807
 4338SOL    HW214456   1.560   6.401   0.723
 4339SOL     OW14457   0.468   6.853   1.732
 4339SOL    HW114458   0.443   6.857   1.639
 4339SOL    HW214459   0.385   6.843   1.778
 4340SOL     OW14460   1.106   7.367   0.248
 4340SOL    HW114461   1.037   7.324   0.299
 4340SOL    HW214462   1.132   7.302   0.183
 4341SOL     OW14463   0.190   5.840   1.499
 4341SOL    HW114464   0.176   5.914   1.557
 4341SOL    HW214465   0.162   5.764   1.549
 4342SOL     OW14466   1.656   6.995   0.084
 4342SOL    HW114467   1.590   7.061   0.064
 4342SOL    HW214468   1.609   6.912   0.083
 4343SOL     OW14469   0.457   7.322   0.335
 4343SOL    HW114470   0.510   7.379   0.390
 4343SOL    HW214471   0.520   7.276   0.279
 4344SOL     OW14472   1.403   5.684   0.450
 4344SOL    HW114473   1.396   5.655   0.359
 4344SOL    HW214474   1.497   5.688   0.466
 4345SOL     OW14475   0.261   7.383   1.228
 4345SOL    HW114476   0.304   7.313   1.278
 4345SOL    HW214477   0.179   7.343   1.197
 4346SOL     OW14478   0.938   7.264   0.892
 4346SOL    HW114479   1.029   7.235   0.898
 4346SOL    HW214480   0.906   7.225   0.810
 4347SOL     OW14481   0.392   6.282   0.478
 4347SOL    HW114482   0.417   6.190   0.484
 4347SOL    HW214483   0.304   6.286   0.515
 4348SOL     OW14484   1.528   5.810   1.718
 4348SOL    HW114485   1.543   5.831   1.810
 4348SOL    HW214486   1.459   5.743   1.719
 4349SOL     OW14487   0.632   5.712   0.120
 4349SOL    HW114488   0.725   5.688   0.120
 4349SOL    HW214489   0.618   5.750   0.033
 4350SOL     OW14490   0.761   5.866   1.756
 4350SOL    HW114491   0.844   5.819   1.752
 4350SOL    HW214492   0.718   5.833   1.835
 4351SOL     OW14493   0.880   7.104   1.193
 4351SOL    HW114494   0.896   7.067   1.107
 4351SOL    HW214495   0.942   7.059   1.250
 4352SOL     OW14496   1.337   6.178   1.438
 4352SOL    HW114497   1.368   6.144   1.522
 4352SOL    HW214498   1.378   6.264   1.430
 4353SOL     OW14499   0.819   6.957   0.911
 4353SOL    HW114500   0.913   6.947   0.897
 4353SOL    HW214501   0.779   6.910   0.837
 4354SOL     OW14502   0.928   6.096   0.896
 4354SOL    HW114503   0.903   6.086   0.804
 4354SOL    HW214504   0.958   6.008   0.922
 4355SOL     OW14505   0.564   5.648   0.500
 4355SOL    HW114506   0.483   5.647   0.552
 4355SOL    HW214507   0.555   5.725   0.444
 4356SOL     OW14508   1.467   6.801   0.051
 4356SOL    HW114509   1.479   6.722   0.103
 4356SOL    HW214510   1.373   6.819   0.057
 4357SOL     OW14511   0.323   5.667   0.191
 4357SOL    HW114512   0.410   5.707   0.185
 4357SOL    HW214513   0.340   5.580   0.227
 4358SOL     OW14514   0.949   5.840   0.465
 4358SOL    HW114515   0.921   5.876   0.380
 4358SOL    HW214516   1.044   5.852   0.466
 4359SOL     OW14517   1.082   6.275   1.450
 4359SOL    HW114518   1.023   6.200   1.462
 4359SOL    HW214519   1.170   6.237   1.450
 4360SOL     OW14520   1.200   7.174   0.802
 4360SOL    HW114521   1.222   7.233   0.730
 4360SOL    HW214522   1.273   7.183   0.863
 4361SOL     OW14523   0.470   6.739   0.723
 4361SOL    HW114524   0.405   6.711   0.787
 4361SOL    HW214525   0.429   6.725   0.638
 4362SOL     OW14526   1.257   7.376   0.618
 4362SOL    HW114527   1.311   7.436   0.566
 4362SOL    HW214528   1.188   7.432   0.654
 4363SOL     OW14529   1.012   6.157   0.094
 4363SOL    HW114530   1.012   6.224   0.026
 4363SOL    HW214531   1.097   6.167   0.137
 4364SOL     OW14532   0.102   6.224   1.382
 4364SOL    HW114533   0.185   6.184   1.356
 4364SOL    HW214534   0.121   6.267   1.465
 4365SOL     OW14535   0.556   5.813   1.175
 4365SOL    HW114536   0.600   5.740   1.219
 4365SOL    HW214537   0.465   5.807   1.203
 4366SOL     OW14538   0.865   6.046   0.637
 4366SOL    HW114539   0.828   6.101   0.568
 4366SOL    HW214540   0.891   5.966   0.592
 4367SOL     OW14541   1.020   5.640   0.743
 4367SOL    HW114542   0.958   5.635   0.670
 4367SOL    HW214543   0.996   5.566   0.800
 4368SOL     OW14544   1.439   6.747   0.857
 4368SOL    HW114545   1.374   6.677   0.852
 4368SOL    HW214546   1.472   6.754   0.767
 4369SOL     OW14547   1.467   6.195   0.958
 4369SOL    HW114548   1.405   6.123   0.966
 4369SOL    HW214549   1.523   6.188   1.036
 4370SOL     OW14550   1.825   6.408   0.431
 4370SOL    HW114551   1.877   6.344   0.478
 4370SOL    HW214552   1.784   6.359   0.359
 4371SOL     OW14553   0.488   6.981   0.130
 4371SOL    HW114554   0.425   6.941   0.190
 4371SOL    HW214555   0.511   6.912   0.069
 4372SOL     OW14556   1.679   6.852   0.655
 4372SOL    HW114557   1.774   6.847   0.666
 4372SOL    HW214558   1.659   6.944   0.669
 4373SOL     OW14559   1.402   6.131   0.081
 4373SOL    HW114560   1.348   6.131   0.160
 4373SOL    HW214561   1.451   6.049   0.085
 4374SOL     OW14562   0.532   5.852   0.326
 4374SOL    HW114563   0.581   5.803   0.260
 4374SOL    HW214564   0.506   5.933   0.282
 4375SOL     OW14565   1.740   6.827   1.557
 4375SOL    HW114566   1.811   6.774   1.594
 4375SOL    HW214567   1.761   6.917   1.582
 4376SOL     OW14568   1.051   6.938   1.333
 4376SOL    HW114569   0.978   6.904   1.385
 4376SOL    HW214570   1.129   6.901   1.375
 4377SOL     OW14571   1.599   7.221   1.669
 4377SOL    HW114572   1.615   7.244   1.578
 4377SOL    HW214573   1.647   7.140   1.683
 4378SOL     OW14574   1.143   6.801   1.108
 4378SOL    HW114575   1.086   6.842   1.173
 4378SOL    HW214576   1.115   6.840   1.025
 4379SOL     OW14577   1.621   6.686   1.077
 4379SOL    HW114578   1.610   6.744   1.153
 4379SOL    HW214579   1.544   6.704   1.023
 4380SOL     OW14580   0.918   5.679   1.386
 4380SOL    HW114581   0.941   5.659   1.295
 4380SOL    HW214582   0.997   5.716   1.424
 4381SOL     OW14583   0.979   6.708   1.714
 4381SOL    HW114584   0.889   6.720   1.745
 4381SOL    HW214585   0.977   6.624   1.668
 4382SOL     OW14586   0.718   6.650   0.383
 4382SOL    HW114587   0.705   6.624   0.475
 4382SOL    HW214588   0.796   6.601   0.356
 4383SOL     OW14589   0.435   6.396   1.252
 4383SOL    HW114590   0.498   6.409   1.322
 4383SOL    HW214591   0.403   6.306   1.265
 4384SOL     OW14592   1.264   5.962   1.286
 4384SOL    HW114593   1.295   6.039   1.333
 4384SOL    HW214594   1.173   5.983   1.263
 4385SOL     OW14595   0.050   7.205   1.331
 4385SOL    HW114596   0.041   7.260   1.409
 4385SOL    HW214597   0.131   7.157   1.344
 4386SOL     OW14598   0.336   6.695   0.486
 4386SOL    HW114599   0.326   6.766   0.423
 4386SOL    HW214600   0.347   6.617   0.433
 4387SOL     OW14601   0.547   6.115   0.857
 4387SOL    HW114602   0.560   6.175   0.784
 4387SOL    HW214603   0.616   6.138   0.919
 4388SOL     OW14604   1.248   6.930   0.395
 4388SOL    HW114605   1.302   7.002   0.426
 4388SOL    HW214606   1.159   6.953   0.424
 4389SOL     OW14607   1.301   7.045   1.153
 4389SOL    HW114608   1.355   7.057   1.231
 4389SOL    HW214609   1.251   6.965   1.171
 4390SOL     OW14610   1.557   6.182   0.508
 4390SOL    HW114611   1.510   6.244   0.564
 4390SOL    HW214612   1.593   6.236   0.438
 4391SOL     OW14613   0.333   7.114   1.298
 4391SOL    HW114614   0.324   7.074   1.212
 4391SOL    HW214615   0.428   7.127   1.308
 4392SOL     OW14616   0.431   6.313   1.618
 4392SOL    HW114617   0.486   6.363   1.557
 4392SOL    HW214618   0.488   6.244   1.651
 4393SOL     OW14619   1.604   6.356   1.685
 4393SOL    HW114620   1.521   6.405   1.685
 4393SOL    HW214621   1.661   6.405   1.625
 4394SOL     OW14622   0.995   5.725   1.752
 4394SOL    HW114623   1.054   5.798   1.735
 4394SOL    HW214624   1.045   5.647   1.727
 4395SOL     OW14625   0.502   5.618   1.749
 4395SOL    HW114626   0.453   5.568   1.684
 4395SOL    HW214627   0.449   5.697   1.764
 4396SOL     OW14628   0.591   6.463   1.033
 4396SOL    HW114629   0.630   6.549   1.044
 4396SOL    HW214630   0.539   6.450   1.112
 4397SOL     OW14631   1.338   6.443   1.013
 4397SOL    HW114632   1.251   6.423   0.978
 4397SOL    HW214633   1.388   6.362   1.002
 4398SOL     OW14634   1.220   6.113   0.284
 4398SOL    HW114635   1.229   6.037   0.342
 4398SOL    HW214636   1.169   6.176   0.334
 4399SOL     OW14637   0.289   5.778   1.246
 4399SOL    HW114638   0.256   5.807   1.331
 4399SOL    HW214639   0.276   5.683   1.246
 4400SOL     OW14640   0.044   6.894   1.285
 4400SOL    HW114641   0.070   6.829   1.349
 4400SOL    HW214642   0.037   6.976   1.335
 4401SOL     OW14643   0.721   6.211   1.047
 4401SOL    HW114644   0.798   6.195   0.993
 4401SOL    HW214645   0.697   6.302   1.029
 4402SOL     OW14646   1.748   6.571   1.835
 4402SOL    HW114647   1.687   6.498   1.837
 4402SOL    HW214648   1.767   6.589   1.927
 4403SOL     OW14649   0.324   5.657   0.626
 4403SOL    HW114650   0.294   5.746   0.645
 4403SOL    HW214651   0.329   5.616   0.712
 4404SOL     OW14652   1.622   5.955   0.367
 4404SOL    HW114653   1.652   5.886   0.426
 4404SOL    HW214654   1.587   6.023   0.425
 4405SOL     OW14655   1.028   6.343   0.957
 4405SOL    HW114656   1.017   6.359   1.050
 4405SOL    HW214657   1.003   6.252   0.944
 4406SOL     OW14658   0.977   7.155   1.725
 4406SOL    HW114659   0.967   7.196   1.639
 4406SOL    HW214660   1.018   7.071   1.707
 4407SOL     OW14661   1.877   7.112   1.580
 4407SOL    HW114662   1.852   7.200   1.611
 4407SOL    HW214663   1.949   7.086   1.638
 4408SOL     OW14664   0.366   6.529   1.800
 4408SOL    HW114665   0.441   6.546   1.856
 4408SOL    HW214666   0.390   6.449   1.752
 4409SOL     OW14667   1.505   5.871   0.132
 4409SOL    HW114668   1.457   5.791   0.153
 4409SOL    HW214669   1.548   5.896   0.214
 4410SOL     OW14670   1.296   6.393   0.057
 4410SOL    HW114671   1.348   6.314   0.044
 4410SOL    HW214672   1.332   6.456  -0.005
 4411SOL     OW14673   1.079   6.929   0.868
 4411SOL    HW114674   1.088   6.854   0.808
 4411SOL    HW214675   1.136   6.996   0.831
 4412SOL     OW14676   0.323   6.389   0.948
 4412SOL    HW114677   0.416   6.412   0.948
 4412SOL    HW214678   0.321   6.297   0.973
 4413SOL     OW14679   0.329   6.104   1.005
 4413SOL    HW114680   0.298   6.015   0.992
 4413SOL    HW214681   0.407   6.112   0.951
 4414SOL     OW14682   1.135   5.957   1.687
 4414SOL    HW114683   1.090   6.010   1.753
 4414SOL    HW214684   1.223   5.995   1.683
 4415SOL     OW14685   1.159   5.782   1.473
 4415SOL    HW114686   1.148   5.843   1.545
 4415SOL    HW214687   1.205   5.832   1.405
 4416SOL     OW14688   8.001   6.919   0.272
 4416SOL    HW114689   7.906   6.923   0.264
 4416SOL    HW214690   8.021   6.826   0.280
 4417SOL     OW14691   0.080   7.317   0.898
 4417SOL    HW114692   0.123   7.237   0.869
 4417SOL    HW214693   0.151   7.379   0.912
 4418SOL     OW14694   0.962   6.373   1.222
 4418SOL    HW114695   1.025   6.354   1.291
 4418SOL    HW214696   0.882   6.327   1.249
 4419SOL     OW14697   0.079   6.125   1.108
 4419SOL    HW114698   0.171   6.129   1.084
 4419SOL    HW214699   0.069   6.040   1.150
 4420SOL     OW14700   0.193   6.078   1.649
 4420SOL    HW114701   0.286   6.083   1.630
 4420SOL    HW214702   0.169   6.166   1.677
 4421SOL     OW14703   1.379   6.514   1.656
 4421SOL    HW114704   1.401   6.607   1.654
 4421SOL    HW214705   1.380   6.487   1.564
 4422SOL     OW14706   0.815   6.165   0.383
 4422SOL    HW114707   0.828   6.090   0.324
 4422SOL    HW214708   0.741   6.212   0.346
 4423SOL     OW14709   1.641   6.188   1.169
 4423SOL    HW114710   1.633   6.130   1.246
 4423SOL    HW214711   1.730   6.174   1.138
 4424SOL     OW14712   0.281   7.125   1.721
 4424SOL    HW114713   0.247   7.195   1.777
 4424SOL    HW214714   0.281   7.048   1.778
 4425SOL     OW14715   0.720   6.027   1.248
 4425SOL    HW114716   0.661   5.956   1.226
 4425SOL    HW214717   0.710   6.091   1.177
 4426SOL     OW14718   0.933   7.263   1.470
 4426SOL    HW114719   0.886   7.231   1.393
 4426SOL    HW214720   0.927   7.358   1.464
 4427SOL     OW14721   0.469   6.072   0.190
 4427SOL    HW114722   0.526   6.146   0.212
 4427SOL    HW214723   0.396   6.112   0.143
 4428SOL     OW14724   0.146   6.716   1.466
 4428SOL    HW114725   0.129   6.673   1.550
 4428SOL    HW214726   0.168   6.644   1.406
 4429SOL     OW14727   1.324   6.627   1.213
 4429SOL    HW114728   1.339   6.562   1.144
 4429SOL    HW214729   1.258   6.686   1.176
 4430SOL     OW14730   1.302   6.430   0.330
 4430SOL    HW114731   1.223   6.392   0.370
 4430SOL    HW214732   1.293   6.408   0.237
 4431SOL     OW14733   1.803   7.301   1.174
 4431SOL    HW114734   1.856   7.329   1.099
 4431SOL    HW214735   1.762   7.220   1.145
 4432SOL     OW14736   1.238   7.310   1.093
 4432SOL    HW114737   1.321   7.340   1.056
 4432SOL    HW214738   1.255   7.221   1.122
 4433SOL     OW14739   0.097   6.817   1.033
 4433SOL    HW114740   0.073   6.843   1.122
 4433SOL    HW214741   0.017   6.828   0.983
 4434SOL     OW14742   0.682   7.258   1.748
 4434SOL    HW114743   0.627   7.336   1.736
 4434SOL    HW214744   0.768   7.284   1.715
 4435SOL     OW14745   0.905   5.683   0.097
 4435SOL    HW114746   0.950   5.703   0.015
 4435SOL    HW214747   0.973   5.649   0.154
 4436SOL     OW14748   1.729   5.741   0.509
 4436SOL    HW114749   1.796   5.718   0.444
 4436SOL    HW214750   1.708   5.658   0.552
 4437SOL     OW14751   1.394   7.151   0.503
 4437SOL    HW114752   1.454   7.182   0.435
 4437SOL    HW214753   1.342   7.228   0.526
 4438SOL     OW14754   0.157   7.345   1.843
 4438SOL    HW114755   0.105   7.288   1.900
 4438SOL    HW214756   0.215   7.393   1.902
 4439SOL     OW14757   1.277   6.523   0.677
 4439SOL    HW114758   1.349   6.461   0.688
 4439SOL    HW214759   1.310   6.589   0.616
 4440SOL     OW14760   0.800   6.862   1.423
 4440SOL    HW114761   0.776   6.906   1.504
 4440SOL    HW214762   0.722   6.869   1.368
 4441SOL     OW14763   0.650   7.189   0.206
 4441SOL    HW114764   0.718   7.204   0.140
 4441SOL    HW214765   0.603   7.112   0.174
 4442SOL     OW14766   1.644   7.308   1.404
 4442SOL    HW114767   1.691   7.314   1.321
 4442SOL    HW214768   1.623   7.399   1.427
 4443SOL     OW14769   1.844   5.751   0.964
 4443SOL    HW114770   1.872   5.662   0.942
 4443SOL    HW214771   1.757   5.758   0.926
 4444SOL     OW14772   0.261   5.908   0.709
 4444SOL    HW114773   0.172   5.930   0.682
 4444SOL    HW214774   0.256   5.897   0.804
 4445SOL     OW14775   1.195   7.198   0.060
 4445SOL    HW114776   1.187   7.104   0.077
 4445SOL    HW214777   1.164   7.208  -0.030
 4446SOL     OW14778   0.824   6.590   1.381
 4446SOL    HW114779   0.875   6.577   1.301
 4446SOL    HW214780   0.825   6.685   1.395
 4447SOL     OW14781   0.932   6.513   0.301
 4447SOL    HW114782   0.982   6.535   0.223
 4447SOL    HW214783   0.978   6.437   0.339
 4448SOL     OW14784   1.465   7.173   0.036
 4448SOL    HW114785   1.373   7.196   0.040
 4448SOL    HW214786   1.510   7.256   0.021
 4449SOL     OW14787   0.366   6.885   1.481
 4449SOL    HW114788   0.339   6.967   1.440
 4449SOL    HW214789   0.288   6.829   1.475
 4450SOL     OW14790   1.619   6.874   1.294
 4450SOL    HW114791   1.664   6.845   1.374
 4450SOL    HW214792   1.553   6.937   1.325
 4451SOL     OW14793   1.065   6.702   0.725
 4451SOL    HW114794   0.994   6.646   0.755
 4451SOL    HW214795   1.132   6.641   0.695
 4452SOL     OW14796   1.026   5.830   0.963
 4452SOL    HW114797   1.024   5.784   0.879
 4452SOL    HW214798   1.021   5.760   1.028
 4453SOL     OW14799   0.619   7.068   0.499
 4453SOL    HW114800   0.668   7.019   0.433
 4453SOL    HW214801   0.544   7.103   0.450
 4454SOL     OW14802   1.724   5.987   1.367
 4454SOL    HW114803   1.799   6.045   1.375
 4454SOL    HW214804   1.755   5.914   1.313
 4455SOL     OW14805   0.289   6.914   0.319
 4455SOL    HW114806   0.196   6.914   0.294
 4455SOL    HW214807   0.293   6.971   0.395
 4456SOL     OW14808   0.109   6.599   1.716
 4456SOL    HW114809   0.067   6.679   1.747
 4456SOL    HW214810   0.193   6.596   1.764
 4457SOL     OW14811   0.680   5.785   1.499
 4457SOL    HW114812   0.764   5.761   1.460
 4457SOL    HW214813   0.703   5.814   1.588
 4458SOL     OW14814   0.073   5.996  12.502
 4458SOL    HW114815  -0.020   5.976  12.515
 4458SOL    HW214816   0.107   5.920  12.455
 4459SOL     OW14817   1.423   6.443   1.395
 4459SOL    HW114818   1.376   6.505   1.338
 4459SOL    HW214819   1.513   6.443   1.362
 4460SOL     OW14820   0.083   5.815   0.349
 4460SOL    HW114821   0.045   5.799   0.263
 4460SOL    HW214822   0.176   5.795   0.338
 4461SOL     OW14823   1.189   6.926   0.113
 4461SOL    HW114824   1.097   6.905   0.102
 4461SOL    HW214825   1.206   6.913   0.206
 4462SOL     OW14826   0.621   6.418   1.444
 4462SOL    HW114827   0.678   6.493   1.431
 4462SOL    HW214828   0.680   6.343   1.448
 4463SOL     OW14829   1.479   7.375   0.977
 4463SOL    HW114830   1.499   7.450   0.920
 4463SOL    HW214831   1.564   7.335   0.995
 4464SOL     OW14832   0.709   6.147   1.700
 4464SOL    HW114833   0.759   6.204   1.758
 4464SOL    HW214834   0.728   6.058   1.731
 4465SOL     OW14835   1.465   6.778   1.627
 4465SOL    HW114836   1.451   6.789   1.721
 4465SOL    HW214837   1.559   6.792   1.616
 4466SOL     OW14838   0.386   7.311   1.548
 4466SOL    HW114839   0.298   7.346   1.536
 4466SOL    HW214840   0.373   7.230   1.598
 4467SOL     OW14841   1.660   6.462   1.248
 4467SOL    HW114842   1.658   6.376   1.207
 4467SOL    HW214843   1.651   6.524   1.176
 4468SOL     OW14844   1.223   5.898   0.456
 4468SOL    HW114845   1.283   5.824   0.454
 4468SOL    HW214846   1.247   5.947   0.535
 4469SOL     OW14847   0.580   6.322   0.680
 4469SOL    HW114848   0.624   6.405   0.662
 4469SOL    HW214849   0.520   6.311   0.606
 4470SOL     OW14850   1.757   5.952   1.637
 4470SOL    HW114851   1.734   5.969   1.546
 4470SOL    HW214852   1.687   5.894   1.669
 4471SOL     OW14853   1.737   6.514   1.505
 4471SOL    HW114854   1.730   6.609   1.515
 4471SOL    HW214855   1.722   6.498   1.412
 4472SOL     OW14856   0.914   6.897   0.070
 4472SOL    HW114857   0.852   6.924   0.137
 4472SOL    HW214858   0.888   6.946  -0.008
 4473SOL     OW14859   0.660   7.373   0.913
 4473SOL    HW114860   0.619   7.460   0.913
 4473SOL    HW214861   0.754   7.391   0.920
 4474SOL     OW14862   0.870   6.554   0.855
 4474SOL    HW114863   0.923   6.480   0.886
 4474SOL    HW214864   0.825   6.585   0.934
 4475SOL     OW14865   1.085   6.567   0.078
 4475SOL    HW114866   1.115   6.645   0.031
 4475SOL    HW214867   1.161   6.509   0.079
 4476SOL     OW14868   1.848   7.135   0.840
 4476SOL    HW114869   1.766   7.124   0.792
 4476SOL    HW214870   1.857   7.054   0.890
 4477SOL     OW14871   0.221   6.884   1.853
 4477SOL    HW114872   0.127   6.874   1.837
 4477SOL    HW214873   0.228   6.889   1.948
 4478SOL     OW14874   0.146   6.836   0.651
 4478SOL    HW114875   0.072   6.788   0.689
 4478SOL    HW214876   0.197   6.769   0.606
 4479SOL     OW14877   0.676   7.006   1.620
 4479SOL    HW114878   0.603   6.961   1.663
 4479SOL    HW214879   0.682   7.090   1.665
 4480SOL     OW14880   1.805   5.770   1.233
 4480SOL    HW114881   1.828   5.680   1.256
 4480SOL    HW214882   1.819   5.776   1.139
 4481SOL     OW14883   0.435   6.024   0.526
 4481SOL    HW114884   0.471   5.955   0.471
 4481SOL    HW214885   0.386   5.977   0.594
 4482SOL     OW14886   1.686   7.068   1.103
 4482SOL    HW114887   1.614   7.050   1.042
 4482SOL    HW214888   1.676   7.002   1.172
 4483SOL     OW14889   0.348   6.138   1.294
 4483SOL    HW114890   0.390   6.081   1.359
 4483SOL    HW214891   0.370   6.099   1.210
 4484SOL     OW14892   0.790   7.192   0.675
 4484SOL    HW114893   0.805   7.275   0.630
 4484SOL    HW214894   0.739   7.140   0.613
 4485SOL     OW14895   1.427   5.820   1.117
 4485SOL    HW114896   1.446   5.737   1.160
 4485SOL    HW214897   1.378   5.870   1.183
 4486SOL     OW14898   1.009   5.603   1.129
 4486SOL    HW114899   0.953   5.538   1.085
 4486SOL    HW214900   1.096   5.563   1.131
 4487SOL     OW14901   0.777   6.914   0.333
 4487SOL    HW114902   0.753   6.822   0.344
 4487SOL    HW214903   0.865   6.920   0.372
 4488SOL     OW14904   0.617   7.153   1.251
 4488SOL    HW114905   0.612   7.234   1.302
 4488SOL    HW214906   0.711   7.138   1.242
 4489SOL     OW14907   1.371   5.627   0.185
 4489SOL    HW114908   1.373   5.570   0.108
 4489SOL    HW214909   1.285   5.669   0.181
 4490SOL     OW14910   1.284   6.048   0.674
 4490SOL    HW114911   1.236   6.131   0.679
 4490SOL    HW214912   1.287   6.017   0.765
 4491SOL     OW14913   1.583   5.776   0.888
 4491SOL    HW114914   1.529   5.804   0.963
 4491SOL    HW214915   1.583   5.852   0.830
 4492SOL     OW14916   0.072   6.662   0.294
 4492SOL    HW114917   0.154   6.625   0.263
 4492SOL    HW214918   0.017   6.587   0.315
 4493SOL     OW14919   0.889   7.243   0.371
 4493SOL    HW114920   0.825   7.223   0.302
 4493SOL    HW214921   0.853   7.319   0.416
 4494SOL     OW14922   0.211   6.247   1.907
 4494SOL    HW114923   0.146   6.256   1.977
 4494SOL    HW214924   0.268   6.177   1.936
 4495SOL     OW14925   0.237   5.852   2.848
 4495SOL    HW114926   0.263   5.827   2.936
 4495SOL    HW214927   0.153   5.810   2.834
 4496SOL     OW14928   8.008   5.984   2.464
 4496SOL    HW114929   7.924   5.971   2.508
 4496SOL    HW214930   8.009   5.920   2.393
 4497SOL     OW14931   0.561   6.871   3.040
 4497SOL    HW114932   0.479   6.888   2.993
 4497SOL    HW214933   0.581   6.953   3.085
 4498SOL     OW14934   1.575   7.106   2.575
 4498SOL    HW114935   1.534   7.075   2.656
 4498SOL    HW214936   1.504   7.105   2.511
 4499SOL     OW14937   1.128   6.286   2.551
 4499SOL    HW114938   1.179   6.365   2.534
 4499SOL    HW214939   1.088   6.302   2.637
 4500SOL     OW14940   1.821   6.126   2.058
 4500SOL    HW114941   1.766   6.140   1.981
 4500SOL    HW214942   1.762   6.137   2.132
 4501SOL     OW14943   0.733   6.715   2.903
 4501SOL    HW114944   0.668   6.756   2.959
 4501SOL    HW214945   0.789   6.788   2.874
 4502SOL     OW14946   0.874   6.340   3.681
 4502SOL    HW114947   0.859   6.408   3.747
 4502SOL    HW214948   0.895   6.388   3.601
 4503SOL     OW14949   0.687   6.581   2.509
 4503SOL    HW114950   0.757   6.576   2.574
 4503SOL    HW214951   0.622   6.639   2.548
 4504SOL     OW14952   0.716   6.737   3.692
 4504SOL    HW114953   0.767   6.812   3.723
 4504SOL    HW214954   0.641   6.775   3.646
 4505SOL     OW14955   0.347   6.948   2.875
 4505SOL    HW114956   0.302   6.980   2.953
 4505SOL    HW214957   0.391   7.025   2.839
 4506SOL     OW14958   1.445   7.144   3.182
 4506SOL    HW114959   1.507   7.193   3.237
 4506SOL    HW214960   1.427   7.064   3.232
 4507SOL     OW14961   0.450   5.966   3.336
 4507SOL    HW114962   0.529   5.914   3.347
 4507SOL    HW214963   0.379   5.907   3.362
 4508SOL     OW14964   1.601   6.027   2.615
 4508SOL    HW114965   1.538   6.052   2.547
 4508SOL    HW214966   1.596   6.098   2.679
 4509SOL     OW14967   0.223   7.286   2.332
 4509SOL    HW114968   0.235   7.364   2.387
 4509SOL    HW214969   0.294   7.292   2.268
 4510SOL     OW14970   1.135   6.928   3.561
 4510SOL    HW114971   1.164   6.915   3.651
 4510SOL    HW214972   1.091   6.847   3.537
 4511SOL     OW14973   0.286   7.015   2.371
 4511SOL    HW114974   0.267   7.106   2.391
 4511SOL    HW214975   0.233   6.965   2.433
 4512SOL     OW14976   0.248   6.681   2.732
 4512SOL    HW114977   0.269   6.611   2.794
 4512SOL    HW214978   0.229   6.757   2.787
 4513SOL     OW14979   0.601   7.392   3.248
 4513SOL    HW114980   0.529   7.360   3.302
 4513SOL    HW214981   0.630   7.472   3.293
 4514SOL     OW14982   0.570   6.585   2.007
 4514SOL    HW114983   0.626   6.623   1.939
 4514SOL    HW214984   0.612   6.610   2.089
 4515SOL     OW14985   1.579   5.722   3.320
 4515SOL    HW114986   1.633   5.783   3.270
 4515SOL    HW214987   1.568   5.765   3.406
 4516SOL     OW14988   0.127   6.228   2.405
 4516SOL    HW114989   0.093   6.144   2.435
 4516SOL    HW214990   0.121   6.285   2.481
 4517SOL     OW14991   1.842   7.337   2.181
 4517SOL    HW114992   1.908   7.309   2.245
 4517SOL    HW214993   1.858   7.430   2.168
 4518SOL     OW14994   0.020   7.171   2.001
 4518SOL    HW114995   0.006   7.077   1.991
 4518SOL    HW214996   0.008   7.188   2.095
 4519SOL     OW14997   1.683   6.514   2.510
 4519SOL    HW114998   1.746   6.457   2.466
 4519SOL    HW214999   1.654   6.575   2.442
 4520SOL     OW15000   1.645   6.688   2.290
 4520SOL    HW115001   1.727   6.677   2.241
 4520SOL    HW215002   1.664   6.757   2.353
 4521SOL     OW15003   0.153   6.354   3.455
 4521SOL    HW115004   0.249   6.349   3.456
 4521SOL    HW215005   0.133   6.437   3.499
 4522SOL     OW15006   0.620   6.982   2.598
 4522SOL    HW115007   0.575   6.899   2.610
 4522SOL    HW215008   0.605   7.006   2.507
 4523SOL     OW15009   0.826   5.583   2.374
 4523SOL    HW115010   0.867   5.667   2.351
 4523SOL    HW215011   0.732   5.603   2.378
 4524SOL     OW15012   0.178   6.507   3.110
 4524SOL    HW115013   0.274   6.509   3.106
 4524SOL    HW215014   0.156   6.414   3.115
 4525SOL     OW15015   1.511   6.594   2.064
 4525SOL    HW115016   1.447   6.534   2.102
 4525SOL    HW215017   1.569   6.618   2.136
 4526SOL     OW15018   1.182   7.405   3.502
 4526SOL    HW115019   1.186   7.464   3.427
 4526SOL    HW215020   1.192   7.318   3.465
 4527SOL     OW15021   0.367   5.861   3.675
 4527SOL    HW115022   0.410   5.924   3.734
 4527SOL    HW215023   0.274   5.869   3.695
 4528SOL     OW15024   1.473   6.994   2.803
 4528SOL    HW115025   1.402   7.015   2.864
 4528SOL    HW215026   1.457   6.903   2.778
 4529SOL     OW15027   1.648   7.349   2.438
 4529SOL    HW115028   1.626   7.310   2.353
 4529SOL    HW215029   1.634   7.279   2.501
 4530SOL     OW15030   0.587   6.289   2.126
 4530SOL    HW115031   0.608   6.377   2.094
 4530SOL    HW215032   0.531   6.304   2.202
 4531SOL     OW15033   1.283   5.962   2.800
 4531SOL    HW115034   1.195   5.925   2.808
 4531SOL    HW215035   1.336   5.907   2.858
 4532SOL     OW15036   1.575   7.267   2.176
 4532SOL    HW115037   1.669   7.284   2.167
 4532SOL    HW215038   1.545   7.254   2.086
 4533SOL     OW15039   0.793   6.203   3.306
 4533SOL    HW115040   0.761   6.177   3.392
 4533SOL    HW215041   0.760   6.134   3.247
 4534SOL     OW15042   1.393   6.056   3.539
 4534SOL    HW115043   1.401   6.108   3.619
 4534SOL    HW215044   1.452   5.981   3.552
 4535SOL     OW15045   0.942   6.471   3.446
 4535SOL    HW115046   1.001   6.407   3.406
 4535SOL    HW215047   0.901   6.515   3.372
 4536SOL     OW15048   0.995   5.981   3.095
 4536SOL    HW115049   0.905   6.003   3.120
 4536SOL    HW215050   0.991   5.964   3.001
 4537SOL     OW15051   1.053   6.285   2.283
 4537SOL    HW115052   1.074   6.284   2.377
 4537SOL    HW215053   0.970   6.238   2.278
 4538SOL     OW15054   0.105   6.379   2.635
 4538SOL    HW115055   0.186   6.386   2.686
 4538SOL    HW215056   0.061   6.463   2.648
 4539SOL     OW15057   0.144   7.431   3.433
 4539SOL    HW115058   0.140   7.407   3.525
 4539SOL    HW215059   0.068   7.387   3.394
 4540SOL     OW15060   0.899   5.934   2.058
 4540SOL    HW115061   0.940   5.999   2.000
 4540SOL    HW215062   0.919   5.850   2.018
 4541SOL     OW15063   1.685   6.154   3.694
 4541SOL    HW115064   1.660   6.230   3.641
 4541SOL    HW215065   1.730   6.096   3.632
 4542SOL     OW15066   1.387   6.729   2.402
 4542SOL    HW115067   1.469   6.719   2.354
 4542SOL    HW215068   1.337   6.793   2.351
 4543SOL     OW15069   0.558   5.760   2.765
 4543SOL    HW115070   0.557   5.787   2.857
 4543SOL    HW215071   0.558   5.842   2.716
 4544SOL     OW15072   0.991   7.029   2.324
 4544SOL    HW115073   0.970   7.109   2.276
 4544SOL    HW215074   0.969   7.048   2.415
 4545SOL     OW15075   0.348   7.411   2.743
 4545SOL    HW115076   0.396   7.329   2.749
 4545SOL    HW215077   0.415   7.479   2.757
 4546SOL     OW15078   1.806   6.637   2.732
 4546SOL    HW115079   1.753   6.610   2.656
 4546SOL    HW215080   1.742   6.643   2.804
 4547SOL     OW15081   1.207   7.148   3.394
 4547SOL    HW115082   1.207   7.065   3.442
 4547SOL    HW215083   1.223   7.122   3.303
 4548SOL     OW15084   0.304   6.540   2.098
 4548SOL    HW115085   0.391   6.570   2.071
 4548SOL    HW215086   0.288   6.462   2.046
 4549SOL     OW15087   1.484   6.332   2.571
 4549SOL    HW115088   1.476   6.302   2.661
 4549SOL    HW215089   1.557   6.395   2.573
 4550SOL     OW15090   0.463   6.851   3.608
 4550SOL    HW115091   0.441   6.849   3.514
 4550SOL    HW215092   0.378   6.844   3.652
 4551SOL     OW15093   1.133   7.370   2.080
 4551SOL    HW115094   1.056   7.338   2.127
 4551SOL    HW215095   1.154   7.301   2.018
 4552SOL     OW15096   0.194   5.842   3.364
 4552SOL    HW115097   0.175   5.921   3.414
 4552SOL    HW215098   0.160   5.771   3.417
 4553SOL     OW15099   1.612   6.982   1.883
 4553SOL    HW115100   1.565   7.059   1.917
 4553SOL    HW215101   1.550   6.910   1.893
 4554SOL     OW15102   0.458   7.322   2.179
 4554SOL    HW115103   0.499   7.373   2.249
 4554SOL    HW215104   0.531   7.288   2.128
 4555SOL     OW15105   1.399   5.690   2.314
 4555SOL    HW115106   1.397   5.669   2.220
 4555SOL    HW215107   1.491   5.708   2.333
 4556SOL     OW15108   0.233   7.384   3.079
 4556SOL    HW115109   0.259   7.301   3.121
 4556SOL    HW215110   0.255   7.372   2.987
 4557SOL     OW15111   0.934   7.291   2.751
 4557SOL    HW115112   0.979   7.235   2.815
 4557SOL    HW215113   0.909   7.231   2.680
 4558SOL     OW15114   0.406   6.286   2.334
 4558SOL    HW115115   0.418   6.192   2.349
 4558SOL    HW215116   0.315   6.302   2.359
 4559SOL     OW15117   1.537   5.817   3.601
 4559SOL    HW115118   1.539   5.846   3.692
 4559SOL    HW215119   1.506   5.727   3.604
 4560SOL     OW15120   0.650   5.701   1.963
 4560SOL    HW115121   0.704   5.627   1.989
 4560SOL    HW215122   0.597   5.668   1.890
 4561SOL     OW15123   0.743   5.876   3.618
 4561SOL    HW115124   0.829   5.834   3.621
 4561SOL    HW215125   0.694   5.835   3.689
 4562SOL     OW15126   0.905   7.140   3.014
 4562SOL    HW115127   0.867   7.086   2.945
 4562SOL    HW215128   0.959   7.080   3.065
 4563SOL     OW15129   1.333   6.167   3.294
 4563SOL    HW115130   1.367   6.137   3.379
 4563SOL    HW215131   1.375   6.252   3.281
 4564SOL     OW15132   0.820   6.976   2.808
 4564SOL    HW115133   0.904   6.961   2.764
 4564SOL    HW215134   0.756   6.977   2.737
 4565SOL     OW15135   0.929   6.092   2.763
 4565SOL    HW115136   0.902   6.085   2.671
 4565SOL    HW215137   0.963   6.005   2.784
 4566SOL     OW15138   0.558   5.649   2.354
 4566SOL    HW115139   0.479   5.649   2.408
 4566SOL    HW215140   0.549   5.725   2.297
 4567SOL     OW15141   1.421   6.787   1.898
 4567SOL    HW115142   1.457   6.715   1.949
 4567SOL    HW215143   1.339   6.810   1.942
 4568SOL     OW15144   0.279   5.637   2.038
 4568SOL    HW115145   0.337   5.704   2.002
 4568SOL    HW215146   0.337   5.578   2.086
 4569SOL     OW15147   0.944   5.831   2.316
 4569SOL    HW115148   0.919   5.871   2.233
 4569SOL    HW215149   1.038   5.847   2.324
 4570SOL     OW15150   1.083   6.276   3.318
 4570SOL    HW115151   1.020   6.205   3.319
 4570SOL    HW215152   1.168   6.233   3.311
 4571SOL     OW15153   1.231   7.145   2.643
 4571SOL    HW115154   1.240   7.221   2.586
 4571SOL    HW215155   1.278   7.168   2.723
 4572SOL     OW15156   0.475   6.743   2.585
 4572SOL    HW115157   0.409   6.731   2.653
 4572SOL    HW215158   0.430   6.718   2.504
 4573SOL     OW15159   1.259   7.374   2.477
 4573SOL    HW115160   1.304   7.440   2.424
 4573SOL    HW215161   1.187   7.422   2.518
 4574SOL     OW15162   1.028   6.112   1.891
 4574SOL    HW115163   0.986   6.197   1.874
 4574SOL    HW215164   1.092   6.130   1.959
 4575SOL     OW15165   0.105   6.233   3.219
 4575SOL    HW115166   0.190   6.190   3.206
 4575SOL    HW215167   0.109   6.268   3.308
 4576SOL     OW15168   0.557   5.814   3.037
 4576SOL    HW115169   0.599   5.749   3.093
 4576SOL    HW215170   0.465   5.812   3.064
 4577SOL     OW15171   0.861   6.036   2.502
 4577SOL    HW115172   0.824   6.096   2.437
 4577SOL    HW215173   0.888   5.959   2.451
 4578SOL     OW15174   1.026   5.638   2.609
 4578SOL    HW115175   0.965   5.638   2.535
 4578SOL    HW215176   0.996   5.566   2.665
 4579SOL     OW15177   1.430   6.731   2.723
 4579SOL    HW115178   1.380   6.652   2.742
 4579SOL    HW215179   1.431   6.736   2.627
 4580SOL     OW15180   1.462   6.203   2.822
 4580SOL    HW115181   1.403   6.128   2.830
 4580SOL    HW215182   1.519   6.197   2.900
 4581SOL     OW15183   1.800   6.378   2.286
 4581SOL    HW115184   1.877   6.330   2.316
 4581SOL    HW215185   1.834   6.446   2.228
 4582SOL     OW15186   0.492   7.006   2.005
 4582SOL    HW115187   0.411   6.980   2.050
 4582SOL    HW215188   0.498   6.947   1.930
 4583SOL     OW15189   1.690   6.864   2.485
 4583SOL    HW115190   1.783   6.860   2.508
 4583SOL    HW215191   1.659   6.947   2.521
 4584SOL     OW15192   1.390   6.162   1.932
 4584SOL    HW115193   1.335   6.137   2.006
 4584SOL    HW215194   1.479   6.143   1.960
 4585SOL     OW15195   0.525   5.845   2.165
 4585SOL    HW115196   0.578   5.800   2.099
 4585SOL    HW215197   0.500   5.927   2.123
 4586SOL     OW15198   1.751   6.833   3.406
 4586SOL    HW115199   1.838   6.795   3.391
 4586SOL    HW215200   1.768   6.920   3.439
 4587SOL     OW15201   1.025   6.934   3.157
 4587SOL    HW115202   0.956   6.907   3.218
 4587SOL    HW215203   1.106   6.909   3.200
 4588SOL     OW15204   1.616   7.218   3.534
 4588SOL    HW115205   1.609   7.258   3.447
 4588SOL    HW215206   1.695   7.164   3.529
 4589SOL     OW15207   1.083   6.768   2.937
 4589SOL    HW115208   1.063   6.823   3.012
 4589SOL    HW215209   1.082   6.827   2.862
 4590SOL     OW15210   1.634   6.678   2.942
 4590SOL    HW115211   1.633   6.742   3.013
 4590SOL    HW215212   1.550   6.689   2.898
 4591SOL     OW15213   0.914   5.705   3.242
 4591SOL    HW115214   0.936   5.687   3.151
 4591SOL    HW215215   0.995   5.742   3.279
 4592SOL     OW15216   0.985   6.691   3.597
 4592SOL    HW115217   0.894   6.713   3.617
 4592SOL    HW215218   0.979   6.617   3.536
 4593SOL     OW15219   0.709   6.646   2.237
 4593SOL    HW115220   0.698   6.628   2.331
 4593SOL    HW215221   0.783   6.591   2.211
 4594SOL     OW15222   0.435   6.407   3.118
 4594SOL    HW115223   0.501   6.423   3.186
 4594SOL    HW215224   0.408   6.317   3.131
 4595SOL     OW15225   1.258   5.939   3.162
 4595SOL    HW115226   1.292   6.019   3.200
 4595SOL    HW215227   1.168   5.960   3.136
 4596SOL     OW15228   0.002   7.252   3.180
 4596SOL    HW115229   0.057   7.319   3.140
 4596SOL    HW215230   0.062   7.180   3.199
 4597SOL     OW15231   0.339   6.686   2.351
 4597SOL    HW115232   0.350   6.768   2.303
 4597SOL    HW215233   0.341   6.619   2.282
 4598SOL     OW15234   0.548   6.108   2.714
 4598SOL    HW115235   0.564   6.169   2.642
 4598SOL    HW215236   0.612   6.134   2.781
 4599SOL     OW15237   1.246   6.942   2.251
 4599SOL    HW115238   1.302   7.010   2.289
 4599SOL    HW215239   1.160   6.958   2.289
 4600SOL     OW15240   1.284   7.059   2.988
 4600SOL    HW115241   1.346   7.093   3.053
 4600SOL    HW215242   1.246   6.982   3.029
 4601SOL     OW15243   1.589   6.205   2.340
 4601SOL    HW115244   1.535   6.249   2.406
 4601SOL    HW215245   1.656   6.269   2.317
 4602SOL     OW15246   0.434   6.313   3.475
 4602SOL    HW115247   0.487   6.365   3.415
 4602SOL    HW215248   0.493   6.245   3.507
 4603SOL     OW15249   1.611   6.372   3.550
 4603SOL    HW115250   1.524   6.408   3.537
 4603SOL    HW215251   1.664   6.412   3.481
 4604SOL     OW15252   0.979   5.745   3.617
 4604SOL    HW115253   1.046   5.814   3.612
 4604SOL    HW215254   0.986   5.700   3.533
 4605SOL     OW15255   0.495   5.621   3.619
 4605SOL    HW115256   0.445   5.571   3.555
 4605SOL    HW215257   0.443   5.700   3.635
 4606SOL     OW15258   0.587   6.467   2.893
 4606SOL    HW115259   0.632   6.552   2.894
 4606SOL    HW215260   0.539   6.464   2.975
 4607SOL     OW15261   1.321   6.462   2.810
 4607SOL    HW115262   1.229   6.435   2.817
 4607SOL    HW215263   1.370   6.386   2.838
 4608SOL     OW15264   1.193   6.109   2.121
 4608SOL    HW115265   1.206   6.033   2.178
 4608SOL    HW215266   1.155   6.175   2.179
 4609SOL     OW15267   0.295   5.781   3.110
 4609SOL    HW115268   0.260   5.808   3.195
 4609SOL    HW215269   0.286   5.686   3.109
 4610SOL     OW15270   0.020   6.896   3.146
 4610SOL    HW115271   0.047   6.830   3.209
 4610SOL    HW215272   0.092   6.960   3.145
 4611SOL     OW15273   0.710   6.213   2.907
 4611SOL    HW115274   0.794   6.205   2.861
 4611SOL    HW215275   0.685   6.305   2.896
 4612SOL     OW15276   1.753   6.536   3.725
 4612SOL    HW115277   1.709   6.476   3.665
 4612SOL    HW215278   1.681   6.583   3.768
 4613SOL     OW15279   0.309   5.655   2.475
 4613SOL    HW115280   0.285   5.744   2.499
 4613SOL    HW215281   0.318   5.609   2.559
 4614SOL     OW15282   1.598   5.960   2.221
 4614SOL    HW115283   1.641   5.902   2.284
 4614SOL    HW215284   1.589   6.043   2.267
 4615SOL     OW15285   1.035   6.341   2.817
 4615SOL    HW115286   1.021   6.358   2.910
 4615SOL    HW215287   1.007   6.250   2.805
 4616SOL     OW15288   0.976   7.149   3.593
 4616SOL    HW115289   0.958   7.199   3.513
 4616SOL    HW215290   1.026   7.073   3.562
 4617SOL     OW15291   1.850   7.084   3.469
 4617SOL    HW115292   1.871   7.114   3.381
 4617SOL    HW215293   1.931   7.096   3.519
 4618SOL     OW15294   0.364   6.527   3.659
 4618SOL    HW115295   0.439   6.548   3.715
 4618SOL    HW215296   0.390   6.447   3.613
 4619SOL     OW15297   1.527   5.851   1.982
 4619SOL    HW115298   1.465   5.785   2.014
 4619SOL    HW215299   1.557   5.895   2.061
 4620SOL     OW15300   1.269   6.404   1.883
 4620SOL    HW115301   1.316   6.321   1.894
 4620SOL    HW215302   1.309   6.444   1.806
 4621SOL     OW15303   1.064   6.931   2.703
 4621SOL    HW115304   1.077   6.856   2.644
 4621SOL    HW215305   1.128   6.996   2.674
 4622SOL     OW15306   0.323   6.389   2.805
 4622SOL    HW115307   0.414   6.417   2.811
 4622SOL    HW215308   0.323   6.300   2.841
 4623SOL     OW15309   0.334   6.103   2.877
 4623SOL    HW115310   0.300   6.015   2.862
 4623SOL    HW215311   0.409   6.110   2.818
 4624SOL     OW15312   1.139   5.957   3.555
 4624SOL    HW115313   1.092   6.016   3.614
 4624SOL    HW215314   1.226   5.996   3.545
 4625SOL     OW15315   1.158   5.762   3.360
 4625SOL    HW115316   1.155   5.832   3.426
 4625SOL    HW215317   1.207   5.801   3.288
 4626SOL     OW15318   7.981   6.888   2.054
 4626SOL    HW115319   7.894   6.911   2.089
 4626SOL    HW215320   7.994   6.797   2.081
 4627SOL     OW15321   0.082   7.313   2.766
 4627SOL    HW115322   0.117   7.226   2.784
 4627SOL    HW215323   0.159   7.367   2.751
 4628SOL     OW15324   0.489   7.169   2.763
 4628SOL    HW115325   0.558   7.230   2.790
 4628SOL    HW215326   0.535   7.104   2.709
 4629SOL     OW15327   0.968   6.361   3.079
 4629SOL    HW115328   1.034   6.352   3.148
 4629SOL    HW215329   0.884   6.344   3.123
 4630SOL     OW15330   0.071   6.131   2.971
 4630SOL    HW115331   0.164   6.124   2.954
 4630SOL    HW215332   0.065   6.160   3.062
 4631SOL     OW15333   0.190   6.086   3.504
 4631SOL    HW115334   0.285   6.088   3.493
 4631SOL    HW215335   0.164   6.178   3.507
 4632SOL     OW15336   1.375   6.513   3.523
 4632SOL    HW115337   1.419   6.597   3.526
 4632SOL    HW215338   1.362   6.495   3.430
 4633SOL     OW15339   0.816   6.149   2.232
 4633SOL    HW115340   0.828   6.077   2.171
 4633SOL    HW215341   0.741   6.198   2.198
 4634SOL     OW15342   1.639   6.184   3.034
 4634SOL    HW115343   1.632   6.130   3.113
 4634SOL    HW215344   1.727   6.169   3.001
 4635SOL     OW15345   0.279   7.121   3.569
 4635SOL    HW115346   0.242   7.191   3.622
 4635SOL    HW215347   0.271   7.043   3.624
 4636SOL     OW15348   0.719   6.030   3.108
 4636SOL    HW115349   0.658   5.960   3.085
 4636SOL    HW215350   0.707   6.095   3.039
 4637SOL     OW15351   0.890   7.282   3.364
 4637SOL    HW115352   0.886   7.228   3.285
 4637SOL    HW215353   0.896   7.372   3.333
 4638SOL     OW15354   0.439   6.072   2.028
 4638SOL    HW115355   0.498   6.145   2.050
 4638SOL    HW215356   0.363   6.084   2.085
 4639SOL     OW15357   0.134   6.705   3.307
 4639SOL    HW115358   0.126   6.661   3.392
 4639SOL    HW215359   0.149   6.634   3.245
 4640SOL     OW15360   1.341   6.598   3.084
 4640SOL    HW115361   1.290   6.611   3.004
 4640SOL    HW215362   1.330   6.680   3.133
 4641SOL     OW15363   1.307   6.443   2.162
 4641SOL    HW115364   1.240   6.409   2.221
 4641SOL    HW215365   1.275   6.423   2.075
 4642SOL     OW15366   1.782   7.317   3.026
 4642SOL    HW115367   1.840   7.338   2.953
 4642SOL    HW215368   1.749   7.229   3.006
 4643SOL     OW15369   1.233   7.329   2.953
 4643SOL    HW115370   1.320   7.352   2.920
 4643SOL    HW215371   1.239   7.235   2.973
 4644SOL     OW15372   0.022   6.856   2.874
 4644SOL    HW115373   0.034   6.867   2.968
 4644SOL    HW215374  -0.004   6.764   2.864
 4645SOL     OW15375   0.686   7.258   3.604
 4645SOL    HW115376   0.626   7.331   3.591
 4645SOL    HW215377   0.758   7.274   3.544
 4646SOL     OW15378   1.720   5.751   2.365
 4646SOL    HW115379   1.790   5.733   2.301
 4646SOL    HW215380   1.702   5.666   2.405
 4647SOL     OW15381   1.392   7.155   2.354
 4647SOL    HW115382   1.449   7.195   2.288
 4647SOL    HW215383   1.341   7.228   2.389
 4648SOL     OW15384   0.155   7.332   3.698
 4648SOL    HW115385   0.097   7.280   3.753
 4648SOL    HW215386   0.207   7.384   3.759
 4649SOL     OW15387   1.273   6.507   2.505
 4649SOL    HW115388   1.348   6.454   2.532
 4649SOL    HW215389   1.312   6.583   2.462
 4650SOL     OW15390   0.787   6.869   3.290
 4650SOL    HW115391   0.763   6.903   3.376
 4650SOL    HW215392   0.729   6.914   3.229
 4651SOL     OW15393   0.665   7.214   2.022
 4651SOL    HW115394   0.678   7.231   1.929
 4651SOL    HW215395   0.611   7.135   2.025
 4652SOL     OW15396   1.638   7.326   3.277
 4652SOL    HW115397   1.680   7.323   3.191
 4652SOL    HW215398   1.614   7.418   3.289
 4653SOL     OW15399   1.839   5.752   2.830
 4653SOL    HW115400   1.872   5.665   2.805
 4653SOL    HW215401   1.753   5.758   2.788
 4654SOL     OW15402   0.259   5.904   2.572
 4654SOL    HW115403   0.173   5.941   2.553
 4654SOL    HW215404   0.260   5.892   2.667
 4655SOL     OW15405   1.204   7.179   1.895
 4655SOL    HW115406   1.191   7.090   1.928
 4655SOL    HW215407   1.133   7.192   1.833
 4656SOL     OW15408   0.826   6.602   3.233
 4656SOL    HW115409   0.872   6.606   3.149
 4656SOL    HW215410   0.809   6.694   3.255
 4657SOL     OW15411   0.907   6.486   2.147
 4657SOL    HW115412   0.966   6.523   2.082
 4657SOL    HW215413   0.961   6.427   2.198
 4658SOL     OW15414   1.472   7.241   1.915
 4658SOL    HW115415   1.380   7.219   1.900
 4658SOL    HW215416   1.511   7.244   1.828
 4659SOL     OW15417   0.363   6.864   3.356
 4659SOL    HW115418   0.360   6.939   3.297
 4659SOL    HW215419   0.286   6.812   3.334
 4660SOL     OW15420   1.614   6.861   3.150
 4660SOL    HW115421   1.660   6.852   3.233
 4660SOL    HW215422   1.521   6.860   3.174
 4661SOL     OW15423   1.067   6.695   2.564
 4661SOL    HW115424   0.999   6.647   2.610
 4661SOL    HW215425   1.133   6.629   2.544
 4662SOL     OW15426   1.031   5.832   2.824
 4662SOL    HW115427   1.032   5.783   2.742
 4662SOL    HW215428   1.024   5.764   2.892
 4663SOL     OW15429   0.607   7.066   2.339
 4663SOL    HW115430   0.657   7.021   2.270
 4663SOL    HW215431   0.526   7.094   2.296
 4664SOL     OW15432   1.732   5.983   3.246
 4664SOL    HW115433   1.806   6.044   3.246
 4664SOL    HW215434   1.758   5.913   3.186
 4665SOL     OW15435   0.248   6.929   2.122
 4665SOL    HW115436   0.153   6.933   2.117
 4665SOL    HW215437   0.269   6.963   2.209
 4666SOL     OW15438   0.112   6.594   3.563
 4666SOL    HW115439   0.065   6.669   3.599
 4666SOL    HW215440   0.193   6.591   3.614
 4667SOL     OW15441   0.672   5.783   3.359
 4667SOL    HW115442   0.758   5.774   3.319
 4667SOL    HW215443   0.690   5.816   3.447
 4668SOL     OW15444   0.116   5.947   1.878
 4668SOL    HW115445   0.043   5.985   1.928
 4668SOL    HW215446   0.124   6.003   1.801
 4669SOL     OW15447   1.439   6.419   3.259
 4669SOL    HW115448   1.392   6.478   3.200
 4669SOL    HW215449   1.530   6.426   3.233
 4670SOL     OW15450   0.097   5.826   2.223
 4670SOL    HW115451   0.051   5.804   2.142
 4670SOL    HW215452   0.179   5.776   2.218
 4671SOL     OW15453   1.175   6.916   1.986
 4671SOL    HW115454   1.089   6.876   1.994
 4671SOL    HW215455   1.206   6.924   2.076
 4672SOL     OW15456   0.628   6.422   3.305
 4672SOL    HW115457   0.683   6.499   3.288
 4672SOL    HW215458   0.690   6.349   3.309
 4673SOL     OW15459   1.484   7.379   2.853
 4673SOL    HW115460   1.517   7.444   2.790
 4673SOL    HW215461   1.564   7.337   2.886
 4674SOL     OW15462   0.699   6.152   3.557
 4674SOL    HW115463   0.751   6.207   3.614
 4674SOL    HW215464   0.712   6.063   3.590
 4675SOL     OW15465   1.535   6.731   3.557
 4675SOL    HW115466   1.500   6.805   3.607
 4675SOL    HW215467   1.600   6.770   3.498
 4676SOL     OW15468   0.396   7.325   3.417
 4676SOL    HW115469   0.310   7.363   3.402
 4676SOL    HW215470   0.379   7.235   3.443
 4677SOL     OW15471   1.679   6.461   3.118
 4677SOL    HW115472   1.668   6.378   3.071
 4677SOL    HW215473   1.662   6.528   3.053
 4678SOL     OW15474   1.212   5.902   2.316
 4678SOL    HW115475   1.276   5.831   2.314
 4678SOL    HW215476   1.237   5.954   2.392
 4679SOL     OW15477   0.596   6.314   2.535
 4679SOL    HW115478   0.636   6.401   2.532
 4679SOL    HW215479   0.532   6.315   2.464
 4680SOL     OW15480   1.765   5.950   3.519
 4680SOL    HW115481   1.751   5.968   3.426
 4680SOL    HW215482   1.690   5.897   3.545
 4681SOL     OW15483   1.759   6.518   3.374
 4681SOL    HW115484   1.738   6.610   3.386
 4681SOL    HW215485   1.743   6.502   3.281
 4682SOL     OW15486   0.844   6.949   1.906
 4682SOL    HW115487   0.821   6.959   1.999
 4682SOL    HW215488   0.868   7.038   1.878
 4683SOL     OW15489   0.667   7.372   2.793
 4683SOL    HW115490   0.652   7.465   2.778
 4683SOL    HW215491   0.762   7.362   2.788
 4684SOL     OW15492   0.875   6.558   2.713
 4684SOL    HW115493   0.929   6.490   2.753
 4684SOL    HW215494   0.836   6.605   2.787
 4685SOL     OW15495   1.061   6.568   1.941
 4685SOL    HW115496   1.051   6.625   1.866
 4685SOL    HW215497   1.137   6.514   1.920
 4686SOL     OW15498   1.839   7.137   2.705
 4686SOL    HW115499   1.756   7.124   2.657
 4686SOL    HW215500   1.838   7.069   2.772
 4687SOL     OW15501   0.215   6.887   3.718
 4687SOL    HW115502   0.123   6.866   3.700
 4687SOL    HW215503   0.221   6.889   3.814
 4688SOL     OW15504   0.117   6.833   2.492
 4688SOL    HW115505   0.044   6.803   2.546
 4688SOL    HW215506   0.188   6.772   2.511
 4689SOL     OW15507   0.686   6.990   3.516
 4689SOL    HW115508   0.598   6.959   3.538
 4689SOL    HW215509   0.687   7.082   3.542
 4690SOL     OW15510   1.795   5.766   3.100
 4690SOL    HW115511   1.846   5.689   3.125
 4690SOL    HW215512   1.807   5.774   3.006
 4691SOL     OW15513   0.422   6.022   2.377
 4691SOL    HW115514   0.468   5.949   2.335
 4691SOL    HW215515   0.379   5.982   2.453
 4692SOL     OW15516   1.689   7.067   2.962
 4692SOL    HW115517   1.614   7.047   2.905
 4692SOL    HW215518   1.683   7.004   3.033
 4693SOL     OW15519   0.353   6.146   3.156
 4693SOL    HW115520   0.395   6.085   3.217
 4693SOL    HW215521   0.370   6.110   3.070
 4694SOL     OW15522   0.837   7.161   2.530
 4694SOL    HW115523   0.803   7.233   2.477
 4694SOL    HW215524   0.762   7.104   2.545
 4695SOL     OW15525   1.432   5.821   2.983
 4695SOL    HW115526   1.484   5.756   3.030
 4695SOL    HW215527   1.377   5.861   3.050
 4696SOL     OW15528   1.010   5.606   2.994
 4696SOL    HW115529   0.952   5.544   2.950
 4696SOL    HW215530   1.096   5.565   2.991
 4697SOL     OW15531   0.783   6.915   2.177
 4697SOL    HW115532   0.759   6.825   2.198
 4697SOL    HW215533   0.858   6.935   2.233
 4698SOL     OW15534   0.663   7.104   3.153
 4698SOL    HW115535   0.620   7.184   3.184
 4698SOL    HW215536   0.738   7.136   3.102
 4699SOL     OW15537   1.364   5.633   2.043
 4699SOL    HW115538   1.401   5.560   1.993
 4699SOL    HW215539   1.274   5.607   2.061
 4700SOL     OW15540   1.280   6.047   2.536
 4700SOL    HW115541   1.234   6.131   2.541
 4700SOL    HW215542   1.286   6.018   2.627
 4701SOL     OW15543   1.578   5.775   2.746
 4701SOL    HW115544   1.526   5.804   2.821
 4701SOL    HW215545   1.582   5.852   2.689
 4702SOL     OW15546   0.048   6.634   2.162
 4702SOL    HW115547   0.136   6.613   2.131
 4702SOL    HW215548   0.059   6.654   2.255
 4703SOL     OW15549   0.897   7.252   2.187
 4703SOL    HW115550   0.818   7.237   2.136
 4703SOL    HW215551   0.872   7.317   2.253
 4704SOL     OW15552   0.226   6.256   3.787
 4704SOL    HW115553   0.198   6.220   3.872
 4704SOL    HW215554   0.269   6.183   3.743
 4705SOL     OW15555   0.228   5.916   4.757
 4705SOL    HW115556   0.242   5.844   4.819
 4705SOL    HW215557   0.229   5.873   4.671
 4706SOL     OW15558   7.949   6.033   4.309
 4706SOL    HW115559   7.876   5.995   4.358
 4706SOL    HW215560   8.027   5.989   4.344
 4707SOL     OW15561   0.567   6.870   4.964
 4707SOL    HW115562   0.614   6.815   4.901
 4707SOL    HW215563   0.576   6.959   4.930
 4708SOL     OW15564   1.573   7.101   4.438
 4708SOL    HW115565   1.530   7.081   4.521
 4708SOL    HW215566   1.502   7.111   4.375
 4709SOL     OW15567   1.146   6.290   4.411
 4709SOL    HW115568   1.194   6.373   4.418
 4709SOL    HW215569   1.095   6.285   4.492
 4710SOL     OW15570   1.776   6.188   3.944
 4710SOL    HW115571   1.743   6.185   3.854
 4710SOL    HW215572   1.788   6.096   3.968
 4711SOL     OW15573   0.893   6.336   5.554
 4711SOL    HW115574   0.876   6.406   5.617
 4711SOL    HW215575   0.906   6.381   5.471
 4712SOL     OW15576   0.694   6.584   4.371
 4712SOL    HW115577   0.763   6.579   4.438
 4712SOL    HW215578   0.627   6.640   4.409
 4713SOL     OW15579   0.279   7.065   4.770
 4713SOL    HW115580   0.256   6.976   4.743
 4713SOL    HW215581   0.355   7.087   4.716
 4714SOL     OW15582   1.461   7.086   5.084
 4714SOL    HW115583   1.515   7.165   5.089
 4714SOL    HW215584   1.399   7.095   5.156
 4715SOL     OW15585   0.450   5.977   5.212
 4715SOL    HW115586   0.532   5.928   5.215
 4715SOL    HW215587   0.382   5.910   5.218
 4716SOL     OW15588   1.610   6.044   4.458
 4716SOL    HW115589   1.580   6.112   4.398
 4716SOL    HW215590   1.614   6.086   4.543
 4717SOL     OW15591   0.231   7.290   4.205
 4717SOL    HW115592   0.238   7.372   4.253
 4717SOL    HW215593   0.296   7.297   4.136
 4718SOL     OW15594   1.154   6.934   5.436
 4718SOL    HW115595   1.192   6.922   5.523
 4718SOL    HW215596   1.116   6.849   5.414
 4719SOL     OW15597   0.298   7.023   4.233
 4719SOL    HW115598   0.271   7.114   4.248
 4719SOL    HW215599   0.245   6.973   4.294
 4720SOL     OW15600   0.281   6.674   4.603
 4720SOL    HW115601   0.284   6.585   4.638
 4720SOL    HW215602   0.215   6.719   4.657
 4721SOL     OW15603   0.661   7.367   5.165
 4721SOL    HW115604   0.576   7.342   5.202
 4721SOL    HW215605   0.668   7.461   5.185
 4722SOL     OW15606   0.570   6.577   3.870
 4722SOL    HW115607   0.622   6.623   3.804
 4722SOL    HW215608   0.608   6.605   3.953
 4723SOL     OW15609   1.573   5.732   5.169
 4723SOL    HW115610   1.628   5.802   5.135
 4723SOL    HW215611   1.562   5.752   5.262
 4724SOL     OW15612   0.142   6.243   4.255
 4724SOL    HW115613   0.091   6.165   4.279
 4724SOL    HW215614   0.133   6.301   4.330
 4725SOL     OW15615   1.846   7.333   4.051
 4725SOL    HW115616   1.916   7.312   4.112
 4725SOL    HW215617   1.860   7.425   4.029
 4726SOL     OW15618   0.008   7.176   3.867
 4726SOL    HW115619   0.003   7.081   3.854
 4726SOL    HW215620  -0.001   7.188   3.961
 4727SOL     OW15621   1.708   6.488   4.385
 4727SOL    HW115622   1.792   6.455   4.416
 4727SOL    HW215623   1.722   6.506   4.292
 4728SOL     OW15624   1.642   6.708   4.151
 4728SOL    HW115625   1.730   6.701   4.114
 4728SOL    HW215626   1.655   6.749   4.236
 4729SOL     OW15627   0.152   6.349   5.305
 4729SOL    HW115628   0.248   6.347   5.301
 4729SOL    HW215629   0.132   6.433   5.347
 4730SOL     OW15630   0.614   6.988   4.457
 4730SOL    HW115631   0.575   6.901   4.462
 4730SOL    HW215632   0.601   7.015   4.367
 4731SOL     OW15633   1.280   6.818   5.146
 4731SOL    HW115634   1.304   6.752   5.081
 4731SOL    HW215635   1.346   6.809   5.215
 4732SOL     OW15636   0.812   5.595   4.234
 4732SOL    HW115637   0.842   5.684   4.217
 4732SOL    HW215638   0.717   5.602   4.243
 4733SOL     OW15639   0.182   6.509   4.978
 4733SOL    HW115640   0.277   6.497   4.985
 4733SOL    HW215641   0.155   6.448   4.910
 4734SOL     OW15642   1.515   6.582   3.937
 4734SOL    HW115643   1.488   6.491   3.922
 4734SOL    HW215644   1.593   6.575   3.992
 4735SOL     OW15645   1.112   7.364   5.293
 4735SOL    HW115646   1.156   7.445   5.266
 4735SOL    HW215647   1.176   7.295   5.274
 4736SOL     OW15648   0.344   5.853   5.552
 4736SOL    HW115649   0.397   5.922   5.590
 4736SOL    HW215650   0.253   5.878   5.571
 4737SOL     OW15651   1.463   7.007   4.673
 4737SOL    HW115652   1.397   7.023   4.741
 4737SOL    HW215653   1.452   6.915   4.651
 4738SOL     OW15654   1.650   7.348   4.299
 4738SOL    HW115655   1.633   7.308   4.214
 4738SOL    HW215656   1.641   7.276   4.361
 4739SOL     OW15657   0.586   6.296   3.983
 4739SOL    HW115658   0.589   6.384   3.946
 4739SOL    HW215659   0.530   6.305   4.060
 4740SOL     OW15660   1.272   5.950   4.657
 4740SOL    HW115661   1.184   5.915   4.674
 4740SOL    HW215662   1.329   5.900   4.716
 4741SOL     OW15663   1.579   7.260   4.037
 4741SOL    HW115664   1.672   7.281   4.029
 4741SOL    HW215665   1.549   7.249   3.947
 4742SOL     OW15666   0.787   6.201   5.174
 4742SOL    HW115667   0.763   6.168   5.260
 4742SOL    HW215668   0.760   6.133   5.113
 4743SOL     OW15669   1.404   6.059   5.409
 4743SOL    HW115670   1.414   6.089   5.499
 4743SOL    HW215671   1.447   5.974   5.407
 4744SOL     OW15672   0.955   6.464   5.310
 4744SOL    HW115673   1.004   6.390   5.274
 4744SOL    HW215674   0.907   6.500   5.236
 4745SOL     OW15675   0.998   5.997   4.949
 4745SOL    HW115676   0.908   6.014   4.977
 4745SOL    HW215677   0.990   5.928   4.884
 4746SOL     OW15678   1.060   6.289   4.146
 4746SOL    HW115679   1.076   6.282   4.240
 4746SOL    HW215680   0.976   6.246   4.132
 4747SOL     OW15681   0.117   6.389   4.488
 4747SOL    HW115682   0.196   6.393   4.542
 4747SOL    HW215683   0.054   6.446   4.533
 4748SOL     OW15684   0.145   7.400   5.291
 4748SOL    HW115685   0.147   7.384   5.386
 4748SOL    HW215686   0.054   7.390   5.266
 4749SOL     OW15687   0.902   5.932   3.915
 4749SOL    HW115688   0.941   5.994   3.853
 4749SOL    HW215689   0.877   5.857   3.861
 4750SOL     OW15690   1.688   6.163   5.549
 4750SOL    HW115691   1.677   6.231   5.483
 4750SOL    HW215692   1.722   6.087   5.501
 4751SOL     OW15693   0.541   5.757   4.633
 4751SOL    HW115694   0.551   5.787   4.723
 4751SOL    HW215695   0.529   5.838   4.583
 4752SOL     OW15696   1.000   7.028   4.187
 4752SOL    HW115697   0.973   7.103   4.134
 4752SOL    HW215698   0.971   7.050   4.276
 4753SOL     OW15699   0.356   7.408   4.590
 4753SOL    HW115700   0.403   7.326   4.601
 4753SOL    HW215701   0.420   7.476   4.611
 4754SOL     OW15702   1.800   6.645   4.613
 4754SOL    HW115703   1.747   6.623   4.536
 4754SOL    HW215704   1.737   6.646   4.685
 4755SOL     OW15705   1.226   7.118   5.241
 4755SOL    HW115706   1.230   7.054   5.312
 4755SOL    HW215707   1.173   7.075   5.173
 4756SOL     OW15708   0.295   6.532   3.955
 4756SOL    HW115709   0.383   6.559   3.929
 4756SOL    HW215710   0.273   6.461   3.895
 4757SOL     OW15711   1.487   6.336   4.448
 4757SOL    HW115712   1.475   6.296   4.534
 4757SOL    HW215713   1.566   6.389   4.457
 4758SOL     OW15714   0.445   6.801   5.475
 4758SOL    HW115715   0.429   6.818   5.382
 4758SOL    HW215716   0.359   6.806   5.515
 4759SOL     OW15717   1.131   7.363   3.947
 4759SOL    HW115718   1.052   7.328   3.988
 4759SOL    HW215719   1.153   7.298   3.880
 4760SOL     OW15720   0.190   5.851   5.233
 4760SOL    HW115721   0.175   5.923   5.294
 4760SOL    HW215722   0.178   5.772   5.286
 4761SOL     OW15723   1.632   6.981   3.832
 4761SOL    HW115724   1.598   7.067   3.807
 4761SOL    HW215725   1.556   6.923   3.827
 4762SOL     OW15726   0.450   7.336   4.031
 4762SOL    HW115727   0.497   7.383   4.099
 4762SOL    HW215728   0.518   7.290   3.982
 4763SOL     OW15729   1.422   5.680   4.200
 4763SOL    HW115730   1.403   5.674   4.107
 4763SOL    HW215731   1.495   5.619   4.214
 4764SOL     OW15732   0.236   7.360   4.951
 4764SOL    HW115733   0.288   7.286   4.983
 4764SOL    HW215734   0.216   7.337   4.860
 4765SOL     OW15735   0.947   7.289   4.608
 4765SOL    HW115736   1.021   7.233   4.631
 4765SOL    HW215737   0.898   7.239   4.543
 4766SOL     OW15738   0.415   6.287   4.199
 4766SOL    HW115739   0.431   6.193   4.213
 4766SOL    HW215740   0.322   6.299   4.219
 4767SOL     OW15741   1.522   5.803   5.447
 4767SOL    HW115742   1.523   5.827   5.539
 4767SOL    HW215743   1.479   5.717   5.445
 4768SOL     OW15744   0.657   5.701   3.824
 4768SOL    HW115745   0.692   5.622   3.865
 4768SOL    HW215746   0.594   5.669   3.759
 4769SOL     OW15747   0.761   5.867   5.485
 4769SOL    HW115748   0.845   5.821   5.477
 4769SOL    HW215749   0.715   5.819   5.555
 4770SOL     OW15750   0.887   7.128   4.932
 4770SOL    HW115751   0.868   7.097   4.843
 4770SOL    HW215752   0.945   7.061   4.969
 4771SOL     OW15753   1.339   6.171   5.163
 4771SOL    HW115754   1.374   6.134   5.245
 4771SOL    HW215755   1.379   6.258   5.157
 4772SOL     OW15756   0.831   7.025   4.686
 4772SOL    HW115757   0.910   6.982   4.653
 4772SOL    HW215758   0.759   6.971   4.653
 4773SOL     OW15759   0.942   6.101   4.621
 4773SOL    HW115760   0.917   6.084   4.530
 4773SOL    HW215761   0.959   6.014   4.658
 4774SOL     OW15762   0.545   5.645   4.217
 4774SOL    HW115763   0.467   5.644   4.272
 4774SOL    HW215764   0.535   5.723   4.162
 4775SOL     OW15765   1.418   6.814   3.828
 4775SOL    HW115766   1.437   6.721   3.823
 4775SOL    HW215767   1.325   6.821   3.807
 4776SOL     OW15768   0.283   5.627   3.882
 4776SOL    HW115769   0.286   5.711   3.926
 4776SOL    HW215770   0.341   5.570   3.933
 4777SOL     OW15771   0.928   5.838   4.171
 4777SOL    HW115772   0.913   5.876   4.084
 4777SOL    HW215773   1.015   5.797   4.164
 4778SOL     OW15774   1.081   6.259   5.187
 4778SOL    HW115775   1.017   6.187   5.190
 4778SOL    HW215776   1.165   6.215   5.180
 4779SOL     OW15777   1.223   7.158   4.516
 4779SOL    HW115778   1.233   7.226   4.449
 4779SOL    HW215779   1.293   7.176   4.579
 4780SOL     OW15780   0.481   6.747   4.438
 4780SOL    HW115781   0.419   6.723   4.508
 4780SOL    HW215782   0.435   6.726   4.357
 4781SOL     OW15783   1.260   7.375   4.339
 4781SOL    HW115784   1.308   7.437   4.285
 4781SOL    HW215785   1.190   7.426   4.379
 4782SOL     OW15786   1.023   6.117   3.746
 4782SOL    HW115787   0.975   6.197   3.726
 4782SOL    HW215788   1.085   6.142   3.814
 4783SOL     OW15789   0.098   6.200   5.085
 4783SOL    HW115790   0.187   6.177   5.061
 4783SOL    HW215791   0.107   6.252   5.165
 4784SOL     OW15792   0.560   5.807   4.907
 4784SOL    HW115793   0.604   5.736   4.954
 4784SOL    HW215794   0.469   5.802   4.936
 4785SOL     OW15795   0.883   6.049   4.360
 4785SOL    HW115796   0.809   6.097   4.323
 4785SOL    HW215797   0.893   5.973   4.303
 4786SOL     OW15798   1.028   5.628   4.450
 4786SOL    HW115799   0.956   5.618   4.388
 4786SOL    HW215800   1.011   5.564   4.519
 4787SOL     OW15801   1.448   6.743   4.597
 4787SOL    HW115802   1.379   6.677   4.587
 4787SOL    HW215803   1.497   6.739   4.515
 4788SOL     OW15804   1.462   6.197   4.693
 4788SOL    HW115805   1.401   6.124   4.705
 4788SOL    HW215806   1.521   6.191   4.769
 4789SOL     OW15807   1.806   6.396   4.114
 4789SOL    HW115808   1.871   6.356   4.172
 4789SOL    HW215809   1.798   6.335   4.041
 4790SOL     OW15810   0.492   7.005   3.863
 4790SOL    HW115811   0.412   6.977   3.908
 4790SOL    HW215812   0.492   6.954   3.782
 4791SOL     OW15813   1.663   6.839   4.384
 4791SOL    HW115814   1.758   6.833   4.394
 4791SOL    HW215815   1.643   6.931   4.401
 4792SOL     OW15816   1.398   6.169   3.789
 4792SOL    HW115817   1.339   6.142   3.859
 4792SOL    HW215818   1.483   6.131   3.813
 4793SOL     OW15819   0.527   5.842   4.027
 4793SOL    HW115820   0.577   5.797   3.959
 4793SOL    HW215821   0.498   5.923   3.985
 4794SOL     OW15822   1.741   6.842   5.285
 4794SOL    HW115823   1.826   6.799   5.289
 4794SOL    HW215824   1.758   6.932   5.313
 4795SOL     OW15825   1.047   6.963   5.094
 4795SOL    HW115826   0.968   6.913   5.114
 4795SOL    HW215827   1.118   6.900   5.101
 4796SOL     OW15828   1.593   7.216   5.375
 4796SOL    HW115829   1.592   7.253   5.287
 4796SOL    HW215830   1.676   7.169   5.380
 4797SOL     OW15831   1.108   6.797   4.828
 4797SOL    HW115832   1.021   6.761   4.842
 4797SOL    HW215833   1.103   6.841   4.743
 4798SOL     OW15834   1.616   6.672   4.810
 4798SOL    HW115835   1.614   6.735   4.882
 4798SOL    HW215836   1.541   6.696   4.755
 4799SOL     OW15837   0.907   5.694   5.108
 4799SOL    HW115838   0.934   5.662   5.022
 4799SOL    HW215839   0.987   5.727   5.148
 4800SOL     OW15840   1.001   6.703   5.424
 4800SOL    HW115841   0.930   6.751   5.380
 4800SOL    HW215842   0.999   6.616   5.384
 4801SOL     OW15843   0.706   6.649   4.100
 4801SOL    HW115844   0.694   6.628   4.193
 4801SOL    HW215845   0.781   6.596   4.073
 4802SOL     OW15846   0.436   6.412   4.983
 4802SOL    HW115847   0.502   6.420   5.052
 4802SOL    HW215848   0.407   6.321   4.989
 4803SOL     OW15849   1.269   5.967   4.992
 4803SOL    HW115850   1.299   6.040   5.047
 4803SOL    HW215851   1.177   5.985   4.976
 4804SOL     OW15852   0.057   7.167   5.066
 4804SOL    HW115853   0.094   7.247   5.029
 4804SOL    HW215854   0.121   7.138   5.130
 4805SOL     OW15855   0.337   6.690   4.208
 4805SOL    HW115856   0.337   6.762   4.146
 4805SOL    HW215857   0.335   6.611   4.154
 4806SOL     OW15858   0.574   6.103   4.567
 4806SOL    HW115859   0.586   6.168   4.498
 4806SOL    HW215860   0.629   6.134   4.639
 4807SOL     OW15861   1.259   6.925   4.135
 4807SOL    HW115862   1.305   7.005   4.160
 4807SOL    HW215863   1.169   6.940   4.162
 4808SOL     OW15864   1.282   7.037   4.875
 4808SOL    HW115865   1.338   7.037   4.953
 4808SOL    HW215866   1.224   6.962   4.886
 4809SOL     OW15867   1.590   6.208   4.218
 4809SOL    HW115868   1.545   6.268   4.278
 4809SOL    HW215869   1.655   6.262   4.174
 4810SOL     OW15870   0.350   7.114   5.030
 4810SOL    HW115871   0.319   7.081   4.945
 4810SOL    HW215872   0.445   7.121   5.020
 4811SOL     OW15873   0.431   6.310   5.331
 4811SOL    HW115874   0.489   6.360   5.274
 4811SOL    HW215875   0.480   6.230   5.351
 4812SOL     OW15876   1.598   6.384   5.409
 4812SOL    HW115877   1.521   6.387   5.353
 4812SOL    HW215878   1.668   6.421   5.356
 4813SOL     OW15879   0.994   5.730   5.475
 4813SOL    HW115880   1.066   5.785   5.444
 4813SOL    HW215881   1.026   5.640   5.466
 4814SOL     OW15882   0.491   5.636   5.472
 4814SOL    HW115883   0.455   5.582   5.402
 4814SOL    HW215884   0.431   5.710   5.479
 4815SOL     OW15885   0.589   6.467   4.758
 4815SOL    HW115886   0.644   6.544   4.770
 4815SOL    HW215887   0.538   6.461   4.839
 4816SOL     OW15888   1.324   6.445   4.732
 4816SOL    HW115889   1.234   6.417   4.719
 4816SOL    HW215890   1.375   6.364   4.730
 4817SOL     OW15891   1.196   6.125   3.972
 4817SOL    HW115892   1.201   6.042   4.020
 4817SOL    HW215893   1.153   6.185   4.033
 4818SOL     OW15894   0.299   5.767   4.988
 4818SOL    HW115895   0.254   5.798   5.067
 4818SOL    HW215896   0.283   5.672   4.989
 4819SOL     OW15897   0.041   6.892   4.994
 4819SOL    HW115898   0.077   6.838   5.065
 4819SOL    HW215899   0.050   6.982   5.025
 4820SOL     OW15900   0.718   6.217   4.771
 4820SOL    HW115901   0.801   6.214   4.724
 4820SOL    HW215902   0.687   6.307   4.758
 4821SOL     OW15903   1.755   6.566   5.573
 4821SOL    HW115904   1.705   6.502   5.523
 4821SOL    HW215905   1.717   6.564   5.661
 4822SOL     OW15906   0.306   5.628   4.348
 4822SOL    HW115907   0.271   5.716   4.362
 4822SOL    HW215908   0.317   5.591   4.436
 4823SOL     OW15909   1.559   5.948   4.138
 4823SOL    HW115910   1.638   5.899   4.161
 4823SOL    HW215911   1.581   6.039   4.159
 4824SOL     OW15912   1.052   6.341   4.684
 4824SOL    HW115913   1.034   6.358   4.776
 4824SOL    HW215914   1.019   6.252   4.669
 4825SOL     OW15915   0.994   7.161   5.456
 4825SOL    HW115916   1.023   7.232   5.398
 4825SOL    HW215917   1.037   7.083   5.422
 4826SOL     OW15918   1.838   7.098   5.329
 4826SOL    HW115919   1.871   7.120   5.242
 4826SOL    HW215920   1.914   7.107   5.387
 4827SOL     OW15921   0.370   6.509   5.517
 4827SOL    HW115922   0.438   6.505   5.584
 4827SOL    HW215923   0.391   6.437   5.458
 4828SOL     OW15924   1.506   5.867   3.869
 4828SOL    HW115925   1.456   5.787   3.885
 4828SOL    HW215926   1.530   5.898   3.956
 4829SOL     OW15927   1.312   6.427   3.774
 4829SOL    HW115928   1.340   6.335   3.772
 4829SOL    HW215929   1.330   6.459   3.685
 4830SOL     OW15930   1.073   6.931   4.585
 4830SOL    HW115931   1.080   6.859   4.522
 4830SOL    HW215932   1.127   7.001   4.549
 4831SOL     OW15933   0.324   6.406   4.671
 4831SOL    HW115934   0.416   6.432   4.680
 4831SOL    HW215935   0.322   6.314   4.698
 4832SOL     OW15936   0.363   6.143   4.733
 4832SOL    HW115937   0.307   6.066   4.732
 4832SOL    HW215938   0.430   6.126   4.668
 4833SOL     OW15939   1.139   5.976   5.391
 4833SOL    HW115940   1.094   6.015   5.466
 4833SOL    HW215941   1.229   6.007   5.399
 4834SOL     OW15942   1.148   5.795   5.184
 4834SOL    HW115943   1.144   5.858   5.256
 4834SOL    HW215944   1.206   5.835   5.120
 4835SOL     OW15945   7.980   6.896   3.922
 4835SOL    HW115946   7.892   6.914   3.955
 4835SOL    HW215947   7.997   6.805   3.948
 4836SOL     OW15948   0.097   7.323   4.663
 4836SOL    HW115949   0.127   7.232   4.661
 4836SOL    HW215950   0.171   7.374   4.631
 4837SOL     OW15951   0.496   7.167   4.630
 4837SOL    HW115952   0.566   7.225   4.658
 4837SOL    HW215953   0.538   7.104   4.572
 4838SOL     OW15954   0.986   6.357   4.944
 4838SOL    HW115955   1.036   6.331   5.022
 4838SOL    HW215956   0.895   6.344   4.969
 4839SOL     OW15957   0.041   6.104   4.834
 4839SOL    HW115958   0.099   6.030   4.819
 4839SOL    HW215959   0.061   6.132   4.924
 4840SOL     OW15960   0.196   6.091   5.391
 4840SOL    HW115961   0.287   6.086   5.359
 4840SOL    HW215962   0.167   6.179   5.365
 4841SOL     OW15963   1.351   6.520   5.434
 4841SOL    HW115964   1.387   6.608   5.418
 4841SOL    HW215965   1.326   6.489   5.347
 4842SOL     OW15966   0.828   6.171   4.067
 4842SOL    HW115967   0.823   6.088   4.021
 4842SOL    HW215968   0.746   6.216   4.045
 4843SOL     OW15969   1.643   6.183   4.898
 4843SOL    HW115970   1.638   6.122   4.972
 4843SOL    HW215971   1.733   6.174   4.865
 4844SOL     OW15972   0.349   7.116   5.491
 4844SOL    HW115973   0.290   7.187   5.517
 4844SOL    HW215974   0.291   7.049   5.453
 4845SOL     OW15975   0.718   6.032   4.973
 4845SOL    HW115976   0.662   5.957   4.953
 4845SOL    HW215977   0.705   6.093   4.900
 4846SOL     OW15978   0.449   6.067   3.888
 4846SOL    HW115979   0.504   6.142   3.909
 4846SOL    HW215980   0.367   6.082   3.936
 4847SOL     OW15981   0.171   6.717   5.173
 4847SOL    HW115982   0.149   6.671   5.254
 4847SOL    HW215983   0.173   6.648   5.106
 4848SOL     OW15984   1.305   6.628   4.943
 4848SOL    HW115985   1.326   6.565   4.874
 4848SOL    HW215986   1.236   6.683   4.906
 4849SOL     OW15987   1.275   6.460   4.067
 4849SOL    HW115988   1.202   6.404   4.091
 4849SOL    HW215989   1.277   6.459   3.972
 4850SOL     OW15990   1.768   7.323   4.872
 4850SOL    HW115991   1.834   7.345   4.806
 4850SOL    HW215992   1.749   7.230   4.855
 4851SOL     OW15993   1.244   7.308   4.826
 4851SOL    HW115994   1.328   7.337   4.789
 4851SOL    HW215995   1.258   7.215   4.846
 4852SOL     OW15996   0.089   6.803   4.745
 4852SOL    HW115997   0.072   6.835   4.833
 4852SOL    HW215998   0.003   6.800   4.703
 4853SOL     OW15999   0.661   7.252   5.470
 4853SOL    HW116000   0.597   7.323   5.476
 4853SOL    HW216001   0.734   7.290   5.421
 4854SOL     OW16002   1.737   5.759   4.233
 4854SOL    HW116003   1.802   5.741   4.166
 4854SOL    HW216004   1.716   5.673   4.271
 4855SOL     OW16005   1.393   7.155   4.216
 4855SOL    HW116006   1.451   7.192   4.149
 4855SOL    HW216007   1.341   7.229   4.246
 4856SOL     OW16008   0.175   7.316   5.558
 4856SOL    HW116009   0.112   7.269   5.612
 4856SOL    HW216010   0.217   7.377   5.618
 4857SOL     OW16011   1.312   6.521   4.338
 4857SOL    HW116012   1.376   6.461   4.378
 4857SOL    HW216013   1.304   6.490   4.247
 4858SOL     OW16014   0.790   6.864   5.158
 4858SOL    HW116015   0.739   6.913   5.223
 4858SOL    HW216016   0.731   6.856   5.083
 4859SOL     OW16017   0.664   7.215   3.879
 4859SOL    HW116018   0.680   7.230   3.786
 4859SOL    HW216019   0.610   7.137   3.882
 4860SOL     OW16020   1.609   7.320   5.109
 4860SOL    HW116021   1.666   7.323   5.033
 4860SOL    HW216022   1.597   7.412   5.133
 4861SOL     OW16023   1.827   5.754   4.669
 4861SOL    HW116024   1.881   5.677   4.653
 4861SOL    HW216025   1.737   5.722   4.661
 4862SOL     OW16026   1.211   7.181   3.756
 4862SOL    HW116027   1.193   7.089   3.777
 4862SOL    HW216028   1.149   7.202   3.686
 4863SOL     OW16029   0.825   6.597   5.109
 4863SOL    HW116030   0.828   6.600   5.013
 4863SOL    HW216031   0.818   6.688   5.135
 4864SOL     OW16032   0.913   6.501   4.016
 4864SOL    HW116033   0.976   6.532   3.951
 4864SOL    HW216034   0.960   6.431   4.062
 4865SOL     OW16035   1.485   7.230   3.775
 4865SOL    HW116036   1.393   7.211   3.757
 4865SOL    HW216037   1.526   7.232   3.688
 4866SOL     OW16038   0.384   6.902   5.228
 4866SOL    HW116039   0.379   6.964   5.155
 4866SOL    HW216040   0.315   6.837   5.209
 4867SOL     OW16041   1.604   6.864   5.006
 4867SOL    HW116042   1.668   6.851   5.077
 4867SOL    HW216043   1.548   6.935   5.037
 4868SOL     OW16044   1.090   6.704   4.430
 4868SOL    HW116045   1.017   6.656   4.468
 4868SOL    HW216046   1.150   6.636   4.398
 4869SOL     OW16047   1.023   5.823   4.690
 4869SOL    HW116048   1.019   5.778   4.605
 4869SOL    HW216049   1.017   5.753   4.755
 4870SOL     OW16050   0.604   7.081   4.201
 4870SOL    HW116051   0.654   7.031   4.137
 4870SOL    HW216052   0.514   7.078   4.169
 4871SOL     OW16053   1.736   5.980   5.102
 4871SOL    HW116054   1.810   6.041   5.103
 4871SOL    HW216055   1.764   5.908   5.046
 4872SOL     OW16056   0.251   6.924   3.990
 4872SOL    HW116057   0.155   6.927   3.986
 4872SOL    HW216058   0.273   6.963   4.074
 4873SOL     OW16059   0.122   6.592   5.418
 4873SOL    HW116060   0.071   6.659   5.463
 4873SOL    HW216061   0.200   6.581   5.472
 4874SOL     OW16062   0.678   5.799   5.225
 4874SOL    HW116063   0.760   5.773   5.183
 4874SOL    HW216064   0.702   5.818   5.315
 4875SOL     OW16065   0.110   5.946   3.727
 4875SOL    HW116066   0.040   5.983   3.782
 4875SOL    HW216067   0.114   6.004   3.651
 4876SOL     OW16068   1.423   6.444   5.150
 4876SOL    HW116069   1.368   6.500   5.095
 4876SOL    HW216070   1.509   6.448   5.109
 4877SOL     OW16071   0.154   5.835   4.034
 4877SOL    HW116072   0.073   5.819   3.985
 4877SOL    HW216073   0.143   5.785   4.115
 4878SOL     OW16074   1.154   6.914   3.841
 4878SOL    HW116075   1.059   6.907   3.827
 4878SOL    HW216076   1.163   6.924   3.936
 4879SOL     OW16077   0.627   6.419   5.173
 4879SOL    HW116078   0.686   6.492   5.153
 4879SOL    HW216079   0.685   6.342   5.174
 4880SOL     OW16080   1.489   7.371   4.711
 4880SOL    HW116081   1.509   7.444   4.653
 4880SOL    HW216082   1.572   7.348   4.751
 4881SOL     OW16083   0.713   6.136   5.428
 4881SOL    HW116084   0.765   6.186   5.490
 4881SOL    HW216085   0.726   6.045   5.453
 4882SOL     OW16086   1.472   6.770   5.352
 4882SOL    HW116087   1.466   6.793   5.445
 4882SOL    HW216088   1.562   6.789   5.328
 4883SOL     OW16089   0.408   7.312   5.279
 4883SOL    HW116090   0.320   7.344   5.259
 4883SOL    HW216091   0.392   7.230   5.327
 4884SOL     OW16092   1.650   6.456   4.985
 4884SOL    HW116093   1.654   6.371   4.942
 4884SOL    HW216094   1.644   6.519   4.914
 4885SOL     OW16095   0.616   6.314   4.389
 4885SOL    HW116096   0.647   6.404   4.386
 4885SOL    HW216097   0.544   6.311   4.327
 4886SOL     OW16098   1.746   5.955   5.381
 4886SOL    HW116099   1.739   5.965   5.286
 4886SOL    HW216100   1.681   5.888   5.402
 4887SOL     OW16101   1.743   6.518   5.233
 4887SOL    HW116102   1.783   6.605   5.234
 4887SOL    HW216103   1.725   6.500   5.141
 4888SOL     OW16104   0.882   6.949   3.782
 4888SOL    HW116105   0.830   6.979   3.857
 4888SOL    HW216106   0.885   7.025   3.724
 4889SOL     OW16107   0.672   7.375   4.676
 4889SOL    HW116108   0.648   7.463   4.648
 4889SOL    HW216109   0.762   7.364   4.647
 4890SOL     OW16110   0.896   6.558   4.565
 4890SOL    HW116111   0.939   6.482   4.605
 4890SOL    HW216112   0.861   6.608   4.639
 4891SOL     OW16113   1.086   6.574   3.823
 4891SOL    HW116114   1.058   6.624   3.747
 4891SOL    HW216115   1.161   6.523   3.792
 4892SOL     OW16116   1.850   7.129   4.559
 4892SOL    HW116117   1.763   7.120   4.521
 4892SOL    HW216118   1.850   7.068   4.633
 4893SOL     OW16119   0.202   6.860   5.576
 4893SOL    HW116120   0.111   6.860   5.545
 4893SOL    HW216121   0.195   6.879   5.669
 4894SOL     OW16122   0.132   6.850   4.366
 4894SOL    HW116123   0.055   6.815   4.410
 4894SOL    HW216124   0.195   6.778   4.368
 4895SOL     OW16125   0.634   6.998   5.348
 4895SOL    HW116126   0.550   6.985   5.306
 4895SOL    HW216127   0.633   7.090   5.376
 4896SOL     OW16128   1.807   5.766   4.958
 4896SOL    HW116129   1.823   5.677   4.991
 4896SOL    HW216130   1.816   5.757   4.863
 4897SOL     OW16131   0.438   6.024   4.240
 4897SOL    HW116132   0.465   5.946   4.192
 4897SOL    HW216133   0.376   5.992   4.305
 4898SOL     OW16134   1.701   7.066   4.812
 4898SOL    HW116135   1.618   7.044   4.769
 4898SOL    HW216136   1.714   6.997   4.876
 4899SOL     OW16137   0.354   6.152   5.015
 4899SOL    HW116138   0.399   6.086   5.068
 4899SOL    HW216139   0.370   6.125   4.925
 4900SOL     OW16140   0.833   7.164   4.395
 4900SOL    HW116141   0.791   7.219   4.330
 4900SOL    HW216142   0.765   7.101   4.420
 4901SOL     OW16143   1.438   5.815   4.829
 4901SOL    HW116144   1.465   5.732   4.867
 4901SOL    HW216145   1.391   5.860   4.899
 4902SOL     OW16146   1.005   5.604   4.860
 4902SOL    HW116147   0.946   5.532   4.839
 4902SOL    HW216148   1.092   5.566   4.858
 4903SOL     OW16149   0.771   6.919   4.050
 4903SOL    HW116150   0.745   6.827   4.061
 4903SOL    HW216151   0.852   6.927   4.101
 4904SOL     OW16152   0.618   7.151   4.997
 4904SOL    HW116153   0.628   7.228   5.053
 4904SOL    HW216154   0.706   7.134   4.964
 4905SOL     OW16155   1.371   5.634   3.921
 4905SOL    HW116156   1.426   5.555   3.920
 4905SOL    HW216157   1.281   5.601   3.926
 4906SOL     OW16158   1.299   6.032   4.401
 4906SOL    HW116159   1.249   6.113   4.389
 4906SOL    HW216160   1.283   6.008   4.493
 4907SOL     OW16161   1.532   5.792   4.562
 4907SOL    HW116162   1.496   5.777   4.649
 4907SOL    HW216163   1.595   5.863   4.574
 4908SOL     OW16164   0.046   6.650   4.019
 4908SOL    HW116165   0.127   6.611   3.985
 4908SOL    HW216166   0.051   6.635   4.113
 4909SOL     OW16167   0.894   7.245   4.049
 4909SOL    HW116168   0.816   7.230   3.996
 4909SOL    HW216169   0.866   7.309   4.115
 4910SOL     OW16170   0.233   6.280   5.680
 4910SOL    HW116171   0.210   6.218   5.750
 4910SOL    HW216172   0.239   6.225   5.601
 4911SOL     OW16173   0.235   5.856   6.563
 4911SOL    HW116174   0.266   5.833   6.650
 4911SOL    HW216175   0.154   5.806   6.552
 4912SOL     OW16176   8.008   5.987   6.180
 4912SOL    HW116177   7.927   5.965   6.226
 4912SOL    HW216178   8.014   5.922   6.110
 4913SOL     OW16179   0.573   6.887   6.781
 4913SOL    HW116180   0.485   6.890   6.744
 4913SOL    HW216181   0.590   6.977   6.810
 4914SOL     OW16182   1.577   7.100   6.289
 4914SOL    HW116183   1.536   7.077   6.372
 4914SOL    HW216184   1.504   7.106   6.227
 4915SOL     OW16185   1.127   6.293   6.276
 4915SOL    HW116186   1.180   6.372   6.271
 4915SOL    HW216187   1.083   6.298   6.361
 4916SOL     OW16188   1.768   6.185   5.808
 4916SOL    HW116189   1.746   6.171   5.716
 4916SOL    HW216190   1.735   6.106   5.852
 4917SOL     OW16191   0.735   6.720   6.634
 4917SOL    HW116192   0.674   6.759   6.696
 4917SOL    HW216193   0.779   6.795   6.594
 4918SOL     OW16194   0.881   6.332   7.424
 4918SOL    HW116195   0.816   6.372   7.482
 4918SOL    HW216196   0.889   6.393   7.351
 4919SOL     OW16197   0.691   6.585   6.230
 4919SOL    HW116198   0.758   6.577   6.298
 4919SOL    HW216199   0.623   6.639   6.269
 4920SOL     OW16200   0.726   6.740   7.398
 4920SOL    HW116201   0.767   6.820   7.432
 4920SOL    HW216202   0.642   6.769   7.362
 4921SOL     OW16203   0.333   6.995   6.658
 4921SOL    HW116204   0.262   6.948   6.613
 4921SOL    HW216205   0.374   7.047   6.588
 4922SOL     OW16206   1.457   7.088   6.955
 4922SOL    HW116207   1.509   7.167   6.964
 4922SOL    HW216208   1.385   7.100   7.017
 4923SOL     OW16209   0.454   5.969   7.064
 4923SOL    HW116210   0.537   5.921   7.071
 4923SOL    HW216211   0.387   5.901   7.075
 4924SOL     OW16212   1.572   6.018   6.345
 4924SOL    HW116213   1.501   6.047   6.287
 4924SOL    HW216214   1.651   6.054   6.306
 4925SOL     OW16215   0.233   7.284   6.068
 4925SOL    HW116216   0.229   7.369   6.113
 4925SOL    HW216217   0.300   7.296   6.001
 4926SOL     OW16218   1.136   6.930   7.284
 4926SOL    HW116219   1.172   6.923   7.372
 4926SOL    HW216220   1.085   6.850   7.273
 4927SOL     OW16221   0.308   7.024   6.099
 4927SOL    HW116222   0.275   7.113   6.109
 4927SOL    HW216223   0.252   6.972   6.158
 4928SOL     OW16224   0.278   6.670   6.466
 4928SOL    HW116225   0.278   6.583   6.505
 4928SOL    HW216226   0.216   6.720   6.518
 4929SOL     OW16227   0.602   7.385   6.996
 4929SOL    HW116228   0.527   7.361   7.050
 4929SOL    HW216229   0.630   7.470   7.030
 4930SOL     OW16230   0.543   6.576   5.762
 4930SOL    HW116231   0.509   6.661   5.732
 4930SOL    HW216232   0.606   6.599   5.830
 4931SOL     OW16233   1.583   5.720   7.043
 4931SOL    HW116234   1.626   5.791   6.995
 4931SOL    HW216235   1.567   5.757   7.130
 4932SOL     OW16236   0.137   6.227   6.128
 4932SOL    HW116237   0.097   6.144   6.154
 4932SOL    HW216238   0.122   6.285   6.203
 4933SOL     OW16239   1.842   7.336   5.918
 4933SOL    HW116240   1.916   7.310   5.973
 4933SOL    HW216241   1.860   7.427   5.894
 4934SOL     OW16242   0.019   7.166   5.724
 4934SOL    HW116243   0.005   7.072   5.716
 4934SOL    HW216244   0.006   7.185   5.817
 4935SOL     OW16245   1.704   6.506   6.243
 4935SOL    HW116246   1.788   6.461   6.253
 4935SOL    HW216247   1.701   6.532   6.151
 4936SOL     OW16248   1.643   6.692   5.993
 4936SOL    HW116249   1.731   6.685   5.957
 4936SOL    HW216250   1.653   6.748   6.070
 4937SOL     OW16251   0.145   6.353   7.180
 4937SOL    HW116252   0.239   6.338   7.187
 4937SOL    HW216253   0.130   6.435   7.226
 4938SOL     OW16254   0.623   6.981   6.325
 4938SOL    HW116255   0.579   6.897   6.332
 4938SOL    HW216256   0.608   7.009   6.235
 4939SOL     OW16257   1.280   6.821   7.003
 4939SOL    HW116258   1.308   6.751   6.945
 4939SOL    HW216259   1.339   6.814   7.079
 4940SOL     OW16260   0.827   5.596   6.105
 4940SOL    HW116261   0.866   5.679   6.079
 4940SOL    HW216262   0.733   5.613   6.108
 4941SOL     OW16263   0.183   6.511   6.833
 4941SOL    HW116264   0.278   6.500   6.828
 4941SOL    HW216265   0.149   6.422   6.844
 4942SOL     OW16266   1.518   6.557   5.776
 4942SOL    HW116267   1.448   6.513   5.824
 4942SOL    HW216268   1.571   6.600   5.844
 4943SOL     OW16269   1.195   7.401   7.219
 4943SOL    HW116270   1.191   7.463   7.146
 4943SOL    HW216271   1.205   7.315   7.178
 4944SOL     OW16272   0.375   5.863   7.447
 4944SOL    HW116273   0.424   5.934   7.487
 4944SOL    HW216274   0.283   5.888   7.456
 4945SOL     OW16275   1.469   7.006   6.525
 4945SOL    HW116276   1.406   7.023   6.594
 4945SOL    HW216277   1.457   6.914   6.503
 4946SOL     OW16278   1.652   7.348   6.166
 4946SOL    HW116279   1.639   7.314   6.078
 4946SOL    HW216280   1.638   7.273   6.224
 4947SOL     OW16281   0.585   6.288   5.850
 4947SOL    HW116282   0.590   6.377   5.815
 4947SOL    HW216283   0.528   6.295   5.926
 4948SOL     OW16284   1.273   5.959   6.516
 4948SOL    HW116285   1.187   5.920   6.530
 4948SOL    HW216286   1.333   5.908   6.571
 4949SOL     OW16287   1.578   7.261   5.895
 4949SOL    HW116288   1.671   7.282   5.893
 4949SOL    HW216289   1.556   7.239   5.805
 4950SOL     OW16290   0.790   6.204   7.032
 4950SOL    HW116291   0.767   6.174   7.120
 4950SOL    HW216292   0.762   6.132   6.975
 4951SOL     OW16293   1.396   6.063   7.263
 4951SOL    HW116294   1.401   6.100   7.352
 4951SOL    HW216295   1.443   5.980   7.269
 4952SOL     OW16296   0.948   6.469   7.178
 4952SOL    HW116297   1.000   6.399   7.139
 4952SOL    HW216298   0.896   6.504   7.106
 4953SOL     OW16299   1.000   5.996   6.807
 4953SOL    HW116300   0.908   6.008   6.835
 4953SOL    HW216301   0.995   5.941   6.729
 4954SOL     OW16302   1.041   6.289   6.011
 4954SOL    HW116303   1.064   6.284   6.104
 4954SOL    HW216304   0.960   6.238   6.005
 4955SOL     OW16305   0.100   6.373   6.361
 4955SOL    HW116306   0.182   6.380   6.410
 4955SOL    HW216307   0.046   6.445   6.394
 4956SOL     OW16308   0.129   7.411   7.158
 4956SOL    HW116309   0.133   7.392   7.252
 4956SOL    HW216310   0.042   7.384   7.131
 4957SOL     OW16311   0.894   5.932   5.781
 4957SOL    HW116312   0.942   5.982   5.716
 4957SOL    HW216313   0.880   5.846   5.742
 4958SOL     OW16314   1.769   6.201   7.396
 4958SOL    HW116315   1.699   6.253   7.357
 4958SOL    HW216316   1.764   6.117   7.352
 4959SOL     OW16317   1.376   6.707   6.091
 4959SOL    HW116318   1.466   6.713   6.059
 4959SOL    HW216319   1.334   6.787   6.060
 4960SOL     OW16320   0.555   5.760   6.493
 4960SOL    HW116321   0.561   5.783   6.585
 4960SOL    HW216322   0.557   5.844   6.447
 4961SOL     OW16323   0.990   7.031   6.048
 4961SOL    HW116324   0.968   7.111   6.000
 4961SOL    HW216325   0.968   7.050   6.139
 4962SOL     OW16326   0.359   7.412   6.449
 4962SOL    HW116327   0.403   7.328   6.459
 4962SOL    HW216328   0.426   7.477   6.470
 4963SOL     OW16329   1.806   6.647   6.470
 4963SOL    HW116330   1.758   6.626   6.390
 4963SOL    HW216331   1.740   6.648   6.539
 4964SOL     OW16332   1.223   7.128   7.101
 4964SOL    HW116333   1.211   7.057   7.165
 4964SOL    HW216334   1.154   7.114   7.036
 4965SOL     OW16335   0.279   6.509   5.826
 4965SOL    HW116336   0.373   6.523   5.810
 4965SOL    HW216337   0.257   6.434   5.770
 4966SOL     OW16338   1.487   6.343   6.309
 4966SOL    HW116339   1.485   6.293   6.391
 4966SOL    HW216340   1.569   6.392   6.313
 4967SOL     OW16341   0.477   6.856   7.324
 4967SOL    HW116342   0.447   6.863   7.233
 4967SOL    HW216343   0.398   6.829   7.372
 4968SOL     OW16344   1.129   7.370   5.803
 4968SOL    HW116345   1.052   7.337   5.849
 4968SOL    HW216346   1.157   7.298   5.747
 4969SOL     OW16347   0.188   5.858   7.059
 4969SOL    HW116348   0.171   5.914   7.135
 4969SOL    HW216349   0.156   5.772   7.084
 4970SOL     OW16350   1.620   6.966   5.678
 4970SOL    HW116351   1.586   7.054   5.659
 4970SOL    HW216352   1.550   6.907   5.648
 4971SOL     OW16353   0.456   7.331   5.898
 4971SOL    HW116354   0.499   7.382   5.966
 4971SOL    HW216355   0.528   7.294   5.847
 4972SOL     OW16356   1.402   5.701   6.026
 4972SOL    HW116357   1.400   5.665   5.937
 4972SOL    HW216358   1.495   5.706   6.048
 4973SOL     OW16359   0.241   7.366   6.816
 4973SOL    HW116360   0.292   7.291   6.848
 4973SOL    HW216361   0.213   7.340   6.728
 4974SOL     OW16362   0.940   7.285   6.483
 4974SOL    HW116363   1.018   7.238   6.511
 4974SOL    HW216364   0.905   7.232   6.411
 4975SOL     OW16365   0.408   6.283   6.061
 4975SOL    HW116366   0.424   6.189   6.074
 4975SOL    HW216367   0.316   6.294   6.082
 4976SOL     OW16368   1.522   5.812   7.312
 4976SOL    HW116369   1.524   5.832   7.405
 4976SOL    HW216370   1.474   5.730   7.306
 4977SOL     OW16371   0.653   5.694   5.681
 4977SOL    HW116372   0.711   5.619   5.690
 4977SOL    HW216373   0.593   5.670   5.611
 4978SOL     OW16374   0.763   5.863   7.347
 4978SOL    HW116375   0.845   5.814   7.342
 4978SOL    HW216376   0.713   5.820   7.416
 4979SOL     OW16377   0.879   7.115   6.779
 4979SOL    HW116378   0.859   7.071   6.697
 4979SOL    HW216379   0.944   7.058   6.822
 4980SOL     OW16380   1.335   6.177   7.021
 4980SOL    HW116381   1.368   6.143   7.105
 4980SOL    HW216382   1.377   6.263   7.012
 4981SOL     OW16383   0.822   6.972   6.539
 4981SOL    HW116384   0.907   6.960   6.496
 4981SOL    HW216385   0.760   6.981   6.467
 4982SOL     OW16386   0.930   6.099   6.482
 4982SOL    HW116387   0.906   6.085   6.390
 4982SOL    HW216388   0.960   6.013   6.513
 4983SOL     OW16389   0.557   5.650   6.082
 4983SOL    HW116390   0.477   5.652   6.135
 4983SOL    HW216391   0.547   5.723   6.021
 4984SOL     OW16392   1.420   6.782   5.625
 4984SOL    HW116393   1.453   6.713   5.682
 4984SOL    HW216394   1.342   6.815   5.671
 4985SOL     OW16395   0.280   5.634   5.760
 4985SOL    HW116396   0.339   5.695   5.717
 4985SOL    HW216397   0.337   5.577   5.811
 4986SOL     OW16398   0.949   5.840   6.040
 4986SOL    HW116399   0.928   5.872   5.952
 4986SOL    HW216400   1.044   5.851   6.047
 4987SOL     OW16401   1.079   6.274   7.038
 4987SOL    HW116402   1.014   6.204   7.046
 4987SOL    HW216403   1.163   6.228   7.034
 4988SOL     OW16404   1.218   7.156   6.377
 4988SOL    HW116405   1.231   7.225   6.311
 4988SOL    HW216406   1.288   7.171   6.441
 4989SOL     OW16407   0.480   6.746   6.304
 4989SOL    HW116408   0.417   6.720   6.371
 4989SOL    HW216409   0.437   6.726   6.221
 4990SOL     OW16410   1.259   7.375   6.202
 4990SOL    HW116411   1.310   7.436   6.149
 4990SOL    HW216412   1.191   7.428   6.242
 4991SOL     OW16413   1.039   6.109   5.616
 4991SOL    HW116414   0.990   6.190   5.600
 4991SOL    HW216415   1.091   6.129   5.694
 4992SOL     OW16416   0.104   6.233   6.945
 4992SOL    HW116417   0.187   6.187   6.931
 4992SOL    HW216418   0.108   6.264   7.036
 4993SOL     OW16419   0.569   5.808   6.765
 4993SOL    HW116420   0.608   5.738   6.817
 4993SOL    HW216421   0.477   5.808   6.790
 4994SOL     OW16422   0.868   6.043   6.221
 4994SOL    HW116423   0.822   6.094   6.154
 4994SOL    HW216424   0.895   5.963   6.177
 4995SOL     OW16425   1.009   5.651   6.334
 4995SOL    HW116426   0.954   5.635   6.257
 4995SOL    HW216427   0.992   5.576   6.391
 4996SOL     OW16428   1.447   6.741   6.450
 4996SOL    HW116429   1.381   6.672   6.450
 4996SOL    HW216430   1.483   6.741   6.361
 4997SOL     OW16431   1.455   6.214   6.560
 4997SOL    HW116432   1.418   6.127   6.542
 4997SOL    HW216433   1.518   6.198   6.630
 4998SOL     OW16434   1.824   6.394   5.969
 4998SOL    HW116435   1.889   6.354   6.027
 4998SOL    HW216436   1.806   6.327   5.904
 4999SOL     OW16437   0.484   6.997   5.701
 4999SOL    HW116438   0.417   6.966   5.762
 4999SOL    HW216439   0.434   7.042   5.632
 5000SOL     OW16440   1.668   6.844   6.216
 5000SOL    HW116441   1.763   6.838   6.224
 5000SOL    HW216442   1.648   6.935   6.238
 5001SOL     OW16443   1.409   6.161   5.673
 5001SOL    HW116444   1.336   6.138   5.731
 5001SOL    HW216445   1.475   6.094   5.691
 5002SOL     OW16446   0.528   5.837   5.887
 5002SOL    HW116447   0.581   5.789   5.823
 5002SOL    HW216448   0.504   5.918   5.841
 5003SOL     OW16449   1.753   6.823   7.127
 5003SOL    HW116450   1.840   6.784   7.121
 5003SOL    HW216451   1.770   6.913   7.156
 5004SOL     OW16452   1.048   6.943   6.920
 5004SOL    HW116453   0.972   6.909   6.966
 5004SOL    HW216454   1.123   6.899   6.960
 5005SOL     OW16455   1.615   7.214   7.249
 5005SOL    HW116456   1.603   7.250   7.161
 5005SOL    HW216457   1.693   7.159   7.242
 5006SOL     OW16458   1.143   6.812   6.688
 5006SOL    HW116459   1.078   6.844   6.751
 5006SOL    HW216460   1.111   6.841   6.603
 5007SOL     OW16461   1.621   6.679   6.668
 5007SOL    HW116462   1.612   6.741   6.740
 5007SOL    HW216463   1.546   6.697   6.611
 5008SOL     OW16464   0.921   5.687   6.976
 5008SOL    HW116465   0.942   5.662   6.886
 5008SOL    HW216466   1.003   5.719   7.013
 5009SOL     OW16467   0.987   6.700   7.310
 5009SOL    HW116468   0.897   6.715   7.338
 5009SOL    HW216469   0.982   6.619   7.258
 5010SOL     OW16470   0.716   6.652   5.961
 5010SOL    HW116471   0.702   6.632   6.054
 5010SOL    HW216472   0.788   6.595   5.935
 5011SOL     OW16473   0.435   6.402   6.838
 5011SOL    HW116474   0.497   6.416   6.909
 5011SOL    HW216475   0.405   6.312   6.849
 5012SOL     OW16476   1.263   5.959   6.872
 5012SOL    HW116477   1.294   6.038   6.916
 5012SOL    HW216478   1.173   5.979   6.846
 5013SOL     OW16479   0.043   7.185   6.917
 5013SOL    HW116480   0.106   7.255   6.898
 5013SOL    HW216481   0.075   7.144   6.997
 5014SOL     OW16482   0.346   6.688   6.069
 5014SOL    HW116483   0.323   6.757   6.006
 5014SOL    HW216484   0.334   6.607   6.021
 5015SOL     OW16485   0.547   6.110   6.439
 5015SOL    HW116486   0.564   6.172   6.368
 5015SOL    HW216487   0.611   6.132   6.506
 5016SOL     OW16488   1.248   6.942   5.984
 5016SOL    HW116489   1.304   7.013   6.017
 5016SOL    HW216490   1.162   6.960   6.020
 5017SOL     OW16491   1.299   7.048   6.733
 5017SOL    HW116492   1.349   7.052   6.814
 5017SOL    HW216493   1.245   6.969   6.741
 5018SOL     OW16494   1.551   6.231   6.054
 5018SOL    HW116495   1.519   6.266   6.137
 5018SOL    HW216496   1.636   6.273   6.042
 5019SOL     OW16497   0.350   7.123   6.896
 5019SOL    HW116498   0.333   7.071   6.817
 5019SOL    HW216499   0.445   7.129   6.901
 5020SOL     OW16500   0.422   6.307   7.195
 5020SOL    HW116501   0.482   6.358   7.140
 5020SOL    HW216502   0.475   6.234   7.227
 5021SOL     OW16503   1.616   6.384   7.269
 5021SOL    HW116504   1.527   6.416   7.261
 5021SOL    HW216505   1.661   6.418   7.192
 5022SOL     OW16506   0.997   5.725   7.340
 5022SOL    HW116507   1.056   5.798   7.318
 5022SOL    HW216508   1.045   5.647   7.315
 5023SOL     OW16509   0.488   5.634   7.355
 5023SOL    HW116510   0.451   5.597   7.275
 5023SOL    HW216511   0.441   5.717   7.367
 5024SOL     OW16512   0.587   6.464   6.616
 5024SOL    HW116513   0.627   6.551   6.626
 5024SOL    HW216514   0.538   6.451   6.697
 5025SOL     OW16515   1.328   6.452   6.597
 5025SOL    HW116516   1.239   6.426   6.572
 5025SOL    HW216517   1.379   6.372   6.589
 5026SOL     OW16518   1.200   6.132   5.853
 5026SOL    HW116519   1.216   6.050   5.899
 5026SOL    HW216520   1.143   6.182   5.912
 5027SOL     OW16521   0.302   5.794   6.819
 5027SOL    HW116522   0.265   5.822   6.903
 5027SOL    HW216523   0.291   5.699   6.818
 5028SOL     OW16524   0.040   6.893   6.853
 5028SOL    HW116525   0.068   6.832   6.921
 5028SOL    HW216526   0.049   6.980   6.893
 5029SOL     OW16527   0.716   6.209   6.629
 5029SOL    HW116528   0.796   6.194   6.578
 5029SOL    HW216529   0.694   6.301   6.611
 5030SOL     OW16530   1.755   6.512   7.464
 5030SOL    HW116531   1.696   6.474   7.399
 5030SOL    HW216532   1.697   6.546   7.532
 5031SOL     OW16533   0.305   5.653   6.201
 5031SOL    HW116534   0.284   5.744   6.224
 5031SOL    HW216535   0.317   5.609   6.285
 5032SOL     OW16536   1.621   5.976   5.933
 5032SOL    HW116537   1.648   5.903   5.987
 5032SOL    HW216538   1.589   6.042   5.994
 5033SOL     OW16539   1.027   6.347   6.545
 5033SOL    HW116540   1.014   6.362   6.639
 5033SOL    HW216541   1.003   6.255   6.532
 5034SOL     OW16542   0.985   7.160   7.312
 5034SOL    HW116543   0.967   7.199   7.226
 5034SOL    HW216544   1.019   7.073   7.291
 5035SOL     OW16545   1.854   7.078   7.177
 5035SOL    HW116546   1.876   7.116   7.092
 5035SOL    HW216547   1.930   7.098   7.232
 5036SOL     OW16548   0.354   6.539   7.366
 5036SOL    HW116549   0.419   6.560   7.432
 5036SOL    HW216550   0.378   6.451   7.337
 5037SOL     OW16551   1.495   5.881   5.708
 5037SOL    HW116552   1.449   5.801   5.731
 5037SOL    HW216553   1.546   5.904   5.786
 5038SOL     OW16554   1.069   6.928   6.441
 5038SOL    HW116555   1.078   6.855   6.379
 5038SOL    HW216556   1.127   6.996   6.406
 5039SOL     OW16557   0.320   6.391   6.527
 5039SOL    HW116558   0.413   6.413   6.533
 5039SOL    HW216559   0.314   6.301   6.561
 5040SOL     OW16560   0.327   6.108   6.593
 5040SOL    HW116561   0.293   6.019   6.580
 5040SOL    HW216562   0.405   6.112   6.538
 5041SOL     OW16563   1.137   5.961   7.268
 5041SOL    HW116564   1.089   6.011   7.334
 5041SOL    HW216565   1.222   6.003   7.264
 5042SOL     OW16566   1.164   5.781   7.060
 5042SOL    HW116567   1.152   5.845   7.130
 5042SOL    HW216568   1.209   5.829   6.991
 5043SOL     OW16569   7.986   6.892   5.787
 5043SOL    HW116570   7.897   6.911   5.815
 5043SOL    HW216571   7.998   6.799   5.806
 5044SOL     OW16572   0.109   7.339   6.536
 5044SOL    HW116573   0.113   7.249   6.502
 5044SOL    HW216574   0.187   7.381   6.501
 5045SOL     OW16575   0.484   7.162   6.487
 5045SOL    HW116576   0.553   7.223   6.513
 5045SOL    HW216577   0.529   7.097   6.432
 5046SOL     OW16578   0.960   6.373   6.809
 5046SOL    HW116579   1.022   6.354   6.879
 5046SOL    HW216580   0.880   6.326   6.834
 5047SOL     OW16581   0.068   6.137   6.695
 5047SOL    HW116582   0.161   6.125   6.678
 5047SOL    HW216583   0.063   6.163   6.787
 5048SOL     OW16584   0.176   6.069   7.240
 5048SOL    HW116585   0.270   6.069   7.223
 5048SOL    HW216586   0.157   6.159   7.269
 5049SOL     OW16587   1.378   6.514   7.242
 5049SOL    HW116588   1.394   6.608   7.236
 5049SOL    HW216589   1.371   6.486   7.151
 5050SOL     OW16590   0.814   6.149   5.949
 5050SOL    HW116591   0.826   6.072   5.893
 5050SOL    HW216592   0.736   6.192   5.914
 5051SOL     OW16593   1.636   6.193   6.771
 5051SOL    HW116594   1.624   6.123   6.835
 5051SOL    HW216595   1.723   6.177   6.733
 5052SOL     OW16596   0.292   7.122   7.306
 5052SOL    HW116597   0.250   7.189   7.360
 5052SOL    HW216598   0.288   7.042   7.358
 5053SOL     OW16599   0.725   6.030   6.834
 5053SOL    HW116600   0.668   5.954   6.818
 5053SOL    HW216601   0.707   6.089   6.761
 5054SOL     OW16602   0.920   7.264   7.062
 5054SOL    HW116603   0.894   7.219   6.981
 5054SOL    HW216604   0.913   7.357   7.041
 5055SOL     OW16605   0.447   6.061   5.751
 5055SOL    HW116606   0.504   6.136   5.770
 5055SOL    HW216607   0.367   6.080   5.799
 5056SOL     OW16608   0.154   6.711   7.031
 5056SOL    HW116609   0.135   6.666   7.113
 5056SOL    HW216610   0.163   6.641   6.966
 5057SOL     OW16611   1.317   6.630   6.801
 5057SOL    HW116612   1.332   6.565   6.732
 5057SOL    HW216613   1.255   6.692   6.762
 5058SOL     OW16614   1.299   6.405   5.831
 5058SOL    HW116615   1.248   6.444   5.902
 5058SOL    HW216616   1.292   6.311   5.846
 5059SOL     OW16617   1.774   7.321   6.745
 5059SOL    HW116618   1.838   7.342   6.677
 5059SOL    HW216619   1.740   7.235   6.720
 5060SOL     OW16620   1.238   7.314   6.681
 5060SOL    HW116621   1.321   7.343   6.644
 5060SOL    HW216622   1.253   7.223   6.705
 5061SOL     OW16623   0.094   6.829   6.597
 5061SOL    HW116624   0.076   6.849   6.689
 5061SOL    HW216625   0.014   6.789   6.564
 5062SOL     OW16626   0.686   7.265   7.334
 5062SOL    HW116627   0.625   7.336   7.315
 5062SOL    HW216628   0.759   7.280   7.275
 5063SOL     OW16629   1.690   5.740   6.068
 5063SOL    HW116630   1.773   5.732   6.021
 5063SOL    HW216631   1.681   5.659   6.117
 5064SOL     OW16632   1.393   7.158   6.077
 5064SOL    HW116633   1.453   7.194   6.012
 5064SOL    HW216634   1.345   7.234   6.110
 5065SOL     OW16635   0.162   7.332   7.428
 5065SOL    HW116636   0.101   7.282   7.482
 5065SOL    HW216637   0.213   7.384   7.490
 5066SOL     OW16638   1.283   6.518   6.259
 5066SOL    HW116639   1.355   6.458   6.276
 5066SOL    HW216640   1.318   6.582   6.197
 5067SOL     OW16641   0.794   6.866   7.001
 5067SOL    HW116642   0.769   6.910   7.082
 5067SOL    HW216643   0.717   6.872   6.945
 5068SOL     OW16644   0.663   7.206   5.747
 5068SOL    HW116645   0.673   7.227   5.655
 5068SOL    HW216646   0.609   7.127   5.749
 5069SOL     OW16647   1.617   7.315   6.982
 5069SOL    HW116648   1.663   7.320   6.898
 5069SOL    HW216649   1.602   7.407   7.007
 5070SOL     OW16650   1.839   5.753   6.551
 5070SOL    HW116651   1.877   5.669   6.528
 5070SOL    HW216652   1.754   5.754   6.509
 5071SOL     OW16653   0.260   5.906   6.291
 5071SOL    HW116654   0.174   5.943   6.273
 5071SOL    HW216655   0.262   5.893   6.386
 5072SOL     OW16656   1.209   7.173   5.631
 5072SOL    HW116657   1.206   7.084   5.666
 5072SOL    HW216658   1.135   7.177   5.571
 5073SOL     OW16659   0.822   6.592   6.968
 5073SOL    HW116660   0.868   6.579   6.885
 5073SOL    HW216661   0.819   6.687   6.978
 5074SOL     OW16662   0.913   6.495   5.868
 5074SOL    HW116663   0.979   6.530   5.809
 5074SOL    HW216664   0.958   6.427   5.918
 5075SOL     OW16665   1.486   7.220   5.630
 5075SOL    HW116666   1.393   7.205   5.616
 5075SOL    HW216667   1.524   7.225   5.542
 5076SOL     OW16668   0.366   6.889   7.078
 5076SOL    HW116669   0.345   6.968   7.028
 5076SOL    HW216670   0.294   6.828   7.058
 5077SOL     OW16671   1.608   6.870   6.877
 5077SOL    HW116672   1.656   6.846   6.956
 5077SOL    HW216673   1.544   6.935   6.906
 5078SOL     OW16674   1.069   6.698   6.296
 5078SOL    HW116675   0.997   6.649   6.336
 5078SOL    HW216676   1.137   6.632   6.279
 5079SOL     OW16677   1.022   5.831   6.556
 5079SOL    HW116678   1.018   5.786   6.471
 5079SOL    HW216679   1.019   5.760   6.620
 5080SOL     OW16680   0.610   7.074   6.070
 5080SOL    HW116681   0.651   7.028   5.996
 5080SOL    HW216682   0.517   7.077   6.047
 5081SOL     OW16683   1.737   5.973   6.970
 5081SOL    HW116684   1.809   6.036   6.965
 5081SOL    HW216685   1.762   5.903   6.910
 5082SOL     OW16686   0.261   6.920   5.857
 5082SOL    HW116687   0.165   6.924   5.851
 5082SOL    HW216688   0.281   6.961   5.941
 5083SOL     OW16689   0.103   6.598   7.285
 5083SOL    HW116690   0.065   6.677   7.321
 5083SOL    HW216691   0.188   6.590   7.328
 5084SOL     OW16692   0.693   5.814   7.080
 5084SOL    HW116693   0.778   5.786   7.045
 5084SOL    HW216694   0.709   5.829   7.173
 5085SOL     OW16695   0.094   5.950   5.601
 5085SOL    HW116696   0.027   5.994   5.653
 5085SOL    HW216697   0.110   6.010   5.528
 5086SOL     OW16698   1.425   6.446   6.981
 5086SOL    HW116699   1.372   6.503   6.926
 5086SOL    HW216700   1.511   6.443   6.939
 5087SOL     OW16701   0.105   5.830   5.941
 5087SOL    HW116702   0.051   5.808   5.865
 5087SOL    HW216703   0.183   5.775   5.932
 5088SOL     OW16704   1.185   6.908   5.722
 5088SOL    HW116705   1.109   6.850   5.729
 5088SOL    HW216706   1.213   6.922   5.812
 5089SOL     OW16707   0.621   6.417   7.031
 5089SOL    HW116708   0.679   6.492   7.019
 5089SOL    HW216709   0.680   6.341   7.036
 5090SOL     OW16710   1.483   7.381   6.570
 5090SOL    HW116711   1.503   7.451   6.509
 5090SOL    HW216712   1.567   7.341   6.591
 5091SOL     OW16713   0.716   6.135   7.283
 5091SOL    HW116714   0.755   6.187   7.353
 5091SOL    HW216715   0.727   6.044   7.312
 5092SOL     OW16716   1.471   6.777   7.211
 5092SOL    HW116717   1.456   6.792   7.305
 5092SOL    HW216718   1.563   6.800   7.197
 5093SOL     OW16719   0.389   7.327   7.152
 5093SOL    HW116720   0.301   7.356   7.131
 5093SOL    HW216721   0.377   7.241   7.192
 5094SOL     OW16722   1.665   6.460   6.844
 5094SOL    HW116723   1.660   6.373   6.806
 5094SOL    HW216724   1.653   6.519   6.769
 5095SOL     OW16725   1.224   5.916   6.031
 5095SOL    HW116726   1.282   5.839   6.027
 5095SOL    HW216727   1.250   5.961   6.112
 5096SOL     OW16728   0.596   6.319   6.263
 5096SOL    HW116729   0.636   6.406   6.251
 5096SOL    HW216730   0.531   6.313   6.192
 5097SOL     OW16731   1.741   5.973   7.248
 5097SOL    HW116732   1.739   5.976   7.153
 5097SOL    HW216733   1.676   5.907   7.272
 5098SOL     OW16734   1.768   6.529   7.085
 5098SOL    HW116735   1.734   6.618   7.095
 5098SOL    HW216736   1.740   6.503   6.997
 5099SOL     OW16737   0.841   6.974   5.622
 5099SOL    HW116738   0.848   6.982   5.717
 5099SOL    HW216739   0.892   7.048   5.588
 5100SOL     OW16740   0.664   7.366   6.512
 5100SOL    HW116741   0.650   7.460   6.499
 5100SOL    HW216742   0.759   7.356   6.515
 5101SOL     OW16743   0.874   6.562   6.439
 5101SOL    HW116744   0.921   6.487   6.475
 5101SOL    HW216745   0.829   6.600   6.514
 5102SOL     OW16746   1.078   6.598   5.671
 5102SOL    HW116747   1.053   6.636   5.587
 5102SOL    HW216748   1.157   6.548   5.652
 5103SOL     OW16749   1.839   7.146   6.443
 5103SOL    HW116750   1.777   7.127   6.372
 5103SOL    HW216751   1.871   7.060   6.470
 5104SOL     OW16752   0.218   6.889   7.437
 5104SOL    HW116753   0.126   6.872   7.418
 5104SOL    HW216754   0.223   6.887   7.533
 5105SOL     OW16755   0.138   6.850   6.230
 5105SOL    HW116756   0.056   6.819   6.269
 5105SOL    HW216757   0.201   6.780   6.246
 5106SOL     OW16758   0.685   7.004   7.212
 5106SOL    HW116759   0.611   6.956   7.249
 5106SOL    HW216760   0.685   7.088   7.258
 5107SOL     OW16761   1.807   5.761   6.823
 5107SOL    HW116762   1.808   5.666   6.831
 5107SOL    HW216763   1.824   5.777   6.730
 5108SOL     OW16764   0.431   6.019   6.099
 5108SOL    HW116765   0.472   5.946   6.054
 5108SOL    HW216766   0.385   5.980   6.173
 5109SOL     OW16767   1.678   7.075   6.700
 5109SOL    HW116768   1.616   7.055   6.629
 5109SOL    HW216769   1.673   6.999   6.758
 5110SOL     OW16770   0.352   6.143   6.880
 5110SOL    HW116771   0.393   6.086   6.946
 5110SOL    HW216772   0.369   6.099   6.797
 5111SOL     OW16773   0.838   7.168   6.257
 5111SOL    HW116774   0.809   7.240   6.201
 5111SOL    HW216775   0.762   7.111   6.265
 5112SOL     OW16776   1.424   5.817   6.698
 5112SOL    HW116777   1.440   5.729   6.732
 5112SOL    HW216778   1.376   5.861   6.768
 5113SOL     OW16779   1.009   5.605   6.721
 5113SOL    HW116780   0.952   5.537   6.684
 5113SOL    HW216781   1.096   5.565   6.721
 5114SOL     OW16782   0.784   6.914   5.897
 5114SOL    HW116783   0.761   6.825   5.922
 5114SOL    HW216784   0.856   6.938   5.955
 5115SOL     OW16785   0.623   7.146   6.867
 5115SOL    HW116786   0.620   7.230   6.913
 5115SOL    HW216787   0.713   7.139   6.835
 5116SOL     OW16788   1.372   5.633   5.755
 5116SOL    HW116789   1.414   5.555   5.718
 5116SOL    HW216790   1.281   5.606   5.770
 5117SOL     OW16791   1.289   6.057   6.259
 5117SOL    HW116792   1.234   6.134   6.267
 5117SOL    HW216793   1.287   6.017   6.346
 5118SOL     OW16794   1.575   5.773   6.471
 5118SOL    HW116795   1.526   5.795   6.550
 5118SOL    HW216796   1.574   5.853   6.418
 5119SOL     OW16797   0.040   6.638   5.872
 5119SOL    HW116798   0.125   6.599   5.849
 5119SOL    HW216799   0.036   6.634   5.967
 5120SOL     OW16800   0.893   7.251   5.910
 5120SOL    HW116801   0.813   7.236   5.860
 5120SOL    HW216802   0.868   7.316   5.976
 5121SOL     OW16803   0.196   6.249   7.475
 5121SOL    HW116804   0.138   6.262   7.550
 5121SOL    HW216805   0.257   6.180   7.502
 5122SOL     OW16806   0.235   5.850   8.431
 5122SOL    HW116807   0.258   5.822   8.519
 5122SOL    HW216808   0.158   5.798   8.408
 5123SOL     OW16809   8.001   5.955   8.066
 5123SOL    HW116810   7.908   5.945   8.085
 5123SOL    HW216811   8.014   5.908   7.984
 5124SOL     OW16812   0.574   6.889   8.650
 5124SOL    HW116813   0.493   6.888   8.599
 5124SOL    HW216814   0.588   6.981   8.673
 5125SOL     OW16815   1.580   7.104   8.157
 5125SOL    HW116816   1.534   7.076   8.236
 5125SOL    HW216817   1.511   7.108   8.090
 5126SOL     OW16818   1.141   6.285   8.142
 5126SOL    HW116819   1.184   6.369   8.130
 5126SOL    HW216820   1.089   6.295   8.222
 5127SOL     OW16821   1.776   6.184   7.673
 5127SOL    HW116822   1.757   6.180   7.580
 5127SOL    HW216823   1.735   6.105   7.710
 5128SOL     OW16824   0.743   6.724   8.507
 5128SOL    HW116825   0.681   6.764   8.567
 5128SOL    HW216826   0.780   6.797   8.458
 5129SOL     OW16827   0.885   6.339   9.273
 5129SOL    HW116828   0.867   6.410   9.334
 5129SOL    HW216829   0.903   6.384   9.190
 5130SOL     OW16830   0.689   6.583   8.102
 5130SOL    HW116831   0.756   6.578   8.169
 5130SOL    HW216832   0.622   6.641   8.140
 5131SOL     OW16833   0.717   6.746   9.276
 5131SOL    HW116834   0.755   6.830   9.304
 5131SOL    HW216835   0.643   6.770   9.221
 5132SOL     OW16836   0.341   6.997   8.509
 5132SOL    HW116837   0.293   6.938   8.451
 5132SOL    HW216838   0.388   7.056   8.450
 5133SOL     OW16839   1.456   7.088   8.816
 5133SOL    HW116840   1.510   7.166   8.824
 5133SOL    HW216841   1.384   7.101   8.877
 5134SOL     OW16842   0.445   5.974   8.943
 5134SOL    HW116843   0.526   5.922   8.943
 5134SOL    HW216844   0.375   5.909   8.945
 5135SOL     OW16845   1.597   6.022   8.191
 5135SOL    HW116846   1.522   6.027   8.132
 5135SOL    HW216847   1.597   6.106   8.237
 5136SOL     OW16848   0.231   7.282   7.930
 5136SOL    HW116849   0.221   7.368   7.972
 5136SOL    HW216850   0.298   7.295   7.863
 5137SOL     OW16851   1.139   6.932   9.148
 5137SOL    HW116852   1.185   6.927   9.232
 5137SOL    HW216853   1.091   6.849   9.141
 5138SOL     OW16854   0.303   7.021   7.958
 5138SOL    HW116855   0.273   7.112   7.967
 5138SOL    HW216856   0.249   6.972   8.021
 5139SOL     OW16857   0.285   6.669   8.362
 5139SOL    HW116858   0.286   6.574   8.376
 5139SOL    HW216859   0.201   6.697   8.397
 5140SOL     OW16860   0.597   7.390   8.858
 5140SOL    HW116861   0.520   7.369   8.912
 5140SOL    HW216862   0.627   7.475   8.892
 5141SOL     OW16863   0.535   6.598   7.562
 5141SOL    HW116864   0.615   6.640   7.530
 5141SOL    HW216865   0.566   6.517   7.602
 5142SOL     OW16866   1.595   5.714   8.911
 5142SOL    HW116867   1.619   5.793   8.861
 5142SOL    HW216868   1.567   5.748   8.996
 5143SOL     OW16869   0.097   6.205   7.992
 5143SOL    HW116870   0.071   6.122   8.033
 5143SOL    HW216871   0.103   6.267   8.065
 5144SOL     OW16872   1.846   7.335   7.769
 5144SOL    HW116873   1.915   7.313   7.832
 5144SOL    HW216874   1.861   7.427   7.749
 5145SOL     OW16875   0.009   7.180   7.593
 5145SOL    HW116876   0.001   7.086   7.575
 5145SOL    HW216877  -0.003   7.187   7.688
 5146SOL     OW16878   1.697   6.511   8.097
 5146SOL    HW116879   1.765   6.454   8.062
 5146SOL    HW216880   1.667   6.561   8.021
 5147SOL     OW16881   1.652   6.686   7.877
 5147SOL    HW116882   1.739   6.683   7.837
 5147SOL    HW216883   1.660   6.753   7.946
 5148SOL     OW16884   0.155   6.346   9.032
 5148SOL    HW116885   0.251   6.353   9.029
 5148SOL    HW216886   0.127   6.427   9.074
 5149SOL     OW16887   0.614   6.981   8.189
 5149SOL    HW116888   0.571   6.895   8.194
 5149SOL    HW216889   0.605   7.006   8.098
 5150SOL     OW16890   1.279   6.816   8.869
 5150SOL    HW116891   1.306   6.748   8.807
 5150SOL    HW216892   1.342   6.810   8.941
 5151SOL     OW16893   0.828   5.595   7.971
 5151SOL    HW116894   0.868   5.676   7.941
 5151SOL    HW216895   0.734   5.613   7.969
 5152SOL     OW16896   0.173   6.513   8.717
 5152SOL    HW116897   0.264   6.482   8.713
 5152SOL    HW216898   0.142   6.507   8.627
 5153SOL     OW16899   1.539   6.585   7.646
 5153SOL    HW116900   1.468   6.527   7.674
 5153SOL    HW216901   1.576   6.619   7.727
 5154SOL     OW16902   1.179   7.393   9.083
 5154SOL    HW116903   1.182   7.459   9.013
 5154SOL    HW216904   1.197   7.310   9.038
 5155SOL     OW16905   0.361   5.839   9.299
 5155SOL    HW116906   0.409   5.918   9.322
 5155SOL    HW216907   0.269   5.863   9.309
 5156SOL     OW16908   1.469   7.004   8.387
 5156SOL    HW116909   1.403   7.020   8.454
 5156SOL    HW216910   1.454   6.913   8.360
 5157SOL     OW16911   1.658   7.343   8.022
 5157SOL    HW116912   1.628   7.313   7.936
 5157SOL    HW216913   1.639   7.269   8.080
 5158SOL     OW16914   1.279   5.968   8.386
 5158SOL    HW116915   1.191   5.931   8.391
 5158SOL    HW216916   1.333   5.910   8.441
 5159SOL     OW16917   1.578   7.260   7.761
 5159SOL    HW116918   1.671   7.283   7.751
 5159SOL    HW216919   1.547   7.245   7.671
 5160SOL     OW16920   0.790   6.199   8.897
 5160SOL    HW116921   0.763   6.169   8.984
 5160SOL    HW216922   0.761   6.129   8.838
 5161SOL     OW16923   1.392   6.066   9.122
 5161SOL    HW116924   1.398   6.107   9.208
 5161SOL    HW216925   1.443   5.985   9.132
 5162SOL     OW16926   0.950   6.472   9.038
 5162SOL    HW116927   1.004   6.403   8.997
 5162SOL    HW216928   0.901   6.510   8.965
 5163SOL     OW16929   0.998   5.992   8.671
 5163SOL    HW116930   0.906   6.002   8.697
 5163SOL    HW216931   0.994   5.949   8.585
 5164SOL     OW16932   1.063   6.286   7.871
 5164SOL    HW116933   1.079   6.279   7.965
 5164SOL    HW216934   0.978   6.244   7.858
 5165SOL     OW16935   0.100   6.378   8.210
 5165SOL    HW116936   0.182   6.385   8.260
 5165SOL    HW216937   0.063   6.466   8.212
 5166SOL     OW16938   0.118   7.389   9.013
 5166SOL    HW116939   0.126   7.391   9.109
 5166SOL    HW216940   0.024   7.379   8.998
 5167SOL     OW16941   0.900   5.931   7.647
 5167SOL    HW116942   0.941   5.992   7.585
 5167SOL    HW216943   0.881   5.853   7.596
 5168SOL     OW16944   1.703   6.159   9.282
 5168SOL    HW116945   1.671   6.233   9.231
 5168SOL    HW216946   1.723   6.092   9.216
 5169SOL     OW16947   1.386   6.732   7.991
 5169SOL    HW116948   1.461   6.716   7.934
 5169SOL    HW216949   1.330   6.791   7.942
 5170SOL     OW16950   0.558   5.757   8.342
 5170SOL    HW116951   0.558   5.796   8.429
 5170SOL    HW216952   0.556   5.831   8.282
 5171SOL     OW16953   1.005   7.041   7.916
 5171SOL    HW116954   0.975   7.114   7.860
 5171SOL    HW216955   0.970   7.061   8.002
 5172SOL     OW16956   0.364   7.415   8.308
 5172SOL    HW116957   0.411   7.332   8.320
 5172SOL    HW216958   0.429   7.482   8.328
 5173SOL     OW16959   1.806   6.640   8.320
 5173SOL    HW116960   1.758   6.614   8.241
 5173SOL    HW216961   1.740   6.644   8.389
 5174SOL     OW16962   1.221   7.129   8.960
 5174SOL    HW116963   1.213   7.061   9.027
 5174SOL    HW216964   1.157   7.103   8.893
 5175SOL     OW16965   0.299   6.527   7.694
 5175SOL    HW116966   0.370   6.571   7.648
 5175SOL    HW216967   0.329   6.437   7.705
 5176SOL     OW16968   1.484   6.344   8.168
 5176SOL    HW116969   1.479   6.301   8.254
 5176SOL    HW216970   1.564   6.396   8.172
 5177SOL     OW16971   0.460   6.826   9.194
 5177SOL    HW116972   0.427   6.852   9.108
 5177SOL    HW216973   0.420   6.740   9.210
 5178SOL     OW16974   1.129   7.363   7.673
 5178SOL    HW116975   1.049   7.328   7.713
 5178SOL    HW216976   1.152   7.297   7.607
 5179SOL     OW16977   0.199   5.836   8.948
 5179SOL    HW116978   0.156   5.898   9.007
 5179SOL    HW216979   0.172   5.750   8.979
 5180SOL     OW16980   1.624   6.969   7.537
 5180SOL    HW116981   1.582   7.054   7.525
 5180SOL    HW216982   1.554   6.906   7.518
 5181SOL     OW16983   0.449   7.337   7.757
 5181SOL    HW116984   0.500   7.379   7.826
 5181SOL    HW216985   0.513   7.288   7.706
 5182SOL     OW16986   1.398   5.689   7.891
 5182SOL    HW116987   1.390   5.664   7.799
 5182SOL    HW216988   1.489   5.673   7.913
 5183SOL     OW16989   0.226   7.370   8.666
 5183SOL    HW116990   0.285   7.297   8.685
 5183SOL    HW216991   0.191   7.349   8.579
 5184SOL     OW16992   0.943   7.283   8.339
 5184SOL    HW116993   1.028   7.240   8.350
 5184SOL    HW216994   0.900   7.234   8.269
 5185SOL     OW16995   0.376   6.317   7.954
 5185SOL    HW116996   0.436   6.274   7.894
 5185SOL    HW216997   0.302   6.256   7.962
 5186SOL     OW16998   1.513   5.812   9.168
 5186SOL    HW116999   1.524   5.829   9.261
 5186SOL    HW217000   1.447   5.744   9.163
 5187SOL     OW17001   0.657   5.694   7.553
 5187SOL    HW117002   0.709   5.614   7.567
 5187SOL    HW217003   0.595   5.670   7.485
 5188SOL     OW17004   0.764   5.863   9.211
 5188SOL    HW117005   0.846   5.815   9.203
 5188SOL    HW217006   0.716   5.818   9.281
 5189SOL     OW17007   0.871   7.110   8.645
 5189SOL    HW117008   0.856   7.072   8.558
 5189SOL    HW217009   0.943   7.059   8.682
 5190SOL     OW17010   1.333   6.177   8.878
 5190SOL    HW117011   1.365   6.146   8.963
 5190SOL    HW217012   1.371   6.264   8.868
 5191SOL     OW17013   0.817   6.972   8.398
 5191SOL    HW117014   0.903   6.963   8.357
 5191SOL    HW217015   0.756   6.982   8.324
 5192SOL     OW17016   0.930   6.097   8.342
 5192SOL    HW117017   0.905   6.088   8.250
 5192SOL    HW217018   0.958   6.010   8.369
 5193SOL     OW17019   0.563   5.651   7.938
 5193SOL    HW117020   0.480   5.649   7.987
 5193SOL    HW217021   0.554   5.727   7.880
 5194SOL     OW17022   1.427   6.785   7.484
 5194SOL    HW117023   1.456   6.709   7.535
 5194SOL    HW217024   1.339   6.804   7.517
 5195SOL     OW17025   0.281   5.645   7.625
 5195SOL    HW117026   0.337   5.701   7.572
 5195SOL    HW217027   0.341   5.586   7.669
 5196SOL     OW17028   0.950   5.836   7.903
 5196SOL    HW117029   0.924   5.869   7.817
 5196SOL    HW217030   1.044   5.853   7.907
 5197SOL     OW17031   1.076   6.273   8.901
 5197SOL    HW117032   1.011   6.202   8.903
 5197SOL    HW217033   1.160   6.228   8.892
 5198SOL     OW17034   1.208   7.171   8.250
 5198SOL    HW117035   1.223   7.231   8.177
 5198SOL    HW217036   1.284   7.183   8.307
 5199SOL     OW17037   0.475   6.745   8.182
 5199SOL    HW117038   0.412   6.720   8.250
 5199SOL    HW217039   0.431   6.725   8.100
 5200SOL     OW17040   1.259   7.376   8.065
 5200SOL    HW117041   1.309   7.435   8.008
 5200SOL    HW217042   1.191   7.432   8.102
 5201SOL     OW17043   1.031   6.110   7.476
 5201SOL    HW117044   0.983   6.191   7.459
 5201SOL    HW217045   1.089   6.131   7.549
 5202SOL     OW17046   0.097   6.173   8.832
 5202SOL    HW117047   0.187   6.155   8.806
 5202SOL    HW217048   0.104   6.238   8.902
 5203SOL     OW17049   0.562   5.814   8.618
 5203SOL    HW117050   0.604   5.734   8.649
 5203SOL    HW217051   0.471   5.805   8.645
 5204SOL     OW17052   0.869   6.042   8.083
 5204SOL    HW117053   0.830   6.098   8.016
 5204SOL    HW217054   0.893   5.962   8.036
 5205SOL     OW17055   1.012   5.649   8.196
 5205SOL    HW117056   0.955   5.642   8.120
 5205SOL    HW217057   0.993   5.571   8.248
 5206SOL     OW17058   1.436   6.743   8.299
 5206SOL    HW117059   1.365   6.680   8.305
 5206SOL    HW217060   1.454   6.751   8.206
 5207SOL     OW17061   1.461   6.202   8.409
 5207SOL    HW117062   1.403   6.126   8.408
 5207SOL    HW217063   1.516   6.189   8.486
 5208SOL     OW17064   1.847   6.393   7.833
 5208SOL    HW117065   1.902   6.343   7.893
 5208SOL    HW217066   1.813   6.328   7.772
 5209SOL     OW17067   0.492   7.010   7.591
 5209SOL    HW117068   0.412   6.977   7.633
 5209SOL    HW217069   0.504   6.952   7.515
 5210SOL     OW17070   1.688   6.857   8.079
 5210SOL    HW117071   1.782   6.857   8.096
 5210SOL    HW217072   1.659   6.945   8.104
 5211SOL     OW17073   1.401   6.140   7.527
 5211SOL    HW117074   1.328   6.137   7.590
 5211SOL    HW217075   1.454   6.063   7.548
 5212SOL     OW17076   0.531   5.848   7.753
 5212SOL    HW117077   0.580   5.799   7.686
 5212SOL    HW217078   0.506   5.929   7.709
 5213SOL     OW17079   1.745   6.828   8.997
 5213SOL    HW117080   1.832   6.792   8.983
 5213SOL    HW217081   1.760   6.917   9.030
 5214SOL     OW17082   1.053   6.952   8.790
 5214SOL    HW117083   0.976   6.913   8.831
 5214SOL    HW217084   1.127   6.901   8.825
 5215SOL     OW17085   1.624   7.224   9.111
 5215SOL    HW117086   1.607   7.254   9.022
 5215SOL    HW217087   1.701   7.167   9.103
 5216SOL     OW17088   1.145   6.812   8.551
 5216SOL    HW117089   1.072   6.836   8.608
 5216SOL    HW217090   1.118   6.841   8.464
 5217SOL     OW17091   1.620   6.679   8.520
 5217SOL    HW117092   1.610   6.743   8.590
 5217SOL    HW217093   1.546   6.696   8.462
 5218SOL     OW17094   0.914   5.678   8.834
 5218SOL    HW117095   0.936   5.656   8.743
 5218SOL    HW217096   0.996   5.714   8.870
 5219SOL     OW17097   0.981   6.702   9.178
 5219SOL    HW117098   0.889   6.718   9.199
 5219SOL    HW217099   0.980   6.626   9.120
 5220SOL     OW17100   0.726   6.684   7.842
 5220SOL    HW117101   0.705   6.640   7.925
 5220SOL    HW217102   0.790   6.627   7.800
 5221SOL     OW17103   0.424   6.408   8.706
 5221SOL    HW117104   0.495   6.418   8.769
 5221SOL    HW217105   0.398   6.316   8.714
 5222SOL     OW17106   1.262   5.953   8.735
 5222SOL    HW117107   1.293   6.034   8.776
 5222SOL    HW217108   1.172   5.973   8.708
 5223SOL     OW17109   0.078   7.152   8.812
 5223SOL    HW117110   0.074   7.247   8.806
 5223SOL    HW217111   0.171   7.131   8.800
 5224SOL     OW17112   0.331   6.684   7.952
 5224SOL    HW117113   0.359   6.735   7.876
 5224SOL    HW217114   0.343   6.593   7.927
 5225SOL     OW17115   0.545   6.115   8.322
 5225SOL    HW117116   0.554   6.170   8.244
 5225SOL    HW217117   0.620   6.140   8.377
 5226SOL     OW17118   1.250   6.938   7.843
 5226SOL    HW117119   1.305   7.009   7.877
 5226SOL    HW217120   1.162   6.960   7.873
 5227SOL     OW17121   1.297   7.048   8.593
 5227SOL    HW117122   1.347   7.050   8.675
 5227SOL    HW217123   1.243   6.969   8.599
 5228SOL     OW17124   1.573   6.202   7.938
 5228SOL    HW117125   1.523   6.246   8.007
 5228SOL    HW217126   1.576   6.266   7.867
 5229SOL     OW17127   0.344   7.107   8.754
 5229SOL    HW117128   0.335   7.064   8.669
 5229SOL    HW217129   0.437   7.129   8.760
 5230SOL     OW17130   0.432   6.328   9.062
 5230SOL    HW117131   0.491   6.369   8.999
 5230SOL    HW217132   0.475   6.245   9.086
 5231SOL     OW17133   1.617   6.374   9.140
 5231SOL    HW117134   1.530   6.412   9.131
 5231SOL    HW217135   1.667   6.411   9.068
 5232SOL     OW17136   0.997   5.724   9.199
 5232SOL    HW117137   1.057   5.795   9.178
 5232SOL    HW217138   1.046   5.644   9.178
 5233SOL     OW17139   0.503   5.619   9.208
 5233SOL    HW117140   0.456   5.569   9.140
 5233SOL    HW217141   0.449   5.696   9.222
 5234SOL     OW17142   0.607   6.458   8.494
 5234SOL    HW117143   0.629   6.551   8.487
 5234SOL    HW217144   0.534   6.455   8.556
 5235SOL     OW17145   1.332   6.444   8.465
 5235SOL    HW117146   1.247   6.427   8.426
 5235SOL    HW217147   1.382   6.363   8.451
 5236SOL     OW17148   1.197   6.114   7.706
 5236SOL    HW117149   1.204   6.035   7.760
 5236SOL    HW217150   1.155   6.178   7.763
 5237SOL     OW17151   0.302   5.771   8.694
 5237SOL    HW117152   0.261   5.803   8.774
 5237SOL    HW217153   0.283   5.678   8.692
 5238SOL     OW17154   0.049   6.891   8.717
 5238SOL    HW117155   0.078   6.833   8.788
 5238SOL    HW217156   0.056   6.979   8.754
 5239SOL     OW17157   0.732   6.214   8.506
 5239SOL    HW117158   0.802   6.201   8.442
 5239SOL    HW217159   0.699   6.302   8.489
 5240SOL     OW17160   1.747   6.547   9.314
 5240SOL    HW117161   1.707   6.480   9.260
 5240SOL    HW217162   1.682   6.567   9.381
 5241SOL     OW17163   0.319   5.651   8.061
 5241SOL    HW117164   0.290   5.740   8.083
 5241SOL    HW217165   0.326   5.606   8.145
 5242SOL     OW17166   1.636   5.969   7.803
 5242SOL    HW117167   1.666   5.899   7.861
 5242SOL    HW217168   1.609   6.039   7.863
 5243SOL     OW17169   1.033   6.344   8.405
 5243SOL    HW117170   1.018   6.360   8.498
 5243SOL    HW217171   1.005   6.254   8.391
 5244SOL     OW17172   0.961   7.139   9.165
 5244SOL    HW117173   0.952   7.186   9.082
 5244SOL    HW217174   1.028   7.072   9.147
 5245SOL     OW17175   1.852   7.081   9.050
 5245SOL    HW117176   1.873   7.110   8.962
 5245SOL    HW217177   1.933   7.093   9.100
 5246SOL     OW17178   0.386   6.550   9.232
 5246SOL    HW117179   0.443   6.536   9.307
 5246SOL    HW217180   0.396   6.471   9.179
 5247SOL     OW17181   1.506   5.878   7.577
 5247SOL    HW117182   1.455   5.801   7.600
 5247SOL    HW217183   1.554   5.901   7.657
 5248SOL     OW17184   1.295   6.403   7.480
 5248SOL    HW117185   1.335   6.316   7.482
 5248SOL    HW217186   1.321   6.439   7.395
 5249SOL     OW17187   1.071   6.932   8.311
 5249SOL    HW117188   1.076   6.860   8.249
 5249SOL    HW217189   1.123   7.002   8.272
 5250SOL     OW17190   0.324   6.388   8.377
 5250SOL    HW117191   0.414   6.391   8.344
 5250SOL    HW217192   0.316   6.303   8.420
 5251SOL     OW17193   0.326   6.102   8.470
 5251SOL    HW117194   0.292   6.015   8.450
 5251SOL    HW217195   0.405   6.110   8.416
 5252SOL     OW17196   1.137   5.957   9.132
 5252SOL    HW117197   1.089   6.009   9.197
 5252SOL    HW217198   1.222   6.001   9.124
 5253SOL     OW17199   1.157   5.777   8.922
 5253SOL    HW117200   1.146   5.842   8.991
 5253SOL    HW217201   1.201   5.825   8.851
 5254SOL     OW17202   7.982   6.895   7.656
 5254SOL    HW117203   7.889   6.909   7.678
 5254SOL    HW217204   7.996   6.801   7.668
 5255SOL     OW17205   0.122   7.329   8.404
 5255SOL    HW117206   0.113   7.256   8.343
 5255SOL    HW217207   0.197   7.379   8.372
 5256SOL     OW17208   0.491   7.165   8.354
 5256SOL    HW117209   0.561   7.226   8.376
 5256SOL    HW217210   0.533   7.103   8.294
 5257SOL     OW17211   0.962   6.373   8.668
 5257SOL    HW117212   1.017   6.352   8.744
 5257SOL    HW217213   0.883   6.320   8.680
 5258SOL     OW17214   0.069   6.146   8.563
 5258SOL    HW117215   0.161   6.133   8.540
 5258SOL    HW217216   0.068   6.147   8.658
 5259SOL     OW17217   0.203   6.097   9.139
 5259SOL    HW117218   0.283   6.077   9.090
 5259SOL    HW217219   0.172   6.180   9.100
 5260SOL     OW17220   1.383   6.515   9.105
 5260SOL    HW117221   1.404   6.608   9.098
 5260SOL    HW217222   1.377   6.485   9.014
 5261SOL     OW17223   0.828   6.156   7.821
 5261SOL    HW117224   0.831   6.080   7.762
 5261SOL    HW217225   0.759   6.211   7.784
 5262SOL     OW17226   1.633   6.189   8.627
 5262SOL    HW117227   1.621   6.125   8.697
 5262SOL    HW217228   1.722   6.172   8.594
 5263SOL     OW17229   0.320   7.123   9.207
 5263SOL    HW117230   0.278   7.203   9.238
 5263SOL    HW217231   0.252   7.076   9.159
 5264SOL     OW17232   0.721   6.026   8.701
 5264SOL    HW117233   0.664   5.954   8.674
 5264SOL    HW217234   0.713   6.090   8.629
 5265SOL     OW17235   0.906   7.263   8.925
 5265SOL    HW117236   0.891   7.220   8.841
 5265SOL    HW217237   0.906   7.356   8.905
 5266SOL     OW17238   0.449   6.070   7.611
 5266SOL    HW117239   0.507   6.145   7.617
 5266SOL    HW217240   0.374   6.092   7.667
 5267SOL     OW17241   0.161   6.715   8.903
 5267SOL    HW117242   0.138   6.670   8.984
 5267SOL    HW217243   0.166   6.646   8.837
 5268SOL     OW17244   1.315   6.628   8.664
 5268SOL    HW117245   1.330   6.562   8.596
 5268SOL    HW217246   1.256   6.691   8.624
 5269SOL     OW17247   1.324   6.441   7.753
 5269SOL    HW117248   1.248   6.414   7.804
 5269SOL    HW217249   1.298   6.426   7.662
 5270SOL     OW17250   1.790   7.314   8.615
 5270SOL    HW117251   1.848   7.340   8.543
 5270SOL    HW217252   1.754   7.229   8.588
 5271SOL     OW17253   1.242   7.318   8.556
 5271SOL    HW117254   1.324   7.345   8.513
 5271SOL    HW217255   1.254   7.225   8.573
 5272SOL     OW17256   0.053   6.773   8.475
 5272SOL    HW117257   0.053   6.818   8.560
 5272SOL    HW217258  -0.011   6.821   8.422
 5273SOL     OW17259   0.674   7.253   9.184
 5273SOL    HW117260   0.624   7.334   9.171
 5273SOL    HW217261   0.755   7.268   9.136
 5274SOL     OW17262   1.743   5.754   7.950
 5274SOL    HW117263   1.807   5.733   7.882
 5274SOL    HW217264   1.717   5.670   7.986
 5275SOL     OW17265   1.398   7.155   7.947
 5275SOL    HW117266   1.452   7.190   7.876
 5275SOL    HW217267   1.343   7.229   7.974
 5276SOL     OW17268   0.179   7.335   9.287
 5276SOL    HW117269   0.114   7.286   9.336
 5276SOL    HW217270   0.217   7.396   9.350
 5277SOL     OW17271   1.280   6.519   8.123
 5277SOL    HW117272   1.353   6.458   8.132
 5277SOL    HW217273   1.314   6.589   8.067
 5278SOL     OW17274   0.798   6.863   8.857
 5278SOL    HW117275   0.767   6.906   8.937
 5278SOL    HW217276   0.728   6.877   8.793
 5279SOL     OW17277   0.662   7.221   7.606
 5279SOL    HW117278   0.678   7.234   7.512
 5279SOL    HW217279   0.611   7.140   7.610
 5280SOL     OW17280   1.617   7.313   8.843
 5280SOL    HW117281   1.672   7.317   8.765
 5280SOL    HW217282   1.600   7.405   8.864
 5281SOL     OW17283   1.847   5.750   8.416
 5281SOL    HW117284   1.875   5.662   8.393
 5281SOL    HW217285   1.760   5.759   8.376
 5282SOL     OW17286   0.259   5.899   8.154
 5282SOL    HW117287   0.170   5.925   8.132
 5282SOL    HW217288   0.260   5.892   8.249
 5283SOL     OW17289   1.210   7.179   7.484
 5283SOL    HW117290   1.196   7.089   7.513
 5283SOL    HW217291   1.143   7.194   7.417
 5284SOL     OW17292   0.824   6.592   8.828
 5284SOL    HW117293   0.861   6.575   8.741
 5284SOL    HW217294   0.819   6.687   8.834
 5285SOL     OW17295   0.941   6.540   7.752
 5285SOL    HW117296   0.998   6.560   7.678
 5285SOL    HW217297   0.963   6.450   7.776
 5286SOL     OW17298   1.486   7.221   7.496
 5286SOL    HW117299   1.393   7.206   7.481
 5286SOL    HW217300   1.525   7.225   7.409
 5287SOL     OW17301   0.365   6.899   8.954
 5287SOL    HW117302   0.363   6.965   8.885
 5287SOL    HW217303   0.298   6.836   8.929
 5288SOL     OW17304   1.605   6.873   8.726
 5288SOL    HW117305   1.661   6.851   8.801
 5288SOL    HW217306   1.544   6.938   8.759
 5289SOL     OW17307   1.069   6.703   8.171
 5289SOL    HW117308   0.993   6.654   8.201
 5289SOL    HW217309   1.129   6.636   8.137
 5290SOL     OW17310   1.027   5.831   8.416
 5290SOL    HW117311   1.022   5.788   8.331
 5290SOL    HW217312   1.022   5.760   8.480
 5291SOL     OW17313   0.610   7.071   7.933
 5291SOL    HW117314   0.663   7.029   7.866
 5291SOL    HW217315   0.520   7.064   7.901
 5292SOL     OW17316   1.737   5.971   8.833
 5292SOL    HW117317   1.808   6.035   8.827
 5292SOL    HW217318   1.764   5.901   8.774
 5293SOL     OW17319   0.252   6.926   7.711
 5293SOL    HW117320   0.156   6.926   7.709
 5293SOL    HW217321   0.274   6.958   7.798
 5294SOL     OW17322   0.116   6.591   9.156
 5294SOL    HW117323   0.074   6.670   9.191
 5294SOL    HW217324   0.200   6.585   9.202
 5295SOL     OW17325   0.678   5.787   8.951
 5295SOL    HW117326   0.760   5.763   8.907
 5295SOL    HW217327   0.705   5.815   9.038
 5296SOL     OW17328   0.129   5.958   7.497
 5296SOL    HW117329   0.053   5.902   7.513
 5296SOL    HW217330   0.110   6.000   7.412
 5297SOL     OW17331   1.421   6.443   8.843
 5297SOL    HW117332   1.369   6.502   8.789
 5297SOL    HW217333   1.509   6.445   8.804
 5298SOL     OW17334   0.087   5.820   7.826
 5298SOL    HW117335   0.044   5.801   7.742
 5298SOL    HW217336   0.177   5.791   7.814
 5299SOL     OW17337   1.179   6.913   7.569
 5299SOL    HW117338   1.099   6.860   7.569
 5299SOL    HW217339   1.206   6.916   7.661
 5300SOL     OW17340   0.625   6.416   8.890
 5300SOL    HW117341   0.683   6.490   8.872
 5300SOL    HW217342   0.683   6.340   8.892
 5301SOL     OW17343   1.482   7.383   8.434
 5301SOL    HW117344   1.501   7.452   8.371
 5301SOL    HW217345   1.566   7.342   8.452
 5302SOL     OW17346   0.713   6.137   9.150
 5302SOL    HW117347   0.765   6.192   9.210
 5302SOL    HW217348   0.729   6.048   9.180
 5303SOL     OW17349   1.475   6.774   9.072
 5303SOL    HW117350   1.465   6.795   9.165
 5303SOL    HW217351   1.566   6.797   9.052
 5304SOL     OW17352   0.384   7.325   9.013
 5304SOL    HW117353   0.293   7.349   8.995
 5304SOL    HW217354   0.377   7.239   9.056
 5305SOL     OW17355   1.661   6.463   8.704
 5305SOL    HW117356   1.655   6.377   8.662
 5305SOL    HW217357   1.650   6.525   8.632
 5306SOL     OW17358   1.222   5.908   7.904
 5306SOL    HW117359   1.281   5.833   7.897
 5306SOL    HW217360   1.254   5.957   7.979
 5307SOL     OW17361   0.569   6.333   8.151
 5307SOL    HW117362   0.623   6.405   8.120
 5307SOL    HW217363   0.504   6.320   8.082
 5308SOL     OW17364   1.745   5.949   9.108
 5308SOL    HW117365   1.742   5.962   9.014
 5308SOL    HW217366   1.670   5.893   9.127
 5309SOL     OW17367   1.762   6.513   8.955
 5309SOL    HW117368   1.742   6.606   8.968
 5309SOL    HW217369   1.737   6.496   8.864
 5310SOL     OW17370   0.855   6.959   7.495
 5310SOL    HW117371   0.828   6.971   7.586
 5310SOL    HW217372   0.876   7.047   7.463
 5311SOL     OW17373   0.668   7.368   8.384
 5311SOL    HW117374   0.653   7.461   8.363
 5311SOL    HW217375   0.763   7.357   8.375
 5312SOL     OW17376   0.874   6.562   8.309
 5312SOL    HW117377   0.922   6.486   8.340
 5312SOL    HW217378   0.832   6.599   8.387
 5313SOL     OW17379   1.106   6.601   7.539
 5313SOL    HW117380   1.065   6.631   7.458
 5313SOL    HW217381   1.163   6.529   7.512
 5314SOL     OW17382   1.839   7.142   8.288
 5314SOL    HW117383   1.761   7.132   8.233
 5314SOL    HW217384   1.828   7.077   8.357
 5315SOL     OW17385   0.196   6.865   9.313
 5315SOL    HW117386   0.161   6.899   9.231
 5315SOL    HW217387   0.120   6.860   9.371
 5316SOL     OW17388   0.142   6.846   8.097
 5316SOL    HW117389   0.068   6.798   8.134
 5316SOL    HW217390   0.201   6.779   8.063
 5317SOL     OW17391   0.677   6.990   9.066
 5317SOL    HW117392   0.585   6.966   9.079
 5317SOL    HW217393   0.684   7.077   9.106
 5318SOL     OW17394   1.819   5.760   8.687
 5318SOL    HW117395   1.812   5.665   8.698
 5318SOL    HW217396   1.828   5.772   8.592
 5319SOL     OW17397   0.456   6.017   7.989
 5319SOL    HW117398   0.478   5.954   7.920
 5319SOL    HW217399   0.392   5.971   8.043
 5320SOL     OW17400   1.691   7.071   8.538
 5320SOL    HW117401   1.615   7.053   8.483
 5320SOL    HW217402   1.690   7.001   8.604
 5321SOL     OW17403   0.354   6.146   8.746
 5321SOL    HW117404   0.401   6.084   8.802
 5321SOL    HW217405   0.365   6.111   8.657
 5322SOL     OW17406   0.834   7.176   8.113
 5322SOL    HW117407   0.820   7.255   8.060
 5322SOL    HW217408   0.757   7.122   8.097
 5323SOL     OW17409   1.423   5.813   8.558
 5323SOL    HW117410   1.426   5.720   8.579
 5323SOL    HW217411   1.375   5.852   8.631
 5324SOL     OW17412   1.008   5.599   8.578
 5324SOL    HW117413   0.957   5.535   8.529
 5324SOL    HW217414   1.095   5.560   8.585
 5325SOL     OW17415   0.785   6.936   7.766
 5325SOL    HW117416   0.754   6.846   7.779
 5325SOL    HW217417   0.867   6.940   7.815
 5326SOL     OW17418   0.616   7.149   8.734
 5326SOL    HW117419   0.616   7.235   8.777
 5326SOL    HW217420   0.705   7.140   8.700
 5327SOL     OW17421   1.371   5.633   7.621
 5327SOL    HW117422   1.412   5.559   7.577
 5327SOL    HW217423   1.280   5.606   7.635
 5328SOL     OW17424   1.307   6.054   8.125
 5328SOL    HW117425   1.252   6.133   8.123
 5328SOL    HW217426   1.295   6.020   8.214
 5329SOL     OW17427   1.589   5.781   8.335
 5329SOL    HW117428   1.531   5.805   8.407
 5329SOL    HW217429   1.587   5.856   8.276
 5330SOL     OW17430   0.046   6.634   7.724
 5330SOL    HW117431   0.133   6.605   7.696
 5330SOL    HW217432   0.048   6.627   7.820
 5331SOL     OW17433   0.892   7.251   7.774
 5331SOL    HW117434   0.814   7.231   7.722
 5331SOL    HW217435   0.861   7.313   7.840
 5332SOL     OW17436   0.247   6.290   9.396
 5332SOL    HW117437   0.216   6.233   9.466
 5332SOL    HW217438   0.240   6.235   9.317
 5333SOL     OW17439   0.234   5.852  10.291
 5333SOL    HW117440   0.263   5.816  10.375
 5333SOL    HW217441   0.157   5.800  10.268
 5334SOL     OW17442   8.004   5.968   9.926
 5334SOL    HW117443   7.912   5.959   9.949
 5334SOL    HW217444   8.017   5.908   9.853
 5335SOL     OW17445   0.574   6.886  10.508
 5335SOL    HW117446   0.490   6.890  10.462
 5335SOL    HW217447   0.590   6.977  10.536
 5336SOL     OW17448   1.578   7.107  10.016
 5336SOL    HW117449   1.531   7.078  10.094
 5336SOL    HW217450   1.509   7.112   9.949
 5337SOL     OW17451   1.140   6.284  10.001
 5337SOL    HW117452   1.185   6.368   9.990
 5337SOL    HW217453   1.089   6.295  10.081
 5338SOL     OW17454   1.786   6.182   9.535
 5338SOL    HW117455   1.757   6.180   9.444
 5338SOL    HW217456   1.744   6.105   9.575
 5339SOL     OW17457   0.740   6.721  10.363
 5339SOL    HW117458   0.677   6.761  10.423
 5339SOL    HW217459   0.779   6.795  10.316
 5340SOL     OW17460   0.877   6.339  11.132
 5340SOL    HW117461   0.870   6.409  11.196
 5340SOL    HW217462   0.898   6.383  11.050
 5341SOL     OW17463   0.690   6.584   9.954
 5341SOL    HW117464   0.757   6.579  10.022
 5341SOL    HW217465   0.621   6.639   9.991
 5342SOL     OW17466   0.715   6.737  11.136
 5342SOL    HW117467   0.766   6.813  11.165
 5342SOL    HW217468   0.640   6.775  11.090
 5343SOL     OW17469   0.343   6.997  10.374
 5343SOL    HW117470   0.290   6.945  10.313
 5343SOL    HW217471   0.390   7.058  10.317
 5344SOL     OW17472   1.456   7.086  10.679
 5344SOL    HW117473   1.510   7.165  10.687
 5344SOL    HW217474   1.384   7.099  10.740
 5345SOL     OW17475   0.444   5.974  10.812
 5345SOL    HW117476   0.527   5.926  10.810
 5345SOL    HW217477   0.377   5.907  10.825
 5346SOL     OW17478   1.595   6.024  10.057
 5346SOL    HW117479   1.520   6.033   9.998
 5346SOL    HW217480   1.590   6.101  10.114
 5347SOL     OW17481   0.231   7.282   9.793
 5347SOL    HW117482   0.219   7.368   9.833
 5347SOL    HW217483   0.299   7.296   9.726
 5348SOL     OW17484   1.139   6.928  11.006
 5348SOL    HW117485   1.178   6.918  11.093
 5348SOL    HW217486   1.087   6.848  10.994
 5349SOL     OW17487   0.280   7.017   9.833
 5349SOL    HW117488   0.260   7.110   9.842
 5349SOL    HW217489   0.228   6.975   9.901
 5350SOL     OW17490   0.284   6.667  10.220
 5350SOL    HW117491   0.282   6.574  10.242
 5350SOL    HW217492   0.204   6.703  10.259
 5351SOL     OW17493   0.610   7.380  10.735
 5351SOL    HW117494   0.528   7.362  10.781
 5351SOL    HW217495   0.632   7.470  10.761
 5352SOL     OW17496   0.573   6.579   9.456
 5352SOL    HW117497   0.626   6.622   9.389
 5352SOL    HW217498   0.614   6.605   9.539
 5353SOL     OW17499   1.597   5.715  10.774
 5353SOL    HW117500   1.620   5.793  10.724
 5353SOL    HW217501   1.569   5.748  10.859
 5354SOL     OW17502   0.136   6.211   9.859
 5354SOL    HW117503   0.095   6.130   9.890
 5354SOL    HW217504   0.116   6.275   9.928
 5355SOL     OW17505   1.846   7.339   9.633
 5355SOL    HW117506   1.918   7.317   9.693
 5355SOL    HW217507   1.861   7.430   9.610
 5356SOL     OW17508   0.029   7.170   9.447
 5356SOL    HW117509   0.015   7.075   9.443
 5356SOL    HW217510   0.006   7.194   9.537
 5357SOL     OW17511   1.697   6.510   9.955
 5357SOL    HW117512   1.767   6.457   9.916
 5357SOL    HW217513   1.665   6.565   9.884
 5358SOL     OW17514   1.650   6.689   9.741
 5358SOL    HW117515   1.736   6.687   9.700
 5358SOL    HW217516   1.658   6.755   9.810
 5359SOL     OW17517   0.163   6.319  10.915
 5359SOL    HW117518   0.257   6.337  10.916
 5359SOL    HW217519   0.123   6.399  10.949
 5360SOL     OW17520   0.607   6.972  10.065
 5360SOL    HW117521   0.564   6.887  10.062
 5360SOL    HW217522   0.602   7.005   9.975
 5361SOL     OW17523   1.279   6.816  10.732
 5361SOL    HW117524   1.306   6.749  10.670
 5361SOL    HW217525   1.342   6.810  10.804
 5362SOL     OW17526   0.828   5.639   9.881
 5362SOL    HW117527   0.863   5.707   9.823
 5362SOL    HW217528   0.738   5.627   9.852
 5363SOL     OW17529   0.168   6.493  10.591
 5363SOL    HW117530   0.260   6.472  10.576
 5363SOL    HW217531   0.130   6.499  10.503
 5364SOL     OW17532   1.531   6.591   9.511
 5364SOL    HW117533   1.462   6.532   9.542
 5364SOL    HW217534   1.573   6.623   9.590
 5365SOL     OW17535   1.192   7.401  10.945
 5365SOL    HW117536   1.187   7.463  10.873
 5365SOL    HW217537   1.203   7.316  10.903
 5366SOL     OW17538   0.350   5.878  11.144
 5366SOL    HW117539   0.395   5.943  11.198
 5366SOL    HW217540   0.257   5.895  11.159
 5367SOL     OW17541   1.468   7.007  10.248
 5367SOL    HW117542   1.403   7.023  10.316
 5367SOL    HW217543   1.455   6.916  10.223
 5368SOL     OW17544   1.653   7.349   9.882
 5368SOL    HW117545   1.630   7.316   9.795
 5368SOL    HW217546   1.635   7.276   9.941
 5369SOL     OW17547   0.591   6.299   9.580
 5369SOL    HW117548   0.592   6.385   9.538
 5369SOL    HW217549   0.529   6.308   9.652
 5370SOL     OW17550   1.278   5.963  10.248
 5370SOL    HW117551   1.190   5.927  10.252
 5370SOL    HW217552   1.331   5.906  10.303
 5371SOL     OW17553   1.580   7.267   9.624
 5371SOL    HW117554   1.673   7.286   9.614
 5371SOL    HW217555   1.549   7.250   9.535
 5372SOL     OW17556   0.790   6.199  10.760
 5372SOL    HW117557   0.759   6.171  10.846
 5372SOL    HW217558   0.760   6.131  10.700
 5373SOL     OW17559   1.391   6.063  10.985
 5373SOL    HW117560   1.397   6.106  11.071
 5373SOL    HW217561   1.444   5.983  10.995
 5374SOL     OW17562   0.947   6.468  10.897
 5374SOL    HW117563   1.001   6.401  10.856
 5374SOL    HW217564   0.899   6.509  10.825
 5375SOL     OW17565   0.996   5.991  10.534
 5375SOL    HW117566   0.905   6.003  10.560
 5375SOL    HW217567   0.992   5.949  10.449
 5376SOL     OW17568   1.056   6.286   9.732
 5376SOL    HW117569   1.075   6.277   9.825
 5376SOL    HW217570   0.972   6.241   9.720
 5377SOL     OW17571   0.093   6.385  10.077
 5377SOL    HW117572   0.172   6.395  10.130
 5377SOL    HW217573   0.060   6.474  10.067
 5378SOL     OW17574   0.124   7.402  10.873
 5378SOL    HW117575   0.126   7.393  10.968
 5378SOL    HW217576   0.035   7.376  10.848
 5379SOL     OW17577   0.891   5.943   9.506
 5379SOL    HW117578   0.938   5.994   9.441
 5379SOL    HW217579   0.866   5.862   9.460
 5380SOL     OW17580   1.701   6.157  11.145
 5380SOL    HW117581   1.670   6.232  11.094
 5380SOL    HW217582   1.725   6.091  11.080
 5381SOL     OW17583   1.383   6.731   9.851
 5381SOL    HW117584   1.460   6.718   9.794
 5381SOL    HW217585   1.329   6.793   9.804
 5382SOL     OW17586   0.552   5.758  10.198
 5382SOL    HW117587   0.559   5.799  10.284
 5382SOL    HW217588   0.557   5.832  10.136
 5383SOL     OW17589   0.990   7.024   9.778
 5383SOL    HW117590   0.956   7.100   9.731
 5383SOL    HW217591   0.969   7.042   9.870
 5384SOL     OW17592   0.366   7.417  10.172
 5384SOL    HW117593   0.414   7.335  10.185
 5384SOL    HW217594   0.431   7.485  10.190
 5385SOL     OW17595   1.806   6.635  10.185
 5385SOL    HW117596   1.758   6.612  10.105
 5385SOL    HW217597   1.738   6.640  10.252
 5386SOL     OW17598   1.223   7.127  10.825
 5386SOL    HW117599   1.211   7.054  10.886
 5386SOL    HW217600   1.157   7.113  10.757
 5387SOL     OW17601   0.308   6.523   9.549
 5387SOL    HW117602   0.394   6.547   9.516
 5387SOL    HW217603   0.285   6.444   9.500
 5388SOL     OW17604   1.485   6.344  10.028
 5388SOL    HW117605   1.484   6.303  10.114
 5388SOL    HW217606   1.565   6.397  10.028
 5389SOL     OW17607   0.464   6.850  11.052
 5389SOL    HW117608   0.442   6.856  10.959
 5389SOL    HW217609   0.380   6.843  11.097
 5390SOL     OW17610   0.175   5.869  10.837
 5390SOL    HW117611   0.110   5.894  10.771
 5390SOL    HW217612   0.160   5.776  10.852
 5391SOL     OW17613   1.638   6.970   9.411
 5391SOL    HW117614   1.599   7.056   9.394
 5391SOL    HW217615   1.571   6.908   9.384
 5392SOL     OW17616   0.455   7.316   9.614
 5392SOL    HW117617   0.512   7.365   9.674
 5392SOL    HW217618   0.515   7.267   9.559
 5393SOL     OW17619   1.396   5.694   9.749
 5393SOL    HW117620   1.382   5.666   9.658
 5393SOL    HW217621   1.490   5.709   9.755
 5394SOL     OW17622   0.228   7.364  10.532
 5394SOL    HW117623   0.284   7.290  10.555
 5394SOL    HW217624   0.199   7.345  10.443
 5395SOL     OW17625   0.945   7.278  10.201
 5395SOL    HW117626   1.030   7.233  10.204
 5395SOL    HW217627   0.899   7.236  10.129
 5396SOL     OW17628   0.410   6.279   9.792
 5396SOL    HW117629   0.430   6.186   9.802
 5396SOL    HW217630   0.315   6.284   9.803
 5397SOL     OW17631   1.517   5.811  11.031
 5397SOL    HW117632   1.527   5.830  11.125
 5397SOL    HW217633   1.452   5.741  11.027
 5398SOL     OW17634   0.662   5.694   9.417
 5398SOL    HW117635   0.713   5.619   9.448
 5398SOL    HW217636   0.607   5.658   9.348
 5399SOL     OW17637   0.765   5.868  11.069
 5399SOL    HW117638   0.847   5.820  11.064
 5399SOL    HW217639   0.718   5.826  11.141
 5400SOL     OW17640   0.875   7.110  10.507
 5400SOL    HW117641   0.859   7.074  10.420
 5400SOL    HW217642   0.945   7.056  10.543
 5401SOL     OW17643   1.334   6.176  10.741
 5401SOL    HW117644   1.366   6.146  10.826
 5401SOL    HW217645   1.372   6.263  10.731
 5402SOL     OW17646   0.819   6.969  10.261
 5402SOL    HW117647   0.904   6.963  10.217
 5402SOL    HW217648   0.756   6.983  10.190
 5403SOL     OW17649   0.928   6.095  10.206
 5403SOL    HW117650   0.903   6.087  10.114
 5403SOL    HW217651   0.957   6.007  10.230
 5404SOL     OW17652   0.563   5.647   9.801
 5404SOL    HW117653   0.481   5.647   9.850
 5404SOL    HW217654   0.555   5.722   9.742
 5405SOL     OW17655   1.436   6.794   9.345
 5405SOL    HW117656   1.461   6.718   9.397
 5405SOL    HW217657   1.351   6.820   9.380
 5406SOL     OW17658   0.283   5.638   9.486
 5406SOL    HW117659   0.336   5.700   9.435
 5406SOL    HW217660   0.346   5.583   9.531
 5407SOL     OW17661   0.950   5.859   9.762
 5407SOL    HW117662   0.925   5.883   9.672
 5407SOL    HW217663   1.045   5.867   9.763
 5408SOL     OW17664   1.077   6.272  10.762
 5408SOL    HW117665   1.013   6.201  10.763
 5408SOL    HW217666   1.162   6.228  10.754
 5409SOL     OW17667   1.207   7.170  10.113
 5409SOL    HW117668   1.219   7.234  10.042
 5409SOL    HW217669   1.284   7.180  10.168
 5410SOL     OW17670   0.473   6.733  10.037
 5410SOL    HW117671   0.411   6.713  10.107
 5410SOL    HW217672   0.424   6.719   9.956
 5411SOL     OW17673   1.256   7.381   9.937
 5411SOL    HW117674   1.298   7.437   9.872
 5411SOL    HW217675   1.177   7.429   9.962
 5412SOL     OW17676   1.029   6.112   9.335
 5412SOL    HW117677   0.985   6.195   9.316
 5412SOL    HW217678   1.091   6.134   9.405
 5413SOL     OW17679   0.123   6.145  10.713
 5413SOL    HW117680   0.209   6.147  10.673
 5413SOL    HW217681   0.118   6.226  10.763
 5414SOL     OW17682   0.572   5.813  10.474
 5414SOL    HW117683   0.615   5.728  10.489
 5414SOL    HW217684   0.482   5.800  10.503
 5415SOL     OW17685   0.865   6.051   9.945
 5415SOL    HW117686   0.822   6.104   9.879
 5415SOL    HW217687   0.892   5.972   9.898
 5416SOL     OW17688   1.022   5.645  10.066
 5416SOL    HW117689   0.957   5.646   9.996
 5416SOL    HW217690   1.001   5.567  10.117
 5417SOL     OW17691   1.443   6.745  10.163
 5417SOL    HW117692   1.368   6.687  10.160
 5417SOL    HW217693   1.470   6.754  10.072
 5418SOL     OW17694   1.465   6.199  10.269
 5418SOL    HW117695   1.404   6.126  10.272
 5418SOL    HW217696   1.520   6.188  10.347
 5419SOL     OW17697   1.837   6.392   9.703
 5419SOL    HW117698   1.898   6.343   9.758
 5419SOL    HW217699   1.814   6.331   9.633
 5420SOL     OW17700   1.682   6.853   9.952
 5420SOL    HW117701   1.777   6.852   9.964
 5420SOL    HW217702   1.656   6.943   9.968
 5421SOL     OW17703   1.394   6.159   9.380
 5421SOL    HW117704   1.331   6.137   9.449
 5421SOL    HW217705   1.477   6.122   9.409
 5422SOL     OW17706   0.534   5.844   9.615
 5422SOL    HW117707   0.584   5.794   9.551
 5422SOL    HW217708   0.509   5.924   9.570
 5423SOL     OW17709   1.744   6.829  10.861
 5423SOL    HW117710   1.832   6.793  10.848
 5423SOL    HW217711   1.760   6.918  10.893
 5424SOL     OW17712   1.051   6.945  10.649
 5424SOL    HW117713   0.974   6.910  10.694
 5424SOL    HW217714   1.125   6.898  10.687
 5425SOL     OW17715   1.613   7.220  10.979
 5425SOL    HW117716   1.599   7.252  10.889
 5425SOL    HW217717   1.693   7.166  10.972
 5426SOL     OW17718   1.144   6.811  10.413
 5426SOL    HW117719   1.075   6.840  10.472
 5426SOL    HW217720   1.117   6.842  10.326
 5427SOL     OW17721   1.618   6.677  10.383
 5427SOL    HW117722   1.609   6.742  10.453
 5427SOL    HW217723   1.546   6.696  10.323
 5428SOL     OW17724   0.913   5.678  10.695
 5428SOL    HW117725   0.933   5.654  10.604
 5428SOL    HW217726   0.995   5.714  10.729
 5429SOL     OW17727   0.985   6.699  11.033
 5429SOL    HW117728   0.894   6.717  11.057
 5429SOL    HW217729   0.981   6.621  10.979
 5430SOL     OW17730   0.711   6.648   9.684
 5430SOL    HW117731   0.700   6.626   9.777
 5430SOL    HW217732   0.788   6.597   9.657
 5431SOL     OW17733   0.429   6.409  10.563
 5431SOL    HW117734   0.496   6.423  10.631
 5431SOL    HW217735   0.405   6.316  10.572
 5432SOL     OW17736   1.262   5.954  10.596
 5432SOL    HW117737   1.293   6.034  10.638
 5432SOL    HW217738   1.172   5.974  10.570
 5433SOL     OW17739   0.044   7.178  10.638
 5433SOL    HW117740   0.103   7.249  10.612
 5433SOL    HW217741   0.082   7.143  10.719
 5434SOL     OW17742   0.324   6.694   9.805
 5434SOL    HW117743   0.342   6.770   9.749
 5434SOL    HW217744   0.329   6.619   9.746
 5435SOL     OW17745   0.544   6.122  10.179
 5435SOL    HW117746   0.558   6.179  10.103
 5435SOL    HW217747   0.617   6.141  10.237
 5436SOL     OW17748   1.244   6.937   9.711
 5436SOL    HW117749   1.298   7.011   9.740
 5436SOL    HW217750   1.155   6.961   9.737
 5437SOL     OW17751   1.298   7.047  10.455
 5437SOL    HW117752   1.347   7.049  10.537
 5437SOL    HW217753   1.243   6.969  10.461
 5438SOL     OW17754   1.574   6.204   9.795
 5438SOL    HW117755   1.524   6.248   9.864
 5438SOL    HW217756   1.607   6.276   9.740
 5439SOL     OW17757   0.349   7.116  10.617
 5439SOL    HW117758   0.334   7.069  10.536
 5439SOL    HW217759   0.444   7.128  10.621
 5440SOL     OW17760   0.443   6.310  10.933
 5440SOL    HW117761   0.493   6.359  10.868
 5440SOL    HW217762   0.500   6.238  10.959
 5441SOL     OW17763   1.618   6.372  11.001
 5441SOL    HW117764   1.531   6.411  10.993
 5441SOL    HW217765   1.669   6.410  10.930
 5442SOL     OW17766   0.998   5.725  11.068
 5442SOL    HW117767   1.056   5.797  11.044
 5442SOL    HW217768   1.044   5.646  11.041
 5443SOL     OW17769   0.485   5.639  11.074
 5443SOL    HW117770   0.444   5.584  11.007
 5443SOL    HW217771   0.434   5.720  11.072
 5444SOL     OW17772   0.600   6.459  10.347
 5444SOL    HW117773   0.629   6.551  10.344
 5444SOL    HW217774   0.535   6.457  10.417
 5445SOL     OW17775   1.335   6.442  10.329
 5445SOL    HW117776   1.250   6.427  10.288
 5445SOL    HW217777   1.385   6.361  10.313
 5446SOL     OW17778   1.199   6.115   9.569
 5446SOL    HW117779   1.208   6.036   9.623
 5446SOL    HW217780   1.154   6.178   9.625
 5447SOL     OW17781   0.315   5.765  10.551
 5447SOL    HW117782   0.255   5.802  10.615
 5447SOL    HW217783   0.295   5.672  10.549
 5448SOL     OW17784   0.046   6.892  10.582
 5448SOL    HW117785   0.073   6.841  10.659
 5448SOL    HW217786   0.054   6.983  10.610
 5449SOL     OW17787   0.728   6.214  10.367
 5449SOL    HW117788   0.800   6.200  10.306
 5449SOL    HW217789   0.697   6.302  10.348
 5450SOL     OW17790   1.746   6.548  11.175
 5450SOL    HW117791   1.706   6.480  11.122
 5450SOL    HW217792   1.682   6.566  11.244
 5451SOL     OW17793   0.320   5.651   9.924
 5451SOL    HW117794   0.288   5.739   9.944
 5451SOL    HW217795   0.328   5.608  10.009
 5452SOL     OW17796   1.625   5.968   9.668
 5452SOL    HW117797   1.656   5.906   9.734
 5452SOL    HW217798   1.598   6.045   9.718
 5453SOL     OW17799   1.030   6.343  10.264
 5453SOL    HW117800   1.018   6.359  10.357
 5453SOL    HW217801   1.003   6.252  10.251
 5454SOL     OW17802   0.984   7.153  11.036
 5454SOL    HW117803   0.963   7.195  10.953
 5454SOL    HW217804   1.026   7.070  11.011
 5455SOL     OW17805   1.848   7.085  10.915
 5455SOL    HW117806   1.869   7.112  10.826
 5455SOL    HW217807   1.929   7.095  10.964
 5456SOL     OW17808   0.355   6.504  11.121
 5456SOL    HW117809   0.434   6.537  11.164
 5456SOL    HW217810   0.387   6.434  11.063
 5457SOL     OW17811   1.522   5.861   9.434
 5457SOL    HW117812   1.462   5.792   9.462
 5457SOL    HW217813   1.557   5.897   9.515
 5458SOL     OW17814   1.285   6.411   9.339
 5458SOL    HW117815   1.325   6.324   9.342
 5458SOL    HW217816   1.317   6.448   9.257
 5459SOL     OW17817   1.074   6.930  10.172
 5459SOL    HW117818   1.079   6.859  10.108
 5459SOL    HW217819   1.124   7.001  10.133
 5460SOL     OW17820   0.319   6.388  10.243
 5460SOL    HW117821   0.413   6.401  10.227
 5460SOL    HW217822   0.313   6.301  10.281
 5461SOL     OW17823   0.326   6.103  10.329
 5461SOL    HW117824   0.291   6.016  10.309
 5461SOL    HW217825   0.403   6.112  10.272
 5462SOL     OW17826   1.135   5.957  10.997
 5462SOL    HW117827   1.088   6.011  11.061
 5462SOL    HW217828   1.221   5.999  10.988
 5463SOL     OW17829   1.156   5.778  10.784
 5463SOL    HW117830   1.145   5.843  10.854
 5463SOL    HW217831   1.200   5.826  10.714
 5464SOL     OW17832   8.000   6.889   9.512
 5464SOL    HW117833   7.910   6.907   9.537
 5464SOL    HW217834   8.015   6.798   9.537
 5465SOL     OW17835   0.126   7.334  10.269
 5465SOL    HW117836   0.111   7.265  10.205
 5465SOL    HW217837   0.202   7.382  10.236
 5466SOL     OW17838   0.493   7.168  10.220
 5466SOL    HW117839   0.563   7.229  10.243
 5466SOL    HW217840   0.534   7.103  10.163
 5467SOL     OW17841   0.965   6.371  10.528
 5467SOL    HW117842   1.021   6.353  10.603
 5467SOL    HW217843   0.884   6.324  10.546
 5468SOL     OW17844   0.072   6.142  10.437
 5468SOL    HW117845   0.164   6.133  10.410
 5468SOL    HW217846   0.074   6.132  10.532
 5469SOL     OW17847   1.385   6.514  10.965
 5469SOL    HW117848   1.405   6.607  10.959
 5469SOL    HW217849   1.378   6.485  10.874
 5470SOL     OW17850   0.818   6.161   9.677
 5470SOL    HW117851   0.827   6.084   9.620
 5470SOL    HW217852   0.741   6.207   9.643
 5471SOL     OW17853   1.638   6.186  10.485
 5471SOL    HW117854   1.627   6.125  10.558
 5471SOL    HW217855   1.726   6.170  10.453
 5472SOL     OW17856   0.295   7.119  11.034
 5472SOL    HW117857   0.253   7.191  11.080
 5472SOL    HW217858   0.282   7.042  11.090
 5473SOL     OW17859   0.717   6.029  10.564
 5473SOL    HW117860   0.665   5.953  10.535
 5473SOL    HW217861   0.710   6.092  10.492
 5474SOL     OW17862   0.915   7.261  10.788
 5474SOL    HW117863   0.894   7.216  10.706
 5474SOL    HW217864   0.909   7.354  10.766
 5475SOL     OW17865   0.462   6.068   9.481
 5475SOL    HW117866   0.514   6.146   9.498
 5475SOL    HW217867   0.376   6.087   9.520
 5476SOL     OW17868   0.155   6.704  10.769
 5476SOL    HW117869   0.130   6.657  10.848
 5476SOL    HW217870   0.161   6.636  10.702
 5477SOL     OW17871   1.314   6.627  10.527
 5477SOL    HW117872   1.331   6.563  10.458
 5477SOL    HW217873   1.254   6.690  10.486
 5478SOL     OW17874   1.319   6.441   9.613
 5478SOL    HW117875   1.246   6.405   9.662
 5478SOL    HW217876   1.295   6.427   9.521
 5479SOL     OW17877   1.793   7.314  10.481
 5479SOL    HW117878   1.850   7.339  10.408
 5479SOL    HW217879   1.754   7.231  10.454
 5480SOL     OW17880   1.244   7.319  10.428
 5480SOL    HW117881   1.324   7.344  10.382
 5480SOL    HW217882   1.252   7.225  10.441
 5481SOL     OW17883   0.058   6.779  10.339
 5481SOL    HW117884   0.057   6.819  10.425
 5481SOL    HW217885  -0.006   6.830  10.288
 5482SOL     OW17886   0.682   7.260  11.050
 5482SOL    HW117887   0.617   7.329  11.039
 5482SOL    HW217888   0.748   7.278  10.983
 5483SOL     OW17889   1.735   5.753   9.816
 5483SOL    HW117890   1.797   5.742   9.744
 5483SOL    HW217891   1.716   5.664   9.846
 5484SOL     OW17892   1.395   7.157   9.806
 5484SOL    HW117893   1.448   7.190   9.734
 5484SOL    HW217894   1.334   7.227   9.825
 5485SOL     OW17895   0.168   7.325  11.152
 5485SOL    HW117896   0.104   7.277  11.205
 5485SOL    HW217897   0.213   7.382  11.215
 5486SOL     OW17898   1.279   6.519   9.983
 5486SOL    HW117899   1.353   6.459   9.993
 5486SOL    HW217900   1.313   6.589   9.927
 5487SOL     OW17901   0.796   6.866  10.731
 5487SOL    HW117902   0.767   6.908  10.812
 5487SOL    HW217903   0.725   6.883  10.668
 5488SOL     OW17904   0.604   7.145   9.430
 5488SOL    HW117905   0.624   7.192   9.349
 5488SOL    HW217906   0.677   7.084   9.441
 5489SOL     OW17907   1.617   7.311  10.709
 5489SOL    HW117908   1.672   7.313  10.631
 5489SOL    HW217909   1.601   7.404  10.729
 5490SOL     OW17910   1.847   5.750  10.278
 5490SOL    HW117911   1.872   5.661  10.253
 5490SOL    HW217912   1.760   5.761  10.240
 5491SOL     OW17913   0.264   5.904  10.014
 5491SOL    HW117914   0.175   5.934   9.992
 5491SOL    HW217915   0.263   5.894  10.109
 5492SOL     OW17916   1.247   7.177   9.319
 5492SOL    HW117917   1.194   7.118   9.373
 5492SOL    HW217918   1.182   7.235   9.278
 5493SOL     OW17919   0.823   6.595  10.689
 5493SOL    HW117920   0.858   6.585  10.601
 5493SOL    HW217921   0.816   6.690  10.702
 5494SOL     OW17922   0.922   6.503   9.602
 5494SOL    HW117923   0.984   6.537   9.537
 5494SOL    HW217924   0.970   6.432   9.646
 5495SOL     OW17925   1.509   7.217   9.360
 5495SOL    HW117926   1.417   7.199   9.342
 5495SOL    HW217927   1.549   7.227   9.273
 5496SOL     OW17928   0.367   6.886  10.803
 5496SOL    HW117929   0.353   6.963  10.748
 5496SOL    HW217930   0.295   6.827  10.781
 5497SOL     OW17931   1.604   6.871  10.588
 5497SOL    HW117932   1.661   6.850  10.662
 5497SOL    HW217933   1.543   6.936  10.622
 5498SOL     OW17934   1.069   6.701  10.029
 5498SOL    HW117935   0.994   6.652  10.063
 5498SOL    HW217936   1.131   6.634  10.001
 5499SOL     OW17937   1.026   5.830  10.278
 5499SOL    HW117938   1.023   5.785  10.193
 5499SOL    HW217939   1.020   5.759  10.342
 5500SOL     OW17940   0.612   7.076   9.815
 5500SOL    HW117941   0.660   7.028   9.746
 5500SOL    HW217942   0.542   7.122   9.768
 5501SOL     OW17943   1.735   5.975  10.695
 5501SOL    HW117944   1.807   6.038  10.691
 5501SOL    HW217945   1.763   5.905  10.636
 5502SOL     OW17946   0.293   6.954   9.575
 5502SOL    HW117947   0.200   6.938   9.559
 5502SOL    HW217948   0.297   6.982   9.666
 5503SOL     OW17949   0.100   6.576  11.026
 5503SOL    HW117950   0.073   6.666  11.047
 5503SOL    HW217951   0.185   6.567  11.069
 5504SOL     OW17952   0.676   5.788  10.814
 5504SOL    HW117953   0.757   5.763  10.767
 5504SOL    HW217954   0.706   5.817  10.900
 5505SOL     OW17955   0.110   5.944   9.345
 5505SOL    HW117956   0.034   5.981   9.390
 5505SOL    HW217957   0.125   6.003   9.271
 5506SOL     OW17958   1.421   6.442  10.704
 5506SOL    HW117959   1.369   6.501  10.650
 5506SOL    HW217960   1.508   6.444  10.665
 5507SOL     OW17961   0.101   5.829   9.667
 5507SOL    HW117962   0.047   5.807   9.591
 5507SOL    HW217963   0.184   5.785   9.651
 5508SOL     OW17964   1.186   6.888   9.440
 5508SOL    HW117965   1.130   6.811   9.449
 5508SOL    HW217966   1.210   6.911   9.530
 5509SOL     OW17967   0.624   6.417  10.753
 5509SOL    HW117968   0.680   6.493  10.737
 5509SOL    HW217969   0.684   6.342  10.754
 5510SOL     OW17970   1.479   7.381  10.299
 5510SOL    HW117971   1.491   7.437  10.223
 5510SOL    HW217972   1.563   7.337  10.311
 5511SOL     OW17973   0.701   6.144  11.013
 5511SOL    HW117974   0.756   6.201  11.067
 5511SOL    HW217975   0.723   6.055  11.041
 5512SOL     OW17976   1.475   6.774  10.936
 5512SOL    HW117977   1.465   6.794  11.029
 5512SOL    HW217978   1.566   6.796  10.916
 5513SOL     OW17979   0.386   7.326  10.876
 5513SOL    HW117980   0.298   7.357  10.852
 5513SOL    HW217981   0.372   7.239  10.914
 5514SOL     OW17982   1.660   6.462  10.565
 5514SOL    HW117983   1.656   6.377  10.522
 5514SOL    HW217984   1.649   6.526  10.494
 5515SOL     OW17985   1.223   5.914   9.764
 5515SOL    HW117986   1.277   5.835   9.760
 5515SOL    HW217987   1.255   5.960   9.842
 5516SOL     OW17988   0.584   6.327   9.999
 5516SOL    HW117989   0.629   6.409   9.979
 5516SOL    HW217990   0.526   6.313   9.925
 5517SOL     OW17991   1.749   5.948  10.970
 5517SOL    HW117992   1.742   5.964  10.876
 5517SOL    HW217993   1.674   5.893  10.991
 5518SOL     OW17994   1.761   6.515  10.817
 5518SOL    HW117995   1.741   6.607  10.829
 5518SOL    HW217996   1.736   6.497  10.726
 5519SOL     OW17997   0.824   6.990   9.350
 5519SOL    HW117998   0.889   6.988   9.421
 5519SOL    HW217999   0.865   7.042   9.281
 5520SOL     OW18000   0.671   7.371  10.252
 5520SOL    HW118001   0.653   7.461  10.224
 5520SOL    HW218002   0.764   7.358  10.232
 5521SOL     OW18003   0.872   6.561  10.164
 5521SOL    HW118004   0.920   6.486  10.198
 5521SOL    HW218005   0.830   6.601  10.241
 5522SOL     OW18006   1.088   6.592   9.404
 5522SOL    HW118007   1.056   6.629   9.322
 5522SOL    HW218008   1.154   6.529   9.378
 5523SOL     OW18009   1.840   7.144  10.149
 5523SOL    HW118010   1.761   7.133  10.095
 5523SOL    HW218011   1.838   7.069  10.209
 5524SOL     OW18012   0.215   6.884  11.164
 5524SOL    HW118013   0.123   6.869  11.143
 5524SOL    HW218014   0.217   6.886  11.260
 5525SOL     OW18015   0.134   6.841   9.982
 5525SOL    HW118016   0.059   6.788  10.009
 5525SOL    HW218017   0.194   6.779   9.942
 5526SOL     OW18018   0.686   6.993  10.950
 5526SOL    HW118019   0.600   6.958  10.974
 5526SOL    HW218020   0.685   7.083  10.982
 5527SOL     OW18021   1.816   5.764  10.549
 5527SOL    HW118022   1.810   5.669  10.561
 5527SOL    HW218023   1.828   5.776  10.455
 5528SOL     OW18024   0.449   6.017   9.835
 5528SOL    HW118025   0.478   5.948   9.776
 5528SOL    HW218026   0.392   5.972   9.897
 5529SOL     OW18027   1.686   7.076  10.406
 5529SOL    HW118028   1.613   7.057  10.348
 5529SOL    HW218029   1.686   7.003  10.469
 5530SOL     OW18030   0.367   6.145  10.602
 5530SOL    HW118031   0.415   6.084  10.656
 5530SOL    HW218032   0.377   6.112  10.513
 5531SOL     OW18033   0.832   7.180   9.973
 5531SOL    HW118034   0.840   7.258   9.919
 5531SOL    HW218035   0.754   7.135   9.939
 5532SOL     OW18036   1.423   5.811  10.423
 5532SOL    HW118037   1.419   5.719  10.447
 5532SOL    HW218038   1.376   5.857  10.492
 5533SOL     OW18039   1.007   5.598  10.439
 5533SOL    HW118040   0.960   5.537  10.383
 5533SOL    HW218041   1.094   5.559  10.449
 5534SOL     OW18042   0.759   6.920   9.644
 5534SOL    HW118043   0.744   6.826   9.651
 5534SOL    HW218044   0.844   6.933   9.685
 5535SOL     OW18045   0.622   7.143  10.600
 5535SOL    HW118046   0.622   7.227  10.646
 5535SOL    HW218047   0.710   7.138  10.561
 5536SOL     OW18048   1.367   5.634   9.481
 5536SOL    HW118049   1.399   5.570   9.417
 5536SOL    HW218050   1.278   5.607   9.500
 5537SOL     OW18051   1.308   6.054   9.989
 5537SOL    HW118052   1.253   6.132   9.986
 5537SOL    HW218053   1.294   6.018  10.077
 5538SOL     OW18054   1.589   5.779  10.198
 5538SOL    HW118055   1.532   5.803  10.271
 5538SOL    HW218056   1.586   5.855  10.140
 5539SOL     OW18057   0.061   6.635   9.589
 5539SOL    HW118058   0.149   6.600   9.571
 5539SOL    HW218059   0.044   6.611   9.679
 5540SOL     OW18060   0.865   7.234   9.664
 5540SOL    HW118061   0.810   7.248   9.587
 5540SOL    HW218062   0.935   7.299   9.656
 5541SOL     OW18063   0.216   6.198  11.187
 5541SOL    HW118064   0.151   6.258  11.225
 5541SOL    HW218065   0.261   6.161  11.263
 5542SOL     OW18066   0.236   5.861  12.150
 5542SOL    HW118067   0.256   5.828  12.237
 5542SOL    HW218068   0.153   5.820  12.127
 5543SOL     OW18069   7.996   5.984  11.775
 5543SOL    HW118070   7.909   5.970  11.812
 5543SOL    HW218071   8.001   5.923  11.701
 5544SOL     OW18072   0.567   6.881  12.365
 5544SOL    HW118073   0.491   6.917  12.319
 5544SOL    HW218074   0.637   6.945  12.350
 5545SOL     OW18075   1.580   7.110  11.889
 5545SOL    HW118076   1.536   7.084  11.970
 5545SOL    HW218077   1.511   7.113  11.824
 5546SOL     OW18078   1.135   6.282  11.864
 5546SOL    HW118079   1.180   6.366  11.853
 5546SOL    HW218080   1.084   6.294  11.945
 5547SOL     OW18081   1.786   6.180  11.398
 5547SOL    HW118082   1.756   6.179  11.307
 5547SOL    HW218083   1.745   6.103  11.438
 5548SOL     OW18084   0.747   6.722  12.229
 5548SOL    HW118085   0.672   6.762  12.273
 5548SOL    HW218086   0.800   6.796  12.201
 5549SOL     OW18087   0.688   6.579  11.817
 5549SOL    HW118088   0.756   6.576  11.885
 5549SOL    HW218089   0.621   6.637  11.852
 5550SOL     OW18090   0.353   6.999  12.234
 5550SOL    HW118091   0.296   6.942  12.182
 5550SOL    HW218092   0.393   7.058  12.171
 5551SOL     OW18093   1.603   6.026  11.920
 5551SOL    HW118094   1.538   6.039  11.851
 5551SOL    HW218095   1.586   6.097  11.983
 5552SOL     OW18096   0.229   7.280  11.651
 5552SOL    HW118097   0.208   7.364  11.693
 5552SOL    HW218098   0.297   7.301  11.587
 5553SOL     OW18099   0.297   7.018  11.682
 5553SOL    HW118100   0.274   7.110  11.691
 5553SOL    HW218101   0.244   6.973  11.748
 5554SOL     OW18102   0.285   6.669  12.077
 5554SOL    HW118103   0.284   6.575  12.094
 5554SOL    HW218104   0.202   6.701  12.114
 5555SOL     OW18105   0.576   6.579  11.318
 5555SOL    HW118106   0.626   6.622  11.249
 5555SOL    HW218107   0.618   6.607  11.399
 5556SOL     OW18108   0.138   6.219  11.717
 5556SOL    HW118109   0.095   6.138  11.746
 5556SOL    HW218110   0.123   6.280  11.789
 5557SOL     OW18111   1.847   7.357  11.501
 5557SOL    HW118112   1.922   7.325  11.551
 5557SOL    HW218113   1.883   7.428  11.448
 5558SOL     OW18114   0.014   7.168  11.315
 5558SOL    HW118115  -0.002   7.074  11.303
 5558SOL    HW218116  -0.001   7.183  11.408
 5559SOL     OW18117   1.694   6.510  11.819
 5559SOL    HW118118   1.769   6.462  11.785
 5559SOL    HW218119   1.665   6.565  11.745
 5560SOL     OW18120   1.652   6.689  11.603
 5560SOL    HW118121   1.738   6.685  11.561
 5560SOL    HW218122   1.660   6.757  11.670
 5561SOL     OW18123   0.139   6.338   0.290
 5561SOL    HW118124   0.149   6.297   0.376
 5561SOL    HW218125   0.214   6.397   0.283
 5562SOL     OW18126   0.594   6.989  11.896
 5562SOL    HW118127   0.559   6.900  11.900
 5562SOL    HW218128   0.586   7.014  11.804
 5563SOL     OW18129   0.829   5.596  11.693
 5563SOL    HW118130   0.868   5.679  11.664
 5563SOL    HW218131   0.734   5.613  11.693
 5564SOL     OW18132   0.195   6.516  12.451
 5564SOL    HW118133   0.280   6.481  12.426
 5564SOL    HW218134   0.139   6.503  12.374
 5565SOL     OW18135   1.533   6.590  11.372
 5565SOL    HW118136   1.464   6.532  11.403
 5565SOL    HW218137   1.574   6.623  11.452
 5566SOL     OW18138   1.482   6.996  12.127
 5566SOL    HW118139   1.408   7.015  12.184
 5566SOL    HW218140   1.462   6.910  12.089
 5567SOL     OW18141   1.663   7.373  11.738
 5567SOL    HW118142   1.626   7.330  11.661
 5567SOL    HW218143   1.648   7.310  11.809
 5568SOL     OW18144   0.586   6.292  11.434
 5568SOL    HW118145   0.597   6.379  11.396
 5568SOL    HW218146   0.530   6.306  11.511
 5569SOL     OW18147   1.281   5.960  12.107
 5569SOL    HW118148   1.193   5.923  12.113
 5569SOL    HW218149   1.334   5.905  12.165
 5570SOL     OW18150   1.575   7.279  11.485
 5570SOL    HW118151   1.669   7.293  11.472
 5570SOL    HW218152   1.542   7.258  11.397
 5571SOL     OW18153   0.984   5.940  12.383
 5571SOL    HW118154   0.902   5.979  12.413
 5571SOL    HW218155   0.968   5.916  12.292
 5572SOL     OW18156   1.055   6.283  11.595
 5572SOL    HW118157   1.075   6.276  11.688
 5572SOL    HW218158   0.971   6.239  11.585
 5573SOL     OW18159   0.099   6.375  11.942
 5573SOL    HW118160   0.178   6.384  11.996
 5573SOL    HW218161   0.045   6.450  11.966
 5574SOL     OW18162   0.034   7.320   0.292
 5574SOL    HW118163   0.127   7.329   0.314
 5574SOL    HW218164   0.021   7.384   0.221
 5575SOL     OW18165   0.898   5.938  11.368
 5575SOL    HW118166   0.942   5.999  11.309
 5575SOL    HW218167   0.892   5.856  11.319
 5576SOL     OW18168   1.384   6.729  11.715
 5576SOL    HW118169   1.461   6.718  11.660
 5576SOL    HW218170   1.329   6.791  11.667
 5577SOL     OW18171   0.560   5.767  12.065
 5577SOL    HW118172   0.557   5.825  12.141
 5577SOL    HW218173   0.553   5.827  11.990
 5578SOL     OW18174   0.995   7.034  11.640
 5578SOL    HW118175   0.968   7.110  11.589
 5578SOL    HW218176   0.967   7.053  11.730
 5579SOL     OW18177   0.370   7.408  12.037
 5579SOL    HW118178   0.420   7.329  12.052
 5579SOL    HW218179   0.432   7.479  12.050
 5580SOL     OW18180   1.802   6.643  12.048
 5580SOL    HW118181   1.752   6.618  11.969
 5580SOL    HW218182   1.736   6.646  12.117
 5581SOL     OW18183   0.318   6.549  11.427
 5581SOL    HW118184   0.403   6.572  11.388
 5581SOL    HW218185   0.292   6.470  11.379
 5582SOL     OW18186   1.482   6.343  11.886
 5582SOL    HW118187   1.480   6.301  11.972
 5582SOL    HW218188   1.561   6.398  11.888
 5583SOL     OW18189   1.130   7.361  11.400
 5583SOL    HW118190   1.050   7.328  11.442
 5583SOL    HW218191   1.151   7.295  11.334
 5584SOL     OW18192   1.631   6.977  11.273
 5584SOL    HW118193   1.589   7.060  11.253
 5584SOL    HW218194   1.566   6.911  11.249
 5585SOL     OW18195   0.455   7.337  11.480
 5585SOL    HW118196   0.505   7.380  11.550
 5585SOL    HW218197   0.521   7.292  11.428
 5586SOL     OW18198   1.396   5.691  11.617
 5586SOL    HW118199   1.387   5.665  11.525
 5586SOL    HW218200   1.490   5.687  11.634
 5587SOL     OW18201   0.233   7.389  12.395
 5587SOL    HW118202   0.273   7.306  12.423
 5587SOL    HW218203   0.186   7.366  12.315
 5588SOL     OW18204   0.899   7.276  12.085
 5588SOL    HW118205   0.899   7.205  12.149
 5588SOL    HW218206   0.883   7.233  12.001
 5589SOL     OW18207   0.411   6.279  11.650
 5589SOL    HW118208   0.427   6.186  11.662
 5589SOL    HW218209   0.317   6.290  11.669
 5590SOL     OW18210   0.656   5.696  11.272
 5590SOL    HW118211   0.708   5.617  11.287
 5590SOL    HW218212   0.595   5.672  11.202
 5591SOL     OW18213   0.933   6.095  12.064
 5591SOL    HW118214   0.905   6.087  11.973
 5591SOL    HW218215   0.963   6.007  12.088
 5592SOL     OW18216   0.563   5.651  11.666
 5592SOL    HW118217   0.480   5.651  11.714
 5592SOL    HW218218   0.555   5.723  11.604
 5593SOL     OW18219   1.433   6.795  11.211
 5593SOL    HW118220   1.460   6.718  11.261
 5593SOL    HW218221   1.346   6.815  11.244
 5594SOL     OW18222   0.293   5.632  11.344
 5594SOL    HW118223   0.359   5.689  11.304
 5594SOL    HW218224   0.344   5.571  11.397
 5595SOL     OW18225   0.946   5.839  11.624
 5595SOL    HW118226   0.922   5.873  11.538
 5595SOL    HW218227   1.041   5.854  11.630
 5596SOL     OW18228   1.239   7.148  11.953
 5596SOL    HW118229   1.239   7.218  11.888
 5596SOL    HW218230   1.278   7.188  12.031
 5597SOL     OW18231   0.475   6.738  11.894
 5597SOL    HW118232   0.414   6.717  11.964
 5597SOL    HW218233   0.426   6.721  11.814
 5598SOL     OW18234   1.258   7.375  11.787
 5598SOL    HW118235   1.297   7.439  11.728
 5598SOL    HW218236   1.186   7.422  11.829
 5599SOL     OW18237   1.026   6.115  11.200
 5599SOL    HW118238   0.982   6.197  11.178
 5599SOL    HW218239   1.091   6.139  11.265
 5600SOL     OW18240   0.566   5.795  12.358
 5600SOL    HW118241   0.581   5.710  12.317
 5600SOL    HW218242   0.472   5.798  12.373
 5601SOL     OW18243   0.865   6.043  11.805
 5601SOL    HW118244   0.823   6.099  11.740
 5601SOL    HW218245   0.891   5.964  11.756
 5602SOL     OW18246   1.017   5.634  11.910
 5602SOL    HW118247   0.957   5.628  11.836
 5602SOL    HW218248   0.995   5.558  11.964
 5603SOL     OW18249   1.439   6.744  12.021
 5603SOL    HW118250   1.352   6.704  12.023
 5603SOL    HW218251   1.460   6.751  11.928
 5604SOL     OW18252   1.461   6.195  12.123
 5604SOL    HW118253   1.402   6.121  12.131
 5604SOL    HW218254   1.520   6.188  12.198
 5605SOL     OW18255   1.842   6.391  11.564
 5605SOL    HW118256   1.904   6.343  11.619
 5605SOL    HW218257   1.817   6.329  11.495
 5606SOL     OW18258   0.490   7.007  11.316
 5606SOL    HW118259   0.409   6.978  11.357
 5606SOL    HW218260   0.494   6.958  11.234
 5607SOL     OW18261   1.687   6.860  11.804
 5607SOL    HW118262   1.781   6.856  11.824
 5607SOL    HW218263   1.660   6.947  11.834
 5608SOL     OW18264   1.393   6.158  11.242
 5608SOL    HW118265   1.332   6.136  11.312
 5608SOL    HW218266   1.477   6.123  11.271
 5609SOL     OW18267   0.533   5.841  11.474
 5609SOL    HW118268   0.585   5.794  11.408
 5609SOL    HW218269   0.509   5.923  11.431
 5610SOL     OW18270   1.101   6.828  12.291
 5610SOL    HW118271   1.021   6.875  12.313
 5610SOL    HW218272   1.114   6.844  12.197
 5611SOL     OW18273   1.602   6.676  12.241
 5611SOL    HW118274   1.565   6.715  12.320
 5611SOL    HW218275   1.540   6.697  12.172
 5612SOL     OW18276   0.713   6.649  11.547
 5612SOL    HW118277   0.700   6.626  11.639
 5612SOL    HW218278   0.788   6.595  11.520
 5613SOL     OW18279   0.441   6.393  12.441
 5613SOL    HW118280   0.501   6.407  12.514
 5613SOL    HW218281   0.393   6.313  12.464
 5614SOL     OW18282   1.248   5.949  12.431
 5614SOL    HW118283   1.277   6.035  12.464
 5614SOL    HW218284   1.155   5.961  12.413
 5615SOL     OW18285   0.326   6.700  11.664
 5615SOL    HW118286   0.337   6.779  11.611
 5615SOL    HW218287   0.331   6.628  11.602
 5616SOL     OW18288   0.548   6.107  12.035
 5616SOL    HW118289   0.562   6.168  11.962
 5616SOL    HW218290   0.612   6.134  12.101
 5617SOL     OW18291   1.245   6.937  11.569
 5617SOL    HW118292   1.301   7.007  11.602
 5617SOL    HW218293   1.158   6.959  11.601
 5618SOL     OW18294   1.289   7.032  12.320
 5618SOL    HW118295   1.336   7.014  12.402
 5618SOL    HW218296   1.223   6.964  12.315
 5619SOL     OW18297   1.574   6.200  11.661
 5619SOL    HW118298   1.524   6.246  11.729
 5619SOL    HW218299   1.606   6.270  11.604
 5620SOL     OW18300   0.343   7.152  12.463
 5620SOL    HW118301   0.340   7.095  12.386
 5620SOL    HW218302   0.399   7.105  12.525
 5621SOL     OW18303   0.589   6.455  12.209
 5621SOL    HW118304   0.615   6.548  12.208
 5621SOL    HW218305   0.535   6.447  12.288
 5622SOL     OW18306   1.321   6.437  12.178
 5622SOL    HW118307   1.236   6.414  12.141
 5622SOL    HW218308   1.375   6.360  12.164
 5623SOL     OW18309   1.199   6.112  11.432
 5623SOL    HW118310   1.207   6.034  11.486
 5623SOL    HW218311   1.157   6.176  11.489
 5624SOL     OW18312   0.299   5.773  12.408
 5624SOL    HW118313   0.282   5.795  12.500
 5624SOL    HW218314   0.273   5.681  12.400
 5625SOL     OW18315   0.069   6.911  12.420
 5625SOL    HW118316   0.087   6.851  12.492
 5625SOL    HW218317   0.063   6.997  12.462
 5626SOL     OW18318   0.719   6.211  12.223
 5626SOL    HW118319   0.795   6.203  12.166
 5626SOL    HW218320   0.687   6.300  12.207
 5627SOL     OW18321   0.320   5.664  11.784
 5627SOL    HW118322   0.285   5.750  11.809
 5627SOL    HW218323   0.319   5.613  11.865
 5628SOL     OW18324   1.629   5.967  11.527
 5628SOL    HW118325   1.659   5.902  11.590
 5628SOL    HW218326   1.601   6.041  11.581
 5629SOL     OW18327   1.031   6.340  12.137
 5629SOL    HW118328   1.022   6.351  12.232
 5629SOL    HW218329   1.003   6.251  12.120
 5630SOL     OW18330   1.519   5.859  11.296
 5630SOL    HW118331   1.460   5.790  11.327
 5630SOL    HW218332   1.558   5.895  11.376
 5631SOL     OW18333   1.286   6.409  11.198
 5631SOL    HW118334   1.328   6.323  11.203
 5631SOL    HW218335   1.319   6.447  11.116
 5632SOL     OW18336   1.147   6.894  12.036
 5632SOL    HW118337   1.112   6.840  11.966
 5632SOL    HW218338   1.168   6.978  11.994
 5633SOL     OW18339   0.321   6.393  12.109
 5633SOL    HW118340   0.416   6.406  12.109
 5633SOL    HW218341   0.309   6.304  12.143
 5634SOL     OW18342   0.320   6.120  12.179
 5634SOL    HW118343   0.285   6.032  12.170
 5634SOL    HW218344   0.402   6.119  12.129
 5635SOL     OW18345   1.173   5.805   0.152
 5635SOL    HW118346   1.141   5.873   0.213
 5635SOL    HW218347   1.197   5.853   0.073
 5636SOL     OW18348   7.980   6.887  11.374
 5636SOL    HW118349   7.889   6.903  11.400
 5636SOL    HW218350   7.992   6.793  11.386
 5637SOL     OW18351   0.121   7.353  12.140
 5637SOL    HW118352   0.109   7.269  12.096
 5637SOL    HW218353   0.202   7.388  12.103
 5638SOL     OW18354   0.509   7.169  12.083
 5638SOL    HW118355   0.586   7.182  12.139
 5638SOL    HW218356   0.540   7.109  12.015
 5639SOL     OW18357   0.974   6.373  12.409
 5639SOL    HW118358   1.011   6.445  12.461
 5639SOL    HW218359   0.879   6.379  12.425
 5640SOL     OW18360   0.082   6.184  12.301
 5640SOL    HW118361   0.173   6.170  12.276
 5640SOL    HW218362   0.066   6.120  12.371
 5641SOL     OW18363   0.816   6.155  11.540
 5641SOL    HW118364   0.828   6.081  11.480
 5641SOL    HW218365   0.741   6.203  11.504
 5642SOL     OW18366   1.646   6.189  12.324
 5642SOL    HW118367   1.643   6.137  12.404
 5642SOL    HW218368   1.739   6.193  12.301
 5643SOL     OW18369   0.729   6.021  12.422
 5643SOL    HW118370   0.660   5.958  12.403
 5643SOL    HW218371   0.713   6.093  12.361
 5644SOL     OW18372   0.864   7.238   0.054
 5644SOL    HW118373   0.864   7.194  -0.031
 5644SOL    HW218374   0.892   7.327   0.035
 5645SOL     OW18375   0.449   6.065  11.341
 5645SOL    HW118376   0.506   6.140  11.356
 5645SOL    HW218377   0.375   6.079  11.400
 5646SOL     OW18378   1.283   6.625  12.373
 5646SOL    HW118379   1.302   6.567  12.299
 5646SOL    HW218380   1.227   6.693  12.336
 5647SOL     OW18381   1.322   6.441  11.472
 5647SOL    HW118382   1.248   6.411  11.524
 5647SOL    HW218383   1.295   6.428  11.381
 5648SOL     OW18384   1.758   7.339  12.300
 5648SOL    HW118385   1.826   7.352  12.233
 5648SOL    HW218386   1.741   7.244  12.299
 5649SOL     OW18387   1.247   7.303  12.284
 5649SOL    HW118388   1.326   7.338  12.243
 5649SOL    HW218389   1.260   7.208  12.284
 5650SOL     OW18390   0.054   6.771  12.192
 5650SOL    HW118391   0.057   6.826  12.270
 5650SOL    HW218392  -0.015   6.810  12.138
 5651SOL     OW18393   1.738   5.753  11.678
 5651SOL    HW118394   1.800   5.734  11.607
 5651SOL    HW218395   1.715   5.666  11.712
 5652SOL     OW18396   1.399   7.157  11.668
 5652SOL    HW118397   1.450   7.195  11.596
 5652SOL    HW218398   1.342   7.227  11.697
 5653SOL     OW18399   1.274   6.515  11.839
 5653SOL    HW118400   1.349   6.457  11.852
 5653SOL    HW218401   1.309   6.588  11.788
 5654SOL     OW18402   0.664   7.218  11.325
 5654SOL    HW118403   0.680   7.232  11.232
 5654SOL    HW218404   0.610   7.139  11.330
 5655SOL     OW18405   1.621   7.392   0.033
 5655SOL    HW118406   1.674   7.372  -0.045
 5655SOL    HW218407   1.652   7.478   0.062
 5656SOL     OW18408   1.855   5.760  12.139
 5656SOL    HW118409   1.881   5.671  12.118
 5656SOL    HW218410   1.767   5.769  12.103
 5657SOL     OW18411   0.254   5.912  11.874
 5657SOL    HW118412   0.166   5.944  11.856
 5657SOL    HW218413   0.257   5.904  11.970
 5658SOL     OW18414   1.210   7.181  11.208
 5658SOL    HW118415   1.198   7.090  11.233
 5658SOL    HW218416   1.145   7.196  11.140
 5659SOL     OW18417   0.785   6.622  12.488
 5659SOL    HW118418   0.782   6.651  12.397
 5659SOL    HW218419   0.851   6.678  12.530
 5660SOL     OW18420   0.917   6.495  11.465
 5660SOL    HW118421   0.975   6.528  11.396
 5660SOL    HW218422   0.969   6.428  11.510
 5661SOL     OW18423   1.485   7.231  11.222
 5661SOL    HW118424   1.393   7.210  11.206
 5661SOL    HW218425   1.525   7.232  11.136
 5662SOL     OW18426   1.058   6.695  11.873
 5662SOL    HW118427   0.986   6.648  11.915
 5662SOL    HW218428   1.121   6.627  11.850
 5663SOL     OW18429   1.027   5.821  12.124
 5663SOL    HW118430   1.024   5.774  12.041
 5663SOL    HW218431   1.025   5.752  12.191
 5664SOL     OW18432   0.608   7.082  11.638
 5664SOL    HW118433   0.661   7.030  11.578
 5664SOL    HW218434   0.521   7.085  11.597
 5665SOL     OW18435   1.771   6.018   0.022
 5665SOL    HW118436   1.843   6.008   0.085
 5665SOL    HW218437   1.753   5.929  -0.008
 5666SOL     OW18438   0.248   6.924  11.437
 5666SOL    HW118439   0.152   6.924  11.432
 5666SOL    HW218440   0.268   6.963  11.522
 5667SOL     OW18441   0.073   5.955  11.135
 5667SOL    HW118442   0.048   5.869  11.168
 5667SOL    HW218443   0.027   6.017  11.191
 5668SOL     OW18444   0.099   5.833  11.532
 5668SOL    HW118445   0.060   5.812  11.448
 5668SOL    HW218446   0.179   5.780  11.535
 5669SOL     OW18447   1.177   6.915  11.291
 5669SOL    HW118448   1.084   6.892  11.288
 5669SOL    HW218449   1.199   6.915  11.385
 5670SOL     OW18450   1.486   7.373  12.163
 5670SOL    HW118451   1.506   7.447  12.106
 5670SOL    HW218452   1.570   7.352  12.205
 5671SOL     OW18453   1.684   6.459  12.402
 5671SOL    HW118454   1.656   6.376  12.364
 5671SOL    HW218455   1.657   6.525  12.338
 5672SOL     OW18456   1.217   5.906  11.628
 5672SOL    HW118457   1.277   5.832  11.623
 5672SOL    HW218458   1.247   5.957  11.704
 5673SOL     OW18459   0.591   6.317  11.857
 5673SOL    HW118460   0.633   6.402  11.843
 5673SOL    HW218461   0.529   6.308  11.784
 5674SOL     OW18462   1.825   6.474   0.129
 5674SOL    HW118463   1.800   6.556   0.170
 5674SOL    HW218464   1.769   6.467   0.052
 5675SOL     OW18465   0.877   6.948  11.225
 5675SOL    HW118466   0.834   6.973  11.307
 5675SOL    HW218467   0.884   7.030  11.175
 5676SOL     OW18468   0.682   7.435  12.176
 5676SOL    HW118469   0.658   7.492  12.103
 5676SOL    HW218470   0.752   7.380  12.141
 5677SOL     OW18471   0.872   6.558  12.027
 5677SOL    HW118472   0.921   6.485  12.066
 5677SOL    HW218473   0.832   6.602  12.102
 5678SOL     OW18474   1.074   6.569  11.260
 5678SOL    HW118475   1.053   6.623  11.184
 5678SOL    HW218476   1.149   6.517  11.233
 5679SOL     OW18477   1.846   7.137  12.007
 5679SOL    HW118478   1.758   7.125  11.971
 5679SOL    HW218479   1.857   7.063  12.067
 5680SOL     OW18480   0.138   6.851  11.829
 5680SOL    HW118481   0.060   6.808  11.864
 5680SOL    HW218482   0.195   6.779  11.800
 5681SOL     OW18483   1.806   5.761  12.412
 5681SOL    HW118484   1.831   5.670  12.422
 5681SOL    HW218485   1.816   5.779  12.319
 5682SOL     OW18486   0.439   6.016  11.692
 5682SOL    HW118487   0.471   5.941  11.642
 5682SOL    HW218488   0.382   5.978  11.759
 5683SOL     OW18489   1.702   7.078  12.280
 5683SOL    HW118490   1.626   7.042  12.233
 5683SOL    HW218491   1.721   7.014  12.348
 5684SOL     OW18492   0.821   7.149  11.852
 5684SOL    HW118493   0.776   7.191  11.778
 5684SOL    HW218494   0.760   7.082  11.882
 5685SOL     OW18495   1.439   5.823  12.289
 5685SOL    HW118496   1.493   5.770  12.347
 5685SOL    HW218497   1.375   5.864  12.347
 5686SOL     OW18498   1.007   5.574  12.295
 5686SOL    HW118499   0.970   5.521  12.225
 5686SOL    HW218500   1.096   5.543  12.304
 5687SOL     OW18501   0.778   6.919  11.495
 5687SOL    HW118502   0.754   6.827  11.505
 5687SOL    HW218503   0.858   6.928  11.546
 5688SOL     OW18504   1.363   5.632  11.350
 5688SOL    HW118505   1.400   5.562  11.297
 5688SOL    HW218506   1.273   5.605  11.366
 5689SOL     OW18507   1.299   6.052  11.847
 5689SOL    HW118508   1.246   6.132  11.848
 5689SOL    HW218509   1.293   6.017  11.936
 5690SOL     OW18510   1.595   5.782  12.063
 5690SOL    HW118511   1.534   5.804  12.133
 5690SOL    HW218512   1.590   5.856  12.003
 5691SOL     OW18513   0.052   6.629  11.449
 5691SOL    HW118514   0.147   6.614  11.445
 5691SOL    HW218515   0.032   6.631  11.542
 5692SOL     OW18516   0.891   7.251  11.504
 5692SOL    HW118517   0.813   7.236  11.450
 5692SOL    HW218518   0.865   7.316  11.568
 5693SOL     OW18519   0.238   7.718   1.000
 5693SOL    HW118520   0.274   7.694   1.085
 5693SOL    HW218521   0.144   7.699   1.008
 5694SOL     OW18522   8.011   7.845   0.589
 5694SOL    HW118523   7.943   7.870   0.651
 5694SOL    HW218524   7.963   7.810   0.514
 5695SOL     OW18525   1.620   8.026   0.190
 5695SOL    HW118526   1.664   7.963   0.133
 5695SOL    HW218527   1.631   7.989   0.278
 5696SOL     OW18528   0.468   7.861   1.499
 5696SOL    HW118529   0.547   7.817   1.468
 5696SOL    HW218530   0.416   7.791   1.540
 5697SOL     OW18531   1.594   7.928   0.698
 5697SOL    HW118532   1.503   7.910   0.674
 5697SOL    HW218533   1.590   7.960   0.787
 5698SOL     OW18534   1.597   7.571   1.464
 5698SOL    HW118535   1.631   7.652   1.425
 5698SOL    HW218536   1.564   7.598   1.550
 5699SOL     OW18537   0.080   0.128   0.579
 5699SOL    HW118538   0.062   0.034   0.568
 5699SOL    HW218539   0.174   0.133   0.596
 5700SOL     OW18540   0.815   7.446   0.548
 5700SOL    HW118541   0.861   7.521   0.511
 5700SOL    HW218542   0.722   7.469   0.542
 5701SOL     OW18543   0.346   7.713   1.762
 5701SOL    HW118544   0.403   7.781   1.797
 5701SOL    HW218545   0.259   7.735   1.796
 5702SOL     OW18546   1.260   7.807   0.932
 5702SOL    HW118547   1.172   7.771   0.942
 5702SOL    HW218548   1.315   7.750   0.985
 5703SOL     OW18549   1.405   7.932   1.708
 5703SOL    HW118550   1.382   7.961   1.796
 5703SOL    HW218551   1.455   7.852   1.720
 5704SOL     OW18552   0.927   0.317   1.536
 5704SOL    HW118553   0.998   0.362   1.582
 5704SOL    HW218554   0.918   0.365   1.454
 5705SOL     OW18555   0.980   7.837   1.256
 5705SOL    HW118556   0.932   7.890   1.319
 5705SOL    HW218557   0.925   7.760   1.242
 5706SOL     OW18558   0.874   7.774   0.216
 5706SOL    HW118559   0.961   7.790   0.179
 5706SOL    HW218560   0.846   7.692   0.176
 5707SOL     OW18561   1.767   0.019   1.807
 5707SOL    HW118562   1.707   0.082   1.766
 5707SOL    HW218563   1.766  -0.057   1.748
 5708SOL     OW18564   0.549   7.626   0.921
 5708SOL    HW118565   0.558   7.647   1.013
 5708SOL    HW218566   0.548   7.711   0.876
 5709SOL     OW18567   0.180   7.718   1.498
 5709SOL    HW118568   0.189   7.799   1.549
 5709SOL    HW218569   0.170   7.649   1.564
 5710SOL     OW18570   1.410   7.540   0.455
 5710SOL    HW118571   1.399   7.512   0.364
 5710SOL    HW218572   1.504   7.542   0.469
 5711SOL     OW18573   1.515   7.667   1.731
 5711SOL    HW118574   1.526   7.690   1.824
 5711SOL    HW218575   1.450   7.598   1.731
 5712SOL     OW18576   0.634   7.567   0.112
 5712SOL    HW118577   0.720   7.525   0.110
 5712SOL    HW218578   0.618   7.595   0.022
 5713SOL     OW18579   0.764   7.721   1.730
 5713SOL    HW118580   0.847   7.673   1.733
 5713SOL    HW218581   0.723   7.701   1.814
 5714SOL     OW18582   1.342  -0.011   1.440
 5714SOL    HW118583   1.378  -0.029   1.527
 5714SOL    HW218584   1.291   0.069   1.451
 5715SOL     OW18585   0.555   7.512   0.509
 5715SOL    HW118586   0.475   7.528   0.561
 5715SOL    HW218587   0.560   7.587   0.450
 5716SOL     OW18588   0.305   7.519   0.206
 5716SOL    HW118589   0.365   7.565   0.147
 5716SOL    HW218590   0.355   7.445   0.240
 5717SOL     OW18591   0.949   7.661   0.458
 5717SOL    HW118592   0.917   7.708   0.381
 5717SOL    HW218593   1.041   7.686   0.465
 5718SOL     OW18594   0.146   0.039   1.368
 5718SOL    HW118595   0.196  -0.029   1.414
 5718SOL    HW218596   0.080   0.067   1.431
 5719SOL     OW18597   0.564   7.669   1.192
 5719SOL    HW118598   0.609   7.627   1.265
 5719SOL    HW218599   0.472   7.668   1.217
 5720SOL     OW18600   1.022   7.491   0.746
 5720SOL    HW118601   0.959   7.497   0.674
 5720SOL    HW218602   0.991   7.416   0.797
 5721SOL     OW18603   1.505   7.945   0.955
 5721SOL    HW118604   1.413   7.922   0.969
 5721SOL    HW218605   1.534   7.979   1.040
 5722SOL     OW18606   0.563   7.712   0.327
 5722SOL    HW118607   0.582   7.657   0.252
 5722SOL    HW218608   0.604   7.796   0.307
 5723SOL     OW18609   0.926   7.540   1.383
 5723SOL    HW118610   0.956   7.513   1.297
 5723SOL    HW218611   1.005   7.574   1.426
 5724SOL     OW18612   1.255   7.805   1.269
 5724SOL    HW118613   1.288   7.874   1.326
 5724SOL    HW218614   1.161   7.822   1.263
 5725SOL     OW18615   0.558   7.937   0.865
 5725SOL    HW118616   0.543   7.989   0.786
 5725SOL    HW218617   0.634   7.979   0.907
 5726SOL     OW18618   0.999   7.582   1.732
 5726SOL    HW118619   1.060   7.656   1.729
 5726SOL    HW218620   1.055   7.505   1.717
 5727SOL     OW18621   0.499   7.478   1.734
 5727SOL    HW118622   0.452   7.423   1.671
 5727SOL    HW218623   0.443   7.554   1.746
 5728SOL     OW18624   0.300   7.648   1.258
 5728SOL    HW118625   0.262   7.676   1.342
 5728SOL    HW218626   0.288   7.553   1.258
 5729SOL     OW18627   0.768   0.059   0.996
 5729SOL    HW118628   0.841   0.049   0.936
 5729SOL    HW218629   0.790   0.136   1.049
 5730SOL     OW18630   0.315   7.545   0.641
 5730SOL    HW118631   0.292   7.635   0.660
 5730SOL    HW218632   0.319   7.503   0.727
 5731SOL     OW18633   1.602   7.815   0.384
 5731SOL    HW118634   1.652   7.742   0.420
 5731SOL    HW218635   1.558   7.854   0.459
 5732SOL     OW18636   1.494   7.689   0.104
 5732SOL    HW118637   1.448   7.620   0.152
 5732SOL    HW218638   1.529   7.747   0.172
 5733SOL     OW18639   0.319   7.977   1.001
 5733SOL    HW118640   0.295   7.884   1.003
 5733SOL    HW218641   0.408   7.978   0.965
 5734SOL     OW18642   1.154   7.812   1.679
 5734SOL    HW118643   1.098   7.885   1.705
 5734SOL    HW218644   1.243   7.847   1.682
 5735SOL     OW18645   1.169   7.634   1.470
 5735SOL    HW118646   1.159   7.695   1.543
 5735SOL    HW218647   1.213   7.684   1.402
 5736SOL     OW18648   0.068   0.004   1.106
 5736SOL    HW118649   0.158   0.009   1.073
 5736SOL    HW218650   0.077   0.009   1.201
 5737SOL     OW18651   0.202   7.957   1.628
 5737SOL    HW118652   0.279   7.962   1.685
 5737SOL    HW218653   0.130   7.990   1.683
 5738SOL     OW18654   0.798   8.025   0.284
 5738SOL    HW118655   0.826   7.934   0.276
 5738SOL    HW218656   0.741   8.026   0.361
 5739SOL     OW18657   1.628   8.021   1.193
 5739SOL    HW118658   1.613   7.999   1.285
 5739SOL    HW218659   1.704   7.969   1.167
 5740SOL     OW18660   0.622   7.941   1.199
 5740SOL    HW118661   0.604   7.847   1.196
 5740SOL    HW218662   0.686   7.955   1.129
 5741SOL     OW18663   0.911   7.520   0.093
 5741SOL    HW118664   0.952   7.539   0.009
 5741SOL    HW218665   0.984   7.506   0.153
 5742SOL     OW18666   1.733   7.603   0.506
 5742SOL    HW118667   1.802   7.583   0.443
 5742SOL    HW218668   1.712   7.518   0.546
 5743SOL     OW18669   1.844   7.615   0.961
 5743SOL    HW118670   1.870   7.526   0.935
 5743SOL    HW218671   1.757   7.627   0.923
 5744SOL     OW18672   0.251   7.795   0.719
 5744SOL    HW118673   0.163   7.814   0.687
 5744SOL    HW218674   0.240   7.780   0.813
 5745SOL     OW18675   1.028   7.671   0.956
 5745SOL    HW118676   1.026   7.619   0.876
 5745SOL    HW218677   1.019   7.607   1.027
 5746SOL     OW18678   1.741   7.813   1.389
 5746SOL    HW118679   1.806   7.884   1.387
 5746SOL    HW218680   1.774   7.748   1.327
 5747SOL     OW18681   0.685   7.637   1.476
 5747SOL    HW118682   0.773   7.609   1.449
 5747SOL    HW218683   0.697   7.667   1.566
 5748SOL     OW18684   0.118   7.774  12.521
 5748SOL    HW118685   0.069   7.739  12.447
 5748SOL    HW218686   0.110   7.869  12.512
 5749SOL     OW18687   0.089   7.614   0.372
 5749SOL    HW118688   0.036   7.675   0.319
 5749SOL    HW218689   0.170   7.604   0.322
 5750SOL     OW18690   0.780   8.004   1.698
 5750SOL    HW118691   0.707   8.025   1.756
 5750SOL    HW218692   0.784   7.908   1.698
 5751SOL     OW18693   1.219   7.738   0.455
 5751SOL    HW118694   1.285   7.669   0.457
 5751SOL    HW218695   1.248   7.802   0.521
 5752SOL     OW18696   0.619   0.251   0.714
 5752SOL    HW118697   0.677   0.324   0.692
 5752SOL    HW218698   0.608   0.203   0.632
 5753SOL     OW18699   1.752   7.791   1.661
 5753SOL    HW118700   1.743   7.805   1.566
 5753SOL    HW218701   1.674   7.741   1.685
 5754SOL     OW18702   1.819   7.608   1.232
 5754SOL    HW118703   1.819   7.512   1.234
 5754SOL    HW218704   1.828   7.630   1.139
 5755SOL     OW18705   0.356   7.862   0.438
 5755SOL    HW118706   0.417   7.791   0.416
 5755SOL    HW218707   0.329   7.843   0.528
 5756SOL     OW18708   1.424   7.669   1.111
 5756SOL    HW118709   1.452   7.592   1.161
 5756SOL    HW218710   1.370   7.719   1.172
 5757SOL     OW18711   1.009   7.452   1.134
 5757SOL    HW118712   0.955   7.380   1.100
 5757SOL    HW218713   1.099   7.417   1.131
 5758SOL     OW18714   1.351   7.475   0.197
 5758SOL    HW118715   1.369   7.434   0.112
 5758SOL    HW218716   1.262   7.449   0.219
 5759SOL     OW18717   1.321   7.890   0.673
 5759SOL    HW118718   1.288   7.979   0.668
 5759SOL    HW218719   1.298   7.860   0.761
 5760SOL     OW18720   1.582   7.648   0.886
 5760SOL    HW118721   1.531   7.667   0.965
 5760SOL    HW218722   1.574   7.727   0.832
 5761SOL     OW18723   0.242   7.718   2.858
 5761SOL    HW118724   0.278   7.701   2.945
 5761SOL    HW218725   0.157   7.676   2.858
 5762SOL     OW18726   7.970   7.830   2.427
 5762SOL    HW118727   7.894   7.804   2.480
 5762SOL    HW218728   8.045   7.788   2.469
 5763SOL     OW18729   1.635   0.031   2.052
 5763SOL    HW118730   1.695   0.020   1.978
 5763SOL    HW218731   1.690   0.017   2.129
 5764SOL     OW18732   0.474   7.848   3.376
 5764SOL    HW118733   0.550   7.797   3.349
 5764SOL    HW218734   0.399   7.791   3.356
 5765SOL     OW18735   1.592   7.933   2.557
 5765SOL    HW118736   1.501   7.916   2.534
 5765SOL    HW218737   1.589   7.965   2.647
 5766SOL     OW18738   1.584   7.590   3.321
 5766SOL    HW118739   1.625   7.667   3.282
 5766SOL    HW218740   1.555   7.619   3.408
 5767SOL     OW18741   0.072   0.098   2.426
 5767SOL    HW118742   0.039   0.009   2.418
 5767SOL    HW218743   0.160   0.088   2.460
 5768SOL     OW18744   0.825   7.443   2.373
 5768SOL    HW118745   0.860   7.526   2.341
 5768SOL    HW218746   0.731   7.459   2.383
 5769SOL     OW18747   0.364   7.713   3.675
 5769SOL    HW118748   0.414   7.793   3.661
 5769SOL    HW218749   0.276   7.743   3.697
 5770SOL     OW18750   1.261   7.799   2.795
 5770SOL    HW118751   1.174   7.762   2.804
 5770SOL    HW218752   1.317   7.744   2.850
 5771SOL     OW18753   1.405   7.941   3.565
 5771SOL    HW118754   1.384   7.960   3.656
 5771SOL    HW218755   1.456   7.860   3.568
 5772SOL     OW18756   0.923   0.390   3.386
 5772SOL    HW118757   0.988   0.326   3.356
 5772SOL    HW218758   0.840   0.360   3.348
 5773SOL     OW18759   0.983   7.822   3.108
 5773SOL    HW118760   0.899   7.848   3.145
 5773SOL    HW218761   0.963   7.744   3.056
 5774SOL     OW18762   0.893   7.791   2.044
 5774SOL    HW118763   0.981   7.785   2.005
 5774SOL    HW218764   0.897   7.734   2.121
 5775SOL     OW18765   1.744   0.020   3.681
 5775SOL    HW118766   1.694   0.083   3.630
 5775SOL    HW218767   1.760  -0.052   3.620
 5776SOL     OW18768   0.550   7.629   2.763
 5776SOL    HW118769   0.554   7.648   2.857
 5776SOL    HW218770   0.550   7.715   2.722
 5777SOL     OW18771   0.184   7.706   3.359
 5777SOL    HW118772   0.184   7.773   3.428
 5777SOL    HW218773   0.168   7.624   3.405
 5778SOL     OW18774   1.396   7.549   2.306
 5778SOL    HW118775   1.394   7.525   2.214
 5778SOL    HW218776   1.489   7.546   2.329
 5779SOL     OW18777   1.513   7.676   3.593
 5779SOL    HW118778   1.519   7.696   3.686
 5779SOL    HW218779   1.455   7.600   3.588
 5780SOL     OW18780   0.639   7.587   1.944
 5780SOL    HW118781   0.690   7.518   1.987
 5780SOL    HW218782   0.586   7.541   1.879
 5781SOL     OW18783   0.764   7.715   3.614
 5781SOL    HW118784   0.848   7.668   3.612
 5781SOL    HW218785   0.719   7.680   3.690
 5782SOL     OW18786   1.329   0.006   3.297
 5782SOL    HW118787   1.373  -0.010   3.381
 5782SOL    HW218788   1.270   0.080   3.315
 5783SOL     OW18789   0.553   7.491   2.369
 5783SOL    HW118790   0.472   7.506   2.418
 5783SOL    HW218791   0.568   7.573   2.322
 5784SOL     OW18792   0.300   7.487   2.022
 5784SOL    HW118793   0.321   7.575   2.053
 5784SOL    HW218794   0.352   7.429   2.078
 5785SOL     OW18795   0.941   7.687   2.301
 5785SOL    HW118796   0.899   7.763   2.341
 5785SOL    HW218797   1.035   7.702   2.310
 5786SOL     OW18798   0.102   0.021   3.243
 5786SOL    HW118799   0.154  -0.028   3.307
 5786SOL    HW218800   0.100   0.110   3.276
 5787SOL     OW18801   0.560   7.661   3.037
 5787SOL    HW118802   0.601   7.588   3.084
 5787SOL    HW218803   0.470   7.663   3.072
 5788SOL     OW18804   1.024   7.491   2.593
 5788SOL    HW118805   0.962   7.484   2.521
 5788SOL    HW218806   1.000   7.421   2.654
 5789SOL     OW18807   1.504   7.944   2.817
 5789SOL    HW118808   1.414   7.917   2.831
 5789SOL    HW218809   1.533   7.977   2.902
 5790SOL     OW18810   0.607   7.696   2.202
 5790SOL    HW118811   0.621   7.684   2.108
 5790SOL    HW218812   0.526   7.746   2.208
 5791SOL     OW18813   0.918   7.542   3.255
 5791SOL    HW118814   0.942   7.515   3.167
 5791SOL    HW218815   0.999   7.577   3.292
 5792SOL     OW18816   1.256   7.804   3.137
 5792SOL    HW118817   1.287   7.878   3.189
 5792SOL    HW218818   1.162   7.818   3.128
 5793SOL     OW18819   0.560   7.927   2.705
 5793SOL    HW118820   0.575   7.999   2.644
 5793SOL    HW218821   0.614   7.948   2.781
 5794SOL     OW18822   1.006   7.595   3.621
 5794SOL    HW118823   1.066   7.666   3.597
 5794SOL    HW218824   1.053   7.515   3.596
 5795SOL     OW18825   0.500   7.480   3.616
 5795SOL    HW118826   0.458   7.430   3.546
 5795SOL    HW218827   0.447   7.559   3.624
 5796SOL     OW18828   0.299   7.644   3.121
 5796SOL    HW118829   0.260   7.673   3.203
 5796SOL    HW218830   0.284   7.549   3.120
 5797SOL     OW18831   0.738   0.046   2.884
 5797SOL    HW118832   0.806   0.081   2.827
 5797SOL    HW218833   0.693   0.124   2.918
 5798SOL     OW18834   0.297   7.500   2.487
 5798SOL    HW118835   0.259   7.587   2.501
 5798SOL    HW218836   0.311   7.466   2.575
 5799SOL     OW18837   1.606   7.798   2.246
 5799SOL    HW118838   1.653   7.730   2.294
 5799SOL    HW218839   1.581   7.862   2.313
 5800SOL     OW18840   1.510   7.732   1.993
 5800SOL    HW118841   1.456   7.657   2.018
 5800SOL    HW218842   1.550   7.761   2.076
 5801SOL     OW18843   1.267   0.240   1.860
 5801SOL    HW118844   1.294   0.163   1.910
 5801SOL    HW218845   1.303   0.315   1.909
 5802SOL     OW18846   0.316   7.988   2.894
 5802SOL    HW118847   0.319   7.896   2.865
 5802SOL    HW218848   0.389   8.030   2.848
 5803SOL     OW18849   1.150   7.826   3.540
 5803SOL    HW118850   1.097   7.903   3.562
 5803SOL    HW218851   1.240   7.859   3.541
 5804SOL     OW18852   1.162   7.637   3.339
 5804SOL    HW118853   1.153   7.705   3.406
 5804SOL    HW218854   1.209   7.680   3.267
 5805SOL     OW18855   0.061   0.002   2.974
 5805SOL    HW118856   0.152  -0.000   2.946
 5805SOL    HW218857   0.065   0.004   3.069
 5806SOL     OW18858   0.194   7.952   3.493
 5806SOL    HW118859   0.262   7.960   3.561
 5806SOL    HW218860   0.122   8.006   3.526
 5807SOL     OW18861   0.775   8.027   2.106
 5807SOL    HW118862   0.817   7.943   2.085
 5807SOL    HW218863   0.738   8.014   2.193
 5808SOL     OW18864   1.629   8.022   3.055
 5808SOL    HW118865   1.616   7.998   3.147
 5808SOL    HW218866   1.703   7.968   3.027
 5809SOL     OW18867   0.715   7.883   3.103
 5809SOL    HW118868   0.654   7.813   3.082
 5809SOL    HW218869   0.716   7.939   3.025
 5810SOL     OW18870   1.741   7.601   2.378
 5810SOL    HW118871   1.809   7.582   2.314
 5810SOL    HW218872   1.715   7.515   2.412
 5811SOL     OW18873   1.847   7.617   2.819
 5811SOL    HW118874   1.869   7.526   2.800
 5811SOL    HW218875   1.758   7.628   2.785
 5812SOL     OW18876   0.206   7.749   2.572
 5812SOL    HW118877   0.259   7.821   2.539
 5812SOL    HW218878   0.228   7.744   2.665
 5813SOL     OW18879   1.028   7.660   2.821
 5813SOL    HW118880   1.025   7.614   2.737
 5813SOL    HW218881   1.016   7.592   2.887
 5814SOL     OW18882   1.742   7.818   3.253
 5814SOL    HW118883   1.808   7.887   3.250
 5814SOL    HW218884   1.774   7.751   3.193
 5815SOL     OW18885   0.680   7.642   3.356
 5815SOL    HW118886   0.764   7.619   3.318
 5815SOL    HW218887   0.700   7.668   3.446
 5816SOL     OW18888   0.089   7.802   1.851
 5816SOL    HW118889   0.055   7.729   1.902
 5816SOL    HW218890   0.076   7.879   1.907
 5817SOL     OW18891   0.093   7.640   2.222
 5817SOL    HW118892   0.041   7.718   2.243
 5817SOL    HW218893   0.184   7.669   2.231
 5818SOL     OW18894   0.800   7.988   3.581
 5818SOL    HW118895   0.712   8.025   3.574
 5818SOL    HW218896   0.786   7.894   3.584
 5819SOL     OW18897   1.207   7.752   2.329
 5819SOL    HW118898   1.271   7.681   2.319
 5819SOL    HW218899   1.244   7.808   2.397
 5820SOL     OW18900   0.622   0.237   2.545
 5820SOL    HW118901   0.647   0.327   2.523
 5820SOL    HW218902   0.599   0.198   2.460
 5821SOL     OW18903   1.757   7.792   3.527
 5821SOL    HW118904   1.751   7.807   3.432
 5821SOL    HW218905   1.679   7.742   3.549
 5822SOL     OW18906   1.817   7.617   3.092
 5822SOL    HW118907   1.812   7.522   3.099
 5822SOL    HW218908   1.829   7.634   2.998
 5823SOL     OW18909   1.423   7.665   2.974
 5823SOL    HW118910   1.435   7.578   3.013
 5823SOL    HW218911   1.373   7.714   3.040
 5824SOL     OW18912   1.000   7.454   3.008
 5824SOL    HW118913   0.943   7.379   2.991
 5824SOL    HW218914   1.088   7.419   2.996
 5825SOL     OW18915   1.371   7.495   2.032
 5825SOL    HW118916   1.411   7.416   1.996
 5825SOL    HW218917   1.280   7.470   2.049
 5826SOL     OW18918   1.316   7.898   2.542
 5826SOL    HW118919   1.275   7.984   2.547
 5826SOL    HW218920   1.299   7.858   2.627
 5827SOL     OW18921   1.584   7.651   2.753
 5827SOL    HW118922   1.532   7.661   2.832
 5827SOL    HW218923   1.571   7.733   2.704
 5828SOL     OW18924   0.239   7.712   4.715
 5828SOL    HW118925   0.267   7.684   4.803
 5828SOL    HW218926   0.149   7.681   4.708
 5829SOL     OW18927   8.012   7.821   4.322
 5829SOL    HW118928   7.925   7.795   4.353
 5829SOL    HW218929   8.028   7.765   4.246
 5830SOL     OW18930   1.637   0.035   3.933
 5830SOL    HW118931   1.688   0.027   3.852
 5830SOL    HW218932   1.665  -0.040   3.986
 5831SOL     OW18933   0.432   7.847   5.178
 5831SOL    HW118934   0.520   7.814   5.195
 5831SOL    HW218935   0.374   7.776   5.203
 5832SOL     OW18936   1.592   7.927   4.414
 5832SOL    HW118937   1.499   7.916   4.392
 5832SOL    HW218938   1.592   7.960   4.504
 5833SOL     OW18939   1.584   7.584   5.183
 5833SOL    HW118940   1.631   7.657   5.141
 5833SOL    HW218941   1.563   7.616   5.271
 5834SOL     OW18942   0.051   0.093   4.348
 5834SOL    HW118943   0.052   0.001   4.322
 5834SOL    HW218944   0.138   0.125   4.325
 5835SOL     OW18945   0.816   7.433   4.233
 5835SOL    HW118946   0.861   7.515   4.212
 5835SOL    HW218947   0.723   7.458   4.238
 5836SOL     OW18948   0.368   7.711   5.540
 5836SOL    HW118949   0.401   7.799   5.519
 5836SOL    HW218950   0.278   7.726   5.569
 5837SOL     OW18951   1.260   7.801   4.660
 5837SOL    HW118952   1.173   7.761   4.671
 5837SOL    HW218953   1.318   7.745   4.713
 5838SOL     OW18954   1.395   7.926   5.429
 5838SOL    HW118955   1.396   7.964   5.517
 5838SOL    HW218956   1.457   7.853   5.434
 5839SOL     OW18957   0.905   0.348   5.302
 5839SOL    HW118958   0.990   0.386   5.323
 5839SOL    HW218959   0.899   0.355   5.207
 5840SOL     OW18960   0.987   7.794   4.978
 5840SOL    HW118961   0.924   7.850   5.025
 5840SOL    HW218962   0.945   7.777   4.894
 5841SOL     OW18963   0.906   7.780   3.916
 5841SOL    HW118964   0.926   7.810   3.827
 5841SOL    HW218965   0.932   7.687   3.916
 5842SOL     OW18966   1.740   0.014   5.535
 5842SOL    HW118967   1.695   0.080   5.483
 5842SOL    HW218968   1.763  -0.055   5.473
 5843SOL     OW18969   0.553   7.625   4.622
 5843SOL    HW118970   0.550   7.647   4.715
 5843SOL    HW218971   0.550   7.709   4.577
 5844SOL     OW18972   0.187   7.692   5.221
 5844SOL    HW118973   0.176   7.765   5.282
 5844SOL    HW218974   0.162   7.615   5.271
 5845SOL     OW18975   1.400   7.546   4.169
 5845SOL    HW118976   1.394   7.522   4.076
 5845SOL    HW218977   1.494   7.544   4.187
 5846SOL     OW18978   1.528   7.672   5.456
 5846SOL    HW118979   1.533   7.700   5.548
 5846SOL    HW218980   1.479   7.590   5.459
 5847SOL     OW18981   0.651   7.564   3.826
 5847SOL    HW118982   0.700   7.488   3.855
 5847SOL    HW218983   0.594   7.531   3.756
 5848SOL     OW18984   0.767   7.714   5.476
 5848SOL    HW118985   0.849   7.664   5.474
 5848SOL    HW218986   0.750   7.729   5.569
 5849SOL     OW18987   1.322  -0.006   5.161
 5849SOL    HW118988   1.370  -0.020   5.242
 5849SOL    HW218989   1.271   0.073   5.176
 5850SOL     OW18990   0.552   7.508   4.218
 5850SOL    HW118991   0.472   7.514   4.270
 5850SOL    HW218992   0.553   7.589   4.168
 5851SOL     OW18993   0.274   7.495   3.883
 5851SOL    HW118994   0.332   7.564   3.850
 5851SOL    HW218995   0.330   7.441   3.939
 5852SOL     OW18996   0.951   7.665   4.187
 5852SOL    HW118997   0.912   7.736   4.135
 5852SOL    HW218998   1.043   7.689   4.195
 5853SOL     OW18999   0.118   0.018   5.104
 5853SOL    HW119000   0.175  -0.039   5.156
 5853SOL    HW219001   0.115   0.100   5.153
 5854SOL     OW19002   0.546   7.666   4.894
 5854SOL    HW119003   0.585   7.596   4.946
 5854SOL    HW219004   0.456   7.672   4.924
 5855SOL     OW19005   1.030   7.504   4.462
 5855SOL    HW119006   0.974   7.514   4.385
 5855SOL    HW219007   0.998   7.424   4.504
 5856SOL     OW19008   1.506   7.943   4.676
 5856SOL    HW119009   1.414   7.921   4.692
 5856SOL    HW219010   1.539   7.972   4.761
 5857SOL     OW19011   0.561   7.723   4.048
 5857SOL    HW119012   0.595   7.682   3.968
 5857SOL    HW219013   0.596   7.812   4.046
 5858SOL     OW19014   0.934   7.554   5.112
 5858SOL    HW119015   0.947   7.619   5.043
 5858SOL    HW219016   1.003   7.571   5.175
 5859SOL     OW19017   1.257   7.785   5.008
 5859SOL    HW119018   1.286   7.863   5.055
 5859SOL    HW219019   1.163   7.796   4.997
 5860SOL     OW19020   0.555   7.926   4.592
 5860SOL    HW119021   0.537   7.992   4.524
 5860SOL    HW219022   0.628   7.963   4.642
 5861SOL     OW19023   1.000   7.581   5.473
 5861SOL    HW119024   1.062   7.653   5.465
 5861SOL    HW219025   1.048   7.505   5.440
 5862SOL     OW19026   0.498   7.478   5.480
 5862SOL    HW119027   0.453   7.436   5.407
 5862SOL    HW219028   0.451   7.561   5.493
 5863SOL     OW19029   0.287   7.627   4.974
 5863SOL    HW119030   0.254   7.659   5.058
 5863SOL    HW219031   0.273   7.532   4.978
 5864SOL     OW19032   0.754   0.060   4.741
 5864SOL    HW119033   0.802   0.091   4.664
 5864SOL    HW219034   0.694   0.131   4.763
 5865SOL     OW19035   0.306   7.520   4.347
 5865SOL    HW119036   0.285   7.610   4.369
 5865SOL    HW219037   0.315   7.476   4.431
 5866SOL     OW19038   1.611   7.803   4.106
 5866SOL    HW119039   1.661   7.732   4.147
 5866SOL    HW219040   1.581   7.856   4.179
 5867SOL     OW19041   1.493   7.738   3.861
 5867SOL    HW119042   1.444   7.658   3.880
 5867SOL    HW219043   1.541   7.757   3.942
 5868SOL     OW19044   1.324   0.252   3.783
 5868SOL    HW119045   1.300   0.161   3.800
 5868SOL    HW219046   1.253   0.286   3.728
 5869SOL     OW19047   0.326   7.968   4.756
 5869SOL    HW119048   0.303   7.876   4.741
 5869SOL    HW219049   0.408   7.981   4.708
 5870SOL     OW19050   1.141   7.823   5.417
 5870SOL    HW119051   1.087   7.900   5.434
 5870SOL    HW219052   1.231   7.855   5.420
 5871SOL     OW19053   1.175   7.629   5.225
 5871SOL    HW119054   1.164   7.701   5.287
 5871SOL    HW219055   1.221   7.668   5.150
 5872SOL     OW19056   0.069   0.004   4.834
 5872SOL    HW119057   0.161  -0.003   4.808
 5872SOL    HW219058   0.071   0.004   4.930
 5873SOL     OW19059   0.167   7.921   5.369
 5873SOL    HW119060   0.255   7.947   5.397
 5873SOL    HW219061   0.113   7.998   5.385
 5874SOL     OW19062   0.777   8.015   3.971
 5874SOL    HW119063   0.830   7.936   3.962
 5874SOL    HW219064   0.772   8.030   4.065
 5875SOL     OW19065   1.620   8.016   4.914
 5875SOL    HW119066   1.613   8.013   5.009
 5875SOL    HW219067   1.702   7.969   4.895
 5876SOL     OW19068   0.725   7.872   4.946
 5876SOL    HW119069   0.650   7.815   4.929
 5876SOL    HW219070   0.718   7.942   4.882
 5877SOL     OW19071   1.743   7.601   4.235
 5877SOL    HW119072   1.812   7.584   4.171
 5877SOL    HW219073   1.721   7.515   4.270
 5878SOL     OW19074   1.841   7.616   4.683
 5878SOL    HW119075   1.868   7.527   4.660
 5878SOL    HW219076   1.754   7.625   4.645
 5879SOL     OW19077   0.260   7.782   4.444
 5879SOL    HW119078   0.168   7.797   4.424
 5879SOL    HW219079   0.261   7.760   4.538
 5880SOL     OW19080   1.025   7.664   4.693
 5880SOL    HW119081   1.024   7.622   4.607
 5880SOL    HW219082   1.018   7.591   4.755
 5881SOL     OW19083   1.743   7.819   5.118
 5881SOL    HW119084   1.809   7.889   5.115
 5881SOL    HW219085   1.774   7.755   5.054
 5882SOL     OW19086   0.670   7.637   5.226
 5882SOL    HW119087   0.750   7.664   5.181
 5882SOL    HW219088   0.684   7.662   5.317
 5883SOL     OW19089   0.117   7.806   3.742
 5883SOL    HW119090   0.060   7.738   3.778
 5883SOL    HW219091   0.077   7.888   3.771
 5884SOL     OW19092   0.082   7.669   4.108
 5884SOL    HW119093   0.071   7.665   4.013
 5884SOL    HW219094   0.171   7.702   4.121
 5885SOL     OW19095   0.678   7.987   5.456
 5885SOL    HW119096   0.740   8.060   5.462
 5885SOL    HW219097   0.733   7.909   5.446
 5886SOL     OW19098   1.213   7.748   4.197
 5886SOL    HW119099   1.279   7.679   4.186
 5886SOL    HW219100   1.250   7.805   4.264
 5887SOL     OW19101   0.652   0.220   4.357
 5887SOL    HW119102   0.630   0.308   4.328
 5887SOL    HW219103   0.575   0.191   4.407
 5888SOL     OW19104   1.770   7.786   5.387
 5888SOL    HW119105   1.762   7.799   5.293
 5888SOL    HW219106   1.691   7.738   5.412
 5889SOL     OW19107   1.807   7.619   4.953
 5889SOL    HW119108   1.825   7.526   4.965
 5889SOL    HW219109   1.820   7.634   4.859
 5890SOL     OW19110   0.315   7.800   4.165
 5890SOL    HW119111   0.406   7.788   4.137
 5890SOL    HW219112   0.320   7.813   4.260
 5891SOL     OW19113   1.429   7.667   4.838
 5891SOL    HW119114   1.477   7.602   4.890
 5891SOL    HW219115   1.373   7.711   4.902
 5892SOL     OW19116   1.000   7.417   4.846
 5892SOL    HW119117   0.965   7.377   4.767
 5892SOL    HW219118   1.093   7.392   4.846
 5893SOL     OW19119   1.367   7.494   3.897
 5893SOL    HW119120   1.406   7.419   3.850
 5893SOL    HW219121   1.277   7.467   3.914
 5894SOL     OW19122   1.315   7.901   4.406
 5894SOL    HW119123   1.272   7.987   4.409
 5894SOL    HW219124   1.298   7.863   4.492
 5895SOL     OW19125   1.579   7.647   4.609
 5895SOL    HW119126   1.529   7.664   4.689
 5895SOL    HW219127   1.571   7.727   4.558
 5896SOL     OW19128   0.244   7.711   6.569
 5896SOL    HW119129   0.268   7.684   6.658
 5896SOL    HW219130   0.163   7.663   6.551
 5897SOL     OW19131   7.999   7.818   6.187
 5897SOL    HW119132   7.913   7.784   6.213
 5897SOL    HW219133   8.020   7.769   6.107
 5898SOL     OW19134   1.664   0.026   5.793
 5898SOL    HW119135   1.691   0.008   5.703
 5898SOL    HW219136   1.743   0.060   5.835
 5899SOL     OW19137   0.437   7.844   7.061
 5899SOL    HW119138   0.532   7.841   7.054
 5899SOL    HW219139   0.409   7.753   7.062
 5900SOL     OW19140   1.601   7.906   6.292
 5900SOL    HW119141   1.515   7.899   6.249
 5900SOL    HW219142   1.582   7.948   6.376
 5901SOL     OW19143   1.594   7.577   7.052
 5901SOL    HW119144   1.632   7.654   7.011
 5901SOL    HW219145   1.562   7.608   7.137
 5902SOL     OW19146   0.070   0.083   6.208
 5902SOL    HW119147   0.050  -0.006   6.181
 5902SOL    HW219148   0.165   0.090   6.200
 5903SOL     OW19149   0.826   7.443   6.099
 5903SOL    HW119150   0.863   7.525   6.067
 5903SOL    HW219151   0.732   7.460   6.105
 5904SOL     OW19152   0.351   7.724   7.387
 5904SOL    HW119153   0.395   7.807   7.370
 5904SOL    HW219154   0.261   7.749   7.408
 5905SOL     OW19155   1.252   7.804   6.521
 5905SOL    HW119156   1.165   7.765   6.532
 5905SOL    HW219157   1.310   7.748   6.573
 5906SOL     OW19158   1.397   7.934   7.294
 5906SOL    HW119159   1.406   7.965   7.384
 5906SOL    HW219160   1.457   7.859   7.288
 5907SOL     OW19161   0.892   0.367   7.168
 5907SOL    HW119162   0.983   0.391   7.185
 5907SOL    HW219163   0.890   0.349   7.074
 5908SOL     OW19164   0.976   7.826   6.827
 5908SOL    HW119165   0.892   7.852   6.866
 5908SOL    HW219166   0.953   7.757   6.765
 5909SOL     OW19167   0.879   7.780   5.758
 5909SOL    HW119168   0.964   7.793   5.715
 5909SOL    HW219169   0.900   7.731   5.837
 5910SOL     OW19170   1.720   0.015   7.394
 5910SOL    HW119171   1.752   0.094   7.351
 5910SOL    HW219172   1.750  -0.056   7.338
 5911SOL     OW19173   0.555   7.628   6.486
 5911SOL    HW119174   0.556   7.648   6.580
 5911SOL    HW219175   0.551   7.714   6.443
 5912SOL     OW19176   0.161   7.684   7.078
 5912SOL    HW119177   0.185   7.747   7.145
 5912SOL    HW219178   0.154   7.600   7.124
 5913SOL     OW19179   1.394   7.546   6.031
 5913SOL    HW119180   1.394   7.525   5.938
 5913SOL    HW219181   1.479   7.586   6.047
 5914SOL     OW19182   1.517   7.671   7.315
 5914SOL    HW119183   1.520   7.696   7.408
 5914SOL    HW219184   1.450   7.603   7.310
 5915SOL     OW19185   0.629   7.557   5.710
 5915SOL    HW119186   0.718   7.523   5.703
 5915SOL    HW219187   0.586   7.530   5.629
 5916SOL     OW19188   0.775   7.711   7.339
 5916SOL    HW119189   0.858   7.663   7.336
 5916SOL    HW219190   0.729   7.674   7.415
 5917SOL     OW19191   1.353  -0.007   7.018
 5917SOL    HW119192   1.359  -0.023   7.112
 5917SOL    HW219193   1.417   0.063   7.001
 5918SOL     OW19194   0.558   7.504   6.084
 5918SOL    HW119195   0.478   7.507   6.136
 5918SOL    HW219196   0.557   7.585   6.034
 5919SOL     OW19197   0.286   7.487   5.742
 5919SOL    HW119198   0.343   7.559   5.713
 5919SOL    HW219199   0.342   7.435   5.800
 5920SOL     OW19200   0.937   7.691   6.023
 5920SOL    HW119201   0.902   7.769   6.067
 5920SOL    HW219202   1.031   7.698   6.033
 5921SOL     OW19203   0.553   7.664   6.760
 5921SOL    HW119204   0.598   7.600   6.815
 5921SOL    HW219205   0.462   7.662   6.789
 5922SOL     OW19206   1.019   7.493   6.324
 5922SOL    HW119207   0.959   7.484   6.250
 5922SOL    HW219208   0.996   7.421   6.383
 5923SOL     OW19209   1.489   7.952   6.534
 5923SOL    HW119210   1.400   7.921   6.552
 5923SOL    HW219211   1.525   7.975   6.620
 5924SOL     OW19212   0.552   7.719   5.917
 5924SOL    HW119213   0.579   7.668   5.841
 5924SOL    HW219214   0.592   7.805   5.903
 5925SOL     OW19215   0.921   7.535   6.977
 5925SOL    HW119216   0.946   7.511   6.887
 5925SOL    HW219217   1.001   7.573   7.014
 5926SOL     OW19218   1.250   7.798   6.863
 5926SOL    HW119219   1.285   7.872   6.912
 5926SOL    HW219220   1.157   7.818   6.852
 5927SOL     OW19221   0.552   7.939   6.434
 5927SOL    HW119222   0.560   8.015   6.377
 5927SOL    HW219223   0.618   7.952   6.502
 5928SOL     OW19224   1.013   7.583   7.346
 5928SOL    HW119225   1.071   7.657   7.325
 5928SOL    HW219226   1.063   7.506   7.320
 5929SOL     OW19227   0.493   7.491   7.343
 5929SOL    HW119228   0.450   7.436   7.277
 5929SOL    HW219229   0.441   7.571   7.346
 5930SOL     OW19230   0.288   7.632   6.836
 5930SOL    HW119231   0.249   7.662   6.917
 5930SOL    HW219232   0.278   7.537   6.838
 5931SOL     OW19233   0.748   0.040   6.600
 5931SOL    HW119234   0.820   0.056   6.539
 5931SOL    HW219235   0.720   0.127   6.628
 5932SOL     OW19236   0.310   7.520   6.204
 5932SOL    HW119237   0.288   7.610   6.227
 5932SOL    HW219238   0.319   7.476   6.288
 5933SOL     OW19239   1.582   7.779   5.975
 5933SOL    HW119240   1.645   7.728   6.025
 5933SOL    HW219241   1.604   7.870   5.993
 5934SOL     OW19242   1.499   7.736   5.718
 5934SOL    HW119243   1.447   7.658   5.736
 5934SOL    HW219244   1.541   7.757   5.801
 5935SOL     OW19245   1.258   0.220   5.582
 5935SOL    HW119246   1.305   0.160   5.640
 5935SOL    HW219247   1.290   0.307   5.607
 5936SOL     OW19248   0.295   7.980   6.604
 5936SOL    HW119249   0.296   7.886   6.585
 5936SOL    HW219250   0.376   8.013   6.567
 5937SOL     OW19251   1.144   7.824   7.272
 5937SOL    HW119252   1.086   7.899   7.287
 5937SOL    HW219253   1.232   7.859   7.279
 5938SOL     OW19254   1.161   7.636   7.066
 5938SOL    HW119255   1.152   7.704   7.133
 5938SOL    HW219256   1.204   7.680   6.993
 5939SOL     OW19257   0.094   7.967   6.800
 5939SOL    HW119258   0.162   7.980   6.734
 5939SOL    HW219259   0.054   7.883   6.777
 5940SOL     OW19260   0.186   7.955   7.196
 5940SOL    HW119261   0.281   7.958   7.201
 5940SOL    HW219262   0.158   7.931   7.284
 5941SOL     OW19263   0.787   0.033   5.825
 5941SOL    HW119264   0.822  -0.054   5.803
 5941SOL    HW219265   0.773   0.029   5.920
 5942SOL     OW19266   1.606   0.008   6.773
 5942SOL    HW119267   1.611   0.017   6.868
 5942SOL    HW219268   1.695  -0.016   6.746
 5943SOL     OW19269   0.704   7.889   6.825
 5943SOL    HW119270   0.644   7.819   6.801
 5943SOL    HW219271   0.715   7.941   6.745
 5944SOL     OW19272   1.747   7.602   6.102
 5944SOL    HW119273   1.811   7.583   6.033
 5944SOL    HW219274   1.721   7.515   6.133
 5945SOL     OW19275   1.844   7.617   6.549
 5945SOL    HW119276   1.870   7.529   6.524
 5945SOL    HW219277   1.758   7.630   6.509
 5946SOL     OW19278   0.257   7.774   6.296
 5946SOL    HW119279   0.164   7.793   6.281
 5946SOL    HW219280   0.263   7.760   6.391
 5947SOL     OW19281   1.021   7.664   6.551
 5947SOL    HW119282   1.019   7.620   6.466
 5947SOL    HW219283   1.016   7.593   6.615
 5948SOL     OW19284   1.748   7.809   6.986
 5948SOL    HW119285   1.805   7.885   6.974
 5948SOL    HW219286   1.777   7.746   6.919
 5949SOL     OW19287   0.684   7.634   7.082
 5949SOL    HW119288   0.769   7.612   7.044
 5949SOL    HW219289   0.705   7.667   7.169
 5950SOL     OW19290   0.113   7.778   5.599
 5950SOL    HW119291   0.027   7.740   5.612
 5950SOL    HW219292   0.104   7.831   5.519
 5951SOL     OW19293   0.071   7.673   5.964
 5951SOL    HW119294   0.048   7.650   5.874
 5951SOL    HW219295   0.163   7.701   5.960
 5952SOL     OW19296   0.695   7.977   7.317
 5952SOL    HW119297   0.770   8.036   7.314
 5952SOL    HW219298   0.734   7.889   7.315
 5953SOL     OW19299   1.202   7.744   6.058
 5953SOL    HW119300   1.269   7.676   6.046
 5953SOL    HW219301   1.239   7.804   6.123
 5954SOL     OW19302   0.654   0.226   6.247
 5954SOL    HW119303   0.698   0.311   6.247
 5954SOL    HW219304   0.566   0.244   6.216
 5955SOL     OW19305   1.766   7.778   7.254
 5955SOL    HW119306   1.759   7.793   7.160
 5955SOL    HW219307   1.685   7.734   7.278
 5956SOL     OW19308   1.821   7.605   6.820
 5956SOL    HW119309   1.798   7.513   6.816
 5956SOL    HW219310   1.830   7.632   6.729
 5957SOL     OW19311   0.321   7.831   6.025
 5957SOL    HW119312   0.406   7.792   6.002
 5957SOL    HW219313   0.318   7.826   6.120
 5958SOL     OW19314   1.420   7.670   6.693
 5958SOL    HW119315   1.444   7.587   6.735
 5958SOL    HW219316   1.370   7.717   6.760
 5959SOL     OW19317   1.006   7.451   6.726
 5959SOL    HW119318   0.950   7.384   6.687
 5959SOL    HW219319   1.094   7.413   6.722
 5960SOL     OW19320   1.368   7.496   5.756
 5960SOL    HW119321   1.413   7.415   5.731
 5960SOL    HW219322   1.278   7.468   5.773
 5961SOL     OW19323   1.312   7.895   6.264
 5961SOL    HW119324   1.301   7.990   6.271
 5961SOL    HW219325   1.296   7.862   6.352
 5962SOL     OW19326   1.584   7.651   6.469
 5962SOL    HW119327   1.531   7.676   6.545
 5962SOL    HW219328   1.581   7.728   6.412
 5963SOL     OW19329   0.240   7.708   8.434
 5963SOL    HW119330   0.269   7.681   8.521
 5963SOL    HW219331   0.153   7.669   8.424
 5964SOL     OW19332   8.001   7.819   8.042
 5964SOL    HW119333   7.912   7.792   8.067
 5964SOL    HW219334   8.020   7.767   7.964
 5965SOL     OW19335   1.665   0.020   7.657
 5965SOL    HW119336   1.680   0.013   7.563
 5965SOL    HW219337   1.753   0.020   7.695
 5966SOL     OW19338   0.443   7.835   9.003
 5966SOL    HW119339   0.519   7.796   8.959
 5966SOL    HW219340   0.368   7.785   8.971
 5967SOL     OW19341   1.600   7.893   8.166
 5967SOL    HW119342   1.514   7.895   8.124
 5967SOL    HW219343   1.586   7.937   8.250
 5968SOL     OW19344   1.591   7.575   8.913
 5968SOL    HW119345   1.633   7.650   8.870
 5968SOL    HW219346   1.560   7.610   8.997
 5969SOL     OW19347   0.070   0.081   8.078
 5969SOL    HW119348   0.051  -0.007   8.045
 5969SOL    HW219349   0.142   0.112   8.022
 5970SOL     OW19350   0.819   7.430   7.973
 5970SOL    HW119351   0.864   7.510   7.944
 5970SOL    HW219352   0.726   7.454   7.974
 5971SOL     OW19353   0.352   7.697   9.280
 5971SOL    HW119354   0.377   7.772   9.226
 5971SOL    HW219355   0.263   7.716   9.309
 5972SOL     OW19356   1.257   7.812   8.386
 5972SOL    HW119357   1.171   7.772   8.396
 5972SOL    HW219358   1.316   7.755   8.436
 5973SOL     OW19359   1.405   7.937   9.151
 5973SOL    HW119360   1.395   7.954   9.244
 5973SOL    HW219361   1.457   7.856   9.147
 5974SOL     OW19362   0.932   0.395   8.960
 5974SOL    HW119363   0.974   0.316   8.926
 5974SOL    HW219364   0.844   0.392   8.925
 5975SOL     OW19365   0.998   7.814   8.685
 5975SOL    HW119366   0.910   7.839   8.715
 5975SOL    HW219367   0.983   7.758   8.609
 5976SOL     OW19368   0.899   7.786   7.645
 5976SOL    HW119369   0.923   7.820   7.558
 5976SOL    HW219370   0.923   7.693   7.641
 5977SOL     OW19371   1.731   0.026   9.274
 5977SOL    HW119372   1.683   0.086   9.218
 5977SOL    HW219373   1.748  -0.051   9.219
 5978SOL     OW19374   0.556   7.627   8.347
 5978SOL    HW119375   0.560   7.649   8.440
 5978SOL    HW219376   0.554   7.712   8.303
 5979SOL     OW19377   0.203   7.712   8.936
 5979SOL    HW119378   0.152   7.793   8.935
 5979SOL    HW219379   0.153   7.653   8.992
 5980SOL     OW19380   1.397   7.541   7.890
 5980SOL    HW119381   1.388   7.518   7.797
 5980SOL    HW219382   1.482   7.584   7.896
 5981SOL     OW19383   1.511   7.672   9.176
 5981SOL    HW119384   1.512   7.693   9.269
 5981SOL    HW219385   1.453   7.596   9.170
 5982SOL     OW19386   0.652   7.558   7.550
 5982SOL    HW119387   0.699   7.478   7.574
 5982SOL    HW219388   0.595   7.531   7.478
 5983SOL     OW19389   0.772   7.733   9.202
 5983SOL    HW119390   0.851   7.679   9.197
 5983SOL    HW219391   0.723   7.696   9.275
 5984SOL     OW19392   1.356   0.013   8.883
 5984SOL    HW119393   1.380  -0.011   8.973
 5984SOL    HW219394   1.289   0.081   8.894
 5985SOL     OW19395   0.558   7.506   7.945
 5985SOL    HW119396   0.477   7.511   7.995
 5985SOL    HW219397   0.558   7.584   7.890
 5986SOL     OW19398   0.282   7.501   7.613
 5986SOL    HW119399   0.344   7.563   7.574
 5986SOL    HW219400   0.336   7.442   7.666
 5987SOL     OW19401   0.946   7.661   7.906
 5987SOL    HW119402   0.913   7.731   7.850
 5987SOL    HW219403   1.038   7.684   7.921
 5988SOL     OW19404   0.136  -0.016   8.889
 5988SOL    HW119405   0.197  -0.005   8.816
 5988SOL    HW219406   0.110   0.074   8.911
 5989SOL     OW19407   0.565   7.668   8.620
 5989SOL    HW119408   0.608   7.596   8.667
 5989SOL    HW219409   0.473   7.663   8.647
 5990SOL     OW19410   1.024   7.503   8.194
 5990SOL    HW119411   0.966   7.508   8.118
 5990SOL    HW219412   0.994   7.426   8.242
 5991SOL     OW19413   1.495   7.960   8.408
 5991SOL    HW119414   1.405   7.928   8.414
 5991SOL    HW219415   1.503   8.020   8.482
 5992SOL     OW19416   0.554   7.712   7.763
 5992SOL    HW119417   0.586   7.662   7.688
 5992SOL    HW219418   0.594   7.798   7.753
 5993SOL     OW19419   0.920   7.531   8.839
 5993SOL    HW119420   0.942   7.509   8.749
 5993SOL    HW219421   1.000   7.570   8.875
 5994SOL     OW19422   1.266   7.799   8.737
 5994SOL    HW119423   1.297   7.880   8.778
 5994SOL    HW219424   1.173   7.815   8.719
 5995SOL     OW19425   0.558   7.917   8.300
 5995SOL    HW119426   0.544   7.985   8.234
 5995SOL    HW219427   0.627   7.952   8.356
 5996SOL     OW19428   1.000   7.591   9.198
 5996SOL    HW119429   1.064   7.659   9.180
 5996SOL    HW219430   1.046   7.509   9.180
 5997SOL     OW19431   0.500   7.480   9.204
 5997SOL    HW119432   0.453   7.433   9.135
 5997SOL    HW219433   0.446   7.557   9.221
 5998SOL     OW19434   0.306   7.629   8.695
 5998SOL    HW119435   0.272   7.660   8.779
 5998SOL    HW219436   0.281   7.537   8.692
 5999SOL     OW19437   0.756   0.052   8.458
 5999SOL    HW119438   0.813   0.063   8.381
 5999SOL    HW219439   0.689   0.119   8.447
 6000SOL     OW19440   0.311   7.525   8.064
 6000SOL    HW119441   0.285   7.613   8.091
 6000SOL    HW219442   0.321   7.477   8.146
 6001SOL     OW19443   1.583   7.773   7.833
 6001SOL    HW119444   1.647   7.726   7.887
 6001SOL    HW219445   1.593   7.864   7.860
 6002SOL     OW19446   1.487   7.736   7.579
 6002SOL    HW119447   1.437   7.657   7.598
 6002SOL    HW219448   1.535   7.753   7.661
 6003SOL     OW19449   1.239   0.220   7.462
 6003SOL    HW119450   1.303   0.178   7.520
 6003SOL    HW219451   1.259   0.314   7.467
 6004SOL     OW19452   0.317   7.970   8.451
 6004SOL    HW119453   0.308   7.875   8.439
 6004SOL    HW219454   0.404   7.990   8.418
 6005SOL     OW19455   1.149   7.827   9.126
 6005SOL    HW119456   1.097   7.904   9.148
 6005SOL    HW219457   1.240   7.858   9.126
 6006SOL     OW19458   1.163   7.631   8.929
 6006SOL    HW119459   1.151   7.701   8.994
 6006SOL    HW219460   1.209   7.673   8.856
 6007SOL     OW19461   0.095   8.026   8.589
 6007SOL    HW119462   0.170   7.993   8.541
 6007SOL    HW219463   0.046   7.947   8.614
 6008SOL     OW19464   0.196   7.949   9.168
 6008SOL    HW119465   0.237   7.948   9.081
 6008SOL    HW219466   0.117   8.003   9.156
 6009SOL     OW19467   0.791   0.035   7.697
 6009SOL    HW119468   0.838  -0.048   7.694
 6009SOL    HW219469   0.751   0.037   7.783
 6010SOL     OW19470   1.632   8.029   8.664
 6010SOL    HW119471   1.608   7.957   8.721
 6010SOL    HW219472   1.697   7.992   8.604
 6011SOL     OW19473   0.730   7.886   8.679
 6011SOL    HW119474   0.666   7.818   8.660
 6011SOL    HW219475   0.724   7.946   8.604
 6012SOL     OW19476   1.748   7.597   7.964
 6012SOL    HW119477   1.810   7.580   7.892
 6012SOL    HW219478   1.721   7.509   7.992
 6013SOL     OW19479   1.849   7.616   8.414
 6013SOL    HW119480   1.873   7.527   8.388
 6013SOL    HW219481   1.763   7.630   8.375
 6014SOL     OW19482   0.254   7.779   8.159
 6014SOL    HW119483   0.162   7.795   8.141
 6014SOL    HW219484   0.257   7.760   8.253
 6015SOL     OW19485   1.027   7.668   8.423
 6015SOL    HW119486   1.023   7.629   8.336
 6015SOL    HW219487   1.020   7.593   8.483
 6016SOL     OW19488   1.743   7.812   8.848
 6016SOL    HW119489   1.800   7.888   8.837
 6016SOL    HW219490   1.772   7.750   8.781
 6017SOL     OW19491   0.684   7.637   8.948
 6017SOL    HW119492   0.768   7.614   8.907
 6017SOL    HW219493   0.708   7.676   9.032
 6018SOL     OW19494   0.097   7.824   7.433
 6018SOL    HW119495   0.048   7.751   7.472
 6018SOL    HW219496   0.062   7.902   7.476
 6019SOL     OW19497   0.071   7.667   7.825
 6019SOL    HW119498   0.042   7.647   7.736
 6019SOL    HW219499   0.167   7.665   7.819
 6020SOL     OW19500   0.781   8.012   9.177
 6020SOL    HW119501   0.687   8.025   9.161
 6020SOL    HW219502   0.792   7.917   9.178
 6021SOL     OW19503   1.207   7.740   7.928
 6021SOL    HW119504   1.273   7.673   7.911
 6021SOL    HW219505   1.249   7.800   7.990
 6022SOL     OW19506   0.633   0.246   8.132
 6022SOL    HW119507   0.636   0.334   8.096
 6022SOL    HW219508   0.559   0.204   8.088
 6023SOL     OW19509   1.751   7.798   9.122
 6023SOL    HW119510   1.748   7.814   9.028
 6023SOL    HW219511   1.674   7.743   9.139
 6024SOL     OW19512   1.819   7.610   8.687
 6024SOL    HW119513   1.814   7.514   8.685
 6024SOL    HW219514   1.830   7.636   8.596
 6025SOL     OW19515   0.347   7.851   7.898
 6025SOL    HW119516   0.416   7.791   7.870
 6025SOL    HW219517   0.331   7.828   7.989
 6026SOL     OW19518   1.421   7.669   8.555
 6026SOL    HW119519   1.433   7.579   8.585
 6026SOL    HW219520   1.374   7.713   8.626
 6027SOL     OW19521   1.005   7.447   8.586
 6027SOL    HW119522   0.953   7.383   8.537
 6027SOL    HW219523   1.093   7.410   8.587
 6028SOL     OW19524   1.361   7.494   7.618
 6028SOL    HW119525   1.399   7.420   7.571
 6028SOL    HW219526   1.271   7.467   7.637
 6029SOL     OW19527   1.322   7.897   8.127
 6029SOL    HW119528   1.291   7.987   8.121
 6029SOL    HW219529   1.297   7.869   8.215
 6030SOL     OW19530   1.590   7.650   8.332
 6030SOL    HW119531   1.535   7.678   8.406
 6030SOL    HW219532   1.586   7.723   8.271
 6031SOL     OW19533   0.239   7.719  10.296
 6031SOL    HW119534   0.271   7.690  10.381
 6031SOL    HW219535   0.153   7.678  10.288
 6032SOL     OW19536   8.008   7.818   9.898
 6032SOL    HW119537   7.922   7.784   9.923
 6032SOL    HW219538   8.032   7.769   9.820
 6033SOL     OW19539   1.689   0.032   9.551
 6033SOL    HW119540   1.713   0.038   9.458
 6033SOL    HW219541   1.684  -0.062   9.568
 6034SOL     OW19542   0.451   7.826  10.871
 6034SOL    HW119543   0.526   7.785  10.827
 6034SOL    HW219544   0.374   7.784  10.832
 6035SOL     OW19545   1.596   7.924  10.018
 6035SOL    HW119546   1.507   7.919   9.983
 6035SOL    HW219547   1.585   7.956  10.108
 6036SOL     OW19548   1.594   7.575  10.776
 6036SOL    HW119549   1.626   7.653  10.730
 6036SOL    HW219550   1.564   7.608  10.860
 6037SOL     OW19551   0.064   0.081   9.938
 6037SOL    HW119552   0.051  -0.010   9.911
 6037SOL    HW219553   0.132   0.114   9.880
 6038SOL     OW19554   0.822   7.466   9.888
 6038SOL    HW119555   0.865   7.534   9.836
 6038SOL    HW219556   0.730   7.469   9.859
 6039SOL     OW19557   0.354   7.702  11.146
 6039SOL    HW119558   0.379   7.768  11.082
 6039SOL    HW219559   0.267   7.728  11.176
 6040SOL     OW19560   1.268   7.807  10.247
 6040SOL    HW119561   1.179   7.773  10.257
 6040SOL    HW219562   1.322   7.750  10.301
 6041SOL     OW19563   1.404   7.935  11.009
 6041SOL    HW119564   1.391   7.959  11.101
 6041SOL    HW219565   1.455   7.854  11.012
 6042SOL     OW19566   0.921   0.394  10.823
 6042SOL    HW119567   0.949   0.312  10.780
 6042SOL    HW219568   0.828   0.381  10.839
 6043SOL     OW19569   1.007   7.816  10.533
 6043SOL    HW119570   0.916   7.828  10.562
 6043SOL    HW219571   1.000   7.764  10.453
 6044SOL     OW19572   0.912   7.762   9.513
 6044SOL    HW119573   0.926   7.789   9.422
 6044SOL    HW219574   0.953   7.676   9.519
 6045SOL     OW19575   1.726   0.021  11.135
 6045SOL    HW119576   1.676   0.085  11.084
 6045SOL    HW219577   1.741  -0.051  11.074
 6046SOL     OW19578   0.552   7.626  10.211
 6046SOL    HW119579   0.560   7.652  10.303
 6046SOL    HW219580   0.550   7.709  10.163
 6047SOL     OW19581   0.209   7.722  10.788
 6047SOL    HW119582   0.152   7.799  10.780
 6047SOL    HW219583   0.158   7.660  10.841
 6048SOL     OW19584   1.393   7.541   9.751
 6048SOL    HW119585   1.358   7.515   9.665
 6048SOL    HW219586   1.486   7.520   9.746
 6049SOL     OW19587   1.512   7.674  11.038
 6049SOL    HW119588   1.514   7.693  11.132
 6049SOL    HW219589   1.449   7.603  11.029
 6050SOL     OW19590   0.656   7.566   9.407
 6050SOL    HW119591   0.732   7.508   9.416
 6050SOL    HW219592   0.604   7.528   9.338
 6051SOL     OW19593   0.779   7.731  11.066
 6051SOL    HW119594   0.858   7.678  11.062
 6051SOL    HW219595   0.725   7.690  11.134
 6052SOL     OW19596   1.377   0.017  10.741
 6052SOL    HW119597   1.391  -0.013  10.831
 6052SOL    HW219598   1.311   0.085  10.749
 6053SOL     OW19599   0.560   7.493   9.797
 6053SOL    HW119600   0.480   7.501   9.849
 6053SOL    HW219601   0.561   7.572   9.743
 6054SOL     OW19602   0.284   7.501   9.485
 6054SOL    HW119603   0.338   7.566   9.440
 6054SOL    HW219604   0.348   7.444   9.529
 6055SOL     OW19605   0.944   7.693   9.784
 6055SOL    HW119606   0.916   7.731   9.701
 6055SOL    HW219607   1.039   7.701   9.783
 6056SOL     OW19608   0.100  -0.008  10.736
 6056SOL    HW119609   0.174   0.023  10.684
 6056SOL    HW219610   0.066   0.071  10.778
 6057SOL     OW19611   0.569   7.667  10.485
 6057SOL    HW119612   0.606   7.585  10.519
 6057SOL    HW219613   0.476   7.662  10.508
 6058SOL     OW19614   1.024   7.505  10.070
 6058SOL    HW119615   0.960   7.510   9.998
 6058SOL    HW219616   0.999   7.427  10.118
 6059SOL     OW19617   1.497   7.967  10.269
 6059SOL    HW119618   1.409   7.929  10.267
 6059SOL    HW219619   1.501   8.013  10.353
 6060SOL     OW19620   0.550   7.703   9.621
 6060SOL    HW119621   0.584   7.657   9.545
 6060SOL    HW219622   0.593   7.788   9.619
 6061SOL     OW19623   0.919   7.532  10.701
 6061SOL    HW119624   0.938   7.510  10.610
 6061SOL    HW219625   1.000   7.571  10.733
 6062SOL     OW19626   1.272   7.799  10.601
 6062SOL    HW119627   1.304   7.882  10.637
 6062SOL    HW219628   1.182   7.817  10.575
 6063SOL     OW19629   0.554   7.924  10.180
 6063SOL    HW119630   0.542   7.990  10.112
 6063SOL    HW219631   0.625   7.958  10.235
 6064SOL     OW19632   1.010   7.590  11.072
 6064SOL    HW119633   1.069   7.661  11.046
 6064SOL    HW219634   1.055   7.510  11.045
 6065SOL     OW19635   0.494   7.480  11.070
 6065SOL    HW119636   0.450   7.432  11.000
 6065SOL    HW219637   0.440   7.558  11.083
 6066SOL     OW19638   0.309   7.625  10.551
 6066SOL    HW119639   0.275   7.660  10.634
 6066SOL    HW219640   0.284   7.533  10.552
 6067SOL     OW19641   0.744   0.077  10.332
 6067SOL    HW119642   0.758   0.130  10.253
 6067SOL    HW219643   0.689   0.131  10.388
 6068SOL     OW19644   0.318   7.524   9.925
 6068SOL    HW119645   0.288   7.611   9.951
 6068SOL    HW219646   0.326   7.476  10.007
 6069SOL     OW19647   1.610   7.789   9.677
 6069SOL    HW119648   1.659   7.725   9.729
 6069SOL    HW219649   1.558   7.837   9.741
 6070SOL     OW19650   1.482   7.737   9.441
 6070SOL    HW119651   1.432   7.657   9.456
 6070SOL    HW219652   1.535   7.749   9.520
 6071SOL     OW19653   1.310   0.254   9.381
 6071SOL    HW119654   1.287   0.163   9.398
 6071SOL    HW219655   1.244   0.284   9.317
 6072SOL     OW19656   0.300   7.988  10.314
 6072SOL    HW119657   0.290   7.893  10.304
 6072SOL    HW219658   0.387   8.006  10.277
 6073SOL     OW19659   1.148   7.826  10.990
 6073SOL    HW119660   1.095   7.904  11.010
 6073SOL    HW219661   1.238   7.859  10.987
 6074SOL     OW19662   1.161   7.634  10.791
 6074SOL    HW119663   1.148   7.703  10.855
 6074SOL    HW219664   1.207   7.676  10.718
 6075SOL     OW19665   0.055   0.009  10.428
 6075SOL    HW119666   0.146   0.013  10.399
 6075SOL    HW219667   0.061  -0.005  10.523
 6076SOL     OW19668   0.194   7.951  11.013
 6076SOL    HW119669   0.236   7.955  10.927
 6076SOL    HW219670   0.116   8.006  11.004
 6077SOL     OW19671   0.792   8.016   9.553
 6077SOL    HW119672   0.843   7.935   9.558
 6077SOL    HW219673   0.744   8.019   9.636
 6078SOL     OW19674   1.628   8.028  10.522
 6078SOL    HW119675   1.600   7.960  10.583
 6078SOL    HW219676   1.694   7.986  10.467
 6079SOL     OW19677   0.740   7.872  10.557
 6079SOL    HW119678   0.677   7.803  10.536
 6079SOL    HW219679   0.706   7.950  10.514
 6080SOL     OW19680   1.750   7.602   9.823
 6080SOL    HW119681   1.813   7.586   9.753
 6080SOL    HW219682   1.724   7.514   9.852
 6081SOL     OW19683   1.852   7.616  10.274
 6081SOL    HW119684   1.875   7.527  10.248
 6081SOL    HW219685   1.766   7.631  10.235
 6082SOL     OW19686   0.255   7.775  10.020
 6082SOL    HW119687   0.163   7.792  10.001
 6082SOL    HW219688   0.257   7.761  10.115
 6083SOL     OW19689   1.032   7.670  10.292
 6083SOL    HW119690   1.024   7.635  10.203
 6083SOL    HW219691   1.021   7.594  10.349
 6084SOL     OW19692   1.743   7.814  10.705
 6084SOL    HW119693   1.802   7.889  10.694
 6084SOL    HW219694   1.773   7.750  10.640
 6085SOL     OW19695   0.683   7.638  10.813
 6085SOL    HW119696   0.764   7.617  10.767
 6085SOL    HW219697   0.712   7.677  10.896
 6086SOL     OW19698   0.098   7.775   9.352
 6086SOL    HW119699   0.007   7.757   9.330
 6086SOL    HW219700   0.123   7.846   9.293
 6087SOL     OW19701   0.084   7.675   9.679
 6087SOL    HW119702   0.046   7.683   9.592
 6087SOL    HW219703   0.171   7.638   9.664
 6088SOL     OW19704   0.776   8.017  11.032
 6088SOL    HW119705   0.682   8.028  11.023
 6088SOL    HW219706   0.790   7.923  11.031
 6089SOL     OW19707   1.222   7.762   9.770
 6089SOL    HW119708   1.273   7.681   9.760
 6089SOL    HW219709   1.261   7.806   9.844
 6090SOL     OW19710   0.629   0.256  10.007
 6090SOL    HW119711   0.620   0.336   9.956
 6090SOL    HW219712   0.565   0.195   9.968
 6091SOL     OW19713   1.752   7.800  10.979
 6091SOL    HW119714   1.747   7.814  10.884
 6091SOL    HW219715   1.677   7.745  10.999
 6092SOL     OW19716   1.825   7.615  10.545
 6092SOL    HW119717   1.816   7.520  10.555
 6092SOL    HW219718   1.831   7.629  10.451
 6093SOL     OW19719   0.379   7.857   9.784
 6093SOL    HW119720   0.421   7.782   9.741
 6093SOL    HW219721   0.343   7.821   9.865
 6094SOL     OW19722   1.426   7.664  10.419
 6094SOL    HW119723   1.425   7.571  10.440
 6094SOL    HW219724   1.379   7.705  10.492
 6095SOL     OW19725   1.004   7.445  10.448
 6095SOL    HW119726   0.952   7.383  10.397
 6095SOL    HW219727   1.091   7.407  10.450
 6096SOL     OW19728   1.356   7.496   9.469
 6096SOL    HW119729   1.380   7.415   9.423
 6096SOL    HW219730   1.266   7.482   9.496
 6097SOL     OW19731   1.321   7.902   9.991
 6097SOL    HW119732   1.259   7.974   9.978
 6097SOL    HW219733   1.297   7.865  10.076
 6098SOL     OW19734   1.595   7.657  10.198
 6098SOL    HW119735   1.538   7.673  10.273
 6098SOL    HW219736   1.571   7.725  10.135
 6099SOL     OW19737   0.245   7.724  12.163
 6099SOL    HW119738   0.276   7.682  12.244
 6099SOL    HW219739   0.161   7.681  12.145
 6100SOL     OW19740   8.008   7.814  11.771
 6100SOL    HW119741   7.915   7.834  11.784
 6100SOL    HW219742   8.012   7.771  11.686
 6101SOL     OW19743   1.710   7.970  11.409
 6101SOL    HW119744   1.698   7.985  11.315
 6101SOL    HW219745   1.780   8.029  11.434
 6102SOL     OW19746   1.602   7.895  11.875
 6102SOL    HW119747   1.511   7.897  11.847
 6102SOL    HW219748   1.603   7.941  11.959
 6103SOL     OW19749   0.102   0.096  11.759
 6103SOL    HW119750   0.102   0.002  11.740
 6103SOL    HW219751   0.015   0.113  11.797
 6104SOL     OW19752   0.826   7.446  11.689
 6104SOL    HW119753   0.868   7.529  11.663
 6104SOL    HW219754   0.733   7.466  11.692
 6105SOL     OW19755   1.261   7.795  12.102
 6105SOL    HW119756   1.172   7.763  12.117
 6105SOL    HW219757   1.316   7.744  12.162
 6106SOL     OW19758   0.960   7.815  12.417
 6106SOL    HW119759   0.871   7.847  12.432
 6106SOL    HW219760   0.956   7.777  12.329
 6107SOL     OW19761   0.899   7.779  11.364
 6107SOL    HW119762   0.918   7.823  11.281
 6107SOL    HW219763   0.903   7.686  11.343
 6108SOL     OW19764   0.543   7.643  12.051
 6108SOL    HW119765   0.548   7.682  12.138
 6108SOL    HW219766   0.535   7.717  11.991
 6109SOL     OW19767   1.384   7.545  11.603
 6109SOL    HW119768   1.364   7.516  11.514
 6109SOL    HW219769   1.477   7.567  11.600
 6110SOL     OW19770   0.657   7.559  11.270
 6110SOL    HW119771   0.706   7.480  11.292
 6110SOL    HW219772   0.598   7.532  11.200
 6111SOL     OW19773   0.560   7.509  11.668
 6111SOL    HW119774   0.479   7.511  11.718
 6111SOL    HW219775   0.555   7.585  11.610
 6112SOL     OW19776   0.280   7.500  11.342
 6112SOL    HW119777   0.333   7.563  11.294
 6112SOL    HW219778   0.344   7.445  11.388
 6113SOL     OW19779   0.948   7.678  11.622
 6113SOL    HW119780   0.923   7.730  11.546
 6113SOL    HW219781   1.039   7.704  11.640
 6114SOL     OW19782   0.103   0.044   0.051
 6114SOL    HW119783   0.189   0.035   0.092
 6114SOL    HW219784   0.053   0.097   0.113
 6115SOL     OW19785   0.590   7.644  12.345
 6115SOL    HW119786   0.614   7.563  12.300
 6115SOL    HW219787   0.496   7.636  12.362
 6116SOL     OW19788   1.019   7.484  11.923
 6116SOL    HW119789   0.962   7.484  11.847
 6116SOL    HW219790   0.989   7.410  11.976
 6117SOL     OW19791   1.501   7.944  12.127
 6117SOL    HW119792   1.410   7.919  12.138
 6117SOL    HW219793   1.526   7.982  12.211
 6118SOL     OW19794   0.544   7.708  11.479
 6118SOL    HW119795   0.574   7.656  11.404
 6118SOL    HW219796   0.591   7.791  11.471
 6119SOL     OW19797   1.241   7.844  12.426
 6119SOL    HW119798   1.273   7.889  12.503
 6119SOL    HW219799   1.149   7.826  12.445
 6120SOL     OW19800   0.538   7.946  12.039
 6120SOL    HW119801   0.516   8.009  11.971
 6120SOL    HW219802   0.618   7.981  12.079
 6121SOL     OW19803   0.329   7.634  12.415
 6121SOL    HW119804   0.264   7.685  12.464
 6121SOL    HW219805   0.294   7.545  12.412
 6122SOL     OW19806   0.756   0.054  12.176
 6122SOL    HW119807   0.832   0.043  12.119
 6122SOL    HW219808   0.744   0.149  12.182
 6123SOL     OW19809   0.317   7.521  11.790
 6123SOL    HW119810   0.283   7.606  11.819
 6123SOL    HW219811   0.324   7.470  11.871
 6124SOL     OW19812   1.614   7.762  11.564
 6124SOL    HW119813   1.572   7.806  11.637
 6124SOL    HW219814   1.654   7.833  11.513
 6125SOL     OW19815   1.484   7.734  11.306
 6125SOL    HW119816   1.432   7.655  11.320
 6125SOL    HW219817   1.539   7.740  11.384
 6126SOL     OW19818   1.315   0.257  11.235
 6126SOL    HW119819   1.291   0.165  11.252
 6126SOL    HW219820   1.246   0.289  11.177
 6127SOL     OW19821   0.314   7.986  12.222
 6127SOL    HW119822   0.291   7.896  12.200
 6127SOL    HW219823   0.388   8.006  12.164
 6128SOL     OW19824   1.147   7.714   0.181
 6128SOL    HW119825   1.177   7.730   0.271
 6128SOL    HW219826   1.228   7.715   0.129
 6129SOL     OW19827   0.058   0.050  12.287
 6129SOL    HW119828   0.149   0.035  12.260
 6129SOL    HW219829   0.062   0.052  12.382
 6130SOL     OW19830   0.784   0.027  11.415
 6130SOL    HW119831   0.836  -0.053  11.420
 6130SOL    HW219832   0.739   0.032  11.499
 6131SOL     OW19833   1.639   8.023  12.359
 6131SOL    HW119834   1.637   7.959  12.430
 6131SOL    HW219835   1.719   8.002  12.310
 6132SOL     OW19836   0.681   7.905  12.402
 6132SOL    HW119837   0.644   7.820  12.378
 6132SOL    HW219838   0.700   7.947  12.318
 6133SOL     OW19839   1.844   7.622  12.138
 6133SOL    HW119840   1.869   7.533  12.114
 6133SOL    HW219841   1.754   7.632  12.106
 6134SOL     OW19842   0.251   7.768  11.886
 6134SOL    HW119843   0.161   7.795  11.864
 6134SOL    HW219844   0.255   7.772  11.981
 6135SOL     OW19845   1.022   7.668  12.148
 6135SOL    HW119846   1.016   7.623  12.064
 6135SOL    HW219847   1.020   7.598  12.213
 6136SOL     OW19848   1.752   7.844   0.042
 6136SOL    HW119849   1.840   7.880   0.050
 6136SOL    HW219850   1.764   7.756   0.006
 6137SOL     OW19851   0.107   7.792  11.214
 6137SOL    HW119852   0.021   7.758  11.188
 6137SOL    HW219853   0.127   7.857  11.147
 6138SOL     OW19854   0.080   7.675  11.538
 6138SOL    HW119855   0.041   7.675  11.450
 6138SOL    HW219856   0.167   7.637  11.525
 6139SOL     OW19857   1.211   7.756  11.642
 6139SOL    HW119858   1.270   7.681  11.630
 6139SOL    HW219859   1.252   7.807  11.712
 6140SOL     OW19860   0.609   0.236  11.893
 6140SOL    HW119861   0.638   0.313  11.845
 6140SOL    HW219862   0.541   0.197  11.839
 6141SOL     OW19863   1.819   7.609  12.415
 6141SOL    HW119864   1.834   7.514  12.411
 6141SOL    HW219865   1.824   7.638  12.324
 6142SOL     OW19866   0.405   7.858  11.680
 6142SOL    HW119867   0.428   7.789  11.619
 6142SOL    HW219868   0.352   7.814  11.747
 6143SOL     OW19869   1.431   7.690  12.302
 6143SOL    HW119870   1.485   7.652  12.371
 6143SOL    HW219871   1.367   7.743  12.348
 6144SOL     OW19872   1.013   7.446  12.315
 6144SOL    HW119873   0.957   7.393  12.260
 6144SOL    HW219874   1.099   7.404  12.309
 6145SOL     OW19875   1.356   7.494  11.331
 6145SOL    HW119876   1.394   7.421  11.282
 6145SOL    HW219877   1.266   7.466  11.349
 6146SOL     OW19878   1.327   7.894  11.851
 6146SOL    HW119879   1.289   7.982  11.850
 6146SOL    HW219880   1.303   7.858  11.937
 6147SOL     OW19881   1.581   7.652  12.066
 6147SOL    HW119882   1.530   7.669  12.145
 6147SOL    HW219883   1.570   7.731  12.013
 6148SOL     OW19884   2.137   0.610   0.018
 6148SOL    HW119885   2.094   0.657   0.089
 6148SOL    HW219886   2.068   0.598  -0.047
 6149SOL     OW19887   2.077   0.304   0.991
 6149SOL    HW119888   2.110   0.263   1.070
 6149SOL    HW219889   1.994   0.260   0.973
 6150SOL     OW19890   1.870   0.391   0.637
 6150SOL    HW119891   1.786   0.417   0.675
 6150SOL    HW219892   1.861   0.298   0.619
 6151SOL     OW19893   2.429   1.300   1.182
 6151SOL    HW119894   2.344   1.312   1.140
 6151SOL    HW219895   2.450   1.386   1.218
 6152SOL     OW19896   3.421   1.519   0.715
 6152SOL    HW119897   3.387   1.504   0.803
 6152SOL    HW219898   3.344   1.524   0.659
 6153SOL     OW19899   2.991   0.702   0.692
 6153SOL    HW119900   3.041   0.782   0.678
 6153SOL    HW219901   2.948   0.715   0.776
 6154SOL     OW19902   3.622   0.609   0.276
 6154SOL    HW119903   3.593   0.642   0.191
 6154SOL    HW219904   3.570   0.529   0.289
 6155SOL     OW19905   2.591   1.128   1.045
 6155SOL    HW119906   2.528   1.169   1.104
 6155SOL    HW219907   2.644   1.200   1.011
 6156SOL     OW19908   2.740   0.756   1.820
 6156SOL    HW119909   2.751   0.820   1.891
 6156SOL    HW219910   2.760   0.805   1.740
 6157SOL     OW19911   2.547   0.992   0.640
 6157SOL    HW119912   2.615   0.988   0.706
 6157SOL    HW219913   2.480   1.050   0.678
 6158SOL     OW19914   2.571   1.145   1.820
 6158SOL    HW119915   2.617   1.221   1.855
 6158SOL    HW219916   2.492   1.181   1.780
 6159SOL     OW19917   2.198   1.406   1.060
 6159SOL    HW119918   2.120   1.371   1.018
 6159SOL    HW219919   2.237   1.464   0.995
 6160SOL     OW19920   3.322   1.515   1.348
 6160SOL    HW119921   3.384   1.586   1.365
 6160SOL    HW219922   3.261   1.518   1.422
 6161SOL     OW19923   2.316   0.379   1.452
 6161SOL    HW119924   2.390   0.322   1.471
 6161SOL    HW219925   2.240   0.331   1.485
 6162SOL     OW19926   3.478   0.466   0.735
 6162SOL    HW119927   3.440   0.505   0.656
 6162SOL    HW219928   3.459   0.530   0.804
 6163SOL     OW19929   2.079   1.723   0.472
 6163SOL    HW119930   2.097   1.793   0.534
 6163SOL    HW219931   2.145   1.734   0.403
 6164SOL     OW19932   2.993   1.359   1.692
 6164SOL    HW119933   3.048   1.362   1.771
 6164SOL    HW219934   2.947   1.275   1.698
 6165SOL     OW19935   2.094   1.454   0.546
 6165SOL    HW119936   2.071   1.547   0.547
 6165SOL    HW219937   2.039   1.414   0.613
 6166SOL     OW19938   2.133   1.092   0.883
 6166SOL    HW119939   2.132   1.004   0.921
 6166SOL    HW219940   2.079   1.144   0.943
 6167SOL     OW19941   2.442   1.797   1.397
 6167SOL    HW119942   2.371   1.773   1.456
 6167SOL    HW219943   2.480   1.876   1.436
 6168SOL     OW19944   2.445   0.960   0.149
 6168SOL    HW119945   2.512   0.972   0.083
 6168SOL    HW219946   2.476   1.011   0.224
 6169SOL     OW19947   3.513   0.115   1.478
 6169SOL    HW119948   3.503   0.196   1.429
 6169SOL    HW219949   3.474   0.134   1.564
 6170SOL     OW19950   1.983   0.649   0.566
 6170SOL    HW119951   1.949   0.562   0.589
 6170SOL    HW219952   1.975   0.700   0.647
 6171SOL     OW19953   3.718   1.740   0.307
 6171SOL    HW119954   3.785   1.718   0.371
 6171SOL    HW219955   3.727   1.835   0.294
 6172SOL     OW19956   1.884   1.526   0.139
 6172SOL    HW119957   1.797   1.486   0.142
 6172SOL    HW219958   1.877   1.604   0.195
 6173SOL     OW19959   3.529   0.917   0.644
 6173SOL    HW119960   3.622   0.896   0.644
 6173SOL    HW219961   3.518   0.978   0.571
 6174SOL     OW19962   3.502   1.123   0.434
 6174SOL    HW119963   3.591   1.125   0.398
 6174SOL    HW219964   3.507   1.174   0.515
 6175SOL     OW19965   1.997   0.756   1.582
 6175SOL    HW119966   2.089   0.780   1.588
 6175SOL    HW219967   1.950   0.836   1.604
 6176SOL     OW19968   2.487   1.393   0.734
 6176SOL    HW119969   2.444   1.308   0.747
 6176SOL    HW219970   2.467   1.416   0.643
 6177SOL     OW19971   3.144   1.233   1.414
 6177SOL    HW119972   3.182   1.168   1.356
 6177SOL    HW219973   3.201   1.231   1.491
 6178SOL     OW19974   2.697   0.040   0.572
 6178SOL    HW119975   2.747   0.106   0.525
 6178SOL    HW219976   2.615   0.083   0.595
 6179SOL     OW19977   2.048   0.960   1.282
 6179SOL    HW119978   2.136   0.925   1.269
 6179SOL    HW219979   1.994   0.911   1.219
 6180SOL     OW19980   3.337   1.034   0.235
 6180SOL    HW119981   3.279   0.967   0.272
 6180SOL    HW219982   3.401   1.050   0.304
 6181SOL     OW19983   3.026   1.810   1.618
 6181SOL    HW119984   3.057   1.880   1.560
 6181SOL    HW219985   3.073   1.732   1.589
 6182SOL     OW19986   2.183   0.246   1.770
 6182SOL    HW119987   2.250   0.299   1.813
 6182SOL    HW219988   2.103   0.261   1.821
 6183SOL     OW19989   3.319   1.424   0.958
 6183SOL    HW119990   3.253   1.437   1.026
 6183SOL    HW219991   3.310   1.331   0.933
 6184SOL     OW19992   3.505   1.764   0.580
 6184SOL    HW119993   3.492   1.715   0.499
 6184SOL    HW219994   3.496   1.699   0.650
 6185SOL     OW19995   2.445   0.713   0.282
 6185SOL    HW119996   2.451   0.799   0.242
 6185SOL    HW219997   2.380   0.723   0.351
 6186SOL     OW19998   3.159   0.373   0.933
 6186SOL    HW119999   3.067   0.346   0.935
 6186SOL    HW220000   3.202   0.317   0.997
 6187SOL     OW20001   3.454   1.673   0.316
 6187SOL    HW120002   3.549   1.684   0.318
 6187SOL    HW220003   3.429   1.697   0.227
 6188SOL     OW20004   2.660   0.625   1.448
 6188SOL    HW120005   2.624   0.603   1.534
 6188SOL    HW220006   2.622   0.560   1.389
 6189SOL     OW20007   3.288   0.496   1.685
 6189SOL    HW120008   3.277   0.533   1.772
 6189SOL    HW220009   3.383   0.484   1.676
 6190SOL     OW20010   2.805   0.889   1.587
 6190SOL    HW120011   2.867   0.829   1.546
 6190SOL    HW220012   2.762   0.934   1.514
 6191SOL     OW20013   2.860   0.412   1.227
 6191SOL    HW120014   2.771   0.439   1.249
 6191SOL    HW220015   2.855   0.380   1.137
 6192SOL     OW20016   2.913   0.705   0.426
 6192SOL    HW120017   2.929   0.702   0.520
 6192SOL    HW220018   2.828   0.662   0.414
 6193SOL     OW20019   1.954   0.816   0.781
 6193SOL    HW120020   2.035   0.815   0.831
 6193SOL    HW220021   1.906   0.892   0.813
 6194SOL     OW20022   1.960   1.821   1.570
 6194SOL    HW120023   1.966   1.808   1.665
 6194SOL    HW220024   1.947   1.915   1.559
 6195SOL     OW20025   2.738   0.354   0.209
 6195SOL    HW120026   2.780   0.430   0.168
 6195SOL    HW220027   2.742   0.285   0.142
 6196SOL     OW20028   3.562   0.572   1.834
 6196SOL    HW120029   3.533   0.650   1.787
 6196SOL    HW220030   3.593   0.513   1.765
 6197SOL     OW20031   3.229   1.133   0.516
 6197SOL    HW120032   3.320   1.141   0.487
 6197SOL    HW220033   3.184   1.205   0.472
 6198SOL     OW20034   2.381   0.246   0.911
 6198SOL    HW120035   2.387   0.249   1.006
 6198SOL    HW220036   2.393   0.337   0.883
 6199SOL     OW20037   2.850   1.428   0.470
 6199SOL    HW120038   2.814   1.514   0.452
 6199SOL    HW220039   2.848   1.421   0.566
 6200SOL     OW20040   2.215   1.817   0.878
 6200SOL    HW120041   2.261   1.733   0.884
 6200SOL    HW220042   2.280   1.882   0.902
 6201SOL     OW20043   3.686   1.028   0.893
 6201SOL    HW120044   3.672   1.080   0.814
 6201SOL    HW220045   3.611   1.047   0.949
 6202SOL     OW20046   3.083   1.547   1.504
 6202SOL    HW120047   3.070   1.476   1.567
 6202SOL    HW220048   2.995   1.569   1.473
 6203SOL     OW20049   2.176   0.982   0.263
 6203SOL    HW120050   2.252   0.995   0.206
 6203SOL    HW220051   2.131   0.906   0.225
 6204SOL     OW20052   3.331   0.754   0.721
 6204SOL    HW120053   3.336   0.721   0.811
 6204SOL    HW220054   3.407   0.813   0.714
 6205SOL     OW20055   2.331   1.260   1.737
 6205SOL    HW120056   2.306   1.264   1.645
 6205SOL    HW220057   2.248   1.261   1.785
 6206SOL     OW20058   2.930   1.747   0.252
 6206SOL    HW120059   3.006   1.785   0.296
 6206SOL    HW220060   2.967   1.700   0.177
 6207SOL     OW20061   2.056   0.272   1.501
 6207SOL    HW120062   1.994   0.345   1.500
 6207SOL    HW220063   2.075   0.258   1.594
 6208SOL     OW20064   3.445   1.339   0.080
 6208SOL    HW120065   3.433   1.426   0.043
 6208SOL    HW220066   3.522   1.346   0.136
 6209SOL     OW20067   2.419   1.744   0.286
 6209SOL    HW120068   2.413   1.790   0.369
 6209SOL    HW220069   2.444   1.811   0.223
 6210SOL     OW20070   3.266   0.105   0.426
 6210SOL    HW120071   3.263   0.060   0.341
 6210SOL    HW220072   3.358   0.124   0.440
 6211SOL     OW20073   2.119   1.794   1.253
 6211SOL    HW120074   2.169   1.759   1.327
 6211SOL    HW220075   2.144   1.740   1.178
 6212SOL     OW20076   2.803   1.704   0.900
 6212SOL    HW120077   2.879   1.660   0.937
 6212SOL    HW220078   2.772   1.646   0.831
 6213SOL     OW20079   2.252   0.687   0.480
 6213SOL    HW120080   2.270   0.594   0.489
 6213SOL    HW220081   2.161   0.697   0.509
 6214SOL     OW20082   3.413   0.196   1.728
 6214SOL    HW120083   3.410   0.235   1.816
 6214SOL    HW220084   3.322   0.174   1.709
 6215SOL     OW20085   2.464   0.088   0.092
 6215SOL    HW120086   2.533   0.077   0.157
 6215SOL    HW220087   2.483   0.021   0.026
 6216SOL     OW20088   2.580   0.282   1.761
 6216SOL    HW120089   2.662   0.307   1.717
 6216SOL    HW220090   2.600   0.291   1.854
 6217SOL     OW20091   2.735   1.520   1.189
 6217SOL    HW120092   2.717   1.475   1.106
 6217SOL    HW220093   2.805   1.470   1.229
 6218SOL     OW20094   3.202   0.594   1.438
 6218SOL    HW120095   3.241   0.573   1.522
 6218SOL    HW220096   3.234   0.683   1.419
 6219SOL     OW20097   2.687   1.374   0.953
 6219SOL    HW120098   2.774   1.368   0.912
 6219SOL    HW220099   2.628   1.387   0.879
 6220SOL     OW20100   2.783   0.517   0.890
 6220SOL    HW120101   2.750   0.506   0.801
 6220SOL    HW220102   2.824   0.433   0.911
 6221SOL     OW20103   2.406   0.019   0.429
 6221SOL    HW120104   2.356   0.017   0.510
 6221SOL    HW220105   2.407   0.112   0.404
 6222SOL     OW20106   2.209   0.008   0.191
 6222SOL    HW120107   2.294   0.042   0.162
 6222SOL    HW220108   2.227  -0.028   0.278
 6223SOL     OW20109   2.813   0.260   0.461
 6223SOL    HW120110   2.779   0.284   0.375
 6223SOL    HW220111   2.908   0.274   0.453
 6224SOL     OW20112   2.947   0.698   1.453
 6224SOL    HW120113   2.881   0.629   1.465
 6224SOL    HW220114   3.031   0.652   1.453
 6225SOL     OW20115   3.090   1.564   0.783
 6225SOL    HW120116   3.100   1.639   0.724
 6225SOL    HW220117   3.141   1.588   0.860
 6226SOL     OW20118   2.340   1.159   0.721
 6226SOL    HW120119   2.277   1.138   0.790
 6226SOL    HW220120   2.291   1.149   0.640
 6227SOL     OW20121   3.117   1.791   0.605
 6227SOL    HW120122   3.172   1.859   0.565
 6227SOL    HW220123   3.049   1.840   0.652
 6228SOL     OW20124   2.857   0.572   0.111
 6228SOL    HW120125   2.861   0.630   0.035
 6228SOL    HW220126   2.946   0.574   0.147
 6229SOL     OW20127   1.952   0.562   1.398
 6229SOL    HW120128   2.043   0.561   1.368
 6229SOL    HW220129   1.948   0.634   1.461
 6230SOL     OW20130   2.432   0.225   1.196
 6230SOL    HW120131   2.470   0.193   1.277
 6230SOL    HW220132   2.337   0.224   1.211
 6231SOL     OW20133   2.701   0.448   0.634
 6231SOL    HW120134   2.678   0.511   0.566
 6231SOL    HW220135   2.743   0.376   0.587
 6232SOL     OW20136   2.836   0.035   0.805
 6232SOL    HW120137   2.790   0.034   0.721
 6232SOL    HW220138   2.864  -0.056   0.817
 6233SOL     OW20139   3.315   1.163   0.868
 6233SOL    HW120140   3.251   1.098   0.839
 6233SOL    HW220141   3.370   1.179   0.791
 6234SOL     OW20142   3.326   0.608   0.958
 6234SOL    HW120143   3.269   0.531   0.963
 6234SOL    HW220144   3.382   0.602   1.035
 6235SOL     OW20145   3.698   0.828   0.426
 6235SOL    HW120146   3.753   0.771   0.479
 6235SOL    HW220147   3.665   0.772   0.356
 6236SOL     OW20148   2.360   1.429   0.187
 6236SOL    HW120149   2.285   1.384   0.225
 6236SOL    HW220150   2.329   1.461   0.102
 6237SOL     OW20151   3.499   1.256   0.675
 6237SOL    HW120152   3.593   1.251   0.658
 6237SOL    HW220153   3.481   1.349   0.685
 6238SOL     OW20154   3.264   0.564   0.085
 6238SOL    HW120155   3.213   0.549   0.165
 6238SOL    HW220156   3.332   0.496   0.088
 6239SOL     OW20157   2.375   0.265   0.304
 6239SOL    HW120158   2.413   0.214   0.232
 6239SOL    HW220159   2.360   0.352   0.266
 6240SOL     OW20160   3.598   1.236   1.546
 6240SOL    HW120161   3.690   1.216   1.532
 6240SOL    HW220162   3.597   1.323   1.586
 6241SOL     OW20163   2.917   1.342   1.313
 6241SOL    HW120164   2.841   1.322   1.368
 6241SOL    HW220165   2.992   1.311   1.364
 6242SOL     OW20166   3.462   1.539   1.614
 6242SOL    HW120167   3.477   1.620   1.565
 6242SOL    HW220168   3.426   1.568   1.698
 6243SOL     OW20169   2.968   1.181   1.094
 6243SOL    HW120170   2.943   1.238   1.167
 6243SOL    HW220171   2.963   1.238   1.016
 6244SOL     OW20172   3.488   1.099   1.078
 6244SOL    HW120173   3.481   1.163   1.149
 6244SOL    HW220174   3.416   1.119   1.020
 6245SOL     OW20175   2.772   0.122   1.386
 6245SOL    HW120176   2.804   0.119   1.296
 6245SOL    HW220177   2.852   0.128   1.439
 6246SOL     OW20178   2.847   1.126   1.723
 6246SOL    HW120179   2.758   1.145   1.752
 6246SOL    HW220180   2.839   1.043   1.675
 6247SOL     OW20181   2.579   1.075   0.369
 6247SOL    HW120182   2.562   1.050   0.460
 6247SOL    HW220183   2.656   1.023   0.344
 6248SOL     OW20184   2.286   0.823   1.254
 6248SOL    HW120185   2.354   0.835   1.320
 6248SOL    HW220186   2.252   0.735   1.271
 6249SOL     OW20187   3.127   0.381   1.285
 6249SOL    HW120188   3.160   0.461   1.327
 6249SOL    HW220189   3.038   0.404   1.258
 6250SOL     OW20190   1.946   1.570   1.358
 6250SOL    HW120191   1.939   1.666   1.358
 6250SOL    HW220192   2.040   1.553   1.351
 6251SOL     OW20193   2.193   1.132   0.493
 6251SOL    HW120194   2.180   1.206   0.433
 6251SOL    HW220195   2.198   1.056   0.436
 6252SOL     OW20196   2.416   0.513   0.849
 6252SOL    HW120197   2.423   0.574   0.776
 6252SOL    HW220198   2.476   0.548   0.915
 6253SOL     OW20199   3.105   1.356   0.380
 6253SOL    HW120200   3.159   1.427   0.415
 6253SOL    HW220201   3.018   1.370   0.417
 6254SOL     OW20202   3.137   1.466   1.161
 6254SOL    HW120203   3.206   1.481   1.227
 6254SOL    HW220204   3.067   1.423   1.210
 6255SOL     OW20205   3.419   0.613   0.504
 6255SOL    HW120206   3.371   0.669   0.564
 6255SOL    HW220207   3.477   0.672   0.456
 6256SOL     OW20208   2.207   1.504   1.311
 6256SOL    HW120209   2.201   1.466   1.223
 6256SOL    HW220210   2.299   1.528   1.320
 6257SOL     OW20211   2.302   0.732   1.618
 6257SOL    HW120212   2.349   0.784   1.552
 6257SOL    HW220213   2.368   0.671   1.651
 6258SOL     OW20214   3.470   0.776   1.684
 6258SOL    HW120215   3.385   0.820   1.680
 6258SOL    HW220216   3.524   0.822   1.619
 6259SOL     OW20217   2.917   0.056   1.733
 6259SOL    HW120218   2.930   0.148   1.755
 6259SOL    HW220219   2.822   0.046   1.725
 6260SOL     OW20220   2.338   0.016   1.731
 6260SOL    HW120221   2.341  -0.021   1.643
 6260SOL    HW220222   2.295   0.100   1.720
 6261SOL     OW20223   2.447   0.879   1.034
 6261SOL    HW120224   2.489   0.964   1.035
 6261SOL    HW220225   2.393   0.877   1.113
 6262SOL     OW20226   3.197   0.854   1.008
 6262SOL    HW120227   3.108   0.837   0.977
 6262SOL    HW220228   3.242   0.770   0.998
 6263SOL     OW20229   3.079   0.538   0.285
 6263SOL    HW120230   3.089   0.459   0.338
 6263SOL    HW220231   3.025   0.597   0.338
 6264SOL     OW20232   2.160   0.203   1.237
 6264SOL    HW120233   2.118   0.227   1.319
 6264SOL    HW220234   2.139   0.110   1.226
 6265SOL     OW20235   1.900   1.315   1.268
 6265SOL    HW120236   1.933   1.259   1.339
 6265SOL    HW220237   1.911   1.404   1.301
 6266SOL     OW20238   2.567   0.628   1.043
 6266SOL    HW120239   2.650   0.624   0.995
 6266SOL    HW220240   2.539   0.719   1.035
 6267SOL     OW20241   3.610   0.950   1.868
 6267SOL    HW120242   3.554   0.900   1.808
 6267SOL    HW220243   3.551   0.977   1.938
 6268SOL     OW20244   2.245   0.070   0.661
 6268SOL    HW120245   2.210   0.152   0.694
 6268SOL    HW220246   2.216   0.004   0.723
 6269SOL     OW20247   3.475   0.387   0.361
 6269SOL    HW120248   3.493   0.312   0.417
 6269SOL    HW220249   3.444   0.456   0.420
 6270SOL     OW20250   2.893   0.758   0.953
 6270SOL    HW120251   2.881   0.775   1.046
 6270SOL    HW220252   2.860   0.670   0.940
 6271SOL     OW20253   2.803   1.561   1.701
 6271SOL    HW120254   2.809   1.598   1.613
 6271SOL    HW220255   2.868   1.491   1.702
 6272SOL     OW20256   3.783   1.444   1.599
 6272SOL    HW120257   3.758   1.497   1.523
 6272SOL    HW220258   3.850   1.495   1.643
 6273SOL     OW20259   2.213   0.914   1.813
 6273SOL    HW120260   2.287   0.946   1.863
 6273SOL    HW220261   2.250   0.851   1.751
 6274SOL     OW20262   3.363   0.257   0.149
 6274SOL    HW120263   3.418   0.179   0.155
 6274SOL    HW220264   3.398   0.316   0.216
 6275SOL     OW20265   3.144   0.799  12.513
 6275SOL    HW120266   3.197   0.722  12.535
 6275SOL    HW220267   3.175   0.825  12.426
 6276SOL     OW20268   2.936   1.343   0.854
 6276SOL    HW120269   2.946   1.270   0.793
 6276SOL    HW220270   2.997   1.409   0.823
 6277SOL     OW20271   2.177   0.814   0.944
 6277SOL    HW120272   2.270   0.839   0.946
 6277SOL    HW220273   2.175   0.726   0.980
 6278SOL     OW20274   2.199   0.540   1.014
 6278SOL    HW120275   2.155   0.456   1.000
 6278SOL    HW220276   2.273   0.539   0.953
 6279SOL     OW20277   3.041   0.379   1.705
 6279SOL    HW120278   2.980   0.439   1.748
 6279SOL    HW220279   3.121   0.431   1.693
 6280SOL     OW20280   3.024   0.223   1.482
 6280SOL    HW120281   3.041   0.273   1.562
 6280SOL    HW220282   3.060   0.277   1.411
 6281SOL     OW20283   1.944   1.781   0.931
 6281SOL    HW120284   1.921   1.699   0.887
 6281SOL    HW220285   2.038   1.792   0.914
 6282SOL     OW20286   2.350   1.573   0.898
 6282SOL    HW120287   2.418   1.637   0.921
 6282SOL    HW220288   2.396   1.508   0.846
 6283SOL     OW20289   2.829   0.777   1.216
 6283SOL    HW120290   2.894   0.764   1.286
 6283SOL    HW220291   2.745   0.776   1.261
 6284SOL     OW20292   1.898   0.552   1.122
 6284SOL    HW120293   1.979   0.548   1.071
 6284SOL    HW220294   1.927   0.555   1.213
 6285SOL     OW20295   2.050   0.533   1.729
 6285SOL    HW120296   2.140   0.535   1.698
 6285SOL    HW220297   2.007   0.606   1.685
 6286SOL     OW20298   3.247   0.926   1.652
 6286SOL    HW120299   3.265   1.020   1.654
 6286SOL    HW220300   3.241   0.905   1.559
 6287SOL     OW20301   2.672   0.575   0.384
 6287SOL    HW120302   2.681   0.502   0.323
 6287SOL    HW220303   2.598   0.625   0.350
 6288SOL     OW20304   3.498   0.593   1.167
 6288SOL    HW120305   3.490   0.550   1.252
 6288SOL    HW220306   3.588   0.576   1.139
 6289SOL     OW20307   2.092   1.540   1.723
 6289SOL    HW120308   2.081   1.611   1.786
 6289SOL    HW220309   2.108   1.462   1.777
 6290SOL     OW20310   2.585   0.455   1.251
 6290SOL    HW120311   2.524   0.384   1.233
 6290SOL    HW220312   2.571   0.518   1.180
 6291SOL     OW20313   2.817   1.660   1.443
 6291SOL    HW120314   2.766   1.642   1.364
 6291SOL    HW220315   2.813   1.755   1.452
 6292SOL     OW20316   2.343   0.491   0.159
 6292SOL    HW120317   2.381   0.568   0.202
 6292SOL    HW220318   2.270   0.525   0.109
 6293SOL     OW20319   1.987   1.141   1.472
 6293SOL    HW120320   1.993   1.096   1.556
 6293SOL    HW220321   2.011   1.075   1.407
 6294SOL     OW20322   3.172   1.034   1.212
 6294SOL    HW120323   3.197   0.977   1.139
 6294SOL    HW220324   3.101   1.088   1.177
 6295SOL     OW20325   3.150   0.850   0.307
 6295SOL    HW120326   3.084   0.814   0.367
 6295SOL    HW220327   3.143   0.795   0.229
 6296SOL     OW20328   3.610   1.743   1.127
 6296SOL    HW120329   3.684   1.765   1.071
 6296SOL    HW220330   3.602   1.648   1.120
 6297SOL     OW20331   3.095   1.723   1.064
 6297SOL    HW120332   3.183   1.754   1.043
 6297SOL    HW220333   3.109   1.639   1.109
 6298SOL     OW20334   1.957   1.257   1.010
 6298SOL    HW120335   1.936   1.279   1.101
 6298SOL    HW220336   1.882   1.205   0.980
 6299SOL     OW20337   2.550   1.665   1.753
 6299SOL    HW120338   2.538   1.760   1.758
 6299SOL    HW220339   2.644   1.654   1.738
 6300SOL     OW20340   2.801   0.107   0.056
 6300SOL    HW120341   2.885   0.136   0.093
 6300SOL    HW220342   2.752   0.075   0.132
 6301SOL     OW20343   3.533   0.151   0.502
 6301SOL    HW120344   3.621   0.124   0.474
 6301SOL    HW220345   3.517   0.100   0.582
 6302SOL     OW20346   3.244   1.572   0.477
 6302SOL    HW120347   3.313   1.608   0.421
 6302SOL    HW220348   3.202   1.649   0.516
 6303SOL     OW20349   2.005   1.793   1.839
 6303SOL    HW120350   1.955   1.727   1.888
 6303SOL    HW220351   2.057   1.837   1.906
 6304SOL     OW20352   3.133   0.931   0.663
 6304SOL    HW120353   3.209   0.876   0.682
 6304SOL    HW220354   3.167   1.000   0.606
 6305SOL     OW20355   2.664   1.281   1.421
 6305SOL    HW120356   2.640   1.323   1.503
 6305SOL    HW220357   2.593   1.303   1.361
 6306SOL     OW20358   3.484   1.738   1.383
 6306SOL    HW120359   3.529   1.749   1.299
 6306SOL    HW220360   3.465   1.827   1.412
 6307SOL     OW20361   3.720   0.161   0.938
 6307SOL    HW120362   3.709   0.077   0.982
 6307SOL    HW220363   3.632   0.184   0.908
 6308SOL     OW20364   2.121   0.305   0.718
 6308SOL    HW120365   2.040   0.351   0.693
 6308SOL    HW220366   2.122   0.310   0.814
 6309SOL     OW20367   3.003   1.604   0.037
 6309SOL    HW120368   3.053   1.523   0.043
 6309SOL    HW220369   3.037   1.647  -0.042
 6310SOL     OW20370   2.692   1.014   1.369
 6310SOL    HW120371   2.739   1.019   1.285
 6310SOL    HW220372   2.683   1.105   1.396
 6311SOL     OW20373   2.794   0.930   0.288
 6311SOL    HW120374   2.859   0.954   0.223
 6311SOL    HW220375   2.834   0.858   0.337
 6312SOL     OW20376   3.293   1.582   0.022
 6312SOL    HW120377   3.239   1.637   0.079
 6312SOL    HW220378   3.369   1.636   0.000
 6313SOL     OW20379   2.224   1.290   1.493
 6313SOL    HW120380   2.219   1.368   1.437
 6313SOL    HW220381   2.140   1.246   1.480
 6314SOL     OW20382   3.465   1.287   1.282
 6314SOL    HW120383   3.520   1.270   1.358
 6314SOL    HW220384   3.408   1.358   1.309
 6315SOL     OW20385   2.926   1.115   0.705
 6315SOL    HW120386   2.856   1.065   0.747
 6315SOL    HW220387   2.993   1.051   0.686
 6316SOL     OW20388   2.895   0.268   0.949
 6316SOL    HW120389   2.880   0.212   0.873
 6316SOL    HW220390   2.899   0.208   1.023
 6317SOL     OW20391   2.433   1.464   0.471
 6317SOL    HW120392   2.424   1.384   0.420
 6317SOL    HW220393   2.345   1.500   0.475
 6318SOL     OW20394   3.585   0.414   1.384
 6318SOL    HW120395   3.656   0.478   1.390
 6318SOL    HW220396   3.617   0.349   1.322
 6319SOL     OW20397   2.135   1.335   0.312
 6319SOL    HW120398   2.053   1.340   0.262
 6319SOL    HW220399   2.116   1.382   0.393
 6320SOL     OW20400   1.972   1.010   1.712
 6320SOL    HW120401   1.899   0.999   1.773
 6320SOL    HW220402   2.049   0.986   1.763
 6321SOL     OW20403   2.524   0.200   1.487
 6321SOL    HW120404   2.605   0.159   1.457
 6321SOL    HW220405   2.541   0.222   1.579
 6322SOL     OW20406   3.281   0.853   1.388
 6322SOL    HW120407   3.231   0.916   1.336
 6322SOL    HW220408   3.371   0.863   1.357
 6323SOL     OW20409   1.958   0.199   0.256
 6323SOL    HW120410   1.941   0.270   0.318
 6323SOL    HW220411   2.038   0.157   0.289
 6324SOL     OW20412   3.075   1.312   0.111
 6324SOL    HW120413   2.981   1.320   0.092
 6324SOL    HW220414   3.082   1.330   0.205
 6325SOL     OW20415   2.486   0.838   1.433
 6325SOL    HW120416   2.539   0.917   1.421
 6325SOL    HW220417   2.551   0.768   1.445
 6326SOL     OW20418   3.355   1.789   0.985
 6326SOL    HW120419   3.379   1.866   0.933
 6326SOL    HW220420   3.433   1.767   1.034
 6327SOL     OW20421   2.551   0.589   1.697
 6327SOL    HW120422   2.606   0.647   1.748
 6327SOL    HW220423   2.558   0.504   1.741
 6328SOL     OW20424   3.328   1.187   1.622
 6328SOL    HW120425   3.317   1.208   1.715
 6328SOL    HW220426   3.416   1.217   1.601
 6329SOL     OW20427   2.210   1.719   1.535
 6329SOL    HW120428   2.123   1.760   1.542
 6329SOL    HW220429   2.203   1.640   1.589
 6330SOL     OW20430   3.521   0.883   1.253
 6330SOL    HW120431   3.522   0.804   1.199
 6330SOL    HW220432   3.515   0.955   1.190
 6331SOL     OW20433   3.085   0.309   0.438
 6331SOL    HW120434   3.148   0.237   0.440
 6331SOL    HW220435   3.102   0.357   0.519
 6332SOL     OW20436   2.445   0.727   0.675
 6332SOL    HW120437   2.487   0.813   0.665
 6332SOL    HW220438   2.379   0.724   0.606
 6333SOL     OW20439   3.606   0.377   1.651
 6333SOL    HW120440   3.600   0.391   1.557
 6333SOL    HW220441   3.544   0.306   1.669
 6334SOL     OW20442   3.603   0.935   1.514
 6334SOL    HW120443   3.599   1.029   1.530
 6334SOL    HW220444   3.590   0.925   1.420
 6335SOL     OW20445   2.806   1.356   0.052
 6335SOL    HW120446   2.748   1.335   0.125
 6335SOL    HW220447   2.789   1.448   0.034
 6336SOL     OW20448   2.526   1.776   0.920
 6336SOL    HW120449   2.508   1.870   0.920
 6336SOL    HW220450   2.621   1.770   0.928
 6337SOL     OW20451   2.733   0.973   0.849
 6337SOL    HW120452   2.788   0.905   0.888
 6337SOL    HW220453   2.692   1.017   0.924
 6338SOL     OW20454   2.961   0.998   0.072
 6338SOL    HW120455   2.993   1.075   0.024
 6338SOL    HW220456   3.037   0.940   0.075
 6339SOL     OW20457   3.717   1.551   0.845
 6339SOL    HW120458   3.652   1.521   0.781
 6339SOL    HW220459   3.700   1.499   0.923
 6340SOL     OW20460   2.098   1.298   1.868
 6340SOL    HW120461   2.009   1.263   1.858
 6340SOL    HW220462   2.107   1.312   1.963
 6341SOL     OW20463   1.957   1.225   0.669
 6341SOL    HW120464   1.979   1.188   0.755
 6341SOL    HW220465   2.021   1.185   0.609
 6342SOL     OW20466   2.531   1.415   1.617
 6342SOL    HW120467   2.463   1.372   1.668
 6342SOL    HW220468   2.541   1.501   1.659
 6343SOL     OW20469   3.679   0.226   1.222
 6343SOL    HW120470   3.615   0.156   1.206
 6343SOL    HW220471   3.709   0.251   1.135
 6344SOL     OW20472   2.282   0.424   0.521
 6344SOL    HW120473   2.319   0.356   0.465
 6344SOL    HW220474   2.235   0.376   0.590
 6345SOL     OW20475   3.566   1.475   1.081
 6345SOL    HW120476   3.479   1.462   1.044
 6345SOL    HW220477   3.569   1.415   1.156
 6346SOL     OW20478   2.199   0.564   1.292
 6346SOL    HW120479   2.252   0.503   1.344
 6346SOL    HW220480   2.218   0.541   1.201
 6347SOL     OW20481   2.698   1.567   0.687
 6347SOL    HW120482   2.665   1.631   0.623
 6347SOL    HW220483   2.623   1.509   0.703
 6348SOL     OW20484   3.283   0.220   1.120
 6348SOL    HW120485   3.345   0.165   1.167
 6348SOL    HW220486   3.237   0.268   1.189
 6349SOL     OW20487   2.893   0.075   1.135
 6349SOL    HW120488   2.829   0.004   1.125
 6349SOL    HW220489   2.976   0.030   1.153
 6350SOL     OW20490   2.659   1.334   0.291
 6350SOL    HW120491   2.624   1.247   0.312
 6350SOL    HW220492   2.728   1.348   0.356
 6351SOL     OW20493   2.478   1.556   1.277
 6351SOL    HW120494   2.472   1.641   1.320
 6351SOL    HW220495   2.569   1.551   1.247
 6352SOL     OW20496   3.194  -0.008   0.136
 6352SOL    HW120497   3.280   0.031   0.122
 6352SOL    HW220498   3.135   0.066   0.148
 6353SOL     OW20499   3.126   0.453   0.665
 6353SOL    HW120500   3.088   0.541   0.673
 6353SOL    HW220501   3.151   0.430   0.754
 6354SOL     OW20502   3.470   0.226   0.867
 6354SOL    HW120503   3.391   0.225   0.921
 6354SOL    HW220504   3.464   0.308   0.817
 6355SOL     OW20505   1.906   1.076   0.329
 6355SOL    HW120506   1.998   1.073   0.304
 6355SOL    HW220507   1.891   0.995   0.377
 6356SOL     OW20508   2.718   1.662   0.388
 6356SOL    HW120509   2.795   1.689   0.338
 6356SOL    HW220510   2.697   1.738   0.443
 6357SOL     OW20511   2.075   0.616   2.000
 6357SOL    HW120512   1.989   0.611   2.041
 6357SOL    HW220513   2.057   0.603   1.906
 6358SOL     OW20514   2.089   0.296   2.850
 6358SOL    HW120515   2.118   0.257   2.932
 6358SOL    HW220516   2.005   0.254   2.831
 6359SOL     OW20517   1.872   0.403   2.496
 6359SOL    HW120518   1.785   0.423   2.531
 6359SOL    HW220519   1.861   0.320   2.449
 6360SOL     OW20520   2.429   1.293   3.043
 6360SOL    HW120521   2.347   1.308   2.995
 6360SOL    HW220522   2.449   1.379   3.082
 6361SOL     OW20523   3.434   1.510   2.574
 6361SOL    HW120524   3.386   1.495   2.655
 6361SOL    HW220525   3.367   1.521   2.507
 6362SOL     OW20526   2.996   0.696   2.555
 6362SOL    HW120527   3.044   0.777   2.538
 6362SOL    HW220528   2.952   0.711   2.638
 6363SOL     OW20529   3.661   0.583   2.082
 6363SOL    HW120530   3.621   0.586   1.995
 6363SOL    HW220531   3.610   0.518   2.130
 6364SOL     OW20532   2.603   1.129   2.914
 6364SOL    HW120533   2.536   1.169   2.970
 6364SOL    HW220534   2.646   1.204   2.872
 6365SOL     OW20535   2.740   0.745   3.696
 6365SOL    HW120536   2.725   0.785   3.782
 6365SOL    HW220537   2.708   0.811   3.634
 6366SOL     OW20538   2.545   0.985   2.511
 6366SOL    HW120539   2.614   0.986   2.578
 6366SOL    HW220540   2.479   1.045   2.544
 6367SOL     OW20541   2.205   1.399   2.913
 6367SOL    HW120542   2.123   1.370   2.871
 6367SOL    HW220543   2.243   1.460   2.850
 6368SOL     OW20544   3.321   1.506   3.228
 6368SOL    HW120545   3.374   1.585   3.241
 6368SOL    HW220546   3.247   1.517   3.288
 6369SOL     OW20547   2.316   0.374   3.306
 6369SOL    HW120548   2.394   0.326   3.336
 6369SOL    HW220549   2.243   0.327   3.347
 6370SOL     OW20550   3.466   0.458   2.590
 6370SOL    HW120551   3.386   0.473   2.538
 6370SOL    HW220552   3.473   0.535   2.646
 6371SOL     OW20553   2.086   1.715   2.329
 6371SOL    HW120554   2.105   1.788   2.387
 6371SOL    HW220555   2.169   1.700   2.282
 6372SOL     OW20556   2.999   1.343   3.555
 6372SOL    HW120557   3.037   1.342   3.643
 6372SOL    HW220558   2.945   1.264   3.551
 6373SOL     OW20559   2.081   1.443   2.389
 6373SOL    HW120560   2.076   1.539   2.390
 6373SOL    HW220561   2.035   1.415   2.468
 6374SOL     OW20562   2.125   1.094   2.742
 6374SOL    HW120563   2.128   1.007   2.783
 6374SOL    HW220564   2.074   1.147   2.804
 6375SOL     OW20565   2.456   1.780   3.271
 6375SOL    HW120566   2.377   1.768   3.325
 6375SOL    HW220567   2.489   1.866   3.296
 6376SOL     OW20568   2.434   0.991   2.007
 6376SOL    HW120569   2.484   1.033   1.938
 6376SOL    HW220570   2.474   1.021   2.088
 6377SOL     OW20571   3.520   0.123   3.351
 6377SOL    HW120572   3.462   0.131   3.276
 6377SOL    HW220573   3.469   0.156   3.425
 6378SOL     OW20574   1.984   0.661   2.424
 6378SOL    HW120575   1.952   0.574   2.448
 6378SOL    HW220576   1.975   0.713   2.504
 6379SOL     OW20577   3.712   1.748   2.189
 6379SOL    HW120578   3.782   1.726   2.251
 6379SOL    HW220579   3.723   1.841   2.172
 6380SOL     OW20580   1.898   1.588   1.980
 6380SOL    HW120581   1.884   1.496   2.003
 6380SOL    HW220582   1.878   1.636   2.061
 6381SOL     OW20583   3.541   0.903   2.488
 6381SOL    HW120584   3.635   0.885   2.485
 6381SOL    HW220585   3.526   0.968   2.420
 6382SOL     OW20586   3.515   1.105   2.296
 6382SOL    HW120587   3.601   1.108   2.254
 6382SOL    HW220588   3.522   1.167   2.368
 6383SOL     OW20589   1.996   0.754   3.445
 6383SOL    HW120590   2.090   0.771   3.451
 6383SOL    HW220591   1.956   0.837   3.470
 6384SOL     OW20592   2.478   1.393   2.592
 6384SOL    HW120593   2.436   1.307   2.599
 6384SOL    HW220594   2.462   1.420   2.502
 6385SOL     OW20595   3.147   1.233   3.278
 6385SOL    HW120596   3.184   1.168   3.218
 6385SOL    HW220597   3.207   1.234   3.352
 6386SOL     OW20598   2.714   0.007   2.396
 6386SOL    HW120599   2.741   0.097   2.376
 6386SOL    HW220600   2.619   0.013   2.405
 6387SOL     OW20601   2.048   0.960   3.144
 6387SOL    HW120602   2.136   0.926   3.131
 6387SOL    HW220603   1.994   0.912   3.081
 6388SOL     OW20604   3.402   0.993   2.067
 6388SOL    HW120605   3.333   0.937   2.102
 6388SOL    HW220606   3.440   1.035   2.145
 6389SOL     OW20607   3.056   1.827   3.491
 6389SOL    HW120608   3.057   1.893   3.421
 6389SOL    HW220609   3.080   1.746   3.446
 6390SOL     OW20610   2.171   0.229   3.638
 6390SOL    HW120611   2.241   0.284   3.673
 6390SOL    HW220612   2.095   0.249   3.691
 6391SOL     OW20613   3.327   1.418   2.819
 6391SOL    HW120614   3.257   1.434   2.882
 6391SOL    HW220615   3.312   1.327   2.790
 6392SOL     OW20616   3.524   1.758   2.443
 6392SOL    HW120617   3.499   1.728   2.356
 6392SOL    HW220618   3.498   1.687   2.501
 6393SOL     OW20619   2.459   0.715   2.138
 6393SOL    HW120620   2.467   0.803   2.100
 6393SOL    HW220621   2.393   0.725   2.207
 6394SOL     OW20622   3.161   0.374   2.799
 6394SOL    HW120623   3.070   0.345   2.802
 6394SOL    HW220624   3.206   0.318   2.862
 6395SOL     OW20625   3.445   1.672   2.188
 6395SOL    HW120626   3.537   1.696   2.172
 6395SOL    HW220627   3.408   1.661   2.101
 6396SOL     OW20628   2.677   0.648   3.317
 6396SOL    HW120629   2.632   0.628   3.399
 6396SOL    HW220630   2.640   0.587   3.254
 6397SOL     OW20631   3.261   0.510   3.539
 6397SOL    HW120632   3.270   0.533   3.632
 6397SOL    HW220633   3.319   0.435   3.527
 6398SOL     OW20634   2.892   0.897   3.415
 6398SOL    HW120635   2.890   0.801   3.406
 6398SOL    HW220636   2.820   0.928   3.362
 6399SOL     OW20637   2.862   0.408   3.072
 6399SOL    HW120638   2.782   0.434   3.118
 6399SOL    HW220639   2.835   0.395   2.981
 6400SOL     OW20640   2.914   0.691   2.287
 6400SOL    HW120641   2.935   0.691   2.381
 6400SOL    HW220642   2.829   0.648   2.281
 6401SOL     OW20643   1.948   0.828   2.639
 6401SOL    HW120644   2.030   0.823   2.687
 6401SOL    HW220645   1.900   0.899   2.680
 6402SOL     OW20646   1.976   1.851   3.442
 6402SOL    HW120647   1.990   1.830   3.535
 6402SOL    HW220648   1.885   1.881   3.438
 6403SOL     OW20649   2.748   0.347   2.033
 6403SOL    HW120650   2.798   0.411   1.982
 6403SOL    HW220651   2.800   0.266   2.027
 6404SOL     OW20652   3.569   0.577   3.687
 6404SOL    HW120653   3.531   0.649   3.637
 6404SOL    HW220654   3.593   0.512   3.622
 6405SOL     OW20655   3.244   1.138   2.398
 6405SOL    HW120656   3.325   1.139   2.348
 6405SOL    HW220657   3.190   1.207   2.358
 6406SOL     OW20658   2.407   0.251   2.771
 6406SOL    HW120659   2.392   0.258   2.865
 6406SOL    HW220660   2.407   0.342   2.740
 6407SOL     OW20661   2.857   1.443   2.327
 6407SOL    HW120662   2.831   1.519   2.276
 6407SOL    HW220663   2.832   1.464   2.417
 6408SOL     OW20664   2.214   1.818   2.737
 6408SOL    HW120665   2.260   1.735   2.743
 6408SOL    HW220666   2.280   1.884   2.760
 6409SOL     OW20667   3.656   1.031   2.737
 6409SOL    HW120668   3.602   1.057   2.662
 6409SOL    HW220669   3.600   1.048   2.813
 6410SOL     OW20670   3.083   1.547   3.366
 6410SOL    HW120671   3.067   1.475   3.426
 6410SOL    HW220672   2.996   1.576   3.338
 6411SOL     OW20673   2.174   0.968   2.122
 6411SOL    HW120674   2.259   0.987   2.082
 6411SOL    HW220675   2.147   0.884   2.084
 6412SOL     OW20676   3.342   0.741   2.573
 6412SOL    HW120677   3.340   0.717   2.665
 6412SOL    HW220678   3.416   0.801   2.565
 6413SOL     OW20679   2.323   1.303   3.612
 6413SOL    HW120680   2.308   1.294   3.517
 6413SOL    HW220681   2.237   1.289   3.651
 6414SOL     OW20682   2.991   1.765   2.100
 6414SOL    HW120683   2.910   1.742   2.145
 6414SOL    HW220684   3.004   1.694   2.037
 6415SOL     OW20685   2.054   0.269   3.364
 6415SOL    HW120686   1.994   0.343   3.358
 6415SOL    HW220687   2.070   0.258   3.458
 6416SOL     OW20688   3.496   1.370   1.952
 6416SOL    HW120689   3.461   1.458   1.935
 6416SOL    HW220690   3.425   1.311   1.927
 6417SOL     OW20691   2.333   1.720   2.200
 6417SOL    HW120692   2.373   1.790   2.252
 6417SOL    HW220693   2.394   1.705   2.128
 6418SOL     OW20694   3.263   0.127   2.273
 6418SOL    HW120695   3.276   0.079   2.191
 6418SOL    HW220696   3.351   0.137   2.309
 6419SOL     OW20697   2.117   1.796   3.121
 6419SOL    HW120698   2.156   1.767   3.203
 6419SOL    HW220699   2.156   1.739   3.055
 6420SOL     OW20700   2.800   1.702   2.758
 6420SOL    HW120701   2.879   1.657   2.788
 6420SOL    HW220702   2.767   1.648   2.686
 6421SOL     OW20703   2.260   0.687   2.333
 6421SOL    HW120704   2.275   0.595   2.355
 6421SOL    HW220705   2.167   0.701   2.351
 6422SOL     OW20706   3.384   0.231   3.576
 6422SOL    HW120707   3.400   0.251   3.668
 6422SOL    HW220708   3.331   0.151   3.578
 6423SOL     OW20709   2.414   0.103   1.978
 6423SOL    HW120710   2.506   0.081   1.996
 6423SOL    HW220711   2.399   0.072   1.889
 6424SOL     OW20712   2.581   0.300   3.625
 6424SOL    HW120713   2.672   0.299   3.652
 6424SOL    HW220714   2.533   0.265   3.700
 6425SOL     OW20715   2.734   1.516   3.051
 6425SOL    HW120716   2.714   1.476   2.966
 6425SOL    HW220717   2.802   1.461   3.089
 6426SOL     OW20718   2.685   1.375   2.807
 6426SOL    HW120719   2.772   1.371   2.768
 6426SOL    HW220720   2.626   1.393   2.734
 6427SOL     OW20721   2.791   0.513   2.755
 6427SOL    HW120722   2.757   0.509   2.666
 6427SOL    HW220723   2.832   0.428   2.769
 6428SOL     OW20724   2.445   0.025   2.287
 6428SOL    HW120725   2.375  -0.011   2.341
 6428SOL    HW220726   2.430   0.120   2.287
 6429SOL     OW20727   3.290   1.188   1.894
 6429SOL    HW120728   3.317   1.120   1.956
 6429SOL    HW220729   3.207   1.221   1.931
 6430SOL     OW20730   2.157   0.031   2.072
 6430SOL    HW120731   2.239   0.069   2.042
 6430SOL    HW220732   2.179  -0.008   2.157
 6431SOL     OW20733   2.814   0.242   2.308
 6431SOL    HW120734   2.774   0.296   2.240
 6431SOL    HW220735   2.904   0.274   2.314
 6432SOL     OW20736   2.949   0.622   3.330
 6432SOL    HW120737   2.854   0.635   3.333
 6432SOL    HW220738   2.961   0.527   3.332
 6433SOL     OW20739   3.084   1.574   2.656
 6433SOL    HW120740   3.093   1.638   2.585
 6433SOL    HW220741   3.135   1.611   2.728
 6434SOL     OW20742   2.337   1.152   2.581
 6434SOL    HW120743   2.272   1.135   2.650
 6434SOL    HW220744   2.288   1.144   2.499
 6435SOL     OW20745   3.118   1.791   2.477
 6435SOL    HW120746   3.166   1.852   2.422
 6435SOL    HW220747   3.049   1.843   2.517
 6436SOL     OW20748   2.892   0.531   1.884
 6436SOL    HW120749   2.845   0.612   1.863
 6436SOL    HW220750   2.949   0.554   1.957
 6437SOL     OW20751   1.951   0.562   3.261
 6437SOL    HW120752   2.042   0.562   3.231
 6437SOL    HW220753   1.947   0.634   3.323
 6438SOL     OW20754   2.433   0.220   3.066
 6438SOL    HW120755   2.468   0.202   3.153
 6438SOL    HW220756   2.338   0.220   3.078
 6439SOL     OW20757   2.716   0.456   2.496
 6439SOL    HW120758   2.686   0.512   2.424
 6439SOL    HW220759   2.731   0.371   2.455
 6440SOL     OW20760   2.867   0.037   2.635
 6440SOL    HW120761   2.796   0.035   2.570
 6440SOL    HW220762   2.850  -0.038   2.692
 6441SOL     OW20763   3.308   1.159   2.722
 6441SOL    HW120764   3.225   1.111   2.718
 6441SOL    HW220765   3.333   1.170   2.630
 6442SOL     OW20766   3.321   0.611   2.820
 6442SOL    HW120767   3.270   0.530   2.821
 6442SOL    HW220768   3.380   0.602   2.896
 6443SOL     OW20769   3.712   0.803   2.240
 6443SOL    HW120770   3.767   0.757   2.304
 6443SOL    HW220771   3.690   0.736   2.175
 6444SOL     OW20772   2.353   1.419   2.006
 6444SOL    HW120773   2.278   1.392   2.059
 6444SOL    HW220774   2.349   1.362   1.929
 6445SOL     OW20775   3.542   1.254   2.519
 6445SOL    HW120776   3.637   1.258   2.528
 6445SOL    HW220777   3.513   1.344   2.535
 6446SOL     OW20778   3.254   0.577   1.940
 6446SOL    HW120779   3.187   0.561   2.007
 6446SOL    HW220780   3.336   0.585   1.989
 6447SOL     OW20781   2.375   0.281   2.181
 6447SOL    HW120782   2.389   0.221   2.108
 6447SOL    HW220783   2.356   0.365   2.139
 6448SOL     OW20784   3.612   1.242   3.420
 6448SOL    HW120785   3.699   1.208   3.401
 6448SOL    HW220786   3.627   1.331   3.450
 6449SOL     OW20787   2.915   1.336   3.172
 6449SOL    HW120788   2.838   1.314   3.223
 6449SOL    HW220789   2.989   1.307   3.225
 6450SOL     OW20790   3.471   1.617   3.517
 6450SOL    HW120791   3.464   1.662   3.433
 6450SOL    HW220792   3.555   1.573   3.515
 6451SOL     OW20793   2.983   1.184   2.952
 6451SOL    HW120794   2.947   1.235   3.024
 6451SOL    HW220795   2.968   1.239   2.874
 6452SOL     OW20796   3.484   1.098   2.940
 6452SOL    HW120797   3.476   1.165   3.009
 6452SOL    HW220798   3.412   1.117   2.880
 6453SOL     OW20799   2.789   0.126   3.258
 6453SOL    HW120800   2.814   0.124   3.166
 6453SOL    HW220801   2.871   0.111   3.305
 6454SOL     OW20802   2.852   1.109   3.587
 6454SOL    HW120803   2.757   1.108   3.597
 6454SOL    HW220804   2.871   1.035   3.530
 6455SOL     OW20805   2.568   1.053   2.239
 6455SOL    HW120806   2.555   1.035   2.332
 6455SOL    HW220807   2.643   1.000   2.214
 6456SOL     OW20808   2.285   0.823   3.115
 6456SOL    HW120809   2.350   0.841   3.183
 6456SOL    HW220810   2.252   0.735   3.135
 6457SOL     OW20811   3.120   0.398   3.142
 6457SOL    HW120812   3.153   0.485   3.119
 6457SOL    HW220813   3.028   0.400   3.116
 6458SOL     OW20814   1.950   1.571   3.220
 6458SOL    HW120815   1.950   1.666   3.206
 6458SOL    HW220816   2.043   1.547   3.215
 6459SOL     OW20817   2.184   1.129   2.352
 6459SOL    HW120818   2.196   1.207   2.299
 6459SOL    HW220819   2.185   1.057   2.290
 6460SOL     OW20820   2.415   0.518   2.712
 6460SOL    HW120821   2.423   0.578   2.638
 6460SOL    HW220822   2.474   0.553   2.778
 6461SOL     OW20823   3.110   1.346   2.270
 6461SOL    HW120824   3.164   1.422   2.294
 6461SOL    HW220825   3.021   1.372   2.292
 6462SOL     OW20826   3.145   1.464   3.024
 6462SOL    HW120827   3.208   1.473   3.096
 6462SOL    HW220828   3.070   1.421   3.064
 6463SOL     OW20829   3.439   0.633   2.331
 6463SOL    HW120830   3.387   0.664   2.405
 6463SOL    HW220831   3.487   0.710   2.301
 6464SOL     OW20832   2.204   1.489   3.166
 6464SOL    HW120833   2.201   1.453   3.077
 6464SOL    HW220834   2.294   1.520   3.176
 6465SOL     OW20835   2.290   0.719   3.479
 6465SOL    HW120836   2.332   0.776   3.415
 6465SOL    HW220837   2.361   0.672   3.522
 6466SOL     OW20838   3.446   0.762   3.510
 6466SOL    HW120839   3.416   0.836   3.563
 6466SOL    HW220840   3.518   0.798   3.458
 6467SOL     OW20841   2.906   0.062   3.580
 6467SOL    HW120842   2.920   0.155   3.598
 6467SOL    HW220843   2.811   0.051   3.582
 6468SOL     OW20844   2.368   0.026   3.594
 6468SOL    HW120845   2.347  -0.027   3.517
 6468SOL    HW220846   2.302   0.095   3.594
 6469SOL     OW20847   2.445   0.878   2.897
 6469SOL    HW120848   2.488   0.964   2.901
 6469SOL    HW220849   2.392   0.874   2.976
 6470SOL     OW20850   3.195   0.852   2.873
 6470SOL    HW120851   3.105   0.838   2.843
 6470SOL    HW220852   3.239   0.768   2.857
 6471SOL     OW20853   3.052   0.525   2.118
 6471SOL    HW120854   3.063   0.451   2.178
 6471SOL    HW220855   3.016   0.595   2.173
 6472SOL     OW20856   2.159   0.199   3.099
 6472SOL    HW120857   2.119   0.229   3.181
 6472SOL    HW220858   2.132   0.108   3.092
 6473SOL     OW20859   1.897   1.316   3.134
 6473SOL    HW120860   1.933   1.261   3.203
 6473SOL    HW220861   1.911   1.406   3.165
 6474SOL     OW20862   2.566   0.628   2.907
 6474SOL    HW120863   2.652   0.630   2.865
 6474SOL    HW220864   2.535   0.719   2.904
 6475SOL     OW20865   3.589   0.965   3.711
 6475SOL    HW120866   3.546   1.043   3.675
 6475SOL    HW220867   3.550   0.954   3.798
 6476SOL     OW20868   2.279   0.077   2.538
 6476SOL    HW120869   2.227   0.156   2.553
 6476SOL    HW220870   2.216   0.012   2.509
 6477SOL     OW20871   3.492   0.394   2.213
 6477SOL    HW120872   3.497   0.325   2.279
 6477SOL    HW220873   3.466   0.472   2.261
 6478SOL     OW20874   2.899   0.756   2.818
 6478SOL    HW120875   2.887   0.772   2.912
 6478SOL    HW220876   2.864   0.668   2.804
 6479SOL     OW20877   2.848   1.575   3.578
 6479SOL    HW120878   2.834   1.613   3.492
 6479SOL    HW220879   2.881   1.487   3.561
 6480SOL     OW20880   3.716   1.494   3.465
 6480SOL    HW120881   3.735   1.529   3.378
 6480SOL    HW220882   3.794   1.515   3.517
 6481SOL     OW20883   2.209   0.914   3.671
 6481SOL    HW120884   2.282   0.965   3.704
 6481SOL    HW220885   2.249   0.851   3.610
 6482SOL     OW20886   3.395   0.266   1.987
 6482SOL    HW120887   3.382   0.179   2.024
 6482SOL    HW220888   3.431   0.318   2.059
 6483SOL     OW20889   3.143   0.827   1.884
 6483SOL    HW120890   3.190   0.744   1.890
 6483SOL    HW220891   3.177   0.869   1.805
 6484SOL     OW20892   2.941   1.344   2.722
 6484SOL    HW120893   2.948   1.275   2.656
 6484SOL    HW220894   2.996   1.415   2.688
 6485SOL     OW20895   2.174   0.816   2.803
 6485SOL    HW120896   2.266   0.842   2.808
 6485SOL    HW220897   2.172   0.728   2.840
 6486SOL     OW20898   2.194   0.540   2.874
 6486SOL    HW120899   2.154   0.454   2.860
 6486SOL    HW220900   2.269   0.541   2.814
 6487SOL     OW20901   3.034   0.362   3.568
 6487SOL    HW120902   2.969   0.416   3.612
 6487SOL    HW220903   3.109   0.420   3.554
 6488SOL     OW20904   3.052   0.212   3.334
 6488SOL    HW120905   3.032   0.259   3.415
 6488SOL    HW220906   3.073   0.281   3.271
 6489SOL     OW20907   1.862   1.314   2.052
 6489SOL    HW120908   1.774   1.331   2.018
 6489SOL    HW220909   1.857   1.226   2.088
 6490SOL     OW20910   1.944   1.783   2.792
 6490SOL    HW120911   1.921   1.701   2.748
 6490SOL    HW220912   2.038   1.793   2.776
 6491SOL     OW20913   2.349   1.574   2.756
 6491SOL    HW120914   2.417   1.637   2.781
 6491SOL    HW220915   2.393   1.511   2.699
 6492SOL     OW20916   2.847   0.778   3.083
 6492SOL    HW120917   2.890   0.732   3.155
 6492SOL    HW220918   2.798   0.849   3.125
 6493SOL     OW20919   1.901   0.550   2.984
 6493SOL    HW120920   1.983   0.556   2.935
 6493SOL    HW220921   1.928   0.554   3.076
 6494SOL     OW20922   2.058   0.530   3.589
 6494SOL    HW120923   2.148   0.543   3.561
 6494SOL    HW220924   2.009   0.599   3.545
 6495SOL     OW20925   3.230   0.947   3.520
 6495SOL    HW120926   3.251   1.030   3.562
 6495SOL    HW220927   3.210   0.969   3.429
 6496SOL     OW20928   2.675   0.558   2.231
 6496SOL    HW120929   2.673   0.494   2.159
 6496SOL    HW220930   2.606   0.620   2.209
 6497SOL     OW20931   3.497   0.596   3.027
 6497SOL    HW120932   3.496   0.546   3.109
 6497SOL    HW220933   3.586   0.586   2.994
 6498SOL     OW20934   2.090   1.547   3.578
 6498SOL    HW120935   2.086   1.619   3.641
 6498SOL    HW220936   2.109   1.470   3.631
 6499SOL     OW20937   2.591   0.467   3.125
 6499SOL    HW120938   2.524   0.399   3.114
 6499SOL    HW220939   2.576   0.527   3.052
 6500SOL     OW20940   2.824   1.665   3.314
 6500SOL    HW120941   2.770   1.630   3.243
 6500SOL    HW220942   2.809   1.759   3.311
 6501SOL     OW20943   2.322   0.502   2.029
 6501SOL    HW120944   2.378   0.574   2.060
 6501SOL    HW220945   2.235   0.540   2.026
 6502SOL     OW20946   1.988   1.141   3.336
 6502SOL    HW120947   1.993   1.094   3.419
 6502SOL    HW220948   2.012   1.076   3.270
 6503SOL     OW20949   3.178   1.034   3.074
 6503SOL    HW120950   3.198   0.975   3.002
 6503SOL    HW220951   3.108   1.090   3.041
 6504SOL     OW20952   3.190   0.842   2.159
 6504SOL    HW120953   3.115   0.844   2.219
 6504SOL    HW220954   3.152   0.846   2.072
 6505SOL     OW20955   3.631   1.736   3.017
 6505SOL    HW120956   3.695   1.761   2.951
 6505SOL    HW220957   3.609   1.645   2.996
 6506SOL     OW20958   3.097   1.724   2.938
 6506SOL    HW120959   3.184   1.754   2.911
 6506SOL    HW220960   3.112   1.638   2.976
 6507SOL     OW20961   1.955   1.258   2.875
 6507SOL    HW120962   1.935   1.280   2.966
 6507SOL    HW220963   1.877   1.210   2.845
 6508SOL     OW20964   2.535   1.671   3.606
 6508SOL    HW120965   2.480   1.749   3.593
 6508SOL    HW220966   2.621   1.697   3.570
 6509SOL     OW20967   3.519   0.150   2.374
 6509SOL    HW120968   3.610   0.125   2.357
 6509SOL    HW220969   3.499   0.109   2.458
 6510SOL     OW20970   3.257   1.568   2.362
 6510SOL    HW120971   3.314   1.601   2.293
 6510SOL    HW220972   3.202   1.643   2.386
 6511SOL     OW20973   2.002   1.797   3.705
 6511SOL    HW120974   1.954   1.729   3.753
 6511SOL    HW220975   2.055   1.840   3.771
 6512SOL     OW20976   3.139   0.922   2.516
 6512SOL    HW120977   3.215   0.866   2.531
 6512SOL    HW220978   3.173   0.998   2.471
 6513SOL     OW20979   2.669   1.277   3.289
 6513SOL    HW120980   2.650   1.312   3.375
 6513SOL    HW220981   2.588   1.288   3.239
 6514SOL     OW20982   2.538   1.613   2.033
 6514SOL    HW120983   2.542   1.647   1.943
 6514SOL    HW220984   2.480   1.537   2.028
 6515SOL     OW20985   3.479   1.732   3.256
 6515SOL    HW120986   3.530   1.738   3.175
 6515SOL    HW220987   3.465   1.822   3.282
 6516SOL     OW20988   3.716   0.175   2.813
 6516SOL    HW120989   3.713   0.088   2.852
 6516SOL    HW220990   3.630   0.187   2.774
 6517SOL     OW20991   2.117   0.295   2.576
 6517SOL    HW120992   2.040   0.345   2.551
 6517SOL    HW220993   2.121   0.304   2.672
 6518SOL     OW20994   3.036   1.575   1.904
 6518SOL    HW120995   3.131   1.588   1.902
 6518SOL    HW220996   3.003   1.628   1.831
 6519SOL     OW20997   2.726   1.004   3.205
 6519SOL    HW120998   2.713   1.046   3.120
 6519SOL    HW220999   2.698   1.070   3.268
 6520SOL     OW21000   2.770   0.895   2.159
 6520SOL    HW121001   2.823   0.929   2.087
 6520SOL    HW221002   2.829   0.836   2.206
 6521SOL     OW21003   2.227   1.289   3.357
 6521SOL    HW121004   2.220   1.361   3.295
 6521SOL    HW221005   2.145   1.240   3.348
 6522SOL     OW21006   3.471   1.292   3.141
 6522SOL    HW121007   3.527   1.275   3.216
 6522SOL    HW221008   3.409   1.358   3.171
 6523SOL     OW21009   2.934   1.111   2.578
 6523SOL    HW121010   2.859   1.065   2.616
 6523SOL    HW221011   2.993   1.042   2.548
 6524SOL     OW21012   2.903   0.262   2.801
 6524SOL    HW121013   2.896   0.202   2.726
 6524SOL    HW221014   2.901   0.205   2.878
 6525SOL     OW21015   2.461   1.486   2.338
 6525SOL    HW121016   2.514   1.438   2.275
 6525SOL    HW221017   2.413   1.550   2.286
 6526SOL     OW21018   3.579   0.433   3.240
 6526SOL    HW121019   3.657   0.489   3.250
 6526SOL    HW221020   3.609   0.359   3.187
 6527SOL     OW21021   2.118   1.344   2.143
 6527SOL    HW121022   2.025   1.338   2.123
 6527SOL    HW221023   2.121   1.385   2.229
 6528SOL     OW21024   1.968   1.005   3.572
 6528SOL    HW121025   1.897   0.995   3.636
 6528SOL    HW221026   2.047   0.984   3.622
 6529SOL     OW21027   2.534   0.212   3.358
 6529SOL    HW121028   2.611   0.160   3.333
 6529SOL    HW221029   2.547   0.230   3.451
 6530SOL     OW21030   1.947   0.329   1.885
 6530SOL    HW121031   1.851   0.331   1.883
 6530SOL    HW221032   1.973   0.406   1.835
 6531SOL     OW21033   3.273   0.844   3.246
 6531SOL    HW121034   3.224   0.907   3.192
 6531SOL    HW221035   3.363   0.851   3.215
 6532SOL     OW21036   1.917   0.171   2.130
 6532SOL    HW121037   1.929   0.246   2.072
 6532SOL    HW221038   1.998   0.121   2.122
 6533SOL     OW21039   3.057   1.293   1.998
 6533SOL    HW121040   3.009   1.373   1.976
 6533SOL    HW221041   3.078   1.302   2.090
 6534SOL     OW21042   2.470   0.844   3.307
 6534SOL    HW121043   2.488   0.904   3.379
 6534SOL    HW221044   2.552   0.796   3.294
 6535SOL     OW21045   3.349   1.788   2.843
 6535SOL    HW121046   3.364   1.863   2.785
 6535SOL    HW221047   3.432   1.777   2.890
 6536SOL     OW21048   2.558   0.575   3.551
 6536SOL    HW121049   2.605   0.633   3.611
 6536SOL    HW221050   2.562   0.489   3.594
 6537SOL     OW21051   3.340   1.202   3.486
 6537SOL    HW121052   3.324   1.228   3.577
 6537SOL    HW221053   3.430   1.229   3.469
 6538SOL     OW21054   2.203   1.717   3.368
 6538SOL    HW121055   2.134   1.775   3.402
 6538SOL    HW221056   2.203   1.643   3.429
 6539SOL     OW21057   3.519   0.882   3.116
 6539SOL    HW121058   3.519   0.802   3.064
 6539SOL    HW221059   3.509   0.952   3.052
 6540SOL     OW21060   3.075   0.324   2.312
 6540SOL    HW121061   3.141   0.255   2.301
 6540SOL    HW221062   3.104   0.372   2.390
 6541SOL     OW21063   2.451   0.722   2.532
 6541SOL    HW121064   2.489   0.810   2.528
 6541SOL    HW221065   2.385   0.721   2.463
 6542SOL     OW21066   3.607   0.378   3.506
 6542SOL    HW121067   3.594   0.393   3.413
 6542SOL    HW221068   3.535   0.320   3.532
 6543SOL     OW21069   3.614   0.934   3.371
 6543SOL    HW121070   3.601   1.028   3.388
 6543SOL    HW221071   3.591   0.923   3.279
 6544SOL     OW21072   2.699   1.366   1.899
 6544SOL    HW121073   2.683   1.395   1.989
 6544SOL    HW221074   2.729   1.445   1.854
 6545SOL     OW21075   2.525   1.775   2.787
 6545SOL    HW121076   2.508   1.869   2.783
 6545SOL    HW221077   2.621   1.769   2.790
 6546SOL     OW21078   2.735   0.973   2.717
 6546SOL    HW121079   2.788   0.905   2.757
 6546SOL    HW221080   2.695   1.019   2.790
 6547SOL     OW21081   2.915   0.962   1.945
 6547SOL    HW121082   2.911   1.044   1.896
 6547SOL    HW221083   2.998   0.922   1.918
 6548SOL     OW21084   3.696   1.545   2.702
 6548SOL    HW121085   3.620   1.543   2.644
 6548SOL    HW221086   3.664   1.511   2.785
 6549SOL     OW21087   2.080   1.301   3.727
 6549SOL    HW121088   1.991   1.268   3.720
 6549SOL    HW221089   2.096   1.310   3.821
 6550SOL     OW21090   1.959   1.210   2.528
 6550SOL    HW121091   1.992   1.175   2.610
 6550SOL    HW221092   2.025   1.186   2.463
 6551SOL     OW21093   2.567   1.401   3.512
 6551SOL    HW121094   2.496   1.351   3.553
 6551SOL    HW221095   2.551   1.491   3.541
 6552SOL     OW21096   3.690   0.242   3.090
 6552SOL    HW121097   3.668   0.150   3.109
 6552SOL    HW221098   3.702   0.244   2.995
 6553SOL     OW21099   2.295   0.428   2.402
 6553SOL    HW121100   2.321   0.364   2.336
 6553SOL    HW221101   2.237   0.379   2.461
 6554SOL     OW21102   3.566   1.477   2.939
 6554SOL    HW121103   3.480   1.464   2.898
 6554SOL    HW221104   3.566   1.416   3.013
 6555SOL     OW21105   2.197   0.563   3.153
 6555SOL    HW121106   2.250   0.501   3.203
 6555SOL    HW221107   2.216   0.541   3.061
 6556SOL     OW21108   2.702   1.580   2.533
 6556SOL    HW121109   2.686   1.654   2.474
 6556SOL    HW221110   2.621   1.529   2.529
 6557SOL     OW21111   3.294   0.225   2.984
 6557SOL    HW121112   3.353   0.160   3.022
 6557SOL    HW221113   3.247   0.262   3.058
 6558SOL     OW21114   2.880   0.069   2.989
 6558SOL    HW121115   2.794   0.028   2.977
 6558SOL    HW221116   2.936  -0.001   3.022
 6559SOL     OW21117   2.635   1.328   2.190
 6559SOL    HW121118   2.616   1.236   2.203
 6559SOL    HW221119   2.719   1.342   2.235
 6560SOL     OW21120   2.476   1.548   3.140
 6560SOL    HW121121   2.471   1.630   3.188
 6560SOL    HW221122   2.566   1.545   3.107
 6561SOL     OW21123   3.274   8.010   2.019
 6561SOL    HW121124   3.275   7.915   2.013
 6561SOL    HW221125   3.185   8.035   1.994
 6562SOL     OW21126   3.156   0.462   2.535
 6562SOL    HW121127   3.107   0.544   2.537
 6562SOL    HW221128   3.159   0.433   2.626
 6563SOL     OW21129   3.468   0.214   2.714
 6563SOL    HW121130   3.397   0.212   2.778
 6563SOL    HW221131   3.461   0.299   2.672
 6564SOL     OW21132   1.899   1.061   2.168
 6564SOL    HW121133   1.994   1.058   2.156
 6564SOL    HW221134   1.875   0.971   2.188
 6565SOL     OW21135   2.749   1.666   2.208
 6565SOL    HW121136   2.677   1.651   2.147
 6565SOL    HW221137   2.722   1.741   2.260
 6566SOL     OW21138   2.077   0.621   3.856
 6566SOL    HW121139   1.989   0.640   3.889
 6566SOL    HW221140   2.064   0.609   3.762
 6567SOL     OW21141   2.083   0.296   4.715
 6567SOL    HW121142   2.114   0.258   4.797
 6567SOL    HW221143   1.999   0.254   4.699
 6568SOL     OW21144   1.857   0.363   4.374
 6568SOL    HW121145   1.831   0.355   4.466
 6568SOL    HW221146   1.889   0.275   4.351
 6569SOL     OW21147   2.428   1.296   4.911
 6569SOL    HW121148   2.344   1.310   4.867
 6569SOL    HW221149   2.448   1.380   4.952
 6570SOL     OW21150   3.435   1.511   4.436
 6570SOL    HW121151   3.395   1.495   4.521
 6570SOL    HW221152   3.361   1.522   4.376
 6571SOL     OW21153   2.994   0.695   4.418
 6571SOL    HW121154   3.042   0.776   4.400
 6571SOL    HW221155   2.950   0.711   4.501
 6572SOL     OW21156   3.671   0.580   3.938
 6572SOL    HW121157   3.630   0.585   3.851
 6572SOL    HW221158   3.615   0.521   3.988
 6573SOL     OW21159   2.593   1.131   4.771
 6573SOL    HW121160   2.529   1.173   4.828
 6573SOL    HW221161   2.639   1.204   4.729
 6574SOL     OW21162   2.727   0.822   5.516
 6574SOL    HW121163   2.788   0.869   5.574
 6574SOL    HW221164   2.640   0.845   5.548
 6575SOL     OW21165   2.546   0.985   4.373
 6575SOL    HW121166   2.615   0.987   4.440
 6575SOL    HW221167   2.479   1.045   4.405
 6576SOL     OW21168   2.582   1.147   5.543
 6576SOL    HW121169   2.630   1.222   5.578
 6576SOL    HW221170   2.502   1.184   5.506
 6577SOL     OW21171   2.200   1.409   4.790
 6577SOL    HW121172   2.122   1.374   4.746
 6577SOL    HW221173   2.241   1.465   4.724
 6578SOL     OW21174   3.322   1.513   5.090
 6578SOL    HW121175   3.381   1.588   5.096
 6578SOL    HW221176   3.256   1.530   5.157
 6579SOL     OW21177   2.319   0.383   5.183
 6579SOL    HW121178   2.401   0.336   5.198
 6579SOL    HW221179   2.251   0.325   5.216
 6580SOL     OW21180   3.467   0.459   4.455
 6580SOL    HW121181   3.388   0.477   4.402
 6580SOL    HW221182   3.469   0.531   4.519
 6581SOL     OW21183   2.087   1.714   4.190
 6581SOL    HW121184   2.105   1.786   4.249
 6581SOL    HW221185   2.166   1.705   4.136
 6582SOL     OW21186   3.002   1.338   5.410
 6582SOL    HW121187   3.060   1.323   5.484
 6582SOL    HW221188   2.967   1.252   5.389
 6583SOL     OW21189   2.085   1.444   4.251
 6583SOL    HW121190   2.080   1.540   4.247
 6583SOL    HW221191   2.037   1.422   4.331
 6584SOL     OW21192   2.123   1.093   4.604
 6584SOL    HW121193   2.124   1.006   4.644
 6584SOL    HW221194   2.073   1.147   4.665
 6585SOL     OW21195   2.456   1.788   5.146
 6585SOL    HW121196   2.376   1.773   5.196
 6585SOL    HW221197   2.487   1.874   5.174
 6586SOL     OW21198   2.435   0.976   3.873
 6586SOL    HW121199   2.481   0.986   3.789
 6586SOL    HW221200   2.489   1.026   3.935
 6587SOL     OW21201   3.519   0.115   5.202
 6587SOL    HW121202   3.479   0.188   5.155
 6587SOL    HW221203   3.487   0.124   5.292
 6588SOL     OW21204   1.974   0.662   4.283
 6588SOL    HW121205   1.954   0.574   4.316
 6588SOL    HW221206   1.970   0.718   4.361
 6589SOL     OW21207   3.703   1.752   4.040
 6589SOL    HW121208   3.739   1.731   4.126
 6589SOL    HW221209   3.719   1.846   4.029
 6590SOL     OW21210   1.895   1.591   3.843
 6590SOL    HW121211   1.883   1.499   3.866
 6590SOL    HW221212   1.875   1.639   3.923
 6591SOL     OW21213   3.543   0.887   4.341
 6591SOL    HW121214   3.632   0.891   4.375
 6591SOL    HW221215   3.538   0.959   4.277
 6592SOL     OW21216   3.521   1.104   4.153
 6592SOL    HW121217   3.609   1.106   4.114
 6592SOL    HW221218   3.526   1.165   4.227
 6593SOL     OW21219   1.983   0.753   5.291
 6593SOL    HW121220   2.052   0.806   5.330
 6593SOL    HW221221   1.908   0.811   5.287
 6594SOL     OW21222   2.476   1.391   4.458
 6594SOL    HW121223   2.433   1.306   4.463
 6594SOL    HW221224   2.463   1.420   4.368
 6595SOL     OW21225   3.142   1.215   5.156
 6595SOL    HW121226   3.184   1.170   5.082
 6595SOL    HW221227   3.210   1.221   5.222
 6596SOL     OW21228   2.697   0.035   4.267
 6596SOL    HW121229   2.746   0.111   4.235
 6596SOL    HW221230   2.612   0.071   4.293
 6597SOL     OW21231   2.050   0.974   5.001
 6597SOL    HW121232   2.131   0.928   4.981
 6597SOL    HW221233   1.981   0.913   4.974
 6598SOL     OW21234   3.397   0.996   3.928
 6598SOL    HW121235   3.327   0.940   3.962
 6598SOL    HW221236   3.439   1.032   4.006
 6599SOL     OW21237   3.041   1.808   5.359
 6599SOL    HW121238   3.053   1.882   5.300
 6599SOL    HW221239   3.074   1.732   5.310
 6600SOL     OW21240   2.172   0.239   5.495
 6600SOL    HW121241   2.239   0.300   5.528
 6600SOL    HW221242   2.094   0.259   5.547
 6601SOL     OW21243   3.335   1.415   4.678
 6601SOL    HW121244   3.269   1.434   4.745
 6601SOL    HW221245   3.316   1.325   4.651
 6602SOL     OW21246   3.537   1.743   4.291
 6602SOL    HW121247   3.492   1.713   4.212
 6602SOL    HW221248   3.510   1.681   4.359
 6603SOL     OW21249   2.457   0.718   4.000
 6603SOL    HW121250   2.458   0.804   3.957
 6603SOL    HW221251   2.392   0.726   4.070
 6604SOL     OW21252   3.152   0.371   4.656
 6604SOL    HW121253   3.061   0.343   4.661
 6604SOL    HW221254   3.197   0.315   4.720
 6605SOL     OW21255   3.438   1.666   4.034
 6605SOL    HW121256   3.526   1.701   4.023
 6605SOL    HW221257   3.406   1.654   3.944
 6606SOL     OW21258   2.633   0.657   5.178
 6606SOL    HW121259   2.620   0.618   5.264
 6606SOL    HW221260   2.625   0.584   5.116
 6607SOL     OW21261   3.272   0.489   5.403
 6607SOL    HW121262   3.271   0.534   5.488
 6607SOL    HW221263   3.354   0.440   5.403
 6608SOL     OW21264   2.877   0.420   4.927
 6608SOL    HW121265   2.798   0.432   4.979
 6608SOL    HW221266   2.845   0.391   4.841
 6609SOL     OW21267   2.917   0.692   4.149
 6609SOL    HW121268   2.936   0.690   4.243
 6609SOL    HW221269   2.831   0.651   4.141
 6610SOL     OW21270   1.945   0.821   4.500
 6610SOL    HW121271   2.028   0.820   4.549
 6610SOL    HW221272   1.895   0.892   4.540
 6611SOL     OW21273   1.966   1.827   5.294
 6611SOL    HW121274   1.974   1.812   5.388
 6611SOL    HW221275   1.926   1.914   5.287
 6612SOL     OW21276   2.758   0.350   3.922
 6612SOL    HW121277   2.813   0.401   3.863
 6612SOL    HW221278   2.782   0.259   3.905
 6613SOL     OW21279   3.562   0.576   5.555
 6613SOL    HW121280   3.530   0.653   5.507
 6613SOL    HW221281   3.584   0.513   5.487
 6614SOL     OW21282   3.243   1.141   4.261
 6614SOL    HW121283   3.326   1.143   4.213
 6614SOL    HW221284   3.189   1.207   4.218
 6615SOL     OW21285   2.393   0.253   4.620
 6615SOL    HW121286   2.393   0.249   4.716
 6615SOL    HW221287   2.398   0.346   4.600
 6616SOL     OW21288   2.856   1.445   4.186
 6616SOL    HW121289   2.830   1.520   4.133
 6616SOL    HW221290   2.832   1.470   4.276
 6617SOL     OW21291   2.214   1.819   4.605
 6617SOL    HW121292   2.264   1.737   4.609
 6617SOL    HW221293   2.278   1.888   4.621
 6618SOL     OW21294   3.651   1.039   4.580
 6618SOL    HW121295   3.590   1.083   4.521
 6618SOL    HW221296   3.607   1.040   4.665
 6619SOL     OW21297   3.086   1.548   5.238
 6619SOL    HW121298   3.072   1.467   5.288
 6619SOL    HW221299   3.006   1.559   5.186
 6620SOL     OW21300   2.176   0.968   3.978
 6620SOL    HW121301   2.265   0.985   3.947
 6620SOL    HW221302   2.144   0.896   3.923
 6621SOL     OW21303   3.334   0.744   4.437
 6621SOL    HW121304   3.337   0.716   4.529
 6621SOL    HW221305   3.413   0.797   4.426
 6622SOL     OW21306   2.336   1.257   5.460
 6622SOL    HW121307   2.310   1.265   5.368
 6622SOL    HW221308   2.253   1.254   5.508
 6623SOL     OW21309   2.991   1.774   3.954
 6623SOL    HW121310   2.911   1.740   3.994
 6623SOL    HW221311   3.012   1.712   3.885
 6624SOL     OW21312   2.051   0.263   5.224
 6624SOL    HW121313   1.991   0.338   5.220
 6624SOL    HW221314   2.072   0.255   5.317
 6625SOL     OW21315   3.496   1.369   3.809
 6625SOL    HW121316   3.459   1.457   3.802
 6625SOL    HW221317   3.421   1.311   3.795
 6626SOL     OW21318   2.329   1.723   4.052
 6626SOL    HW121319   2.370   1.790   4.107
 6626SOL    HW221320   2.396   1.702   3.987
 6627SOL     OW21321   3.277   0.129   4.127
 6627SOL    HW121322   3.301   0.121   4.035
 6627SOL    HW221323   3.360   0.140   4.173
 6628SOL     OW21324   2.108   1.788   4.957
 6628SOL    HW121325   2.162   1.725   5.003
 6628SOL    HW221326   2.119   1.767   4.864
 6629SOL     OW21327   2.806   1.700   4.623
 6629SOL    HW121328   2.893   1.661   4.640
 6629SOL    HW221329   2.770   1.647   4.552
 6630SOL     OW21330   2.261   0.693   4.197
 6630SOL    HW121331   2.272   0.599   4.213
 6630SOL    HW221332   2.168   0.709   4.209
 6631SOL     OW21333   3.423   0.187   5.450
 6631SOL    HW121334   3.428   0.229   5.537
 6631SOL    HW221335   3.344   0.133   5.455
 6632SOL     OW21336   2.458   0.144   3.822
 6632SOL    HW121337   2.528   0.100   3.871
 6632SOL    HW221338   2.431   0.081   3.756
 6633SOL     OW21339   2.621   0.293   5.486
 6633SOL    HW121340   2.703   0.243   5.486
 6633SOL    HW221341   2.567   0.251   5.554
 6634SOL     OW21342   2.728   1.502   4.919
 6634SOL    HW121343   2.711   1.471   4.829
 6634SOL    HW221344   2.814   1.467   4.940
 6635SOL     OW21345   3.187   0.603   5.164
 6635SOL    HW121346   3.231   0.573   5.244
 6635SOL    HW221347   3.227   0.687   5.145
 6636SOL     OW21348   2.683   1.375   4.668
 6636SOL    HW121349   2.770   1.371   4.628
 6636SOL    HW221350   2.624   1.393   4.595
 6637SOL     OW21351   2.785   0.518   4.612
 6637SOL    HW121352   2.749   0.509   4.523
 6637SOL    HW221353   2.824   0.433   4.631
 6638SOL     OW21354   2.405   0.021   4.145
 6638SOL    HW121355   2.346   0.011   4.220
 6638SOL    HW221356   2.414   0.116   4.134
 6639SOL     OW21357   3.284   1.192   3.759
 6639SOL    HW121358   3.308   1.127   3.826
 6639SOL    HW221359   3.203   1.231   3.791
 6640SOL     OW21360   2.157   0.046   3.944
 6640SOL    HW121361   2.236   0.100   3.941
 6640SOL    HW221362   2.175  -0.017   4.014
 6641SOL     OW21363   2.815   0.267   4.184
 6641SOL    HW121364   2.782   0.302   4.101
 6641SOL    HW221365   2.909   0.282   4.181
 6642SOL     OW21366   2.926   0.673   5.214
 6642SOL    HW121367   2.879   0.590   5.217
 6642SOL    HW221368   3.017   0.649   5.198
 6643SOL     OW21369   3.079   1.577   4.520
 6643SOL    HW121370   3.092   1.642   4.451
 6643SOL    HW221371   3.136   1.607   4.591
 6644SOL     OW21372   2.336   1.150   4.443
 6644SOL    HW121373   2.270   1.134   4.510
 6644SOL    HW221374   2.288   1.142   4.360
 6645SOL     OW21375   3.122   1.790   4.338
 6645SOL    HW121376   3.173   1.854   4.288
 6645SOL    HW221377   3.054   1.842   4.381
 6646SOL     OW21378   2.894   0.521   3.741
 6646SOL    HW121379   2.848   0.603   3.722
 6646SOL    HW221380   2.952   0.542   3.814
 6647SOL     OW21381   1.950   0.555   5.116
 6647SOL    HW121382   2.042   0.555   5.088
 6647SOL    HW221383   1.945   0.626   5.180
 6648SOL     OW21384   2.436   0.231   4.914
 6648SOL    HW121385   2.476   0.193   4.993
 6648SOL    HW221386   2.342   0.229   4.931
 6649SOL     OW21387   2.696   0.447   4.358
 6649SOL    HW121388   2.672   0.512   4.291
 6649SOL    HW221389   2.744   0.380   4.309
 6650SOL     OW21390   2.833   0.039   4.510
 6650SOL    HW121391   2.789   0.035   4.425
 6650SOL    HW221392   2.850  -0.052   4.533
 6651SOL     OW21393   3.294   1.161   4.577
 6651SOL    HW121394   3.227   1.093   4.590
 6651SOL    HW221395   3.302   1.169   4.482
 6652SOL     OW21396   3.322   0.610   4.682
 6652SOL    HW121397   3.266   0.533   4.688
 6652SOL    HW221398   3.382   0.602   4.756
 6653SOL     OW21399   3.718   0.804   4.089
 6653SOL    HW121400   3.765   0.763   4.161
 6653SOL    HW221401   3.696   0.731   4.030
 6654SOL     OW21402   2.358   1.419   3.869
 6654SOL    HW121403   2.281   1.386   3.915
 6654SOL    HW221404   2.357   1.374   3.785
 6655SOL     OW21405   3.546   1.259   4.370
 6655SOL    HW121406   3.641   1.264   4.384
 6655SOL    HW221407   3.513   1.345   4.394
 6656SOL     OW21408   3.263   0.576   3.801
 6656SOL    HW121409   3.192   0.557   3.861
 6656SOL    HW221410   3.342   0.567   3.854
 6657SOL     OW21411   2.370   0.282   4.036
 6657SOL    HW121412   2.413   0.235   3.965
 6657SOL    HW221413   2.347   0.367   3.999
 6658SOL     OW21414   3.608   1.240   5.291
 6658SOL    HW121415   3.646   1.231   5.204
 6658SOL    HW221416   3.640   1.325   5.323
 6659SOL     OW21417   2.931   1.342   5.042
 6659SOL    HW121418   2.854   1.325   5.097
 6659SOL    HW221419   3.004   1.301   5.090
 6660SOL     OW21420   3.467   1.616   5.375
 6660SOL    HW121421   3.464   1.668   5.295
 6660SOL    HW221422   3.553   1.573   5.373
 6661SOL     OW21423   2.971   1.186   4.815
 6661SOL    HW121424   2.945   1.246   4.885
 6661SOL    HW221425   2.964   1.238   4.735
 6662SOL     OW21426   3.487   1.071   4.792
 6662SOL    HW121427   3.513   1.129   4.864
 6662SOL    HW221428   3.406   1.111   4.758
 6663SOL     OW21429   2.776   0.131   5.103
 6663SOL    HW121430   2.813   0.123   5.016
 6663SOL    HW221431   2.849   0.110   5.162
 6664SOL     OW21432   2.806   1.095   5.383
 6664SOL    HW121433   2.738   1.107   5.450
 6664SOL    HW221434   2.783   1.158   5.315
 6665SOL     OW21435   2.580   1.062   4.101
 6665SOL    HW121436   2.563   1.038   4.193
 6665SOL    HW221437   2.651   1.003   4.074
 6666SOL     OW21438   2.278   0.822   4.968
 6666SOL    HW121439   2.337   0.844   5.040
 6666SOL    HW221440   2.246   0.734   4.989
 6667SOL     OW21441   3.132   0.382   5.008
 6667SOL    HW121442   3.159   0.463   5.052
 6667SOL    HW221443   3.046   0.402   4.973
 6668SOL     OW21444   1.943   1.571   5.081
 6668SOL    HW121445   1.930   1.664   5.062
 6668SOL    HW221446   2.038   1.558   5.077
 6669SOL     OW21447   2.185   1.127   4.211
 6669SOL    HW121448   2.196   1.205   4.157
 6669SOL    HW221449   2.188   1.054   4.150
 6670SOL     OW21450   2.413   0.522   4.582
 6670SOL    HW121451   2.422   0.581   4.507
 6670SOL    HW221452   2.476   0.555   4.646
 6671SOL     OW21453   3.108   1.351   4.120
 6671SOL    HW121454   3.161   1.424   4.152
 6671SOL    HW221455   3.019   1.371   4.148
 6672SOL     OW21456   3.154   1.465   4.883
 6672SOL    HW121457   3.220   1.479   4.951
 6672SOL    HW221458   3.085   1.414   4.927
 6673SOL     OW21459   3.438   0.640   4.196
 6673SOL    HW121460   3.381   0.666   4.269
 6673SOL    HW221461   3.497   0.714   4.185
 6674SOL     OW21462   2.208   1.522   5.034
 6674SOL    HW121463   2.199   1.479   4.950
 6674SOL    HW221464   2.302   1.538   5.043
 6675SOL     OW21465   2.306   0.729   5.351
 6675SOL    HW121466   2.342   0.785   5.283
 6675SOL    HW221467   2.365   0.654   5.354
 6676SOL     OW21468   3.463   0.784   5.413
 6676SOL    HW121469   3.377   0.825   5.403
 6676SOL    HW221470   3.518   0.828   5.348
 6677SOL     OW21471   2.856   0.153   5.497
 6677SOL    HW121472   2.922   0.215   5.466
 6677SOL    HW221473   2.882   0.069   5.460
 6678SOL     OW21474   2.311  -0.006   5.497
 6678SOL    HW121475   2.345  -0.030   5.411
 6678SOL    HW221476   2.275   0.082   5.484
 6679SOL     OW21477   2.449   0.877   4.755
 6679SOL    HW121478   2.486   0.965   4.756
 6679SOL    HW221479   2.389   0.875   4.829
 6680SOL     OW21480   3.190   0.856   4.721
 6680SOL    HW121481   3.102   0.829   4.697
 6680SOL    HW221482   3.242   0.776   4.717
 6681SOL     OW21483   3.053   0.532   3.971
 6681SOL    HW121484   3.064   0.452   4.022
 6681SOL    HW221485   3.016   0.595   4.033
 6682SOL     OW21486   2.164   0.203   4.963
 6682SOL    HW121487   2.121   0.232   5.044
 6682SOL    HW221488   2.146   0.109   4.958
 6683SOL     OW21489   1.902   1.315   4.997
 6683SOL    HW121490   1.937   1.261   5.068
 6683SOL    HW221491   1.910   1.405   5.029
 6684SOL     OW21492   2.576   0.632   4.770
 6684SOL    HW121493   2.654   0.627   4.715
 6684SOL    HW221494   2.544   0.722   4.758
 6685SOL     OW21495   3.599   0.945   5.603
 6685SOL    HW121496   3.550   0.894   5.538
 6685SOL    HW221497   3.533   0.974   5.666
 6686SOL     OW21498   2.233   0.064   4.382
 6686SOL    HW121499   2.213   0.153   4.411
 6686SOL    HW221500   2.208   0.008   4.456
 6687SOL     OW21501   3.489   0.406   4.069
 6687SOL    HW121502   3.500   0.337   4.134
 6687SOL    HW221503   3.463   0.483   4.120
 6688SOL     OW21504   2.899   0.758   4.686
 6688SOL    HW121505   2.885   0.773   4.779
 6688SOL    HW221506   2.865   0.670   4.670
 6689SOL     OW21507   2.824   1.550   5.435
 6689SOL    HW121508   2.816   1.601   5.354
 6689SOL    HW221509   2.880   1.476   5.410
 6690SOL     OW21510   3.715   1.495   5.327
 6690SOL    HW121511   3.727   1.525   5.237
 6690SOL    HW221512   3.796   1.520   5.372
 6691SOL     OW21513   2.226   0.915   5.539
 6691SOL    HW121514   2.305   0.934   5.590
 6691SOL    HW221515   2.252   0.845   5.479
 6692SOL     OW21516   3.439   0.270   3.837
 6692SOL    HW121517   3.461   0.184   3.871
 6692SOL    HW221518   3.447   0.329   3.912
 6693SOL     OW21519   3.123   0.805   3.731
 6693SOL    HW121520   3.186   0.741   3.763
 6693SOL    HW221521   3.175   0.863   3.674
 6694SOL     OW21522   2.939   1.344   4.584
 6694SOL    HW121523   2.948   1.275   4.518
 6694SOL    HW221524   2.994   1.415   4.552
 6695SOL     OW21525   2.174   0.813   4.658
 6695SOL    HW121526   2.266   0.837   4.655
 6695SOL    HW221527   2.173   0.728   4.702
 6696SOL     OW21528   2.192   0.539   4.740
 6696SOL    HW121529   2.153   0.453   4.727
 6696SOL    HW221530   2.268   0.540   4.681
 6697SOL     OW21531   3.030   0.364   5.434
 6697SOL    HW121532   2.971   0.424   5.480
 6697SOL    HW221533   3.110   0.414   5.419
 6698SOL     OW21534   3.033   0.218   5.203
 6698SOL    HW121535   3.039   0.270   5.283
 6698SOL    HW221536   3.069   0.275   5.134
 6699SOL     OW21537   1.859   1.320   3.922
 6699SOL    HW121538   1.771   1.336   3.887
 6699SOL    HW221539   1.855   1.232   3.957
 6700SOL     OW21540   1.947   1.778   4.662
 6700SOL    HW121541   1.922   1.700   4.613
 6700SOL    HW221542   2.038   1.794   4.636
 6701SOL     OW21543   2.351   1.573   4.626
 6701SOL    HW121544   2.420   1.637   4.647
 6701SOL    HW221545   2.393   1.511   4.568
 6702SOL     OW21546   2.827   0.765   4.953
 6702SOL    HW121547   2.891   0.738   5.019
 6702SOL    HW221548   2.744   0.728   4.983
 6703SOL     OW21549   1.900   0.550   4.842
 6703SOL    HW121550   1.984   0.559   4.799
 6703SOL    HW221551   1.921   0.548   4.936
 6704SOL     OW21552   2.049   0.536   5.450
 6704SOL    HW121553   2.136   0.549   5.413
 6704SOL    HW221554   1.996   0.607   5.412
 6705SOL     OW21555   3.235   0.935   5.375
 6705SOL    HW121556   3.267   1.026   5.375
 6705SOL    HW221557   3.239   0.908   5.283
 6706SOL     OW21558   2.676   0.568   4.098
 6706SOL    HW121559   2.680   0.499   4.032
 6706SOL    HW221560   2.604   0.625   4.068
 6707SOL     OW21561   3.500   0.583   4.883
 6707SOL    HW121562   3.495   0.541   4.969
 6707SOL    HW221563   3.591   0.569   4.856
 6708SOL     OW21564   2.100   1.541   5.444
 6708SOL    HW121565   2.080   1.612   5.506
 6708SOL    HW221566   2.103   1.462   5.498
 6709SOL     OW21567   2.597   0.465   4.981
 6709SOL    HW121568   2.536   0.392   4.969
 6709SOL    HW221569   2.581   0.523   4.906
 6710SOL     OW21570   2.798   1.669   5.184
 6710SOL    HW121571   2.753   1.641   5.104
 6710SOL    HW221572   2.797   1.765   5.179
 6711SOL     OW21573   2.321   0.505   3.889
 6711SOL    HW121574   2.379   0.576   3.918
 6711SOL    HW221575   2.234   0.545   3.884
 6712SOL     OW21576   2.001   1.154   5.202
 6712SOL    HW121577   2.001   1.108   5.286
 6712SOL    HW221578   2.013   1.084   5.137
 6713SOL     OW21579   3.156   1.023   4.935
 6713SOL    HW121580   3.186   0.969   4.862
 6713SOL    HW221581   3.092   1.082   4.897
 6714SOL     OW21582   3.181   0.855   4.017
 6714SOL    HW121583   3.128   0.842   4.096
 6714SOL    HW221584   3.117   0.859   3.946
 6715SOL     OW21585   3.606   1.740   4.854
 6715SOL    HW121586   3.678   1.769   4.799
 6715SOL    HW221587   3.610   1.644   4.851
 6716SOL     OW21588   3.098   1.722   4.795
 6716SOL    HW121589   3.184   1.759   4.772
 6716SOL    HW221590   3.118   1.637   4.832
 6717SOL     OW21591   1.957   1.257   4.740
 6717SOL    HW121592   1.940   1.278   4.832
 6717SOL    HW221593   1.876   1.216   4.710
 6718SOL     OW21594   2.534   1.671   5.466
 6718SOL    HW121595   2.472   1.744   5.467
 6718SOL    HW221596   2.610   1.703   5.419
 6719SOL     OW21597   3.531   0.159   4.222
 6719SOL    HW121598   3.622   0.149   4.195
 6719SOL    HW221599   3.528   0.125   4.311
 6720SOL     OW21600   3.252   1.569   4.218
 6720SOL    HW121601   3.308   1.605   4.149
 6720SOL    HW221602   3.201   1.644   4.248
 6721SOL     OW21603   2.012   1.788   5.562
 6721SOL    HW121604   1.960   1.726   5.613
 6721SOL    HW221605   2.058   1.840   5.628
 6722SOL     OW21606   3.135   0.922   4.375
 6722SOL    HW121607   3.211   0.867   4.396
 6722SOL    HW221608   3.173   0.999   4.332
 6723SOL     OW21609   2.683   1.270   5.168
 6723SOL    HW121610   2.644   1.318   5.241
 6723SOL    HW221611   2.633   1.298   5.091
 6724SOL     OW21612   2.531   1.625   3.882
 6724SOL    HW121613   2.538   1.647   3.789
 6724SOL    HW221614   2.479   1.546   3.885
 6725SOL     OW21615   3.475   1.737   5.111
 6725SOL    HW121616   3.528   1.742   5.032
 6725SOL    HW221617   3.463   1.827   5.138
 6726SOL     OW21618   3.712   0.176   4.681
 6726SOL    HW121619   3.707   0.085   4.711
 6726SOL    HW221620   3.627   0.192   4.640
 6727SOL     OW21621   2.136   0.312   4.448
 6727SOL    HW121622   2.060   0.365   4.425
 6727SOL    HW221623   2.133   0.307   4.544
 6728SOL     OW21624   3.075   1.601   3.753
 6728SOL    HW121625   3.060   1.512   3.785
 6728SOL    HW221626   3.004   1.616   3.691
 6729SOL     OW21627   2.717   0.995   5.121
 6729SOL    HW121628   2.748   0.982   5.031
 6729SOL    HW221629   2.702   1.089   5.128
 6730SOL     OW21630   2.774   0.895   4.012
 6730SOL    HW121631   2.833   0.939   3.951
 6730SOL    HW221632   2.831   0.837   4.063
 6731SOL     OW21633   3.355   1.611   3.769
 6731SOL    HW121634   3.259   1.612   3.758
 6731SOL    HW221635   3.389   1.623   3.680
 6732SOL     OW21636   2.236   1.300   5.215
 6732SOL    HW121637   2.224   1.378   5.161
 6732SOL    HW221638   2.154   1.251   5.204
 6733SOL     OW21639   3.411   1.269   4.999
 6733SOL    HW121640   3.501   1.251   5.027
 6733SOL    HW221641   3.388   1.351   5.042
 6734SOL     OW21642   2.933   1.112   4.438
 6734SOL    HW121643   2.859   1.066   4.476
 6734SOL    HW221644   2.993   1.043   4.410
 6735SOL     OW21645   2.887   0.263   4.668
 6735SOL    HW121646   2.873   0.206   4.592
 6735SOL    HW221647   2.893   0.203   4.742
 6736SOL     OW21648   2.465   1.485   4.203
 6736SOL    HW121649   2.515   1.436   4.138
 6736SOL    HW221650   2.407   1.541   4.152
 6737SOL     OW21651   3.581   0.420   5.106
 6737SOL    HW121652   3.652   0.483   5.114
 6737SOL    HW221653   3.616   0.350   5.050
 6738SOL     OW21654   2.118   1.342   4.005
 6738SOL    HW121655   2.024   1.341   3.986
 6738SOL    HW221656   2.124   1.384   4.091
 6739SOL     OW21657   1.997   1.046   5.460
 6739SOL    HW121658   1.923   0.992   5.489
 6739SOL    HW221659   2.074   1.001   5.495
 6740SOL     OW21660   2.545   0.230   5.213
 6740SOL    HW121661   2.613   0.174   5.176
 6740SOL    HW221662   2.555   0.220   5.308
 6741SOL     OW21663   1.940   0.334   3.754
 6741SOL    HW121664   1.852   0.324   3.717
 6741SOL    HW221665   1.977   0.409   3.709
 6742SOL     OW21666   3.276   0.859   5.118
 6742SOL    HW121667   3.228   0.919   5.061
 6742SOL    HW221668   3.366   0.860   5.085
 6743SOL     OW21669   1.918   0.200   4.009
 6743SOL    HW121670   1.924   0.251   3.928
 6743SOL    HW221671   1.994   0.142   4.007
 6744SOL     OW21672   3.054   1.332   3.842
 6744SOL    HW121673   2.959   1.337   3.836
 6744SOL    HW221674   3.073   1.333   3.936
 6745SOL     OW21675   2.463   0.861   5.161
 6745SOL    HW121676   2.519   0.938   5.150
 6745SOL    HW221677   2.524   0.787   5.161
 6746SOL     OW21678   3.355   1.788   4.708
 6746SOL    HW121679   3.373   1.868   4.659
 6746SOL    HW221680   3.433   1.775   4.762
 6747SOL     OW21681   2.579   0.556   5.423
 6747SOL    HW121682   2.610   0.599   5.503
 6747SOL    HW221683   2.591   0.463   5.439
 6748SOL     OW21684   3.340   1.189   5.353
 6748SOL    HW121685   3.332   1.211   5.446
 6748SOL    HW221686   3.430   1.210   5.330
 6749SOL     OW21687   2.223   1.736   5.282
 6749SOL    HW121688   2.137   1.775   5.268
 6749SOL    HW221689   2.204   1.653   5.326
 6750SOL     OW21690   3.511   0.866   4.982
 6750SOL    HW121691   3.531   0.787   4.931
 6750SOL    HW221692   3.519   0.938   4.920
 6751SOL     OW21693   3.081   0.325   4.171
 6751SOL    HW121694   3.144   0.255   4.157
 6751SOL    HW221695   3.112   0.372   4.248
 6752SOL     OW21696   2.447   0.725   4.401
 6752SOL    HW121697   2.488   0.811   4.393
 6752SOL    HW221698   2.384   0.722   4.328
 6753SOL     OW21699   3.602   0.381   5.374
 6753SOL    HW121700   3.595   0.393   5.279
 6753SOL    HW221701   3.553   0.301   5.391
 6754SOL     OW21702   3.595   0.944   5.245
 6754SOL    HW121703   3.609   1.037   5.263
 6754SOL    HW221704   3.591   0.938   5.150
 6755SOL     OW21705   2.793   1.391   3.809
 6755SOL    HW121706   2.719   1.378   3.869
 6755SOL    HW221707   2.760   1.453   3.744
 6756SOL     OW21708   2.526   1.776   4.651
 6756SOL    HW121709   2.505   1.869   4.642
 6756SOL    HW221710   2.622   1.773   4.655
 6757SOL     OW21711   2.736   0.974   4.579
 6757SOL    HW121712   2.791   0.907   4.620
 6757SOL    HW221713   2.695   1.020   4.653
 6758SOL     OW21714   2.943   0.988   3.824
 6758SOL    HW121715   2.910   1.047   3.756
 6758SOL    HW221716   2.996   0.924   3.778
 6759SOL     OW21717   3.702   1.536   4.554
 6759SOL    HW121718   3.617   1.541   4.509
 6759SOL    HW221719   3.680   1.508   4.643
 6760SOL     OW21720   2.088   1.288   5.575
 6760SOL    HW121721   2.044   1.215   5.531
 6760SOL    HW221722   2.034   1.304   5.653
 6761SOL     OW21723   1.959   1.207   4.389
 6761SOL    HW121724   1.998   1.172   4.470
 6761SOL    HW221725   2.025   1.189   4.322
 6762SOL     OW21726   2.554   1.405   5.364
 6762SOL    HW121727   2.469   1.370   5.394
 6762SOL    HW221728   2.554   1.496   5.393
 6763SOL     OW21729   3.688   0.227   4.957
 6763SOL    HW121730   3.622   0.158   4.952
 6763SOL    HW221731   3.711   0.245   4.866
 6764SOL     OW21732   2.285   0.433   4.252
 6764SOL    HW121733   2.323   0.367   4.194
 6764SOL    HW221734   2.247   0.382   4.324
 6765SOL     OW21735   3.598   1.465   4.801
 6765SOL    HW121736   3.506   1.442   4.788
 6765SOL    HW221737   3.624   1.416   4.879
 6766SOL     OW21738   2.201   0.563   5.018
 6766SOL    HW121739   2.253   0.502   5.071
 6766SOL    HW221740   2.218   0.537   4.928
 6767SOL     OW21741   2.702   1.589   4.392
 6767SOL    HW121742   2.688   1.668   4.340
 6767SOL    HW221743   2.620   1.539   4.382
 6768SOL     OW21744   3.286   0.221   4.841
 6768SOL    HW121745   3.350   0.166   4.887
 6768SOL    HW221746   3.242   0.270   4.910
 6769SOL     OW21747   2.900   0.067   4.856
 6769SOL    HW121748   2.852  -0.014   4.873
 6769SOL    HW221749   2.992   0.045   4.870
 6770SOL     OW21750   2.636   1.330   4.046
 6770SOL    HW121751   2.615   1.238   4.062
 6770SOL    HW221752   2.717   1.345   4.095
 6771SOL     OW21753   2.480   1.549   5.018
 6771SOL    HW121754   2.479   1.635   5.062
 6771SOL    HW221755   2.567   1.544   4.978
 6772SOL     OW21756   3.231   8.003   3.828
 6772SOL    HW121757   3.304   7.954   3.866
 6772SOL    HW221758   3.159   7.993   3.890
 6773SOL     OW21759   3.160   0.463   4.395
 6773SOL    HW121760   3.110   0.545   4.399
 6773SOL    HW221761   3.160   0.431   4.485
 6774SOL     OW21762   3.464   0.220   4.585
 6774SOL    HW121763   3.392   0.223   4.647
 6774SOL    HW221764   3.459   0.303   4.537
 6775SOL     OW21765   1.901   1.068   4.031
 6775SOL    HW121766   1.996   1.066   4.017
 6775SOL    HW221767   1.877   0.977   4.048
 6776SOL     OW21768   2.752   1.664   4.055
 6776SOL    HW121769   2.677   1.649   3.998
 6776SOL    HW221770   2.724   1.734   4.114
 6777SOL     OW21771   2.073   0.625   5.723
 6777SOL    HW121772   1.987   0.622   5.766
 6777SOL    HW221773   2.053   0.627   5.630
 6778SOL     OW21774   2.081   0.300   6.568
 6778SOL    HW121775   2.109   0.266   6.653
 6778SOL    HW221776   1.995   0.262   6.554
 6779SOL     OW21777   1.869   0.398   6.222
 6779SOL    HW121778   1.785   0.427   6.258
 6779SOL    HW221779   1.855   0.306   6.200
 6780SOL     OW21780   2.429   1.301   6.772
 6780SOL    HW121781   2.344   1.312   6.728
 6780SOL    HW221782   2.450   1.387   6.807
 6781SOL     OW21783   3.441   1.513   6.302
 6781SOL    HW121784   3.399   1.501   6.387
 6781SOL    HW221785   3.373   1.554   6.247
 6782SOL     OW21786   3.001   0.704   6.276
 6782SOL    HW121787   3.049   0.786   6.266
 6782SOL    HW221788   2.954   0.713   6.358
 6783SOL     OW21789   3.665   0.586   5.802
 6783SOL    HW121790   3.626   0.589   5.715
 6783SOL    HW221791   3.613   0.522   5.850
 6784SOL     OW21792   2.593   1.132   6.632
 6784SOL    HW121793   2.531   1.170   6.694
 6784SOL    HW221794   2.637   1.207   6.592
 6785SOL     OW21795   2.751   0.763   7.412
 6785SOL    HW121796   2.768   0.832   7.476
 6785SOL    HW221797   2.765   0.804   7.327
 6786SOL     OW21798   2.548   0.988   6.231
 6786SOL    HW121799   2.616   0.990   6.299
 6786SOL    HW221800   2.480   1.047   6.264
 6787SOL     OW21801   2.564   1.146   7.405
 6787SOL    HW121802   2.609   1.224   7.437
 6787SOL    HW221803   2.485   1.179   7.362
 6788SOL     OW21804   2.198   1.409   6.653
 6788SOL    HW121805   2.121   1.373   6.609
 6788SOL    HW221806   2.239   1.466   6.587
 6789SOL     OW21807   3.323   1.508   6.953
 6789SOL    HW121808   3.377   1.587   6.962
 6789SOL    HW221809   3.254   1.519   7.018
 6790SOL     OW21810   2.312   0.381   7.042
 6790SOL    HW121811   2.384   0.322   7.062
 6790SOL    HW221812   2.235   0.339   7.081
 6791SOL     OW21813   3.466   0.459   6.313
 6791SOL    HW121814   3.389   0.475   6.259
 6791SOL    HW221815   3.468   0.532   6.374
 6792SOL     OW21816   2.087   1.713   6.050
 6792SOL    HW121817   2.104   1.786   6.108
 6792SOL    HW221818   2.164   1.707   5.995
 6793SOL     OW21819   2.993   1.342   7.276
 6793SOL    HW121820   3.023   1.331   7.367
 6793SOL    HW221821   2.935   1.267   7.261
 6794SOL     OW21822   2.082   1.449   6.129
 6794SOL    HW121823   2.078   1.544   6.118
 6794SOL    HW221824   2.031   1.431   6.207
 6795SOL     OW21825   2.129   1.094   6.466
 6795SOL    HW121826   2.128   1.005   6.502
 6795SOL    HW221827   2.077   1.146   6.527
 6796SOL     OW21828   2.460   1.792   7.000
 6796SOL    HW121829   2.382   1.776   7.054
 6796SOL    HW221830   2.494   1.876   7.031
 6797SOL     OW21831   2.445   0.983   5.722
 6797SOL    HW121832   2.489   1.039   5.658
 6797SOL    HW221833   2.477   1.013   5.807
 6798SOL     OW21834   3.517   0.118   7.074
 6798SOL    HW121835   3.502   0.185   7.007
 6798SOL    HW221836   3.467   0.149   7.150
 6799SOL     OW21837   1.988   0.657   6.147
 6799SOL    HW121838   1.952   0.571   6.169
 6799SOL    HW221839   1.977   0.709   6.227
 6800SOL     OW21840   3.711   1.750   5.921
 6800SOL    HW121841   3.788   1.730   5.974
 6800SOL    HW221842   3.722   1.842   5.898
 6801SOL     OW21843   1.901   1.587   5.704
 6801SOL    HW121844   1.886   1.496   5.727
 6801SOL    HW221845   1.878   1.637   5.782
 6802SOL     OW21846   3.543   0.897   6.211
 6802SOL    HW121847   3.636   0.884   6.232
 6802SOL    HW221848   3.543   0.958   6.138
 6803SOL     OW21849   3.515   1.108   6.021
 6803SOL    HW121850   3.600   1.105   5.978
 6803SOL    HW221851   3.527   1.166   6.096
 6804SOL     OW21852   1.997   0.745   7.180
 6804SOL    HW121853   2.090   0.768   7.178
 6804SOL    HW221854   1.952   0.829   7.190
 6805SOL     OW21855   2.480   1.395   6.315
 6805SOL    HW121856   2.435   1.310   6.323
 6805SOL    HW221857   2.463   1.422   6.225
 6806SOL     OW21858   3.148   1.232   7.000
 6806SOL    HW121859   3.185   1.166   6.942
 6806SOL    HW221860   3.204   1.230   7.077
 6807SOL     OW21861   2.701   0.042   6.143
 6807SOL    HW121862   2.749   0.113   6.101
 6807SOL    HW221863   2.613   0.078   6.158
 6808SOL     OW21864   2.048   0.957   6.873
 6808SOL    HW121865   2.136   0.921   6.858
 6808SOL    HW221866   1.994   0.916   6.806
 6809SOL     OW21867   3.386   1.012   5.792
 6809SOL    HW121868   3.320   0.955   5.831
 6809SOL    HW221869   3.438   1.044   5.866
 6810SOL     OW21870   3.055   1.820   7.210
 6810SOL    HW121871   3.080   1.857   7.126
 6810SOL    HW221872   3.071   1.726   7.200
 6811SOL     OW21873   2.199   0.235   7.433
 6811SOL    HW121874   2.243   0.319   7.442
 6811SOL    HW221875   2.108   0.257   7.414
 6812SOL     OW21876   3.314   1.423   6.535
 6812SOL    HW121877   3.256   1.436   6.611
 6812SOL    HW221878   3.307   1.329   6.517
 6813SOL     OW21879   3.529   1.758   6.162
 6813SOL    HW121880   3.528   1.725   6.072
 6813SOL    HW221881   3.524   1.679   6.217
 6814SOL     OW21882   2.456   0.718   5.859
 6814SOL    HW121883   2.455   0.805   5.820
 6814SOL    HW221884   2.392   0.722   5.930
 6815SOL     OW21885   3.158   0.373   6.519
 6815SOL    HW121886   3.067   0.345   6.521
 6815SOL    HW221887   3.202   0.317   6.583
 6816SOL     OW21888   3.451   1.656   5.891
 6816SOL    HW121889   3.539   1.692   5.885
 6816SOL    HW221890   3.420   1.650   5.801
 6817SOL     OW21891   2.663   0.623   7.031
 6817SOL    HW121892   2.628   0.604   7.118
 6817SOL    HW221893   2.621   0.560   6.973
 6818SOL     OW21894   3.279   0.497   7.261
 6818SOL    HW121895   3.277   0.542   7.346
 6818SOL    HW221896   3.352   0.436   7.268
 6819SOL     OW21897   2.801   0.878   7.171
 6819SOL    HW121898   2.863   0.820   7.128
 6819SOL    HW221899   2.760   0.927   7.100
 6820SOL     OW21900   2.861   0.408   6.814
 6820SOL    HW121901   2.772   0.434   6.835
 6820SOL    HW221902   2.856   0.375   6.724
 6821SOL     OW21903   2.922   0.699   6.008
 6821SOL    HW121904   2.941   0.696   6.102
 6821SOL    HW221905   2.837   0.656   6.000
 6822SOL     OW21906   1.948   0.819   6.364
 6822SOL    HW121907   2.029   0.817   6.414
 6822SOL    HW221908   1.898   0.892   6.402
 6823SOL     OW21909   1.972   1.823   7.156
 6823SOL    HW121910   1.978   1.813   7.251
 6823SOL    HW221911   1.907   1.892   7.143
 6824SOL     OW21912   2.753   0.348   5.788
 6824SOL    HW121913   2.795   0.397   5.717
 6824SOL    HW221914   2.740   0.261   5.752
 6825SOL     OW21915   3.567   0.572   7.419
 6825SOL    HW121916   3.533   0.649   7.372
 6825SOL    HW221917   3.595   0.512   7.350
 6826SOL     OW21918   3.231   1.156   6.085
 6826SOL    HW121919   3.326   1.156   6.071
 6826SOL    HW221920   3.196   1.104   6.013
 6827SOL     OW21921   2.406   0.246   6.507
 6827SOL    HW121922   2.392   0.258   6.601
 6827SOL    HW221923   2.407   0.335   6.471
 6828SOL     OW21924   2.882   1.472   6.078
 6828SOL    HW121925   2.852   1.528   6.006
 6828SOL    HW221926   2.826   1.495   6.152
 6829SOL     OW21927   2.211   1.820   6.467
 6829SOL    HW121928   2.264   1.741   6.472
 6829SOL    HW221929   2.274   1.891   6.480
 6830SOL     OW21930   3.648   1.011   6.469
 6830SOL    HW121931   3.620   1.069   6.398
 6830SOL    HW221932   3.596   1.039   6.545
 6831SOL     OW21933   3.086   1.542   7.099
 6831SOL    HW121934   3.071   1.467   7.157
 6831SOL    HW221935   2.999   1.564   7.065
 6832SOL     OW21936   2.167   0.964   5.841
 6832SOL    HW121937   2.247   0.988   5.793
 6832SOL    HW221938   2.131   0.890   5.794
 6833SOL     OW21939   3.337   0.751   6.302
 6833SOL    HW121940   3.339   0.718   6.392
 6833SOL    HW221941   3.417   0.803   6.293
 6834SOL     OW21942   2.332   1.264   7.320
 6834SOL    HW121943   2.306   1.271   7.228
 6834SOL    HW221944   2.250   1.271   7.369
 6835SOL     OW21945   3.001   1.750   5.828
 6835SOL    HW121946   2.913   1.728   5.856
 6835SOL    HW221947   3.014   1.700   5.747
 6836SOL     OW21948   3.486   1.367   5.693
 6836SOL    HW121949   3.457   1.457   5.674
 6836SOL    HW221950   3.416   1.312   5.657
 6837SOL     OW21951   2.335   1.725   5.913
 6837SOL    HW121952   2.372   1.792   5.971
 6837SOL    HW221953   2.403   1.710   5.847
 6838SOL     OW21954   3.279   0.132   5.984
 6838SOL    HW121955   3.295   0.110   5.892
 6838SOL    HW221956   3.366   0.141   6.022
 6839SOL     OW21957   2.103   1.781   6.812
 6839SOL    HW121958   2.161   1.718   6.855
 6839SOL    HW221959   2.115   1.765   6.719
 6840SOL     OW21960   2.795   1.706   6.486
 6840SOL    HW121961   2.870   1.660   6.524
 6840SOL    HW221962   2.764   1.648   6.416
 6841SOL     OW21963   2.265   0.685   6.058
 6841SOL    HW121964   2.278   0.592   6.075
 6841SOL    HW221965   2.171   0.700   6.072
 6842SOL     OW21966   3.399   0.220   7.301
 6842SOL    HW121967   3.406   0.245   7.394
 6842SOL    HW221968   3.317   0.172   7.295
 6843SOL     OW21969   2.483   0.137   5.664
 6843SOL    HW121970   2.538   0.086   5.723
 6843SOL    HW221971   2.423   0.073   5.625
 6844SOL     OW21972   2.579   0.269   7.344
 6844SOL    HW121973   2.665   0.295   7.310
 6844SOL    HW221974   2.582   0.292   7.437
 6845SOL     OW21975   2.735   1.516   6.772
 6845SOL    HW121976   2.715   1.471   6.690
 6845SOL    HW221977   2.804   1.463   6.812
 6846SOL     OW21978   3.203   0.594   7.017
 6846SOL    HW121979   3.240   0.570   7.102
 6846SOL    HW221980   3.234   0.683   7.001
 6847SOL     OW21981   2.679   1.376   6.531
 6847SOL    HW121982   2.765   1.372   6.490
 6847SOL    HW221983   2.619   1.394   6.458
 6848SOL     OW21984   2.789   0.520   6.477
 6848SOL    HW121985   2.758   0.511   6.387
 6848SOL    HW221986   2.827   0.434   6.498
 6849SOL     OW21987   2.424   0.024   6.001
 6849SOL    HW121988   2.362  -0.002   6.069
 6849SOL    HW221989   2.413   0.118   5.992
 6850SOL     OW21990   3.273   1.201   5.622
 6850SOL    HW121991   3.308   1.132   5.678
 6850SOL    HW221992   3.192   1.228   5.666
 6851SOL     OW21993   2.148   0.049   5.816
 6851SOL    HW121994   2.218   0.114   5.814
 6851SOL    HW221995   2.178  -0.017   5.878
 6852SOL     OW21996   2.819   0.267   6.045
 6852SOL    HW121997   2.789   0.295   5.958
 6852SOL    HW221998   2.914   0.283   6.043
 6853SOL     OW21999   2.947   0.694   7.035
 6853SOL    HW122000   2.881   0.626   7.045
 6853SOL    HW222001   3.030   0.646   7.034
 6854SOL     OW22002   3.111   1.548   6.339
 6854SOL    HW122003   3.107   1.637   6.303
 6854SOL    HW222004   3.155   1.559   6.424
 6855SOL     OW22005   2.339   1.154   6.303
 6855SOL    HW122006   2.273   1.136   6.370
 6855SOL    HW222007   2.292   1.147   6.220
 6856SOL     OW22008   3.121   1.793   6.207
 6856SOL    HW122009   3.173   1.859   6.160
 6856SOL    HW222010   3.051   1.844   6.249
 6857SOL     OW22011   2.898   0.529   5.614
 6857SOL    HW122012   2.870   0.619   5.601
 6857SOL    HW222013   2.957   0.532   5.690
 6858SOL     OW22014   1.934   0.580   6.972
 6858SOL    HW122015   2.027   0.566   6.952
 6858SOL    HW222016   1.934   0.644   7.043
 6859SOL     OW22017   2.431   0.228   6.791
 6859SOL    HW122018   2.466   0.200   6.876
 6859SOL    HW222019   2.336   0.230   6.804
 6860SOL     OW22020   2.717   0.464   6.219
 6860SOL    HW122021   2.686   0.521   6.149
 6860SOL    HW222022   2.744   0.383   6.175
 6861SOL     OW22023   2.827   0.039   6.382
 6861SOL    HW122024   2.784   0.042   6.296
 6861SOL    HW222025   2.853  -0.053   6.392
 6862SOL     OW22026   3.308   1.158   6.456
 6862SOL    HW122027   3.248   1.084   6.449
 6862SOL    HW222028   3.355   1.159   6.373
 6863SOL     OW22029   3.324   0.613   6.545
 6863SOL    HW122030   3.269   0.535   6.549
 6863SOL    HW222031   3.382   0.606   6.621
 6864SOL     OW22032   3.699   0.802   5.965
 6864SOL    HW122033   3.759   0.760   6.027
 6864SOL    HW222034   3.686   0.737   5.896
 6865SOL     OW22035   2.349   1.412   5.734
 6865SOL    HW122036   2.278   1.389   5.794
 6865SOL    HW222037   2.323   1.375   5.650
 6866SOL     OW22038   3.532   1.250   6.254
 6866SOL    HW122039   3.627   1.245   6.258
 6866SOL    HW222040   3.511   1.342   6.267
 6867SOL     OW22041   3.260   0.585   5.659
 6867SOL    HW122042   3.199   0.554   5.727
 6867SOL    HW222043   3.347   0.564   5.693
 6868SOL     OW22044   2.359   0.270   5.879
 6868SOL    HW122045   2.418   0.233   5.813
 6868SOL    HW222046   2.337   0.356   5.846
 6869SOL     OW22047   3.609   1.241   7.141
 6869SOL    HW122048   3.697   1.209   7.121
 6869SOL    HW222049   3.622   1.331   7.171
 6870SOL     OW22050   2.917   1.338   6.900
 6870SOL    HW122051   2.840   1.319   6.953
 6870SOL    HW222052   2.991   1.307   6.953
 6871SOL     OW22053   3.471   1.621   7.242
 6871SOL    HW122054   3.466   1.670   7.160
 6871SOL    HW222055   3.556   1.578   7.239
 6872SOL     OW22056   2.975   1.183   6.681
 6872SOL    HW122057   2.945   1.235   6.756
 6872SOL    HW222058   2.960   1.240   6.605
 6873SOL     OW22059   3.482   1.098   6.669
 6873SOL    HW122060   3.478   1.163   6.739
 6873SOL    HW222061   3.409   1.118   6.612
 6874SOL     OW22062   2.781   0.119   6.979
 6874SOL    HW122063   2.802   0.114   6.886
 6874SOL    HW222064   2.866   0.124   7.023
 6875SOL     OW22065   2.820   1.134   7.268
 6875SOL    HW122066   2.739   1.143   7.319
 6875SOL    HW222067   2.826   1.041   7.248
 6876SOL     OW22068   2.569   1.055   5.958
 6876SOL    HW122069   2.553   1.035   6.050
 6876SOL    HW222070   2.646   1.002   5.935
 6877SOL     OW22071   2.286   0.821   6.840
 6877SOL    HW122072   2.353   0.833   6.907
 6877SOL    HW222073   2.249   0.735   6.857
 6878SOL     OW22074   3.128   0.378   6.869
 6878SOL    HW122075   3.161   0.458   6.910
 6878SOL    HW222076   3.039   0.400   6.843
 6879SOL     OW22077   1.940   1.566   6.938
 6879SOL    HW122078   1.922   1.654   6.906
 6879SOL    HW222079   2.036   1.560   6.939
 6880SOL     OW22080   2.195   1.128   6.070
 6880SOL    HW122081   2.189   1.204   6.013
 6880SOL    HW222082   2.191   1.053   6.011
 6881SOL     OW22083   2.414   0.515   6.438
 6881SOL    HW122084   2.421   0.575   6.364
 6881SOL    HW222085   2.475   0.549   6.503
 6882SOL     OW22086   3.150   1.457   6.752
 6882SOL    HW122087   3.214   1.472   6.821
 6882SOL    HW222088   3.076   1.415   6.796
 6883SOL     OW22089   3.440   0.641   6.062
 6883SOL    HW122090   3.389   0.677   6.134
 6883SOL    HW222091   3.506   0.708   6.043
 6884SOL     OW22092   2.210   1.521   6.897
 6884SOL    HW122093   2.201   1.479   6.812
 6884SOL    HW222094   2.304   1.538   6.906
 6885SOL     OW22095   2.280   0.755   7.193
 6885SOL    HW122096   2.346   0.796   7.137
 6885SOL    HW222097   2.315   0.667   7.210
 6886SOL     OW22098   3.475   0.782   7.277
 6886SOL    HW122099   3.389   0.824   7.271
 6886SOL    HW222100   3.527   0.825   7.209
 6887SOL     OW22101   2.918   0.069   7.327
 6887SOL    HW122102   2.925   0.164   7.314
 6887SOL    HW222103   2.824   0.051   7.322
 6888SOL     OW22104   2.364   0.027   7.331
 6888SOL    HW122105   2.349  -0.008   7.243
 6888SOL    HW222106   2.306   0.103   7.337
 6889SOL     OW22107   2.449   0.877   6.621
 6889SOL    HW122108   2.487   0.965   6.622
 6889SOL    HW222109   2.392   0.874   6.698
 6890SOL     OW22110   3.195   0.860   6.583
 6890SOL    HW122111   3.103   0.838   6.566
 6890SOL    HW222112   3.241   0.776   6.578
 6891SOL     OW22113   3.056   0.527   5.841
 6891SOL    HW122114   3.069   0.448   5.894
 6891SOL    HW222115   3.015   0.590   5.900
 6892SOL     OW22116   2.159   0.212   6.819
 6892SOL    HW122117   2.119   0.236   6.902
 6892SOL    HW222118   2.140   0.119   6.809
 6893SOL     OW22119   1.887   1.310   6.863
 6893SOL    HW122120   1.929   1.257   6.930
 6893SOL    HW222121   1.904   1.401   6.889
 6894SOL     OW22122   2.570   0.627   6.629
 6894SOL    HW122123   2.652   0.625   6.580
 6894SOL    HW222124   2.540   0.718   6.621
 6895SOL     OW22125   3.613   0.948   7.456
 6895SOL    HW122126   3.562   0.891   7.399
 6895SOL    HW222127   3.551   0.974   7.525
 6896SOL     OW22128   2.273   0.076   6.266
 6896SOL    HW122129   2.221   0.154   6.282
 6896SOL    HW222130   2.210   0.004   6.271
 6897SOL     OW22131   3.497   0.404   5.940
 6897SOL    HW122132   3.501   0.332   6.003
 6897SOL    HW222133   3.469   0.480   5.991
 6898SOL     OW22134   2.900   0.760   6.540
 6898SOL    HW122135   2.884   0.777   6.633
 6898SOL    HW222136   2.865   0.673   6.525
 6899SOL     OW22137   2.847   1.568   7.312
 6899SOL    HW122138   2.832   1.611   7.228
 6899SOL    HW222139   2.888   1.485   7.290
 6900SOL     OW22140   3.717   1.494   7.185
 6900SOL    HW122141   3.734   1.531   7.099
 6900SOL    HW222142   3.795   1.515   7.236
 6901SOL     OW22143   2.209   0.909   7.412
 6901SOL    HW122144   2.290   0.942   7.451
 6901SOL    HW222145   2.238   0.856   7.338
 6902SOL     OW22146   3.446   0.305   5.692
 6902SOL    HW122147   3.350   0.297   5.694
 6902SOL    HW222148   3.468   0.336   5.780
 6903SOL     OW22149   3.152   0.832   5.617
 6903SOL    HW122150   3.196   0.748   5.623
 6903SOL    HW222151   3.186   0.871   5.536
 6904SOL     OW22152   2.935   1.345   6.447
 6904SOL    HW122153   2.942   1.270   6.388
 6904SOL    HW222154   2.999   1.407   6.415
 6905SOL     OW22155   2.173   0.815   6.529
 6905SOL    HW122156   2.266   0.838   6.528
 6905SOL    HW222157   2.170   0.727   6.566
 6906SOL     OW22158   2.194   0.539   6.601
 6906SOL    HW122159   2.151   0.456   6.584
 6906SOL    HW222160   2.270   0.540   6.542
 6907SOL     OW22161   3.042   0.366   7.299
 6907SOL    HW122162   2.975   0.424   7.336
 6907SOL    HW222163   3.117   0.424   7.283
 6908SOL     OW22164   3.028   0.219   7.068
 6908SOL    HW122165   3.039   0.272   7.147
 6908SOL    HW222166   3.062   0.275   6.998
 6909SOL     OW22167   1.879   1.311   5.772
 6909SOL    HW122168   1.791   1.329   5.740
 6909SOL    HW222169   1.872   1.225   5.813
 6910SOL     OW22170   1.946   1.778   6.526
 6910SOL    HW122171   1.923   1.700   6.475
 6910SOL    HW222172   2.036   1.798   6.499
 6911SOL     OW22173   2.350   1.571   6.489
 6911SOL    HW122174   2.417   1.637   6.508
 6911SOL    HW222175   2.392   1.511   6.428
 6912SOL     OW22176   2.831   0.780   6.801
 6912SOL    HW122177   2.892   0.764   6.872
 6912SOL    HW222178   2.744   0.775   6.842
 6913SOL     OW22179   1.898   0.560   6.699
 6913SOL    HW122180   1.984   0.558   6.657
 6913SOL    HW222181   1.916   0.564   6.793
 6914SOL     OW22182   2.053   0.509   7.315
 6914SOL    HW122183   2.053   0.439   7.250
 6914SOL    HW222184   2.029   0.587   7.265
 6915SOL     OW22185   3.247   0.926   7.240
 6915SOL    HW122186   3.266   1.020   7.240
 6915SOL    HW222187   3.238   0.903   7.148
 6916SOL     OW22188   2.682   0.574   5.956
 6916SOL    HW122189   2.684   0.498   5.899
 6916SOL    HW222190   2.606   0.624   5.926
 6917SOL     OW22191   3.499   0.598   6.754
 6917SOL    HW122192   3.489   0.552   6.837
 6917SOL    HW222193   3.588   0.578   6.726
 6918SOL     OW22194   2.097   1.544   7.305
 6918SOL    HW122195   2.081   1.616   7.366
 6918SOL    HW222196   2.110   1.468   7.361
 6919SOL     OW22197   2.588   0.454   6.836
 6919SOL    HW122198   2.525   0.383   6.820
 6919SOL    HW222199   2.573   0.516   6.765
 6920SOL     OW22200   2.816   1.675   7.053
 6920SOL    HW122201   2.760   1.650   6.979
 6920SOL    HW222202   2.823   1.771   7.046
 6921SOL     OW22203   2.315   0.504   5.754
 6921SOL    HW122204   2.371   0.575   5.784
 6921SOL    HW222205   2.228   0.544   5.747
 6922SOL     OW22206   1.991   1.142   7.061
 6922SOL    HW122207   1.997   1.098   7.146
 6922SOL    HW222208   2.012   1.075   6.997
 6923SOL     OW22209   3.177   1.033   6.795
 6923SOL    HW122210   3.198   0.976   6.721
 6923SOL    HW222211   3.105   1.089   6.763
 6924SOL     OW22212   3.161   0.885   5.896
 6924SOL    HW122213   3.103   0.827   5.946
 6924SOL    HW222214   3.148   0.859   5.805
 6925SOL     OW22215   3.621   1.730   6.728
 6925SOL    HW122216   3.690   1.762   6.671
 6925SOL    HW222217   3.613   1.637   6.707
 6926SOL     OW22218   3.095   1.707   6.640
 6926SOL    HW122219   3.179   1.747   6.620
 6926SOL    HW222220   3.116   1.629   6.691
 6927SOL     OW22221   1.958   1.252   6.605
 6927SOL    HW122222   1.933   1.274   6.695
 6927SOL    HW222223   1.882   1.209   6.568
 6928SOL     OW22224   2.542   1.676   7.333
 6928SOL    HW122225   2.478   1.748   7.332
 6928SOL    HW222226   2.614   1.707   7.278
 6929SOL     OW22227   3.534   0.157   6.080
 6929SOL    HW122228   3.623   0.139   6.049
 6929SOL    HW222229   3.530   0.115   6.166
 6930SOL     OW22230   3.255   1.587   6.070
 6930SOL    HW122231   3.322   1.608   6.005
 6930SOL    HW222232   3.219   1.672   6.096
 6931SOL     OW22233   2.002   1.790   7.425
 6931SOL    HW122234   1.955   1.724   7.476
 6931SOL    HW222235   2.051   1.839   7.491
 6932SOL     OW22236   3.145   0.939   6.252
 6932SOL    HW122237   3.216   0.877   6.268
 6932SOL    HW222238   3.184   1.007   6.198
 6933SOL     OW22239   2.661   1.282   7.001
 6933SOL    HW122240   2.639   1.324   7.085
 6933SOL    HW222241   2.589   1.304   6.943
 6934SOL     OW22242   2.539   1.607   5.740
 6934SOL    HW122243   2.543   1.635   5.649
 6934SOL    HW222244   2.475   1.535   5.741
 6935SOL     OW22245   3.475   1.735   6.973
 6935SOL    HW122246   3.529   1.742   6.894
 6935SOL    HW222247   3.461   1.826   7.000
 6936SOL     OW22248   3.718   0.170   6.537
 6936SOL    HW122249   3.709   0.081   6.571
 6936SOL    HW222250   3.632   0.190   6.500
 6937SOL     OW22251   2.116   0.298   6.295
 6937SOL    HW122252   2.039   0.348   6.270
 6937SOL    HW222253   2.118   0.305   6.391
 6938SOL     OW22254   3.067   1.618   5.593
 6938SOL    HW122255   3.032   1.537   5.557
 6938SOL    HW222256   3.040   1.685   5.531
 6939SOL     OW22257   2.689   1.014   6.957
 6939SOL    HW122258   2.730   1.020   6.871
 6939SOL    HW222259   2.681   1.105   6.987
 6940SOL     OW22260   2.780   0.907   5.879
 6940SOL    HW122261   2.834   0.933   5.804
 6940SOL    HW222262   2.832   0.842   5.925
 6941SOL     OW22263   3.356   1.607   5.628
 6941SOL    HW122264   3.263   1.622   5.613
 6941SOL    HW222265   3.397   1.620   5.542
 6942SOL     OW22266   2.225   1.298   7.076
 6942SOL    HW122267   2.218   1.377   7.023
 6942SOL    HW222268   2.142   1.252   7.062
 6943SOL     OW22269   3.467   1.292   6.860
 6943SOL    HW122270   3.537   1.282   6.925
 6943SOL    HW222271   3.408   1.358   6.898
 6944SOL     OW22272   2.938   1.121   6.294
 6944SOL    HW122273   2.862   1.077   6.333
 6944SOL    HW222274   3.002   1.051   6.279
 6945SOL     OW22275   2.899   0.266   6.532
 6945SOL    HW122276   2.878   0.211   6.457
 6945SOL    HW222277   2.903   0.205   6.606
 6946SOL     OW22278   2.464   1.488   6.058
 6946SOL    HW122279   2.504   1.444   5.984
 6946SOL    HW222280   2.404   1.551   6.019
 6947SOL     OW22281   3.588   0.418   6.972
 6947SOL    HW122282   3.659   0.482   6.978
 6947SOL    HW222283   3.619   0.352   6.911
 6948SOL     OW22284   2.131   1.338   5.892
 6948SOL    HW122285   2.042   1.335   5.857
 6948SOL    HW222286   2.122   1.384   5.975
 6949SOL     OW22287   1.977   1.021   7.309
 6949SOL    HW122288   1.902   1.001   7.365
 6949SOL    HW222289   2.052   0.986   7.356
 6950SOL     OW22290   2.527   0.199   7.069
 6950SOL    HW122291   2.610   0.160   7.042
 6950SOL    HW222292   2.538   0.215   7.163
 6951SOL     OW22293   1.945   0.335   5.615
 6951SOL    HW122294   1.850   0.339   5.602
 6951SOL    HW222295   1.978   0.413   5.571
 6952SOL     OW22296   3.282   0.855   6.975
 6952SOL    HW122297   3.231   0.917   6.923
 6952SOL    HW222298   3.372   0.863   6.943
 6953SOL     OW22299   1.897   0.158   5.869
 6953SOL    HW122300   1.910   0.241   5.823
 6953SOL    HW222301   1.980   0.111   5.858
 6954SOL     OW22302   3.023   1.316   5.699
 6954SOL    HW122303   2.929   1.319   5.681
 6954SOL    HW222304   3.041   1.396   5.748
 6955SOL     OW22305   2.486   0.836   7.023
 6955SOL    HW122306   2.538   0.915   7.010
 6955SOL    HW222307   2.552   0.766   7.033
 6956SOL     OW22308   3.357   1.780   6.559
 6956SOL    HW122309   3.369   1.860   6.508
 6956SOL    HW222310   3.431   1.780   6.620
 6957SOL     OW22311   2.575   0.585   7.282
 6957SOL    HW122312   2.618   0.651   7.336
 6957SOL    HW222313   2.593   0.502   7.327
 6958SOL     OW22314   3.338   1.185   7.206
 6958SOL    HW122315   3.327   1.204   7.299
 6958SOL    HW222316   3.428   1.213   7.187
 6959SOL     OW22317   2.231   1.736   7.144
 6959SOL    HW122318   2.145   1.776   7.129
 6959SOL    HW222319   2.211   1.652   7.186
 6960SOL     OW22320   3.522   0.881   6.842
 6960SOL    HW122321   3.521   0.801   6.790
 6960SOL    HW222322   3.514   0.951   6.777
 6961SOL     OW22323   3.087   0.325   6.031
 6961SOL    HW122324   3.150   0.255   6.018
 6961SOL    HW222325   3.117   0.370   6.110
 6962SOL     OW22326   2.448   0.725   6.262
 6962SOL    HW122327   2.488   0.812   6.253
 6962SOL    HW222328   2.384   0.721   6.191
 6963SOL     OW22329   3.618   0.373   7.240
 6963SOL    HW122330   3.609   0.393   7.147
 6963SOL    HW222331   3.546   0.313   7.258
 6964SOL     OW22332   3.614   0.932   7.099
 6964SOL    HW122333   3.602   1.026   7.116
 6964SOL    HW222334   3.594   0.922   7.006
 6965SOL     OW22335   2.752   1.355   5.636
 6965SOL    HW122336   2.703   1.377   5.715
 6965SOL    HW222337   2.747   1.434   5.582
 6966SOL     OW22338   2.521   1.777   6.507
 6966SOL    HW122339   2.499   1.870   6.496
 6966SOL    HW222340   2.616   1.776   6.515
 6967SOL     OW22341   2.741   0.984   6.437
 6967SOL    HW122342   2.791   0.912   6.477
 6967SOL    HW222343   2.695   1.025   6.511
 6968SOL     OW22344   2.919   0.963   5.649
 6968SOL    HW122345   2.931   1.052   5.616
 6968SOL    HW222346   3.005   0.923   5.640
 6969SOL     OW22347   3.711   1.533   6.420
 6969SOL    HW122348   3.631   1.543   6.369
 6969SOL    HW222349   3.681   1.504   6.506
 6970SOL     OW22350   2.093   1.298   7.444
 6970SOL    HW122351   2.020   1.244   7.413
 6970SOL    HW222352   2.078   1.307   7.538
 6971SOL     OW22353   1.951   1.211   6.255
 6971SOL    HW122354   1.990   1.174   6.334
 6971SOL    HW222355   2.015   1.196   6.186
 6972SOL     OW22356   2.540   1.418   7.206
 6972SOL    HW122357   2.470   1.372   7.252
 6972SOL    HW222358   2.550   1.500   7.254
 6973SOL     OW22359   3.685   0.227   6.815
 6973SOL    HW122360   3.622   0.156   6.805
 6973SOL    HW222361   3.712   0.248   6.725
 6974SOL     OW22362   2.295   0.423   6.116
 6974SOL    HW122363   2.317   0.357   6.050
 6974SOL    HW222364   2.236   0.378   6.176
 6975SOL     OW22365   3.571   1.464   6.650
 6975SOL    HW122366   3.480   1.461   6.619
 6975SOL    HW222367   3.571   1.411   6.730
 6976SOL     OW22368   2.193   0.565   6.881
 6976SOL    HW122369   2.241   0.502   6.933
 6976SOL    HW222370   2.208   0.539   6.790
 6977SOL     OW22371   2.701   1.586   6.253
 6977SOL    HW122372   2.684   1.668   6.207
 6977SOL    HW222373   2.616   1.541   6.254
 6978SOL     OW22374   3.289   0.222   6.705
 6978SOL    HW122375   3.350   0.166   6.754
 6978SOL    HW222376   3.238   0.267   6.772
 6979SOL     OW22377   2.874   0.073   6.719
 6979SOL    HW122378   2.790   0.046   6.683
 6979SOL    HW222379   2.916  -0.009   6.746
 6980SOL     OW22380   2.643   1.321   5.899
 6980SOL    HW122381   2.607   1.234   5.914
 6980SOL    HW222382   2.707   1.333   5.969
 6981SOL     OW22383   2.484   1.554   6.870
 6981SOL    HW122384   2.481   1.637   6.918
 6981SOL    HW222385   2.572   1.550   6.834
 6982SOL     OW22386   3.209   7.984   5.702
 6982SOL    HW122387   3.291   7.938   5.723
 6982SOL    HW222388   3.143   7.941   5.756
 6983SOL     OW22389   3.161   0.465   6.257
 6983SOL    HW122390   3.111   0.546   6.260
 6983SOL    HW222391   3.161   0.433   6.347
 6984SOL     OW22392   3.469   0.224   6.451
 6984SOL    HW122393   3.393   0.224   6.508
 6984SOL    HW222394   3.462   0.305   6.400
 6985SOL     OW22395   1.901   1.065   5.903
 6985SOL    HW122396   1.995   1.055   5.884
 6985SOL    HW222397   1.870   0.975   5.916
 6986SOL     OW22398   2.754   1.653   5.912
 6986SOL    HW122399   2.680   1.639   5.853
 6986SOL    HW222400   2.725   1.722   5.971
 6987SOL     OW22401   2.079   0.607   7.576
 6987SOL    HW122402   1.989   0.622   7.605
 6987SOL    HW222403   2.073   0.600   7.481
 6988SOL     OW22404   2.086   0.303   8.425
 6988SOL    HW122405   2.124   0.259   8.500
 6988SOL    HW222406   2.000   0.262   8.414
 6989SOL     OW22407   1.866   0.407   8.073
 6989SOL    HW122408   1.782   0.426   8.115
 6989SOL    HW222409   1.844   0.341   8.007
 6990SOL     OW22410   2.426   1.299   8.636
 6990SOL    HW122411   2.347   1.313   8.583
 6990SOL    HW222412   2.449   1.387   8.668
 6991SOL     OW22413   3.438   1.510   8.150
 6991SOL    HW122414   3.389   1.493   8.230
 6991SOL    HW222415   3.372   1.523   8.082
 6992SOL     OW22416   2.999   0.690   8.146
 6992SOL    HW122417   3.048   0.770   8.128
 6992SOL    HW222418   2.948   0.711   8.225
 6993SOL     OW22419   3.662   0.596   7.668
 6993SOL    HW122420   3.628   0.598   7.579
 6993SOL    HW222421   3.612   0.526   7.711
 6994SOL     OW22422   2.604   1.134   8.506
 6994SOL    HW122423   2.537   1.176   8.561
 6994SOL    HW222424   2.643   1.206   8.456
 6995SOL     OW22425   2.742   0.753   9.266
 6995SOL    HW122426   2.738   0.823   9.331
 6995SOL    HW222427   2.761   0.798   9.184
 6996SOL     OW22428   2.546   0.986   8.095
 6996SOL    HW122429   2.614   0.988   8.163
 6996SOL    HW222430   2.480   1.048   8.126
 6997SOL     OW22431   2.578   1.156   9.280
 6997SOL    HW122432   2.630   1.231   9.310
 6997SOL    HW222433   2.504   1.195   9.233
 6998SOL     OW22434   2.197   1.412   8.511
 6998SOL    HW122435   2.124   1.374   8.463
 6998SOL    HW222436   2.243   1.466   8.446
 6999SOL     OW22437   3.322   1.498   8.819
 6999SOL    HW122438   3.376   1.578   8.823
 6999SOL    HW222439   3.250   1.515   8.880
 7000SOL     OW22440   2.301   0.381   8.935
 7000SOL    HW122441   2.382   0.330   8.936
 7000SOL    HW222442   2.231   0.316   8.927
 7001SOL     OW22443   3.474   0.458   8.166
 7001SOL    HW122444   3.395   0.459   8.112
 7001SOL    HW222445   3.483   0.548   8.197
 7002SOL     OW22446   2.089   1.712   7.910
 7002SOL    HW122447   2.108   1.786   7.967
 7002SOL    HW222448   2.163   1.708   7.850
 7003SOL     OW22449   3.002   1.341   9.142
 7003SOL    HW122450   3.044   1.330   9.228
 7003SOL    HW222451   2.952   1.261   9.130
 7004SOL     OW22452   2.083   1.448   7.981
 7004SOL    HW122453   2.084   1.542   7.966
 7004SOL    HW222454   2.033   1.437   8.062
 7005SOL     OW22455   2.123   1.095   8.329
 7005SOL    HW122456   2.125   1.007   8.366
 7005SOL    HW222457   2.069   1.146   8.389
 7006SOL     OW22458   2.459   1.790   8.881
 7006SOL    HW122459   2.376   1.779   8.926
 7006SOL    HW222460   2.486   1.880   8.901
 7007SOL     OW22461   2.436   0.990   7.594
 7007SOL    HW122462   2.484   1.034   7.523
 7007SOL    HW222463   2.478   1.021   7.674
 7008SOL     OW22464   3.536   0.097   8.953
 7008SOL    HW122465   3.487   0.115   8.872
 7008SOL    HW222466   3.483   0.135   9.023
 7009SOL     OW22467   1.990   0.656   8.014
 7009SOL    HW122468   1.951   0.570   8.033
 7009SOL    HW222469   1.977   0.706   8.095
 7010SOL     OW22470   3.711   1.754   7.774
 7010SOL    HW122471   3.784   1.734   7.831
 7010SOL    HW222472   3.722   1.846   7.750
 7011SOL     OW22473   1.901   1.587   7.571
 7011SOL    HW122474   1.885   1.495   7.593
 7011SOL    HW222475   1.877   1.635   7.650
 7012SOL     OW22476   3.551   0.914   8.075
 7012SOL    HW122477   3.622   0.873   8.026
 7012SOL    HW222478   3.519   0.983   8.018
 7013SOL     OW22479   3.510   1.110   7.883
 7013SOL    HW122480   3.596   1.110   7.841
 7013SOL    HW222481   3.518   1.174   7.954
 7014SOL     OW22482   1.978   0.751   9.031
 7014SOL    HW122483   2.064   0.794   9.028
 7014SOL    HW222484   1.915   0.821   9.013
 7015SOL     OW22485   2.467   1.388   8.190
 7015SOL    HW122486   2.425   1.302   8.185
 7015SOL    HW222487   2.464   1.422   8.100
 7016SOL     OW22488   3.141   1.225   8.876
 7016SOL    HW122489   3.168   1.161   8.810
 7016SOL    HW222490   3.210   1.222   8.942
 7017SOL     OW22491   2.709   0.036   8.013
 7017SOL    HW122492   2.743   0.117   7.975
 7017SOL    HW222493   2.617   0.033   7.988
 7018SOL     OW22494   2.041   0.955   8.742
 7018SOL    HW122495   2.129   0.920   8.726
 7018SOL    HW222496   1.993   0.937   8.661
 7019SOL     OW22497   3.408   0.989   7.654
 7019SOL    HW122498   3.334   0.936   7.687
 7019SOL    HW222499   3.440   1.035   7.732
 7020SOL     OW22500   3.036   1.814   9.082
 7020SOL    HW122501   3.041   1.884   9.016
 7020SOL    HW222502   3.059   1.734   9.035
 7021SOL     OW22503   2.181   0.233   9.251
 7021SOL    HW122504   2.240   0.307   9.266
 7021SOL    HW222505   2.098   0.259   9.292
 7022SOL     OW22506   3.328   1.420   8.388
 7022SOL    HW122507   3.261   1.438   8.453
 7022SOL    HW222508   3.313   1.328   8.363
 7023SOL     OW22509   3.531   1.753   8.025
 7023SOL    HW122510   3.509   1.731   7.934
 7023SOL    HW222511   3.499   1.678   8.076
 7024SOL     OW22512   2.460   0.723   7.723
 7024SOL    HW122513   2.466   0.807   7.678
 7024SOL    HW222514   2.394   0.737   7.791
 7025SOL     OW22515   3.166   0.367   8.385
 7025SOL    HW122516   3.073   0.347   8.381
 7025SOL    HW222517   3.200   0.312   8.456
 7026SOL     OW22518   3.445   1.670   7.759
 7026SOL    HW122519   3.535   1.700   7.747
 7026SOL    HW222520   3.412   1.657   7.670
 7027SOL     OW22521   2.657   0.631   8.902
 7027SOL    HW122522   2.619   0.604   8.986
 7027SOL    HW222523   2.622   0.568   8.839
 7028SOL     OW22524   3.272   0.494   9.125
 7028SOL    HW122525   3.270   0.538   9.210
 7028SOL    HW222526   3.353   0.443   9.126
 7029SOL     OW22527   2.806   0.889   9.032
 7029SOL    HW122528   2.863   0.822   8.993
 7029SOL    HW222529   2.762   0.929   8.956
 7030SOL     OW22530   2.861   0.407   8.667
 7030SOL    HW122531   2.771   0.432   8.690
 7030SOL    HW222532   2.855   0.381   8.575
 7031SOL     OW22533   2.917   0.688   7.876
 7031SOL    HW122534   2.935   0.684   7.970
 7031SOL    HW222535   2.830   0.650   7.866
 7032SOL     OW22536   1.946   0.809   8.236
 7032SOL    HW122537   2.029   0.814   8.284
 7032SOL    HW222538   1.897   0.886   8.266
 7033SOL     OW22539   1.982   1.881   9.032
 7033SOL    HW122540   1.985   1.857   9.124
 7033SOL    HW222541   1.900   1.843   9.000
 7034SOL     OW22542   2.752   0.348   7.643
 7034SOL    HW122543   2.803   0.404   7.585
 7034SOL    HW222544   2.779   0.259   7.622
 7035SOL     OW22545   3.567   0.575   9.280
 7035SOL    HW122546   3.535   0.652   9.232
 7035SOL    HW222547   3.593   0.513   9.212
 7036SOL     OW22548   3.245   1.135   8.004
 7036SOL    HW122549   3.318   1.132   7.941
 7036SOL    HW222550   3.189   1.205   7.972
 7037SOL     OW22551   2.405   0.204   8.387
 7037SOL    HW122552   2.389   0.291   8.424
 7037SOL    HW222553   2.433   0.221   8.297
 7038SOL     OW22554   2.822   1.435   7.933
 7038SOL    HW122555   2.813   1.516   7.882
 7038SOL    HW222556   2.915   1.414   7.928
 7039SOL     OW22557   2.217   1.821   8.331
 7039SOL    HW122558   2.267   1.739   8.332
 7039SOL    HW222559   2.284   1.889   8.338
 7040SOL     OW22560   3.662   1.022   8.329
 7040SOL    HW122561   3.619   1.037   8.245
 7040SOL    HW222562   3.595   1.042   8.394
 7041SOL     OW22563   3.085   1.542   8.962
 7041SOL    HW122564   3.074   1.465   9.019
 7041SOL    HW222565   3.024   1.528   8.890
 7042SOL     OW22566   2.175   0.963   7.705
 7042SOL    HW122567   2.261   0.988   7.670
 7042SOL    HW222568   2.145   0.893   7.648
 7043SOL     OW22569   3.363   0.739   8.167
 7043SOL    HW122570   3.355   0.720   8.261
 7043SOL    HW222571   3.433   0.805   8.162
 7044SOL     OW22572   2.326   1.275   9.195
 7044SOL    HW122573   2.304   1.279   9.102
 7044SOL    HW222574   2.242   1.270   9.240
 7045SOL     OW22575   2.986   1.768   7.683
 7045SOL    HW122576   2.906   1.731   7.721
 7045SOL    HW222577   3.012   1.706   7.615
 7046SOL     OW22578   2.040   0.258   8.954
 7046SOL    HW122579   1.994   0.335   8.921
 7046SOL    HW222580   2.048   0.273   9.048
 7047SOL     OW22581   3.497   1.380   7.547
 7047SOL    HW122582   3.456   1.465   7.532
 7047SOL    HW222583   3.432   1.316   7.519
 7048SOL     OW22584   2.329   1.731   7.772
 7048SOL    HW122585   2.376   1.793   7.827
 7048SOL    HW222586   2.394   1.702   7.707
 7049SOL     OW22587   3.287   0.125   7.866
 7049SOL    HW122588   3.288   0.091   7.777
 7049SOL    HW222589   3.378   0.150   7.883
 7050SOL     OW22590   2.115   1.786   8.668
 7050SOL    HW122591   2.171   1.713   8.694
 7050SOL    HW222592   2.103   1.773   8.574
 7051SOL     OW22593   2.810   1.697   8.350
 7051SOL    HW122594   2.897   1.657   8.341
 7051SOL    HW222595   2.758   1.657   8.281
 7052SOL     OW22596   2.264   0.685   7.926
 7052SOL    HW122597   2.281   0.593   7.942
 7052SOL    HW222598   2.170   0.695   7.939
 7053SOL     OW22599   3.409   0.208   9.171
 7053SOL    HW122600   3.421   0.241   9.260
 7053SOL    HW222601   3.316   0.188   9.165
 7054SOL     OW22602   2.430   0.078   7.588
 7054SOL    HW122603   2.525   0.066   7.600
 7054SOL    HW222604   2.416   0.064   7.495
 7055SOL     OW22605   2.587   0.304   9.223
 7055SOL    HW122606   2.663   0.246   9.215
 7055SOL    HW222607   2.536   0.267   9.295
 7056SOL     OW22608   2.727   1.509   8.647
 7056SOL    HW122609   2.717   1.484   8.555
 7056SOL    HW222610   2.809   1.468   8.675
 7057SOL     OW22611   3.200   0.592   8.876
 7057SOL    HW122612   3.236   0.569   8.962
 7057SOL    HW222613   3.233   0.680   8.860
 7058SOL     OW22614   2.680   1.377   8.392
 7058SOL    HW122615   2.767   1.377   8.351
 7058SOL    HW222616   2.620   1.396   8.320
 7059SOL     OW22617   2.785   0.515   8.341
 7059SOL    HW122618   2.756   0.511   8.250
 7059SOL    HW222619   2.826   0.430   8.357
 7060SOL     OW22620   2.461   0.043   7.895
 7060SOL    HW122621   2.386  -0.010   7.922
 7060SOL    HW222622   2.423   0.122   7.857
 7061SOL     OW22623   3.311   1.189   7.479
 7061SOL    HW122624   3.332   1.117   7.538
 7061SOL    HW222625   3.228   1.224   7.511
 7062SOL     OW22626   2.147   0.060   7.642
 7062SOL    HW122627   2.153   0.120   7.567
 7062SOL    HW222628   2.238   0.037   7.661
 7063SOL     OW22629   2.809   0.266   7.908
 7063SOL    HW122630   2.778   0.298   7.823
 7063SOL    HW222631   2.903   0.280   7.906
 7064SOL     OW22632   2.946   0.689   8.913
 7064SOL    HW122633   2.881   0.618   8.916
 7064SOL    HW222634   3.029   0.645   8.900
 7065SOL     OW22635   3.067   1.600   8.256
 7065SOL    HW122636   3.079   1.653   8.177
 7065SOL    HW222637   3.144   1.621   8.310
 7066SOL     OW22638   2.334   1.147   8.166
 7066SOL    HW122639   2.265   1.131   8.230
 7066SOL    HW222640   2.290   1.141   8.081
 7067SOL     OW22641   3.122   1.802   8.066
 7067SOL    HW122642   3.175   1.859   8.011
 7067SOL    HW222643   3.052   1.859   8.098
 7068SOL     OW22644   2.885   0.525   7.472
 7068SOL    HW122645   2.843   0.609   7.451
 7068SOL    HW222646   2.949   0.545   7.540
 7069SOL     OW22647   1.969   0.542   8.857
 7069SOL    HW122648   2.057   0.553   8.821
 7069SOL    HW222649   1.958   0.616   8.916
 7070SOL     OW22650   2.431   0.247   8.679
 7070SOL    HW122651   2.462   0.190   8.749
 7070SOL    HW222652   2.338   0.229   8.672
 7071SOL     OW22653   2.721   0.469   8.081
 7071SOL    HW122654   2.688   0.524   8.010
 7071SOL    HW222655   2.748   0.388   8.037
 7072SOL     OW22656   2.819   0.035   8.256
 7072SOL    HW122657   2.779   0.044   8.170
 7072SOL    HW222658   2.846  -0.057   8.261
 7073SOL     OW22659   3.310   1.158   8.301
 7073SOL    HW122660   3.225   1.121   8.277
 7073SOL    HW222661   3.355   1.172   8.218
 7074SOL     OW22662   3.321   0.616   8.416
 7074SOL    HW122663   3.271   0.535   8.411
 7074SOL    HW222664   3.380   0.603   8.490
 7075SOL     OW22665   3.703   0.803   7.846
 7075SOL    HW122666   3.768   0.756   7.897
 7075SOL    HW222667   3.684   0.746   7.771
 7076SOL     OW22668   2.349   1.425   7.605
 7076SOL    HW122669   2.273   1.389   7.649
 7076SOL    HW222670   2.364   1.367   7.530
 7077SOL     OW22671   3.539   1.251   8.115
 7077SOL    HW122672   3.634   1.250   8.120
 7077SOL    HW222673   3.514   1.343   8.121
 7078SOL     OW22674   3.257   0.580   7.517
 7078SOL    HW122675   3.190   0.560   7.583
 7078SOL    HW222676   3.340   0.570   7.564
 7079SOL     OW22677   2.364   0.270   7.767
 7079SOL    HW122678   2.383   0.209   7.696
 7079SOL    HW222679   2.351   0.355   7.724
 7080SOL     OW22680   3.613   1.240   9.020
 7080SOL    HW122681   3.699   1.210   8.991
 7080SOL    HW222682   3.627   1.333   9.042
 7081SOL     OW22683   2.918   1.357   8.787
 7081SOL    HW122684   2.841   1.324   8.834
 7081SOL    HW222685   2.992   1.309   8.826
 7082SOL     OW22686   3.477   1.623   9.112
 7082SOL    HW122687   3.463   1.663   9.026
 7082SOL    HW222688   3.561   1.577   9.103
 7083SOL     OW22689   3.002   1.220   8.553
 7083SOL    HW122690   2.937   1.259   8.612
 7083SOL    HW222691   2.981   1.255   8.467
 7084SOL     OW22692   3.474   1.088   8.520
 7084SOL    HW122693   3.463   1.157   8.586
 7084SOL    HW222694   3.406   1.107   8.455
 7085SOL     OW22695   2.790   0.125   8.854
 7085SOL    HW122696   2.796   0.112   8.759
 7085SOL    HW222697   2.880   0.121   8.885
 7086SOL     OW22698   2.845   1.114   9.176
 7086SOL    HW122699   2.754   1.133   9.197
 7086SOL    HW222700   2.841   1.038   9.118
 7087SOL     OW22701   2.570   1.052   7.824
 7087SOL    HW122702   2.558   1.033   7.917
 7087SOL    HW222703   2.647   1.001   7.799
 7088SOL     OW22704   2.281   0.829   8.707
 7088SOL    HW122705   2.352   0.839   8.770
 7088SOL    HW222706   2.253   0.738   8.717
 7089SOL     OW22707   3.124   0.377   8.727
 7089SOL    HW122708   3.156   0.457   8.767
 7089SOL    HW222709   3.034   0.398   8.701
 7090SOL     OW22710   1.940   1.570   8.803
 7090SOL    HW122711   1.910   1.641   8.745
 7090SOL    HW222712   2.036   1.572   8.793
 7091SOL     OW22713   2.190   1.126   7.934
 7091SOL    HW122714   2.194   1.201   7.875
 7091SOL    HW222715   2.190   1.050   7.875
 7092SOL     OW22716   2.408   0.531   8.314
 7092SOL    HW122717   2.417   0.589   8.238
 7092SOL    HW222718   2.479   0.557   8.372
 7093SOL     OW22719   3.105   1.347   7.895
 7093SOL    HW122720   3.158   1.426   7.897
 7093SOL    HW222721   3.087   1.333   7.802
 7094SOL     OW22722   3.160   1.461   8.598
 7094SOL    HW122723   3.214   1.464   8.677
 7094SOL    HW222724   3.106   1.382   8.608
 7095SOL     OW22725   3.437   0.631   7.922
 7095SOL    HW122726   3.393   0.669   7.997
 7095SOL    HW222727   3.470   0.706   7.873
 7096SOL     OW22728   2.210   1.526   8.753
 7096SOL    HW122729   2.200   1.482   8.669
 7096SOL    HW222730   2.304   1.540   8.762
 7097SOL     OW22731   2.294   0.741   9.062
 7097SOL    HW122732   2.346   0.790   8.998
 7097SOL    HW222733   2.348   0.665   9.083
 7098SOL     OW22734   3.478   0.787   9.138
 7098SOL    HW122735   3.391   0.827   9.130
 7098SOL    HW222736   3.529   0.827   9.067
 7099SOL     OW22737   2.909   0.075   9.196
 7099SOL    HW122738   2.925   0.164   9.165
 7099SOL    HW222739   2.815   0.062   9.182
 7100SOL     OW22740   2.367   0.029   9.185
 7100SOL    HW122741   2.340  -0.030   9.115
 7100SOL    HW222742   2.295   0.093   9.191
 7101SOL     OW22743   2.457   0.876   8.489
 7101SOL    HW122744   2.491   0.965   8.482
 7101SOL    HW222745   2.391   0.881   8.558
 7102SOL     OW22746   3.199   0.855   8.474
 7102SOL    HW122747   3.125   0.858   8.414
 7102SOL    HW222748   3.242   0.772   8.455
 7103SOL     OW22749   3.055   0.532   7.697
 7103SOL    HW122750   3.062   0.448   7.743
 7103SOL    HW222751   3.018   0.592   7.761
 7104SOL     OW22752   2.162   0.194   8.679
 7104SOL    HW122753   2.080   0.203   8.727
 7104SOL    HW222754   2.152   0.113   8.628
 7105SOL     OW22755   1.880   1.312   8.732
 7105SOL    HW122756   1.929   1.259   8.796
 7105SOL    HW222757   1.903   1.402   8.754
 7106SOL     OW22758   2.582   0.630   8.503
 7106SOL    HW122759   2.657   0.622   8.444
 7106SOL    HW222760   2.550   0.720   8.489
 7107SOL     OW22761   3.612   0.954   9.318
 7107SOL    HW122762   3.568   0.893   9.260
 7107SOL    HW222763   3.545   0.979   9.382
 7108SOL     OW22764   2.267   0.072   8.133
 7108SOL    HW122765   2.208   0.148   8.131
 7108SOL    HW222766   2.235   0.015   8.064
 7109SOL     OW22767   3.493   0.403   7.789
 7109SOL    HW122768   3.511   0.335   7.855
 7109SOL    HW222769   3.463   0.478   7.840
 7110SOL     OW22770   2.887   0.760   8.402
 7110SOL    HW122771   2.882   0.773   8.497
 7110SOL    HW222772   2.857   0.670   8.388
 7111SOL     OW22773   2.838   1.557   9.170
 7111SOL    HW122774   2.821   1.606   9.090
 7111SOL    HW222775   2.891   1.483   9.142
 7112SOL     OW22776   3.719   1.499   9.049
 7112SOL    HW122777   3.733   1.530   8.960
 7112SOL    HW222778   3.802   1.517   9.094
 7113SOL     OW22779   2.211   0.908   9.265
 7113SOL    HW122780   2.293   0.937   9.305
 7113SOL    HW222781   2.239   0.846   9.196
 7114SOL     OW22782   3.420   0.267   7.561
 7114SOL    HW122783   3.389   0.188   7.605
 7114SOL    HW222784   3.447   0.325   7.632
 7115SOL     OW22785   3.146   0.832   7.477
 7115SOL    HW122786   3.189   0.747   7.479
 7115SOL    HW222787   3.177   0.873   7.396
 7116SOL     OW22788   2.943   1.350   8.317
 7116SOL    HW122789   2.946   1.280   8.252
 7116SOL    HW222790   2.988   1.423   8.275
 7117SOL     OW22791   2.173   0.819   8.394
 7117SOL    HW122792   2.265   0.835   8.371
 7117SOL    HW222793   2.173   0.730   8.429
 7118SOL     OW22794   2.191   0.543   8.468
 7118SOL    HW122795   2.149   0.460   8.446
 7118SOL    HW222796   2.269   0.547   8.411
 7119SOL     OW22797   3.033   0.357   9.162
 7119SOL    HW122798   2.962   0.414   9.189
 7119SOL    HW222799   3.106   0.417   9.142
 7120SOL     OW22800   3.047   0.208   8.927
 7120SOL    HW122801   3.033   0.266   9.002
 7120SOL    HW222802   3.068   0.268   8.855
 7121SOL     OW22803   1.864   1.315   7.647
 7121SOL    HW122804   1.777   1.334   7.612
 7121SOL    HW222805   1.858   1.225   7.678
 7122SOL     OW22806   1.958   1.775   8.400
 7122SOL    HW122807   1.926   1.702   8.347
 7122SOL    HW222808   2.045   1.794   8.365
 7123SOL     OW22809   2.356   1.577   8.357
 7123SOL    HW122810   2.426   1.638   8.380
 7123SOL    HW222811   2.396   1.517   8.294
 7124SOL     OW22812   2.836   0.774   8.670
 7124SOL    HW122813   2.896   0.765   8.744
 7124SOL    HW222814   2.750   0.753   8.706
 7125SOL     OW22815   1.898   0.546   8.571
 7125SOL    HW122816   1.969   0.551   8.507
 7125SOL    HW222817   1.942   0.545   8.656
 7126SOL     OW22818   2.064   0.529   9.173
 7126SOL    HW122819   2.142   0.517   9.118
 7126SOL    HW222820   2.017   0.602   9.132
 7127SOL     OW22821   3.247   0.929   9.101
 7127SOL    HW122822   3.270   1.021   9.096
 7127SOL    HW222823   3.238   0.901   9.010
 7128SOL     OW22824   2.674   0.570   7.822
 7128SOL    HW122825   2.678   0.501   7.755
 7128SOL    HW222826   2.605   0.629   7.790
 7129SOL     OW22827   3.499   0.592   8.624
 7129SOL    HW122828   3.491   0.541   8.704
 7129SOL    HW222829   3.586   0.571   8.591
 7130SOL     OW22830   2.095   1.547   9.166
 7130SOL    HW122831   2.077   1.613   9.233
 7130SOL    HW222832   2.103   1.465   9.215
 7131SOL     OW22833   2.592   0.459   8.711
 7131SOL    HW122834   2.533   0.386   8.695
 7131SOL    HW222835   2.578   0.517   8.636
 7132SOL     OW22836   2.771   1.679   8.928
 7132SOL    HW122837   2.754   1.635   8.844
 7132SOL    HW222838   2.774   1.772   8.907
 7133SOL     OW22839   2.325   0.500   7.632
 7133SOL    HW122840   2.381   0.574   7.655
 7133SOL    HW222841   2.239   0.538   7.617
 7134SOL     OW22842   1.996   1.147   8.927
 7134SOL    HW122843   2.004   1.105   9.013
 7134SOL    HW222844   2.012   1.076   8.864
 7135SOL     OW22845   3.170   1.039   8.670
 7135SOL    HW122846   3.191   0.976   8.600
 7135SOL    HW222847   3.111   1.102   8.628
 7136SOL     OW22848   3.191   0.846   7.750
 7136SOL    HW122849   3.111   0.840   7.802
 7136SOL    HW222850   3.160   0.846   7.659
 7137SOL     OW22851   3.643   1.725   8.614
 7137SOL    HW122852   3.705   1.757   8.547
 7137SOL    HW222853   3.611   1.642   8.579
 7138SOL     OW22854   3.107   1.733   8.563
 7138SOL    HW122855   3.185   1.762   8.515
 7138SOL    HW222856   3.119   1.638   8.573
 7139SOL     OW22857   1.949   1.253   8.468
 7139SOL    HW122858   1.917   1.273   8.556
 7139SOL    HW222859   1.879   1.201   8.428
 7140SOL     OW22860   2.545   1.678   9.190
 7140SOL    HW122861   2.481   1.748   9.178
 7140SOL    HW222862   2.612   1.694   9.124
 7141SOL     OW22863   3.566   0.175   7.932
 7141SOL    HW122864   3.623   0.157   7.857
 7141SOL    HW222865   3.565   0.093   7.982
 7142SOL     OW22866   3.262   1.579   7.946
 7142SOL    HW122867   3.317   1.608   7.874
 7142SOL    HW222868   3.208   1.654   7.968
 7143SOL     OW22869   2.003   1.796   9.288
 7143SOL    HW122870   1.955   1.727   9.335
 7143SOL    HW222871   2.049   1.843   9.357
 7144SOL     OW22872   3.149   0.909   8.113
 7144SOL    HW122873   3.228   0.854   8.120
 7144SOL    HW222874   3.179   0.989   8.070
 7145SOL     OW22875   2.665   1.281   8.877
 7145SOL    HW122876   2.634   1.321   8.958
 7145SOL    HW222877   2.610   1.317   8.809
 7146SOL     OW22878   2.532   1.628   7.611
 7146SOL    HW122879   2.549   1.643   7.518
 7146SOL    HW222880   2.480   1.547   7.613
 7147SOL     OW22881   3.478   1.724   8.843
 7147SOL    HW122882   3.532   1.729   8.765
 7147SOL    HW222883   3.464   1.816   8.868
 7148SOL     OW22884   3.709   0.142   8.410
 7148SOL    HW122885   3.732   0.089   8.334
 7148SOL    HW222886   3.625   0.182   8.386
 7149SOL     OW22887   2.103   0.290   8.146
 7149SOL    HW122888   2.026   0.342   8.123
 7149SOL    HW222889   2.114   0.304   8.240
 7150SOL     OW22890   3.070   1.594   7.488
 7150SOL    HW122891   3.064   1.505   7.522
 7150SOL    HW222892   2.998   1.601   7.426
 7151SOL     OW22893   2.685   1.015   8.817
 7151SOL    HW122894   2.713   1.015   8.725
 7151SOL    HW222895   2.679   1.107   8.840
 7152SOL     OW22896   2.778   0.901   7.753
 7152SOL    HW122897   2.827   0.937   7.678
 7152SOL    HW222898   2.837   0.835   7.790
 7153SOL     OW22899   3.354   1.621   7.496
 7153SOL    HW122900   3.259   1.612   7.483
 7153SOL    HW222901   3.389   1.630   7.407
 7154SOL     OW22902   2.226   1.309   8.948
 7154SOL    HW122903   2.225   1.381   8.885
 7154SOL    HW222904   2.149   1.256   8.926
 7155SOL     OW22905   3.465   1.286   8.712
 7155SOL    HW122906   3.548   1.287   8.758
 7155SOL    HW222907   3.411   1.351   8.758
 7156SOL     OW22908   2.935   1.115   8.182
 7156SOL    HW122909   2.857   1.066   8.208
 7156SOL    HW222910   2.975   1.062   8.113
 7157SOL     OW22911   2.906   0.266   8.398
 7157SOL    HW122912   2.878   0.213   8.324
 7157SOL    HW222913   2.907   0.206   8.472
 7158SOL     OW22914   2.464   1.480   7.932
 7158SOL    HW122915   2.516   1.430   7.869
 7158SOL    HW222916   2.409   1.537   7.878
 7159SOL     OW22917   3.596   0.408   8.830
 7159SOL    HW122918   3.670   0.470   8.831
 7159SOL    HW222919   3.627   0.335   8.778
 7160SOL     OW22920   2.119   1.333   7.741
 7160SOL    HW122921   2.027   1.333   7.716
 7160SOL    HW222922   2.122   1.380   7.824
 7161SOL     OW22923   1.985   1.048   9.189
 7161SOL    HW122924   1.907   1.015   9.234
 7161SOL    HW222925   2.056   0.994   9.223
 7162SOL     OW22926   2.530   0.212   8.952
 7162SOL    HW122927   2.610   0.169   8.923
 7162SOL    HW222928   2.553   0.251   9.037
 7163SOL     OW22929   1.929   0.328   7.501
 7163SOL    HW122930   1.862   0.328   7.432
 7163SOL    HW222931   1.981   0.407   7.483
 7164SOL     OW22932   3.282   0.854   8.840
 7164SOL    HW122933   3.229   0.915   8.788
 7164SOL    HW222934   3.369   0.861   8.801
 7165SOL     OW22935   1.913   0.175   7.747
 7165SOL    HW122936   1.908   0.242   7.679
 7165SOL    HW222937   1.996   0.130   7.730
 7166SOL     OW22938   2.484   0.841   8.886
 7166SOL    HW122939   2.537   0.918   8.866
 7166SOL    HW222940   2.547   0.770   8.894
 7167SOL     OW22941   3.338   1.787   8.418
 7167SOL    HW122942   3.340   1.858   8.353
 7167SOL    HW222943   3.427   1.783   8.452
 7168SOL     OW22944   2.558   0.570   9.146
 7168SOL    HW122945   2.613   0.625   9.201
 7168SOL    HW222946   2.570   0.482   9.180
 7169SOL     OW22947   3.343   1.185   9.074
 7169SOL    HW122948   3.332   1.210   9.166
 7169SOL    HW222949   3.432   1.210   9.053
 7170SOL     OW22950   2.226   1.749   9.019
 7170SOL    HW122951   2.145   1.797   8.998
 7170SOL    HW222952   2.196   1.664   9.051
 7171SOL     OW22953   3.520   0.879   8.702
 7171SOL    HW122954   3.516   0.797   8.652
 7171SOL    HW222955   3.508   0.948   8.636
 7172SOL     OW22956   3.079   0.314   7.905
 7172SOL    HW122957   3.147   0.249   7.890
 7172SOL    HW222958   3.111   0.367   7.978
 7173SOL     OW22959   2.439   0.733   8.132
 7173SOL    HW122960   2.485   0.816   8.117
 7173SOL    HW222961   2.381   0.724   8.057
 7174SOL     OW22962   3.614   0.378   9.100
 7174SOL    HW122963   3.608   0.390   9.005
 7174SOL    HW222964   3.551   0.308   9.118
 7175SOL     OW22965   3.621   0.930   8.956
 7175SOL    HW122966   3.605   1.023   8.971
 7175SOL    HW222967   3.597   0.917   8.864
 7176SOL     OW22968   2.680   1.375   7.483
 7176SOL    HW122969   2.692   1.380   7.577
 7176SOL    HW222970   2.737   1.443   7.447
 7177SOL     OW22971   2.528   1.784   8.402
 7177SOL    HW122972   2.508   1.871   8.369
 7177SOL    HW222973   2.620   1.770   8.380
 7178SOL     OW22974   2.729   0.972   8.304
 7178SOL    HW122975   2.783   0.901   8.339
 7178SOL    HW222976   2.694   1.017   8.381
 7179SOL     OW22977   2.918   0.980   7.537
 7179SOL    HW122978   2.936   1.074   7.535
 7179SOL    HW222979   2.999   0.939   7.506
 7180SOL     OW22980   3.703   1.552   8.288
 7180SOL    HW122981   3.633   1.554   8.223
 7180SOL    HW222982   3.661   1.515   8.366
 7181SOL     OW22983   2.071   1.292   9.294
 7181SOL    HW122984   2.038   1.215   9.248
 7181SOL    HW222985   2.007   1.308   9.363
 7182SOL     OW22986   1.952   1.215   8.116
 7182SOL    HW122987   1.997   1.171   8.188
 7182SOL    HW222988   2.012   1.208   8.042
 7183SOL     OW22989   2.552   1.406   9.094
 7183SOL    HW122990   2.466   1.376   9.120
 7183SOL    HW222991   2.554   1.498   9.119
 7184SOL     OW22992   3.696   0.202   8.687
 7184SOL    HW122993   3.621   0.142   8.683
 7184SOL    HW222994   3.712   0.225   8.595
 7185SOL     OW22995   2.301   0.421   7.989
 7185SOL    HW122996   2.316   0.366   7.912
 7185SOL    HW222997   2.232   0.376   8.038
 7186SOL     OW22998   3.559   1.480   8.519
 7186SOL    HW122999   3.478   1.469   8.470
 7186SOL    HW223000   3.555   1.413   8.587
 7187SOL     OW23001   2.210   0.566   8.743
 7187SOL    HW123002   2.262   0.501   8.790
 7187SOL    HW223003   2.221   0.543   8.650
 7188SOL     OW23004   2.670   1.619   8.137
 7188SOL    HW123005   2.678   1.686   8.069
 7188SOL    HW223006   2.643   1.540   8.090
 7189SOL     OW23007   3.276   0.206   8.578
 7189SOL    HW123008   3.343   0.167   8.634
 7189SOL    HW223009   3.223   0.259   8.636
 7190SOL     OW23010   2.868   0.074   8.588
 7190SOL    HW123011   2.782   0.066   8.547
 7190SOL    HW223012   2.891  -0.016   8.611
 7191SOL     OW23013   2.627   1.326   7.772
 7191SOL    HW123014   2.614   1.232   7.783
 7191SOL    HW223015   2.704   1.346   7.826
 7192SOL     OW23016   2.481   1.553   8.746
 7192SOL    HW123017   2.482   1.638   8.792
 7192SOL    HW223018   2.567   1.548   8.704
 7193SOL     OW23019   3.240   8.006   7.571
 7193SOL    HW123020   3.282   7.922   7.584
 7193SOL    HW223021   3.151   7.994   7.604
 7194SOL     OW23022   3.165   0.461   8.122
 7194SOL    HW123023   3.112   0.541   8.121
 7194SOL    HW223024   3.167   0.434   8.213
 7195SOL     OW23025   3.470   0.244   8.332
 7195SOL    HW123026   3.384   0.257   8.371
 7195SOL    HW223027   3.478   0.315   8.268
 7196SOL     OW23028   1.899   1.062   7.764
 7196SOL    HW123029   1.992   1.059   7.745
 7196SOL    HW223030   1.875   0.972   7.785
 7197SOL     OW23031   2.749   1.665   7.789
 7197SOL    HW123032   2.676   1.651   7.728
 7197SOL    HW223033   2.722   1.740   7.842
 7198SOL     OW23034   2.077   0.629   9.436
 7198SOL    HW123035   1.987   0.614   9.462
 7198SOL    HW223036   2.080   0.610   9.343
 7199SOL     OW23037   2.084   0.302  10.295
 7199SOL    HW123038   2.144   0.237  10.329
 7199SOL    HW223039   2.003   0.254  10.278
 7200SOL     OW23040   1.874   0.388   9.923
 7200SOL    HW123041   1.782   0.390   9.950
 7200SOL    HW223042   1.876   0.329   9.848
 7201SOL     OW23043   2.433   1.302  10.503
 7201SOL    HW123044   2.351   1.312  10.453
 7201SOL    HW223045   2.452   1.390  10.535
 7202SOL     OW23046   3.441   1.517  10.015
 7202SOL    HW123047   3.392   1.491  10.093
 7202SOL    HW223048   3.374   1.523   9.946
 7203SOL     OW23049   2.997   0.700  10.004
 7203SOL    HW123050   3.045   0.782   9.987
 7203SOL    HW223051   2.950   0.717  10.086
 7204SOL     OW23052   3.655   0.598   9.532
 7204SOL    HW123053   3.623   0.597   9.442
 7204SOL    HW223054   3.612   0.523   9.574
 7205SOL     OW23055   2.593   1.135  10.344
 7205SOL    HW123056   2.539   1.167  10.416
 7205SOL    HW223057   2.628   1.214  10.303
 7206SOL     OW23058   2.724   0.740  11.173
 7206SOL    HW123059   2.719   0.824  11.219
 7206SOL    HW223060   2.738   0.765  11.081
 7207SOL     OW23061   2.543   0.990   9.956
 7207SOL    HW123062   2.612   0.988  10.022
 7207SOL    HW223063   2.477   1.049   9.991
 7208SOL     OW23064   2.576   1.151  11.138
 7208SOL    HW123065   2.631   1.225  11.166
 7208SOL    HW223066   2.501   1.192  11.096
 7209SOL     OW23067   2.199   1.411  10.374
 7209SOL    HW123068   2.126   1.373  10.324
 7209SOL    HW223069   2.244   1.467  10.311
 7210SOL     OW23070   3.319   1.504  10.677
 7210SOL    HW123071   3.373   1.582  10.686
 7210SOL    HW223072   3.250   1.514  10.742
 7211SOL     OW23073   2.313   0.391  10.825
 7211SOL    HW123074   2.391   0.342  10.799
 7211SOL    HW223075   2.241   0.328  10.816
 7212SOL     OW23076   3.475   0.454  10.033
 7212SOL    HW123077   3.413   0.477   9.964
 7212SOL    HW223078   3.482   0.534  10.086
 7213SOL     OW23079   2.089   1.715   9.773
 7213SOL    HW123080   2.110   1.790   9.829
 7213SOL    HW223081   2.162   1.711   9.711
 7214SOL     OW23082   2.993   1.332  11.002
 7214SOL    HW123083   3.034   1.322  11.088
 7214SOL    HW223084   2.946   1.250  10.988
 7215SOL     OW23085   2.076   1.454   9.852
 7215SOL    HW123086   2.077   1.548   9.834
 7215SOL    HW223087   2.028   1.447   9.935
 7216SOL     OW23088   2.107   1.091  10.181
 7216SOL    HW123089   2.122   1.004  10.219
 7216SOL    HW223090   2.056   1.138  10.248
 7217SOL     OW23091   2.456   1.798  10.735
 7217SOL    HW123092   2.375   1.779  10.783
 7217SOL    HW223093   2.481   1.886  10.764
 7218SOL     OW23094   2.438   0.990   9.455
 7218SOL    HW123095   2.486   1.036   9.386
 7218SOL    HW223096   2.479   1.020   9.537
 7219SOL     OW23097   3.500   0.135  10.791
 7219SOL    HW123098   3.511   0.216  10.741
 7219SOL    HW223099   3.451   0.162  10.869
 7220SOL     OW23100   1.988   0.644   9.865
 7220SOL    HW123101   1.959   0.554   9.880
 7220SOL    HW223102   1.978   0.687   9.950
 7221SOL     OW23103   3.705   1.755   9.639
 7221SOL    HW123104   3.780   1.735   9.695
 7221SOL    HW223105   3.719   1.846   9.612
 7222SOL     OW23106   1.909   1.589   9.431
 7222SOL    HW123107   1.890   1.497   9.452
 7222SOL    HW223108   1.880   1.637   9.509
 7223SOL     OW23109   3.555   0.921   9.952
 7223SOL    HW123110   3.627   0.872   9.913
 7223SOL    HW223111   3.525   0.980   9.882
 7224SOL     OW23112   3.511   1.104   9.742
 7224SOL    HW123113   3.597   1.103   9.700
 7224SOL    HW223114   3.519   1.169   9.812
 7225SOL     OW23115   1.982   0.750  10.893
 7225SOL    HW123116   2.069   0.791  10.895
 7225SOL    HW223117   1.921   0.824  10.885
 7226SOL     OW23118   2.471   1.391  10.051
 7226SOL    HW123119   2.429   1.305  10.052
 7226SOL    HW223120   2.460   1.422   9.961
 7227SOL     OW23121   3.145   1.234  10.729
 7227SOL    HW123122   3.172   1.165  10.668
 7227SOL    HW223123   3.206   1.227  10.802
 7228SOL     OW23124   2.703   0.041   9.882
 7228SOL    HW123125   2.742   0.118   9.840
 7228SOL    HW223126   2.612   0.041   9.854
 7229SOL     OW23127   2.050   0.955  10.604
 7229SOL    HW123128   2.138   0.920  10.589
 7229SOL    HW223129   2.000   0.928  10.527
 7230SOL     OW23130   3.395   1.002   9.511
 7230SOL    HW123131   3.326   0.944   9.544
 7230SOL    HW223132   3.435   1.037   9.590
 7231SOL     OW23133   3.039   1.819  10.930
 7231SOL    HW123134   3.053   1.874  10.853
 7231SOL    HW223135   3.056   1.730  10.900
 7232SOL     OW23136   2.176   0.241  11.108
 7232SOL    HW123137   2.234   0.312  11.133
 7232SOL    HW223138   2.094   0.259  11.154
 7233SOL     OW23139   3.325   1.424  10.248
 7233SOL    HW123140   3.261   1.437  10.318
 7233SOL    HW223141   3.313   1.332  10.223
 7234SOL     OW23142   3.518   1.763   9.886
 7234SOL    HW123143   3.498   1.736   9.797
 7234SOL    HW223144   3.500   1.686   9.940
 7235SOL     OW23145   2.460   0.723   9.584
 7235SOL    HW123146   2.461   0.807   9.537
 7235SOL    HW223147   2.394   0.735   9.652
 7236SOL     OW23148   3.156   0.376  10.248
 7236SOL    HW123149   3.065   0.346  10.244
 7236SOL    HW223150   3.198   0.316  10.310
 7237SOL     OW23151   3.441   1.671   9.624
 7237SOL    HW123152   3.532   1.698   9.612
 7237SOL    HW223153   3.409   1.658   9.535
 7238SOL     OW23154   2.618   0.537  10.807
 7238SOL    HW123155   2.665   0.621  10.812
 7238SOL    HW223156   2.568   0.542  10.726
 7239SOL     OW23157   3.273   0.487  10.989
 7239SOL    HW123158   3.276   0.529  11.075
 7239SOL    HW223159   3.329   0.410  10.997
 7240SOL     OW23160   2.853   0.408  10.543
 7240SOL    HW123161   2.864   0.481  10.604
 7240SOL    HW223162   2.822   0.449  10.462
 7241SOL     OW23163   2.919   0.694   9.734
 7241SOL    HW123164   2.938   0.691   9.828
 7241SOL    HW223165   2.833   0.653   9.725
 7242SOL     OW23166   1.924   0.830  10.065
 7242SOL    HW123167   2.008   0.830  10.111
 7242SOL    HW223168   1.874   0.899  10.108
 7243SOL     OW23169   1.985   1.882  10.896
 7243SOL    HW123170   1.989   1.856  10.988
 7243SOL    HW223171   1.895   1.862  10.869
 7244SOL     OW23172   2.754   0.357   9.521
 7244SOL    HW123173   2.796   0.410   9.454
 7244SOL    HW223174   2.731   0.276   9.477
 7245SOL     OW23175   3.557   0.570  11.146
 7245SOL    HW123176   3.527   0.646  11.096
 7245SOL    HW223177   3.588   0.508  11.079
 7246SOL     OW23178   3.243   1.142   9.846
 7246SOL    HW123179   3.322   1.133   9.792
 7246SOL    HW223180   3.189   1.206   9.799
 7247SOL     OW23181   2.393   0.278  10.286
 7247SOL    HW123182   2.387   0.373  10.274
 7247SOL    HW223183   2.418   0.244  10.200
 7248SOL     OW23184   2.863   1.450   9.777
 7248SOL    HW123185   2.831   1.522   9.722
 7248SOL    HW223186   2.830   1.471   9.865
 7249SOL     OW23187   2.216   1.817  10.188
 7249SOL    HW123188   2.265   1.735  10.192
 7249SOL    HW223189   2.283   1.885  10.202
 7250SOL     OW23190   3.669   1.043  10.184
 7250SOL    HW123191   3.618   1.027  10.104
 7250SOL    HW223192   3.603   1.053  10.253
 7251SOL     OW23193   3.083   1.539  10.826
 7251SOL    HW123194   3.074   1.466  10.887
 7251SOL    HW223195   3.020   1.521  10.756
 7252SOL     OW23196   2.178   0.960   9.565
 7252SOL    HW123197   2.262   0.983   9.525
 7252SOL    HW223198   2.146   0.887   9.512
 7253SOL     OW23199   3.345   0.759  10.030
 7253SOL    HW123200   3.344   0.720  10.118
 7253SOL    HW223201   3.424   0.813  10.029
 7254SOL     OW23202   2.329   1.274  11.054
 7254SOL    HW123203   2.305   1.278  10.961
 7254SOL    HW223204   2.246   1.270  11.101
 7255SOL     OW23205   2.988   1.765   9.549
 7255SOL    HW123206   2.906   1.729   9.581
 7255SOL    HW223207   3.013   1.708   9.477
 7256SOL     OW23208   2.056   0.262  10.813
 7256SOL    HW123209   1.993   0.333  10.794
 7256SOL    HW223210   2.062   0.261  10.908
 7257SOL     OW23211   3.498   1.382   9.416
 7257SOL    HW123212   3.461   1.468   9.396
 7257SOL    HW223213   3.431   1.319   9.386
 7258SOL     OW23214   2.330   1.731   9.629
 7258SOL    HW123215   2.377   1.792   9.686
 7258SOL    HW223216   2.397   1.701   9.567
 7259SOL     OW23217   3.287   0.131   9.714
 7259SOL    HW123218   3.304   0.111   9.622
 7259SOL    HW223219   3.374   0.149   9.751
 7260SOL     OW23220   2.116   1.787  10.532
 7260SOL    HW123221   2.168   1.714  10.565
 7260SOL    HW223222   2.106   1.770  10.438
 7261SOL     OW23223   2.808   1.698  10.197
 7261SOL    HW123224   2.894   1.656  10.203
 7261SOL    HW223225   2.763   1.650  10.128
 7262SOL     OW23226   2.265   0.689   9.785
 7262SOL    HW123227   2.286   0.597   9.800
 7262SOL    HW223228   2.170   0.694   9.792
 7263SOL     OW23229   3.393   0.223  11.034
 7263SOL    HW123230   3.399   0.246  11.126
 7263SOL    HW223231   3.319   0.162  11.030
 7264SOL     OW23232   2.465   0.143   9.411
 7264SOL    HW123233   2.533   0.091   9.453
 7264SOL    HW223234   2.436   0.088   9.337
 7265SOL     OW23235   2.735   1.526  10.509
 7265SOL    HW123236   2.719   1.490  10.422
 7265SOL    HW223237   2.806   1.472  10.545
 7266SOL     OW23238   3.210   0.594  10.742
 7266SOL    HW123239   3.245   0.568  10.828
 7266SOL    HW223240   3.241   0.684  10.730
 7267SOL     OW23241   2.678   1.387  10.259
 7267SOL    HW123242   2.765   1.379  10.219
 7267SOL    HW223243   2.619   1.401  10.185
 7268SOL     OW23244   2.789   0.514  10.205
 7268SOL    HW123245   2.755   0.508  10.116
 7268SOL    HW223246   2.829   0.428  10.222
 7269SOL     OW23247   2.454   0.052   9.766
 7269SOL    HW123248   2.382  -0.005   9.792
 7269SOL    HW223249   2.412   0.129   9.727
 7270SOL     OW23250   3.294   1.208   9.348
 7270SOL    HW123251   3.318   1.131   9.400
 7270SOL    HW223252   3.207   1.232   9.380
 7271SOL     OW23253   2.145   0.071   9.518
 7271SOL    HW123254   2.186   0.114   9.443
 7271SOL    HW223255   2.176  -0.020   9.514
 7272SOL     OW23256   2.814   0.267   9.774
 7272SOL    HW123257   2.785   0.297   9.688
 7272SOL    HW223258   2.909   0.278   9.773
 7273SOL     OW23259   2.938   0.611  10.703
 7273SOL    HW123260   2.895   0.665  10.770
 7273SOL    HW223261   3.030   0.609  10.729
 7274SOL     OW23262   3.067   1.587  10.111
 7274SOL    HW123263   3.085   1.646  10.037
 7274SOL    HW223264   3.146   1.590  10.164
 7275SOL     OW23265   2.330   1.153  10.029
 7275SOL    HW123266   2.260   1.133  10.091
 7275SOL    HW223267   2.289   1.145   9.943
 7276SOL     OW23268   3.127   1.793   9.926
 7276SOL    HW123269   3.182   1.848   9.870
 7276SOL    HW223270   3.054   1.849   9.952
 7277SOL     OW23271   2.881   0.523   9.339
 7277SOL    HW123272   2.839   0.605   9.313
 7277SOL    HW223273   2.948   0.550   9.402
 7278SOL     OW23274   1.966   0.549  10.711
 7278SOL    HW123275   2.056   0.553  10.680
 7278SOL    HW223276   1.959   0.621  10.773
 7279SOL     OW23277   2.703   0.454   9.948
 7279SOL    HW123278   2.674   0.515   9.880
 7279SOL    HW223279   2.746   0.383   9.899
 7280SOL     OW23280   2.831   0.029  10.118
 7280SOL    HW123281   2.784   0.038  10.035
 7280SOL    HW223282   2.863  -0.061  10.117
 7281SOL     OW23283   3.307   1.161  10.164
 7281SOL    HW123284   3.230   1.105  10.155
 7281SOL    HW223285   3.341   1.170  10.075
 7282SOL     OW23286   3.324   0.617  10.271
 7282SOL    HW123287   3.272   0.537  10.269
 7282SOL    HW223288   3.382   0.606  10.346
 7283SOL     OW23289   3.699   0.804   9.707
 7283SOL    HW123290   3.764   0.756   9.759
 7283SOL    HW223291   3.680   0.745   9.634
 7284SOL     OW23292   2.351   1.420   9.456
 7284SOL    HW123293   2.278   1.387   9.509
 7284SOL    HW223294   2.346   1.369   9.375
 7285SOL     OW23295   3.539   1.260   9.960
 7285SOL    HW123296   3.634   1.258   9.970
 7285SOL    HW223297   3.516   1.353   9.972
 7286SOL     OW23298   3.260   0.583   9.382
 7286SOL    HW123299   3.197   0.557   9.448
 7286SOL    HW223300   3.345   0.561   9.420
 7287SOL     OW23301   2.373   0.278   9.627
 7287SOL    HW123302   2.404   0.227   9.553
 7287SOL    HW223303   2.347   0.362   9.589
 7288SOL     OW23304   3.606   1.242  10.870
 7288SOL    HW123305   3.690   1.199  10.884
 7288SOL    HW223306   3.621   1.334  10.893
 7289SOL     OW23307   2.914   1.358  10.647
 7289SOL    HW123308   2.839   1.324  10.695
 7289SOL    HW223309   2.989   1.312  10.685
 7290SOL     OW23310   3.469   1.630  10.972
 7290SOL    HW123311   3.461   1.666  10.883
 7290SOL    HW223312   3.549   1.579  10.971
 7291SOL     OW23313   3.002   1.222  10.413
 7291SOL    HW123314   2.938   1.257  10.474
 7291SOL    HW223315   2.975   1.255  10.327
 7292SOL     OW23316   3.482   1.095  10.382
 7292SOL    HW123317   3.473   1.159  10.452
 7292SOL    HW223318   3.410   1.114  10.322
 7293SOL     OW23319   2.771   0.104  10.678
 7293SOL    HW123320   2.811   0.113  10.592
 7293SOL    HW223321   2.832   0.146  10.738
 7294SOL     OW23322   2.839   1.089  11.017
 7294SOL    HW123323   2.748   1.110  11.040
 7294SOL    HW223324   2.832   1.012  10.961
 7295SOL     OW23325   2.572   1.058   9.686
 7295SOL    HW123326   2.557   1.035   9.777
 7295SOL    HW223327   2.649   1.007   9.660
 7296SOL     OW23328   2.289   0.823  10.570
 7296SOL    HW123329   2.358   0.833  10.636
 7296SOL    HW223330   2.258   0.733  10.582
 7297SOL     OW23331   3.129   0.370  10.599
 7297SOL    HW123332   3.162   0.450  10.640
 7297SOL    HW223333   3.042   0.393  10.568
 7298SOL     OW23334   1.941   1.577  10.669
 7298SOL    HW123335   1.913   1.651  10.615
 7298SOL    HW223336   2.036   1.576  10.660
 7299SOL     OW23337   2.191   1.125   9.793
 7299SOL    HW123338   2.191   1.199   9.733
 7299SOL    HW223339   2.195   1.048   9.736
 7300SOL     OW23340   2.401   0.540  10.187
 7300SOL    HW123341   2.409   0.588  10.105
 7300SOL    HW223342   2.472   0.573  10.242
 7301SOL     OW23343   3.108   1.349   9.706
 7301SOL    HW123344   3.165   1.421   9.733
 7301SOL    HW223345   3.020   1.375   9.735
 7302SOL     OW23346   3.158   1.464  10.458
 7302SOL    HW123347   3.211   1.468  10.538
 7302SOL    HW223348   3.104   1.386  10.470
 7303SOL     OW23349   3.432   0.627   9.798
 7303SOL    HW123350   3.381   0.676   9.863
 7303SOL    HW223351   3.472   0.694   9.743
 7304SOL     OW23352   2.209   1.528  10.615
 7304SOL    HW123353   2.199   1.482  10.532
 7304SOL    HW223354   2.303   1.542  10.624
 7305SOL     OW23355   2.285   0.747  10.911
 7305SOL    HW123356   2.348   0.798  10.860
 7305SOL    HW223357   2.317   0.657  10.906
 7306SOL     OW23358   3.474   0.782  11.001
 7306SOL    HW123359   3.388   0.824  10.994
 7306SOL    HW223360   3.526   0.822  10.932
 7307SOL     OW23361   2.880   0.155  11.103
 7307SOL    HW123362   2.966   0.184  11.132
 7307SOL    HW223363   2.885   0.158  11.007
 7308SOL     OW23364   2.342   0.020  11.074
 7308SOL    HW123365   2.318  -0.041  11.003
 7308SOL    HW223366   2.269   0.083  11.077
 7309SOL     OW23367   2.449   0.881  10.343
 7309SOL    HW123368   2.490   0.968  10.343
 7309SOL    HW223369   2.395   0.880  10.422
 7310SOL     OW23370   3.196   0.857  10.329
 7310SOL    HW123371   3.111   0.843  10.286
 7310SOL    HW223372   3.244   0.776  10.314
 7311SOL     OW23373   3.062   0.528   9.566
 7311SOL    HW123374   3.069   0.448   9.617
 7311SOL    HW223375   3.020   0.590   9.625
 7312SOL     OW23376   2.180   0.182  10.568
 7312SOL    HW123377   2.139   0.228  10.641
 7312SOL    HW223378   2.108   0.135  10.526
 7313SOL     OW23379   1.905   1.316  10.593
 7313SOL    HW123380   1.940   1.262  10.664
 7313SOL    HW223381   1.915   1.406  10.624
 7314SOL     OW23382   2.584   0.638  10.360
 7314SOL    HW123383   2.660   0.628  10.303
 7314SOL    HW223384   2.557   0.729  10.348
 7315SOL     OW23385   3.601   0.959  11.176
 7315SOL    HW123386   3.557   0.891  11.125
 7315SOL    HW223387   3.539   0.980  11.246
 7316SOL     OW23388   2.254   0.085   9.999
 7316SOL    HW123389   2.203   0.166  10.005
 7316SOL    HW223390   2.203   0.030   9.940
 7317SOL     OW23391   3.498   0.401   9.663
 7317SOL    HW123392   3.516   0.329   9.723
 7317SOL    HW223393   3.466   0.472   9.719
 7318SOL     OW23394   2.891   0.762  10.265
 7318SOL    HW123395   2.875   0.779  10.358
 7318SOL    HW223396   2.863   0.671  10.252
 7319SOL     OW23397   2.842   1.560  11.034
 7319SOL    HW123398   2.822   1.605  10.952
 7319SOL    HW223399   2.885   1.479  11.006
 7320SOL     OW23400   3.707   1.498  10.916
 7320SOL    HW123401   3.730   1.528  10.828
 7320SOL    HW223402   3.786   1.510  10.968
 7321SOL     OW23403   2.212   0.910  11.125
 7321SOL    HW123404   2.293   0.936  11.169
 7321SOL    HW223405   2.241   0.850  11.056
 7322SOL     OW23406   3.436   0.296   9.420
 7322SOL    HW123407   3.340   0.292   9.426
 7322SOL    HW223408   3.464   0.328   9.506
 7323SOL     OW23409   3.151   0.831   9.337
 7323SOL    HW123410   3.193   0.745   9.341
 7323SOL    HW223411   3.181   0.869   9.255
 7324SOL     OW23412   2.933   1.345  10.173
 7324SOL    HW123413   2.939   1.274  10.110
 7324SOL    HW223414   2.984   1.416  10.134
 7325SOL     OW23415   2.162   0.825  10.245
 7325SOL    HW123416   2.257   0.840  10.237
 7325SOL    HW223417   2.155   0.737  10.281
 7326SOL     OW23418   2.173   0.551  10.325
 7326SOL    HW123419   2.140   0.463  10.311
 7326SOL    HW223420   2.252   0.556  10.272
 7327SOL     OW23421   3.005   0.423  10.968
 7327SOL    HW123422   2.966   0.465  11.044
 7327SOL    HW223423   3.096   0.453  10.969
 7328SOL     OW23424   3.027   0.212  10.799
 7328SOL    HW123425   3.024   0.280  10.866
 7328SOL    HW223426   3.056   0.258  10.719
 7329SOL     OW23427   1.879   1.317   9.495
 7329SOL    HW123428   1.790   1.335   9.467
 7329SOL    HW223429   1.875   1.229   9.532
 7330SOL     OW23430   1.956   1.771  10.257
 7330SOL    HW123431   1.926   1.697  10.204
 7330SOL    HW223432   2.043   1.791  10.223
 7331SOL     OW23433   2.354   1.576  10.218
 7331SOL    HW123434   2.424   1.637  10.241
 7331SOL    HW223435   2.395   1.514  10.157
 7332SOL     OW23436   2.826   0.795  10.528
 7332SOL    HW123437   2.884   0.743  10.583
 7332SOL    HW223438   2.758   0.827  10.587
 7333SOL     OW23439   1.901   0.557  10.434
 7333SOL    HW123440   1.981   0.555  10.381
 7333SOL    HW223441   1.932   0.552  10.524
 7334SOL     OW23442   2.051   0.529  11.042
 7334SOL    HW123443   2.130   0.511  10.991
 7334SOL    HW223444   2.010   0.603  10.998
 7335SOL     OW23445   3.245   0.929  10.967
 7335SOL    HW123446   3.266   1.022  10.963
 7335SOL    HW223447   3.238   0.902  10.876
 7336SOL     OW23448   2.676   0.574   9.689
 7336SOL    HW123449   2.686   0.502   9.627
 7336SOL    HW223450   2.605   0.627   9.653
 7337SOL     OW23451   3.498   0.602  10.483
 7337SOL    HW123452   3.488   0.549  10.562
 7337SOL    HW223453   3.588   0.584  10.453
 7338SOL     OW23454   2.096   1.547  11.029
 7338SOL    HW123455   2.076   1.616  11.093
 7338SOL    HW223456   2.104   1.468  11.081
 7339SOL     OW23457   2.495   0.481  10.560
 7339SOL    HW123458   2.558   0.409  10.552
 7339SOL    HW223459   2.520   0.542  10.491
 7340SOL     OW23460   2.770   1.678  10.789
 7340SOL    HW123461   2.752   1.635  10.705
 7340SOL    HW223462   2.766   1.772  10.768
 7341SOL     OW23463   2.315   0.505   9.495
 7341SOL    HW123464   2.376   0.577   9.514
 7341SOL    HW223465   2.231   0.548   9.480
 7342SOL     OW23466   1.997   1.145  10.790
 7342SOL    HW123467   2.002   1.102  10.876
 7342SOL    HW223468   2.016   1.075  10.727
 7343SOL     OW23469   3.177   1.043  10.526
 7343SOL    HW123470   3.194   0.978  10.458
 7343SOL    HW223471   3.115   1.104  10.486
 7344SOL     OW23472   3.183   0.852   9.612
 7344SOL    HW123473   3.105   0.824   9.660
 7344SOL    HW223474   3.158   0.845   9.520
 7345SOL     OW23475   3.644   1.722  10.476
 7345SOL    HW123476   3.703   1.753  10.407
 7345SOL    HW223477   3.615   1.636  10.446
 7346SOL     OW23478   3.107   1.735  10.419
 7346SOL    HW123479   3.190   1.763  10.380
 7346SOL    HW223480   3.118   1.641  10.434
 7347SOL     OW23481   1.944   1.238  10.338
 7347SOL    HW123482   1.938   1.264  10.430
 7347SOL    HW223483   1.854   1.246  10.306
 7348SOL     OW23484   2.542   1.678  11.054
 7348SOL    HW123485   2.480   1.750  11.045
 7348SOL    HW223486   2.611   1.697  10.990
 7349SOL     OW23487   3.551   0.168   9.804
 7349SOL    HW123488   3.593   0.133   9.726
 7349SOL    HW223489   3.555   0.096   9.868
 7350SOL     OW23490   3.261   1.567   9.806
 7350SOL    HW123491   3.317   1.598   9.735
 7350SOL    HW223492   3.206   1.642   9.828
 7351SOL     OW23493   2.008   1.791  11.151
 7351SOL    HW123494   1.957   1.725  11.198
 7351SOL    HW223495   2.052   1.840  11.220
 7352SOL     OW23496   3.140   0.931   9.978
 7352SOL    HW123497   3.215   0.873   9.990
 7352SOL    HW223498   3.173   1.002   9.922
 7353SOL     OW23499   2.667   1.279  10.742
 7353SOL    HW123500   2.638   1.322  10.822
 7353SOL    HW223501   2.593   1.290  10.681
 7354SOL     OW23502   2.532   1.621   9.464
 7354SOL    HW123503   2.544   1.642   9.372
 7354SOL    HW223504   2.473   1.546   9.465
 7355SOL     OW23505   3.476   1.731  10.704
 7355SOL    HW123506   3.532   1.733  10.627
 7355SOL    HW223507   3.458   1.823  10.724
 7356SOL     OW23508   3.719   0.166  10.257
 7356SOL    HW123509   3.710   0.076  10.289
 7356SOL    HW223510   3.632   0.188  10.224
 7357SOL     OW23511   2.124   0.325  10.022
 7357SOL    HW123512   2.037   0.344   9.986
 7357SOL    HW223513   2.112   0.330  10.117
 7358SOL     OW23514   3.073   1.604   9.344
 7358SOL    HW123515   3.059   1.510   9.359
 7358SOL    HW223516   3.017   1.625   9.270
 7359SOL     OW23517   2.650   1.025  10.623
 7359SOL    HW123518   2.725   1.024  10.563
 7359SOL    HW223519   2.666   1.099  10.681
 7360SOL     OW23520   2.784   0.913   9.614
 7360SOL    HW123521   2.837   0.943   9.540
 7360SOL    HW223522   2.836   0.842   9.652
 7361SOL     OW23523   3.356   1.623   9.359
 7361SOL    HW123524   3.262   1.618   9.343
 7361SOL    HW223525   3.396   1.631   9.273
 7362SOL     OW23526   2.227   1.307  10.807
 7362SOL    HW123527   2.219   1.382  10.747
 7362SOL    HW223528   2.149   1.254  10.789
 7363SOL     OW23529   3.468   1.288  10.586
 7363SOL    HW123530   3.528   1.268  10.658
 7363SOL    HW223531   3.408   1.353  10.622
 7364SOL     OW23532   2.933   1.116  10.032
 7364SOL    HW123533   2.856   1.065  10.060
 7364SOL    HW223534   2.994   1.050   9.998
 7365SOL     OW23535   2.897   0.264  10.250
 7365SOL    HW123536   2.878   0.199  10.183
 7365SOL    HW223537   2.895   0.214  10.332
 7366SOL     OW23538   2.468   1.495   9.800
 7366SOL    HW123539   2.518   1.439   9.740
 7366SOL    HW223540   2.402   1.536   9.744
 7367SOL     OW23541   3.590   0.413  10.699
 7367SOL    HW123542   3.660   0.478  10.705
 7367SOL    HW223543   3.620   0.351  10.633
 7368SOL     OW23544   2.135   1.335   9.619
 7368SOL    HW123545   2.051   1.338   9.573
 7368SOL    HW223546   2.120   1.382   9.701
 7369SOL     OW23547   1.982   1.043  11.046
 7369SOL    HW123548   1.904   1.013  11.093
 7369SOL    HW223549   2.054   0.993  11.084
 7370SOL     OW23550   2.512   0.186  10.755
 7370SOL    HW123551   2.601   0.176  10.723
 7370SOL    HW223552   2.508   0.129  10.832
 7371SOL     OW23553   1.942   0.338   9.340
 7371SOL    HW123554   1.851   0.323   9.315
 7371SOL    HW223555   1.970   0.412   9.286
 7372SOL     OW23556   3.283   0.859  10.704
 7372SOL    HW123557   3.232   0.920  10.650
 7372SOL    HW223558   3.371   0.864  10.667
 7373SOL     OW23559   1.941   0.242   9.622
 7373SOL    HW123560   1.934   0.279   9.534
 7373SOL    HW223561   2.009   0.174   9.614
 7374SOL     OW23562   3.039   1.329   9.425
 7374SOL    HW123563   2.945   1.315   9.422
 7374SOL    HW223564   3.060   1.329   9.519
 7375SOL     OW23565   2.489   0.852  10.756
 7375SOL    HW123566   2.524   0.922  10.700
 7375SOL    HW223567   2.562   0.826  10.811
 7376SOL     OW23568   3.351   1.813  10.309
 7376SOL    HW123569   3.371   1.866  10.232
 7376SOL    HW223570   3.431   1.762  10.324
 7377SOL     OW23571   2.610   0.495  11.082
 7377SOL    HW123572   2.634   0.577  11.126
 7377SOL    HW223573   2.606   0.518  10.989
 7378SOL     OW23574   3.336   1.189  10.934
 7378SOL    HW123575   3.324   1.207  11.028
 7378SOL    HW223576   3.427   1.211  10.916
 7379SOL     OW23577   2.225   1.744  10.875
 7379SOL    HW123578   2.144   1.793  10.860
 7379SOL    HW223579   2.197   1.661  10.914
 7380SOL     OW23580   3.520   0.880  10.561
 7380SOL    HW123581   3.516   0.796  10.516
 7380SOL    HW223582   3.511   0.945  10.492
 7381SOL     OW23583   3.084   0.316   9.761
 7381SOL    HW123584   3.152   0.251   9.747
 7381SOL    HW223585   3.114   0.366   9.837
 7382SOL     OW23586   2.439   0.733   9.994
 7382SOL    HW123587   2.483   0.817   9.978
 7382SOL    HW223588   2.382   0.722   9.918
 7383SOL     OW23589   3.616   0.371  10.970
 7383SOL    HW123590   3.609   0.390  10.876
 7383SOL    HW223591   3.542   0.312  10.988
 7384SOL     OW23592   3.612   0.928  10.817
 7384SOL    HW123593   3.601   1.022  10.830
 7384SOL    HW223594   3.591   0.914  10.725
 7385SOL     OW23595   2.743   1.372   9.365
 7385SOL    HW123596   2.689   1.417   9.431
 7385SOL    HW223597   2.758   1.439   9.298
 7386SOL     OW23598   2.532   1.778  10.252
 7386SOL    HW123599   2.511   1.869  10.229
 7386SOL    HW223600   2.626   1.771  10.236
 7387SOL     OW23601   2.732   0.974  10.159
 7387SOL    HW123602   2.783   0.904  10.200
 7387SOL    HW223603   2.689   1.018  10.232
 7388SOL     OW23604   2.931   0.979   9.400
 7388SOL    HW123605   2.911   1.037   9.327
 7388SOL    HW223606   3.009   0.931   9.372
 7389SOL     OW23607   3.698   1.556  10.152
 7389SOL    HW123608   3.626   1.546  10.090
 7389SOL    HW223609   3.672   1.503  10.228
 7390SOL     OW23610   2.077   1.293  11.160
 7390SOL    HW123611   2.036   1.219  11.115
 7390SOL    HW223612   2.021   1.310  11.235
 7391SOL     OW23613   1.962   1.200   9.971
 7391SOL    HW123614   2.012   1.163  10.044
 7391SOL    HW223615   2.023   1.199   9.897
 7392SOL     OW23616   2.549   1.412  10.952
 7392SOL    HW123617   2.467   1.373  10.983
 7392SOL    HW223618   2.547   1.502  10.984
 7393SOL     OW23619   3.679   0.231  10.530
 7393SOL    HW123620   3.619   0.157  10.526
 7393SOL    HW223621   3.709   0.242  10.440
 7394SOL     OW23622   2.309   0.431   9.850
 7394SOL    HW123623   2.323   0.368   9.779
 7394SOL    HW223624   2.245   0.389   9.907
 7395SOL     OW23625   3.557   1.477  10.389
 7395SOL    HW123626   3.476   1.461  10.340
 7395SOL    HW223627   3.557   1.411  10.458
 7396SOL     OW23628   2.211   0.559  10.602
 7396SOL    HW123629   2.286   0.511  10.637
 7396SOL    HW223630   2.216   0.546  10.507
 7397SOL     OW23631   2.693   1.592   9.974
 7397SOL    HW123632   2.686   1.668   9.916
 7397SOL    HW223633   2.616   1.539   9.953
 7398SOL     OW23634   3.275   0.209  10.430
 7398SOL    HW123635   3.346   0.161  10.472
 7398SOL    HW223636   3.234   0.258  10.501
 7399SOL     OW23637   2.916   0.062  10.439
 7399SOL    HW123638   2.890  -0.025  10.468
 7399SOL    HW223639   3.010   0.056  10.424
 7400SOL     OW23640   2.627   1.331   9.653
 7400SOL    HW123641   2.605   1.238   9.652
 7400SOL    HW223642   2.718   1.334   9.681
 7401SOL     OW23643   2.481   1.560  10.601
 7401SOL    HW123644   2.480   1.644  10.648
 7401SOL    HW223645   2.569   1.554  10.565
 7402SOL     OW23646   3.208   7.974   9.424
 7402SOL    HW123647   3.266   7.899   9.438
 7402SOL    HW223648   3.137   7.962   9.487
 7403SOL     OW23649   3.153   0.463   9.982
 7403SOL    HW123650   3.103   0.545   9.985
 7403SOL    HW223651   3.159   0.436  10.074
 7404SOL     OW23652   3.472   0.226  10.181
 7404SOL    HW123653   3.385   0.219  10.221
 7404SOL    HW223654   3.466   0.304  10.125
 7405SOL     OW23655   1.913   1.070   9.617
 7405SOL    HW123656   2.006   1.073   9.598
 7405SOL    HW223657   1.892   0.977   9.624
 7406SOL     OW23658   2.745   1.663   9.646
 7406SOL    HW123659   2.672   1.648   9.586
 7406SOL    HW223660   2.718   1.738   9.699
 7407SOL     OW23661   2.070   0.627  11.307
 7407SOL    HW123662   1.982   0.618  11.342
 7407SOL    HW223663   2.061   0.606  11.214
 7408SOL     OW23664   2.053   0.328  12.171
 7408SOL    HW123665   2.104   0.276  12.234
 7408SOL    HW223666   1.981   0.271  12.147
 7409SOL     OW23667   1.860   0.403  11.801
 7409SOL    HW123668   1.778   0.425  11.844
 7409SOL    HW223669   1.834   0.351  11.725
 7410SOL     OW23670   2.398   1.259  12.318
 7410SOL    HW123671   2.313   1.280  12.279
 7410SOL    HW223672   2.427   1.342  12.357
 7411SOL     OW23673   3.445   1.513  11.875
 7411SOL    HW123674   3.403   1.497  11.960
 7411SOL    HW223675   3.372   1.523  11.814
 7412SOL     OW23676   2.986   0.709  11.868
 7412SOL    HW123677   3.039   0.788  11.856
 7412SOL    HW223678   2.949   0.717  11.956
 7413SOL     OW23679   3.649   0.592  11.396
 7413SOL    HW123680   3.616   0.589  11.306
 7413SOL    HW223681   3.611   0.515  11.438
 7414SOL     OW23682   2.622   1.134  12.237
 7414SOL    HW123683   2.537   1.162  12.271
 7414SOL    HW223684   2.654   1.209  12.188
 7415SOL     OW23685   2.558   1.008  11.822
 7415SOL    HW123686   2.605   0.990  11.903
 7415SOL    HW223687   2.483   1.062  11.849
 7416SOL     OW23688   2.183   1.420  12.219
 7416SOL    HW123689   2.096   1.421  12.178
 7416SOL    HW223690   2.237   1.474  12.161
 7417SOL     OW23691   3.478   0.462  11.896
 7417SOL    HW123692   3.430   0.492  11.819
 7417SOL    HW223693   3.500   0.542  11.944
 7418SOL     OW23694   2.085   1.715  11.634
 7418SOL    HW123695   2.106   1.788  11.692
 7418SOL    HW223696   2.159   1.710  11.574
 7419SOL     OW23697   2.073   1.452  11.724
 7419SOL    HW123698   2.070   1.547  11.709
 7419SOL    HW223699   2.021   1.439  11.803
 7420SOL     OW23700   2.123   1.090  12.059
 7420SOL    HW123701   2.116   0.999  12.086
 7420SOL    HW223702   2.061   1.137  12.115
 7421SOL     OW23703   2.438   0.987  11.317
 7421SOL    HW123704   2.486   1.032  11.247
 7421SOL    HW223705   2.477   1.021  11.398
 7422SOL     OW23706   1.989   0.653  11.731
 7422SOL    HW123707   1.950   0.569  11.752
 7422SOL    HW223708   1.974   0.707  11.809
 7423SOL     OW23709   3.702   1.753  11.498
 7423SOL    HW123710   3.776   1.729  11.554
 7423SOL    HW223711   3.718   1.844  11.475
 7424SOL     OW23712   1.904   1.587  11.292
 7424SOL    HW123713   1.886   1.496  11.315
 7424SOL    HW223714   1.876   1.636  11.370
 7425SOL     OW23715   3.554   0.916  11.820
 7425SOL    HW123716   3.635   0.872  11.795
 7425SOL    HW223717   3.531   0.967  11.742
 7426SOL     OW23718   3.501   1.104  11.612
 7426SOL    HW123719   3.587   1.100  11.568
 7426SOL    HW223720   3.514   1.166  11.683
 7427SOL     OW23721   2.028   0.747   0.220
 7427SOL    HW123722   2.016   0.728   0.313
 7427SOL    HW223723   1.947   0.790   0.193
 7428SOL     OW23724   2.471   1.393  11.905
 7428SOL    HW123725   2.424   1.310  11.910
 7428SOL    HW223726   2.457   1.424  11.815
 7429SOL     OW23727   2.690   0.023  11.718
 7429SOL    HW123728   2.730   0.106  11.691
 7429SOL    HW223729   2.596   0.037  11.709
 7430SOL     OW23730   2.061   0.964  12.461
 7430SOL    HW123731   2.137   0.925  12.417
 7430SOL    HW223732   1.987   0.943  12.404
 7431SOL     OW23733   3.390   1.005  11.375
 7431SOL    HW123734   3.323   0.946  11.409
 7431SOL    HW223735   3.434   1.039  11.453
 7432SOL     OW23736   3.354   1.407  12.120
 7432SOL    HW123737   3.283   1.428  12.182
 7432SOL    HW223738   3.330   1.323  12.083
 7433SOL     OW23739   3.513   1.767  11.746
 7433SOL    HW123740   3.497   1.730  11.659
 7433SOL    HW223741   3.505   1.692  11.805
 7434SOL     OW23742   2.458   0.722  11.450
 7434SOL    HW123743   2.457   0.805  11.402
 7434SOL    HW223744   2.391   0.733  11.518
 7435SOL     OW23745   3.154   0.375  12.113
 7435SOL    HW123746   3.065   0.340  12.114
 7435SOL    HW223747   3.202   0.319  12.174
 7436SOL     OW23748   3.439   1.670  11.485
 7436SOL    HW123749   3.531   1.694  11.476
 7436SOL    HW223750   3.410   1.655  11.395
 7437SOL     OW23751   2.852   0.412  12.356
 7437SOL    HW123752   2.764   0.442  12.379
 7437SOL    HW223753   2.837   0.341  12.293
 7438SOL     OW23754   2.915   0.696  11.594
 7438SOL    HW123755   2.932   0.691  11.689
 7438SOL    HW223756   2.832   0.650  11.582
 7439SOL     OW23757   1.941   0.806  11.949
 7439SOL    HW123758   2.018   0.809  12.005
 7439SOL    HW223759   1.885   0.877  11.982
 7440SOL     OW23760   2.776   0.334  11.331
 7440SOL    HW123761   2.817   0.409  11.288
 7440SOL    HW223762   2.839   0.263  11.321
 7441SOL     OW23763   3.235   1.139  11.699
 7441SOL    HW123764   3.319   1.128  11.654
 7441SOL    HW223765   3.190   1.207  11.649
 7442SOL     OW23766   2.337   0.267  12.085
 7442SOL    HW123767   2.385   0.254  12.167
 7442SOL    HW223768   2.404   0.264  12.017
 7443SOL     OW23769   2.856   1.449  11.642
 7443SOL    HW123770   2.831   1.521  11.584
 7443SOL    HW223771   2.825   1.476  11.728
 7444SOL     OW23772   2.218   1.817  12.045
 7444SOL    HW123773   2.263   1.732  12.055
 7444SOL    HW223774   2.282   1.881  12.074
 7445SOL     OW23775   3.675   1.052  12.045
 7445SOL    HW123776   3.628   1.037  11.963
 7445SOL    HW223777   3.607   1.051  12.112
 7446SOL     OW23778   2.175   0.962  11.430
 7446SOL    HW123779   2.258   0.982  11.386
 7446SOL    HW223780   2.141   0.886  11.383
 7447SOL     OW23781   3.335   0.770  11.908
 7447SOL    HW123782   3.340   0.719  11.990
 7447SOL    HW223783   3.420   0.813  11.901
 7448SOL     OW23784   2.991   1.775  11.397
 7448SOL    HW123785   2.912   1.740  11.438
 7448SOL    HW223786   3.013   1.712  11.329
 7449SOL     OW23787   3.484   1.382  11.269
 7449SOL    HW123788   3.446   1.468  11.251
 7449SOL    HW223789   3.416   1.320  11.241
 7450SOL     OW23790   2.327   1.736  11.490
 7450SOL    HW123791   2.373   1.793  11.551
 7450SOL    HW223792   2.396   1.703  11.432
 7451SOL     OW23793   3.253   0.132  11.567
 7451SOL    HW123794   3.292   0.110  11.482
 7451SOL    HW223795   3.326   0.126  11.629
 7452SOL     OW23796   2.102   1.775  12.397
 7452SOL    HW123797   2.068   1.697  12.440
 7452SOL    HW223798   2.066   1.770  12.308
 7453SOL     OW23799   2.815   1.692  12.068
 7453SOL    HW123800   2.900   1.649  12.068
 7453SOL    HW223801   2.764   1.646  12.001
 7454SOL     OW23802   2.266   0.684  11.655
 7454SOL    HW123803   2.281   0.590  11.668
 7454SOL    HW223804   2.171   0.694  11.666
 7455SOL     OW23805   2.500   0.168  11.244
 7455SOL    HW123806   2.546   0.108  11.302
 7455SOL    HW223807   2.441   0.113  11.193
 7456SOL     OW23808   2.674   1.358  12.101
 7456SOL    HW123809   2.761   1.374  12.066
 7456SOL    HW223810   2.615   1.383  12.030
 7457SOL     OW23811   2.771   0.512  12.053
 7457SOL    HW123812   2.744   0.496  11.962
 7457SOL    HW223813   2.808   0.428  12.082
 7458SOL     OW23814   2.431   0.051  11.625
 7458SOL    HW123815   2.354   0.037  11.681
 7458SOL    HW223816   2.407   0.126  11.571
 7459SOL     OW23817   3.286   1.201  11.206
 7459SOL    HW123818   3.316   1.129  11.260
 7459SOL    HW223819   3.201   1.225  11.243
 7460SOL     OW23820   2.138   0.051  11.402
 7460SOL    HW123821   2.199   0.080  11.335
 7460SOL    HW223822   2.186  -0.017  11.450
 7461SOL     OW23823   2.798   0.262  11.628
 7461SOL    HW123824   2.774   0.288  11.539
 7461SOL    HW223825   2.893   0.275  11.632
 7462SOL     OW23826   3.080   1.591  11.978
 7462SOL    HW123827   3.087   1.645  11.899
 7462SOL    HW223828   3.153   1.619  12.032
 7463SOL     OW23829   2.334   1.150  11.893
 7463SOL    HW123830   2.267   1.135  11.959
 7463SOL    HW223831   2.287   1.143  11.810
 7464SOL     OW23832   3.119   1.790  11.784
 7464SOL    HW123833   3.170   1.853  11.732
 7464SOL    HW223834   3.049   1.843  11.823
 7465SOL     OW23835   2.905   0.535  11.200
 7465SOL    HW123836   2.851   0.613  11.189
 7465SOL    HW223837   2.967   0.558  11.270
 7466SOL     OW23838   2.432   0.235  12.344
 7466SOL    HW123839   2.467   0.199  12.426
 7466SOL    HW223840   2.337   0.234  12.357
 7467SOL     OW23841   2.700   0.464  11.794
 7467SOL    HW123842   2.677   0.517  11.718
 7467SOL    HW223843   2.738   0.384  11.757
 7468SOL     OW23844   2.822   0.026  11.960
 7468SOL    HW123845   2.770   0.020  11.880
 7468SOL    HW223846   2.901  -0.024  11.942
 7469SOL     OW23847   3.314   1.161  12.006
 7469SOL    HW123848   3.241   1.118  11.962
 7469SOL    HW223849   3.378   1.178  11.936
 7470SOL     OW23850   3.318   0.621  12.145
 7470SOL    HW123851   3.275   0.536  12.137
 7470SOL    HW223852   3.388   0.606  12.208
 7471SOL     OW23853   3.688   0.800  11.566
 7471SOL    HW123854   3.758   0.761  11.618
 7471SOL    HW223855   3.675   0.740  11.493
 7472SOL     OW23856   2.349   1.422  11.325
 7472SOL    HW123857   2.275   1.393  11.380
 7472SOL    HW223858   2.342   1.369  11.246
 7473SOL     OW23859   3.536   1.254  11.836
 7473SOL    HW123860   3.632   1.253  11.836
 7473SOL    HW223861   3.514   1.347  11.840
 7474SOL     OW23862   3.259   0.572  11.248
 7474SOL    HW123863   3.199   0.555  11.322
 7474SOL    HW223864   3.346   0.565  11.286
 7475SOL     OW23865   2.381   0.274  11.472
 7475SOL    HW123866   2.436   0.241  11.401
 7475SOL    HW223867   2.348   0.357  11.440
 7476SOL     OW23868   2.963   1.240  12.297
 7476SOL    HW123869   2.882   1.266  12.341
 7476SOL    HW223870   2.953   1.272  12.208
 7477SOL     OW23871   3.472   1.092  12.224
 7477SOL    HW123872   3.471   1.167  12.283
 7477SOL    HW223873   3.408   1.114  12.156
 7478SOL     OW23874   2.575   1.064  11.546
 7478SOL    HW123875   2.562   1.046  11.639
 7478SOL    HW223876   2.652   1.013  11.521
 7479SOL     OW23877   2.315   0.809  12.435
 7479SOL    HW123878   2.347   0.851  12.515
 7479SOL    HW223879   2.263   0.734  12.465
 7480SOL     OW23880   3.097   0.372  12.466
 7480SOL    HW123881   3.140   0.456  12.482
 7480SOL    HW223882   3.014   0.394  12.425
 7481SOL     OW23883   2.195   1.126  11.657
 7481SOL    HW123884   2.189   1.203  11.600
 7481SOL    HW223885   2.192   1.052  11.597
 7482SOL     OW23886   2.461   0.580  12.050
 7482SOL    HW123887   2.461   0.597  11.956
 7482SOL    HW223888   2.393   0.638  12.085
 7483SOL     OW23889   3.105   1.353  11.566
 7483SOL    HW123890   3.162   1.424  11.596
 7483SOL    HW223891   3.018   1.379  11.598
 7484SOL     OW23892   3.166   1.448  12.312
 7484SOL    HW123893   3.211   1.472  12.392
 7484SOL    HW223894   3.104   1.380  12.339
 7485SOL     OW23895   3.443   0.627  11.665
 7485SOL    HW123896   3.381   0.687  11.707
 7485SOL    HW223897   3.506   0.685  11.621
 7486SOL     OW23898   2.270   1.528  12.452
 7486SOL    HW123899   2.229   1.480  12.380
 7486SOL    HW223900   2.278   1.618  12.419
 7487SOL     OW23901   2.455   0.833  12.206
 7487SOL    HW123902   2.470   0.927  12.205
 7487SOL    HW223903   2.408   0.817  12.288
 7488SOL     OW23904   3.200   0.858  12.237
 7488SOL    HW123905   3.150   0.874  12.157
 7488SOL    HW223906   3.250   0.778  12.218
 7489SOL     OW23907   3.063   0.528  11.435
 7489SOL    HW123908   3.070   0.450  11.491
 7489SOL    HW223909   3.021   0.593  11.490
 7490SOL     OW23910   2.164   0.210  12.401
 7490SOL    HW123911   2.119   0.246  12.478
 7490SOL    HW223912   2.145   0.116  12.403
 7491SOL     OW23913   1.903   1.333  12.447
 7491SOL    HW123914   1.937   1.259  12.498
 7491SOL    HW223915   1.911   1.408  12.506
 7492SOL     OW23916   2.254   0.076  11.835
 7492SOL    HW123917   2.208   0.157  11.860
 7492SOL    HW223918   2.205   0.006  11.878
 7493SOL     OW23919   3.492   0.391  11.525
 7493SOL    HW123920   3.506   0.314  11.580
 7493SOL    HW223921   3.467   0.460  11.587
 7494SOL     OW23922   2.894   0.740  12.149
 7494SOL    HW123923   2.895   0.758  12.243
 7494SOL    HW223924   2.895   0.645  12.142
 7495SOL     OW23925   3.398   0.276  11.298
 7495SOL    HW123926   3.432   0.189  11.321
 7495SOL    HW223927   3.424   0.332  11.371
 7496SOL     OW23928   3.147   0.823  11.200
 7496SOL    HW123929   3.189   0.737  11.202
 7496SOL    HW223930   3.177   0.863  11.119
 7497SOL     OW23931   2.943   1.344  12.041
 7497SOL    HW123932   2.946   1.270  11.979
 7497SOL    HW223933   2.998   1.411  12.000
 7498SOL     OW23934   2.162   0.812  12.121
 7498SOL    HW123935   2.253   0.839  12.126
 7498SOL    HW223936   2.163   0.718  12.140
 7499SOL     OW23937   2.208   0.542  12.152
 7499SOL    HW123938   2.149   0.467  12.162
 7499SOL    HW223939   2.291   0.503  12.124
 7500SOL     OW23940   3.030   0.205   0.166
 7500SOL    HW123941   3.045   0.253   0.248
 7500SOL    HW223942   3.060   0.264   0.097
 7501SOL     OW23943   1.880   1.312  11.360
 7501SOL    HW123944   1.792   1.330  11.329
 7501SOL    HW223945   1.874   1.225  11.400
 7502SOL     OW23946   1.961   1.785  12.129
 7502SOL    HW123947   1.937   1.698  12.097
 7502SOL    HW223948   2.047   1.802  12.089
 7503SOL     OW23949   2.359   1.577  12.081
 7503SOL    HW123950   2.430   1.639  12.101
 7503SOL    HW223951   2.398   1.515  12.020
 7504SOL     OW23952   2.845   0.786  12.415
 7504SOL    HW123953   2.915   0.832  12.461
 7504SOL    HW223954   2.765   0.832  12.442
 7505SOL     OW23955   1.931   0.544  12.322
 7505SOL    HW123956   1.978   0.537  12.239
 7505SOL    HW223957   1.914   0.453  12.348
 7506SOL     OW23958   2.676   0.567  11.530
 7506SOL    HW123959   2.679   0.500  11.461
 7506SOL    HW223960   2.605   0.625  11.505
 7507SOL     OW23961   3.523   0.621  12.329
 7507SOL    HW123962   3.517   0.565  12.407
 7507SOL    HW223963   3.615   0.619  12.304
 7508SOL     OW23964   2.584   0.477  12.390
 7508SOL    HW123965   2.546   0.482  12.478
 7508SOL    HW223966   2.522   0.425  12.340
 7509SOL     OW23967   2.696   1.636   0.081
 7509SOL    HW123968   2.683   1.680  -0.003
 7509SOL    HW223969   2.770   1.682   0.121
 7510SOL     OW23970   2.308   0.505  11.362
 7510SOL    HW123971   2.369   0.576  11.380
 7510SOL    HW223972   2.224   0.548  11.347
 7511SOL     OW23973   3.183   1.100  12.382
 7511SOL    HW123974   3.203   1.022  12.330
 7511SOL    HW223975   3.109   1.141  12.337
 7512SOL     OW23976   3.179   0.852  11.473
 7512SOL    HW123977   3.101   0.824  11.520
 7512SOL    HW223978   3.156   0.844  11.381
 7513SOL     OW23979   3.614   1.754  12.314
 7513SOL    HW123980   3.682   1.765  12.248
 7513SOL    HW223981   3.595   1.660  12.314
 7514SOL     OW23982   3.108   1.716  12.290
 7514SOL    HW123983   3.182   1.762  12.249
 7514SOL    HW223984   3.127   1.623  12.277
 7515SOL     OW23985   1.933   1.225  12.197
 7515SOL    HW123986   1.930   1.258  12.287
 7515SOL    HW223987   1.912   1.300  12.143
 7516SOL     OW23988   3.256   1.568  11.668
 7516SOL    HW123989   3.315   1.601  11.600
 7516SOL    HW223990   3.205   1.645  11.695
 7517SOL     OW23991   3.137   0.941  11.850
 7517SOL    HW123992   3.210   0.881  11.865
 7517SOL    HW223993   3.169   1.003  11.785
 7518SOL     OW23994   2.530   1.625  11.328
 7518SOL    HW123995   2.542   1.642  11.235
 7518SOL    HW223996   2.473   1.548  11.332
 7519SOL     OW23997   3.476   1.793   0.048
 7519SOL    HW123998   3.529   1.780  -0.030
 7519SOL    HW223999   3.496   1.883   0.076
 7520SOL     OW24000   3.724   0.177  12.114
 7520SOL    HW124001   3.738   0.109  12.048
 7520SOL    HW224002   3.634   0.206  12.098
 7521SOL     OW24003   2.102   0.296  11.883
 7521SOL    HW124004   2.022   0.347  11.866
 7521SOL    HW224005   2.123   0.315  11.975
 7522SOL     OW24006   3.068   1.594  11.204
 7522SOL    HW124007   3.059   1.502  11.230
 7522SOL    HW224008   2.999   1.607  11.138
 7523SOL     OW24009   2.665   1.000  12.481
 7523SOL    HW124010   2.659   1.054  12.402
 7523SOL    HW224011   2.738   1.037  12.530
 7524SOL     OW24012   2.789   0.920  11.478
 7524SOL    HW124013   2.840   0.948  11.402
 7524SOL    HW224014   2.837   0.844  11.512
 7525SOL     OW24015   3.346   1.634  11.220
 7525SOL    HW124016   3.253   1.621  11.202
 7525SOL    HW224017   3.387   1.639  11.134
 7526SOL     OW24018   2.918   1.100  11.904
 7526SOL    HW124019   2.849   1.079  11.841
 7526SOL    HW224020   2.992   1.045  11.879
 7527SOL     OW24021   2.880   0.258  12.108
 7527SOL    HW124022   2.858   0.204  12.032
 7527SOL    HW224023   2.901   0.194  12.176
 7528SOL     OW24024   2.468   1.495  11.653
 7528SOL    HW124025   2.518   1.443  11.590
 7528SOL    HW224026   2.395   1.532  11.603
 7529SOL     OW24027   3.590   0.448   0.034
 7529SOL    HW124028   3.659   0.455   0.100
 7529SOL    HW224029   3.615   0.372  -0.019
 7530SOL     OW24030   2.131   1.341  11.487
 7530SOL    HW124031   2.045   1.338  11.446
 7530SOL    HW224032   2.117   1.385  11.570
 7531SOL     OW24033   1.935   0.329  11.208
 7531SOL    HW124034   1.842   0.317  11.188
 7531SOL    HW224035   1.960   0.406  11.157
 7532SOL     OW24036   1.904   0.164  11.474
 7532SOL    HW124037   1.901   0.239  11.414
 7532SOL    HW224038   1.987   0.121  11.454
 7533SOL     OW24039   3.038   1.327  11.290
 7533SOL    HW124040   2.945   1.307  11.289
 7533SOL    HW224041   3.061   1.330  11.383
 7534SOL     OW24042   3.344   1.782  12.151
 7534SOL    HW124043   3.362   1.857  12.095
 7534SOL    HW224044   3.426   1.768  12.198
 7535SOL     OW24045   3.498   0.889  12.415
 7535SOL    HW124046   3.500   0.801  12.377
 7535SOL    HW224047   3.492   0.947  12.339
 7536SOL     OW24048   3.066   0.322  11.619
 7536SOL    HW124049   3.130   0.252  11.604
 7536SOL    HW224050   3.096   0.365  11.699
 7537SOL     OW24051   2.461   0.748  11.836
 7537SOL    HW124052   2.492   0.836  11.816
 7537SOL    HW224053   2.392   0.731  11.773
 7538SOL     OW24054   3.669   0.861   0.127
 7538SOL    HW124055   3.683   0.944   0.173
 7538SOL    HW224056   3.602   0.881   0.062
 7539SOL     OW24057   2.738   1.365  11.225
 7539SOL    HW124058   2.690   1.399  11.300
 7539SOL    HW224059   2.749   1.442  11.168
 7540SOL     OW24060   2.537   1.775  12.118
 7540SOL    HW124061   2.509   1.866  12.108
 7540SOL    HW224062   2.632   1.779  12.115
 7541SOL     OW24063   2.699   0.938  12.061
 7541SOL    HW124064   2.794   0.939  12.060
 7541SOL    HW224065   2.675   1.010  12.119
 7542SOL     OW24066   2.930   0.981  11.256
 7542SOL    HW124067   2.905   1.027  11.176
 7542SOL    HW224068   3.006   0.929  11.231
 7543SOL     OW24069   3.711   1.544  12.032
 7543SOL    HW124070   3.640   1.529  11.969
 7543SOL    HW224071   3.741   1.456  12.055
 7544SOL     OW24072   1.948   1.187  11.833
 7544SOL    HW124073   1.993   1.167  11.916
 7544SOL    HW224074   2.016   1.181  11.767
 7545SOL     OW24075   3.696   0.241  12.386
 7545SOL    HW124076   3.641   0.168  12.414
 7545SOL    HW224077   3.711   0.226  12.293
 7546SOL     OW24078   2.299   0.417  11.709
 7546SOL    HW124079   2.312   0.360  11.633
 7546SOL    HW224080   2.230   0.373  11.760
 7547SOL     OW24081   3.541   1.494  12.318
 7547SOL    HW124082   3.496   1.460  12.241
 7547SOL    HW224083   3.609   1.428  12.337
 7548SOL     OW24084   2.696   1.592  11.839
 7548SOL    HW124085   2.685   1.671  11.787
 7548SOL    HW224086   2.615   1.542  11.824
 7549SOL     OW24087   3.272   0.221  12.311
 7549SOL    HW124088   3.354   0.191  12.350
 7549SOL    HW224089   3.226   0.263  12.383
 7550SOL     OW24090   2.917   0.072  12.295
 7550SOL    HW124091   2.874   0.065  12.380
 7550SOL    HW224092   2.990   0.010  12.300
 7551SOL     OW24093   2.632   1.337  11.500
 7551SOL    HW124094   2.608   1.244  11.505
 7551SOL    HW224095   2.716   1.342  11.545
 7552SOL     OW24096   3.229   7.993  11.292
 7552SOL    HW124097   3.317   7.963  11.316
 7552SOL    HW224098   3.173   7.962  11.363
 7553SOL     OW24099   3.133   0.460  11.845
 7553SOL    HW124100   3.090   0.545  11.856
 7553SOL    HW224101   3.152   0.431  11.934
 7554SOL     OW24102   3.473   0.248  12.070
 7554SOL    HW124103   3.397   0.189  12.065
 7554SOL    HW224104   3.459   0.312  12.000
 7555SOL     OW24105   1.904   1.064  11.483
 7555SOL    HW124106   1.997   1.057  11.466
 7555SOL    HW224107   1.876   0.974  11.501
 7556SOL     OW24108   2.752   1.664  11.503
 7556SOL    HW124109   2.676   1.649  11.447
 7556SOL    HW224110   2.725   1.734  11.562
 7557SOL     OW24111   2.069   2.418   0.019
 7557SOL    HW124112   2.050   2.474   0.094
 7557SOL    HW224113   2.136   2.465  -0.030
 7558SOL     OW24114   2.082   2.137   0.995
 7558SOL    HW124115   2.109   2.107   1.082
 7558SOL    HW224116   1.993   2.102   0.984
 7559SOL     OW24117   1.850   2.240   0.640
 7559SOL    HW124118   1.775   2.269   0.692
 7559SOL    HW224119   1.819   2.161   0.596
 7560SOL     OW24120   2.425   3.168   1.186
 7560SOL    HW124121   2.341   3.184   1.143
 7560SOL    HW224122   2.453   3.253   1.218
 7561SOL     OW24123   3.438   3.385   0.713
 7561SOL    HW124124   3.392   3.356   0.792
 7561SOL    HW224125   3.372   3.380   0.644
 7562SOL     OW24126   2.989   2.565   0.693
 7562SOL    HW124127   3.039   2.646   0.682
 7562SOL    HW224128   2.945   2.575   0.778
 7563SOL     OW24129   3.587   2.480   0.270
 7563SOL    HW124130   3.603   2.480   0.176
 7563SOL    HW224131   3.566   2.389   0.291
 7564SOL     OW24132   2.588   2.994   1.044
 7564SOL    HW124133   2.530   3.035   1.108
 7564SOL    HW224134   2.639   3.066   1.008
 7565SOL     OW24135   2.746   2.615   1.829
 7565SOL    HW124136   2.753   2.682   1.897
 7565SOL    HW224137   2.765   2.661   1.748
 7566SOL     OW24138   2.544   2.854   0.649
 7566SOL    HW124139   2.613   2.846   0.714
 7566SOL    HW224140   2.479   2.912   0.690
 7567SOL     OW24141   2.571   3.005   1.817
 7567SOL    HW124142   2.612   3.084   1.852
 7567SOL    HW224143   2.489   3.036   1.778
 7568SOL     OW24144   2.194   3.281   1.064
 7568SOL    HW124145   2.116   3.254   1.016
 7568SOL    HW224146   2.243   3.334   1.002
 7569SOL     OW24147   3.293   3.394   1.364
 7569SOL    HW124148   3.358   3.463   1.378
 7569SOL    HW224149   3.345   3.315   1.351
 7570SOL     OW24150   2.324   2.237   1.461
 7570SOL    HW124151   2.411   2.198   1.458
 7570SOL    HW224152   2.278   2.188   1.529
 7571SOL     OW24153   3.467   2.304   0.754
 7571SOL    HW124154   3.426   2.341   0.676
 7571SOL    HW224155   3.443   2.363   0.825
 7572SOL     OW24156   2.078   3.583   0.474
 7572SOL    HW124157   2.101   3.656   0.531
 7572SOL    HW224158   2.154   3.572   0.417
 7573SOL     OW24159   2.998   3.201   1.694
 7573SOL    HW124160   3.058   3.186   1.767
 7573SOL    HW224161   2.946   3.121   1.689
 7574SOL     OW24162   2.081   3.315   0.539
 7574SOL    HW124163   2.070   3.410   0.537
 7574SOL    HW224164   2.029   3.286   0.614
 7575SOL     OW24165   2.118   2.950   0.921
 7575SOL    HW124166   2.191   2.930   0.980
 7575SOL    HW224167   2.074   3.024   0.961
 7576SOL     OW24168   2.422   3.682   1.391
 7576SOL    HW124169   2.361   3.652   1.458
 7576SOL    HW224170   2.477   3.746   1.437
 7577SOL     OW24171   2.448   2.828   0.157
 7577SOL    HW124172   2.513   2.845   0.090
 7577SOL    HW224173   2.482   2.872   0.235
 7578SOL     OW24174   3.441   2.001   1.454
 7578SOL    HW124175   3.473   2.085   1.419
 7578SOL    HW224176   3.422   2.019   1.546
 7579SOL     OW24177   1.985   2.488   0.584
 7579SOL    HW124178   1.937   2.405   0.581
 7579SOL    HW224179   2.046   2.477   0.656
 7580SOL     OW24180   3.713   3.606   0.310
 7580SOL    HW124181   3.781   3.578   0.371
 7580SOL    HW224182   3.733   3.699   0.294
 7581SOL     OW24183   1.900   3.366   0.146
 7581SOL    HW124184   1.810   3.334   0.135
 7581SOL    HW224185   1.890   3.450   0.190
 7582SOL     OW24186   3.541   2.791   0.642
 7582SOL    HW124187   3.609   2.744   0.593
 7582SOL    HW224188   3.509   2.857   0.581
 7583SOL     OW24189   3.509   2.978   0.430
 7583SOL    HW124190   3.594   2.974   0.387
 7583SOL    HW224191   3.520   3.043   0.500
 7584SOL     OW24192   2.000   2.603   1.569
 7584SOL    HW124193   2.089   2.634   1.586
 7584SOL    HW224194   1.947   2.682   1.569
 7585SOL     OW24195   2.476   3.255   0.732
 7585SOL    HW124196   2.433   3.170   0.741
 7585SOL    HW224197   2.464   3.278   0.640
 7586SOL     OW24198   3.149   3.109   1.415
 7586SOL    HW124199   3.207   3.069   1.351
 7586SOL    HW224200   3.198   3.107   1.497
 7587SOL     OW24201   2.678   1.883   0.539
 7587SOL    HW124202   2.718   1.964   0.508
 7587SOL    HW224203   2.584   1.900   0.539
 7588SOL     OW24204   2.030   2.799   1.203
 7588SOL    HW124205   2.115   2.765   1.230
 7588SOL    HW224206   1.967   2.758   1.262
 7589SOL     OW24207   3.356   2.878   0.226
 7589SOL    HW124208   3.295   2.817   0.267
 7589SOL    HW224209   3.413   2.906   0.298
 7590SOL     OW24210   2.981   3.670   1.590
 7590SOL    HW124211   3.037   3.731   1.543
 7590SOL    HW224212   3.023   3.585   1.577
 7591SOL     OW24213   2.171   2.144   1.762
 7591SOL    HW124214   2.257   2.114   1.791
 7591SOL    HW224215   2.115   2.135   1.840
 7592SOL     OW24216   3.308   3.288   0.932
 7592SOL    HW124217   3.258   3.299   1.014
 7592SOL    HW224218   3.308   3.194   0.916
 7593SOL     OW24219   3.502   3.632   0.581
 7593SOL    HW124220   3.487   3.589   0.496
 7593SOL    HW224221   3.495   3.562   0.645
 7594SOL     OW24222   2.447   2.572   0.275
 7594SOL    HW124223   2.459   2.659   0.236
 7594SOL    HW224224   2.377   2.585   0.339
 7595SOL     OW24225   3.144   2.232   0.935
 7595SOL    HW124226   3.055   2.199   0.947
 7595SOL    HW224227   3.198   2.180   0.995
 7596SOL     OW24228   3.453   3.528   0.326
 7596SOL    HW124229   3.545   3.554   0.319
 7596SOL    HW224230   3.436   3.477   0.247
 7597SOL     OW24231   2.637   2.487   1.440
 7597SOL    HW124232   2.624   2.458   1.530
 7597SOL    HW224233   2.615   2.411   1.386
 7598SOL     OW24234   3.257   2.330   1.671
 7598SOL    HW124235   3.272   2.383   1.749
 7598SOL    HW224236   3.318   2.256   1.680
 7599SOL     OW24237   2.810   2.742   1.589
 7599SOL    HW124238   2.869   2.677   1.551
 7599SOL    HW224239   2.760   2.776   1.514
 7600SOL     OW24240   2.861   2.277   1.227
 7600SOL    HW124241   2.773   2.294   1.260
 7600SOL    HW224242   2.847   2.216   1.154
 7601SOL     OW24243   2.917   2.566   0.425
 7601SOL    HW124244   2.935   2.562   0.519
 7601SOL    HW224245   2.831   2.524   0.415
 7602SOL     OW24246   1.936   3.707   1.571
 7602SOL    HW124247   1.948   3.690   1.664
 7602SOL    HW224248   1.970   3.796   1.559
 7603SOL     OW24249   2.756   2.222   0.217
 7603SOL    HW124250   2.790   2.290   0.160
 7603SOL    HW224251   2.732   2.151   0.158
 7604SOL     OW24252   3.247   3.004   0.538
 7604SOL    HW124253   3.329   2.998   0.490
 7604SOL    HW224254   3.193   3.064   0.487
 7605SOL     OW24255   2.410   2.033   0.916
 7605SOL    HW124256   2.414   2.056   1.009
 7605SOL    HW224257   2.417   2.117   0.870
 7606SOL     OW24258   2.858   3.295   0.472
 7606SOL    HW124259   2.821   3.376   0.438
 7606SOL    HW224260   2.848   3.303   0.567
 7607SOL     OW24261   2.213   3.679   0.885
 7607SOL    HW124262   2.259   3.595   0.885
 7607SOL    HW224263   2.281   3.744   0.900
 7608SOL     OW24264   3.674   2.894   0.862
 7608SOL    HW124265   3.618   2.873   0.788
 7608SOL    HW224266   3.614   2.904   0.936
 7609SOL     OW24267   3.069   3.418   1.524
 7609SOL    HW124268   3.058   3.335   1.570
 7609SOL    HW224269   3.146   3.405   1.469
 7610SOL     OW24270   2.182   2.838   0.251
 7610SOL    HW124271   2.271   2.849   0.219
 7610SOL    HW224272   2.135   2.797   0.179
 7611SOL     OW24273   3.339   2.617   0.719
 7611SOL    HW124274   3.339   2.576   0.805
 7611SOL    HW224275   3.416   2.674   0.720
 7612SOL     OW24276   2.339   3.133   1.742
 7612SOL    HW124277   2.313   3.142   1.650
 7612SOL    HW224278   2.256   3.128   1.790
 7613SOL     OW24279   2.946   3.650   0.228
 7613SOL    HW124280   2.918   3.607   0.308
 7613SOL    HW224281   2.994   3.583   0.179
 7614SOL     OW24282   2.035   2.116   1.524
 7614SOL    HW124283   1.961   2.170   1.551
 7614SOL    HW224284   2.090   2.110   1.601
 7615SOL     OW24285   3.507   3.280   0.111
 7615SOL    HW124286   3.446   3.335   0.063
 7615SOL    HW224287   3.471   3.192   0.105
 7616SOL     OW24288   2.311   3.598   0.327
 7616SOL    HW124289   2.360   3.653   0.388
 7616SOL    HW224290   2.377   3.554   0.274
 7617SOL     OW24291   3.268   1.960   0.435
 7617SOL    HW124292   3.274   1.911   0.353
 7617SOL    HW224293   3.359   1.973   0.462
 7618SOL     OW24294   2.120   3.655   1.223
 7618SOL    HW124295   2.173   3.591   1.271
 7618SOL    HW224296   2.135   3.634   1.131
 7619SOL     OW24297   2.800   3.564   0.893
 7619SOL    HW124298   2.878   3.518   0.922
 7619SOL    HW224299   2.765   3.510   0.823
 7620SOL     OW24300   2.240   2.558   0.463
 7620SOL    HW124301   2.263   2.466   0.473
 7620SOL    HW224302   2.150   2.564   0.496
 7621SOL     OW24303   3.377   2.068   1.719
 7621SOL    HW124304   3.405   2.108   1.801
 7621SOL    HW224305   3.331   1.988   1.745
 7622SOL     OW24306   2.498   1.950   0.130
 7622SOL    HW124307   2.594   1.951   0.123
 7622SOL    HW224308   2.468   1.976   0.043
 7623SOL     OW24309   2.616   2.141   1.749
 7623SOL    HW124310   2.696   2.089   1.746
 7623SOL    HW224311   2.559   2.093   1.810
 7624SOL     OW24312   2.732   3.378   1.195
 7624SOL    HW124313   2.715   3.337   1.110
 7624SOL    HW224314   2.803   3.326   1.233
 7625SOL     OW24315   3.206   2.460   1.435
 7625SOL    HW124316   3.238   2.421   1.517
 7625SOL    HW224317   3.250   2.545   1.431
 7626SOL     OW24318   2.676   3.245   0.951
 7626SOL    HW124319   2.763   3.234   0.913
 7626SOL    HW224320   2.617   3.253   0.877
 7627SOL     OW24321   2.792   2.366   0.898
 7627SOL    HW124322   2.767   2.355   0.806
 7627SOL    HW224323   2.826   2.281   0.924
 7628SOL     OW24324   2.405   1.913   0.500
 7628SOL    HW124325   2.327   1.914   0.556
 7628SOL    HW224326   2.396   1.992   0.446
 7629SOL     OW24327   3.327   3.078   0.045
 7629SOL    HW124328   3.343   3.000   0.099
 7629SOL    HW224329   3.234   3.096   0.056
 7630SOL     OW24330   2.165   1.935   0.216
 7630SOL    HW124331   2.237   1.995   0.235
 7630SOL    HW224332   2.205   1.864   0.165
 7631SOL     OW24333   2.808   2.112   0.461
 7631SOL    HW124334   2.784   2.151   0.377
 7631SOL    HW224335   2.902   2.125   0.468
 7632SOL     OW24336   2.950   2.546   1.458
 7632SOL    HW124337   2.903   2.467   1.486
 7632SOL    HW224338   3.041   2.519   1.454
 7633SOL     OW24339   3.075   3.425   0.795
 7633SOL    HW124340   3.101   3.497   0.737
 7633SOL    HW224341   3.150   3.412   0.852
 7634SOL     OW24342   2.326   3.019   0.725
 7634SOL    HW124343   2.265   2.983   0.789
 7634SOL    HW224344   2.282   3.008   0.641
 7635SOL     OW24345   3.122   3.650   0.612
 7635SOL    HW124346   3.173   3.715   0.564
 7635SOL    HW224347   3.055   3.701   0.657
 7636SOL     OW24348   2.888   2.408   0.065
 7636SOL    HW124349   2.878   2.488   0.013
 7636SOL    HW224350   2.959   2.428   0.126
 7637SOL     OW24351   1.944   2.424   1.373
 7637SOL    HW124352   2.036   2.407   1.356
 7637SOL    HW224353   1.944   2.486   1.446
 7638SOL     OW24354   2.415   2.088   1.188
 7638SOL    HW124355   2.464   2.046   1.259
 7638SOL    HW224356   2.323   2.085   1.217
 7639SOL     OW24357   2.724   2.317   0.637
 7639SOL    HW124358   2.689   2.375   0.570
 7639SOL    HW224359   2.750   2.238   0.590
 7640SOL     OW24360   2.888   1.909   0.738
 7640SOL    HW124361   2.818   1.906   0.672
 7640SOL    HW224362   2.864   1.842   0.802
 7641SOL     OW24363   3.296   3.018   0.854
 7641SOL    HW124364   3.237   2.944   0.872
 7641SOL    HW224365   3.304   3.019   0.759
 7642SOL     OW24366   3.326   2.469   0.955
 7642SOL    HW124367   3.265   2.396   0.969
 7642SOL    HW224368   3.382   2.468   1.033
 7643SOL     OW24369   3.692   2.685   0.427
 7643SOL    HW124370   3.745   2.623   0.477
 7643SOL    HW224371   3.649   2.631   0.361
 7644SOL     OW24372   2.348   3.272   0.176
 7644SOL    HW124373   2.288   3.216   0.225
 7644SOL    HW224374   2.295   3.309   0.105
 7645SOL     OW24375   3.546   3.137   0.637
 7645SOL    HW124376   3.639   3.128   0.657
 7645SOL    HW224377   3.522   3.224   0.670
 7646SOL     OW24378   3.251   2.414   0.079
 7646SOL    HW124379   3.198   2.409   0.158
 7646SOL    HW224380   3.340   2.393   0.108
 7647SOL     OW24381   2.379   2.112   0.319
 7647SOL    HW124382   2.440   2.073   0.257
 7647SOL    HW224383   2.356   2.197   0.280
 7648SOL     OW24384   3.610   3.080   1.611
 7648SOL    HW124385   3.680   3.046   1.666
 7648SOL    HW224386   3.629   3.173   1.602
 7649SOL     OW24387   2.911   3.194   1.309
 7649SOL    HW124388   2.838   3.171   1.367
 7649SOL    HW224389   2.989   3.170   1.359
 7650SOL     OW24390   3.470   3.502   1.663
 7650SOL    HW124391   3.462   3.527   1.570
 7650SOL    HW224392   3.545   3.443   1.665
 7651SOL     OW24393   2.977   3.051   1.086
 7651SOL    HW124394   2.942   3.100   1.161
 7651SOL    HW224395   2.958   3.106   1.011
 7652SOL     OW24396   3.488   2.937   1.056
 7652SOL    HW124397   3.486   3.000   1.128
 7652SOL    HW224398   3.414   2.962   1.000
 7653SOL     OW24399   2.793   1.949   1.386
 7653SOL    HW124400   2.822   1.936   1.296
 7653SOL    HW224401   2.868   1.989   1.430
 7654SOL     OW24402   2.837   2.979   1.718
 7654SOL    HW124403   2.746   2.988   1.746
 7654SOL    HW224404   2.840   2.898   1.667
 7655SOL     OW24405   2.576   2.928   0.381
 7655SOL    HW124406   2.562   2.903   0.473
 7655SOL    HW224407   2.654   2.878   0.355
 7656SOL     OW24408   2.266   2.681   1.264
 7656SOL    HW124409   2.338   2.696   1.326
 7656SOL    HW224410   2.244   2.588   1.275
 7657SOL     OW24411   3.130   2.248   1.278
 7657SOL    HW124412   3.162   2.322   1.329
 7657SOL    HW224413   3.038   2.269   1.262
 7658SOL     OW24414   1.943   3.449   1.367
 7658SOL    HW124415   1.921   3.495   1.285
 7658SOL    HW224416   2.037   3.435   1.362
 7659SOL     OW24417   2.181   2.985   0.492
 7659SOL    HW124418   2.175   3.059   0.433
 7659SOL    HW224419   2.195   2.909   0.435
 7660SOL     OW24420   2.402   2.386   0.849
 7660SOL    HW124421   2.414   2.445   0.774
 7660SOL    HW224422   2.469   2.413   0.912
 7661SOL     OW24423   3.109   3.209   0.393
 7661SOL    HW124424   3.164   3.278   0.429
 7661SOL    HW224425   3.021   3.227   0.428
 7662SOL     OW24426   3.142   3.333   1.149
 7662SOL    HW124427   3.198   3.353   1.224
 7662SOL    HW224428   3.087   3.260   1.178
 7663SOL     OW24429   3.415   2.456   0.508
 7663SOL    HW124430   3.372   2.517   0.568
 7663SOL    HW224431   3.456   2.512   0.442
 7664SOL     OW24432   2.206   3.392   1.311
 7664SOL    HW124433   2.197   3.347   1.227
 7664SOL    HW224434   2.300   3.405   1.321
 7665SOL     OW24435   2.289   2.606   1.612
 7665SOL    HW124436   2.352   2.648   1.552
 7665SOL    HW224437   2.334   2.527   1.642
 7666SOL     OW24438   3.453   2.671   1.671
 7666SOL    HW124439   3.370   2.718   1.663
 7666SOL    HW224440   3.511   2.713   1.607
 7667SOL     OW24441   2.849   1.999   1.729
 7667SOL    HW124442   2.910   2.072   1.724
 7667SOL    HW224443   2.902   1.922   1.708
 7668SOL     OW24444   2.363   1.935   1.639
 7668SOL    HW124445   2.307   1.857   1.636
 7668SOL    HW224446   2.385   1.945   1.731
 7669SOL     OW24447   2.387   2.789   1.026
 7669SOL    HW124448   2.464   2.846   1.034
 7669SOL    HW224449   2.372   2.757   1.115
 7670SOL     OW24450   3.199   2.726   0.987
 7670SOL    HW124451   3.109   2.697   0.976
 7670SOL    HW224452   3.250   2.645   0.991
 7671SOL     OW24453   3.072   2.389   0.283
 7671SOL    HW124454   3.083   2.315   0.343
 7671SOL    HW224455   3.026   2.455   0.334
 7672SOL     OW24456   2.142   2.064   1.254
 7672SOL    HW124457   2.116   2.094   1.341
 7672SOL    HW224458   2.133   1.969   1.257
 7673SOL     OW24459   1.929   3.183   1.269
 7673SOL    HW124460   1.957   3.120   1.335
 7673SOL    HW224461   1.922   3.266   1.316
 7674SOL     OW24462   2.581   2.482   1.029
 7674SOL    HW124463   2.661   2.447   0.989
 7674SOL    HW224464   2.594   2.577   1.028
 7675SOL     OW24465   3.608   2.802   1.859
 7675SOL    HW124466   3.563   2.735   1.809
 7675SOL    HW224467   3.548   2.822   1.931
 7676SOL     OW24468   2.166   1.922   0.634
 7676SOL    HW124469   2.143   2.013   0.653
 7676SOL    HW224470   2.177   1.882   0.720
 7677SOL     OW24471   3.475   2.236   0.357
 7677SOL    HW124472   3.507   2.165   0.414
 7677SOL    HW224473   3.443   2.302   0.417
 7678SOL     OW24474   2.888   2.617   0.962
 7678SOL    HW124475   2.877   2.632   1.056
 7678SOL    HW224476   2.865   2.525   0.950
 7679SOL     OW24477   2.838   3.412   1.745
 7679SOL    HW124478   2.814   3.459   1.665
 7679SOL    HW224479   2.888   3.336   1.715
 7680SOL     OW24480   3.704   3.354   1.607
 7680SOL    HW124481   3.728   3.386   1.520
 7680SOL    HW224482   3.783   3.366   1.660
 7681SOL     OW24483   2.207   2.796   1.794
 7681SOL    HW124484   2.277   2.809   1.858
 7681SOL    HW224485   2.239   2.726   1.737
 7682SOL     OW24486   3.379   2.072   0.146
 7682SOL    HW124487   3.290   2.098   0.170
 7682SOL    HW224488   3.436   2.131   0.196
 7683SOL     OW24489   3.141   2.672   0.059
 7683SOL    HW124490   3.190   2.591   0.043
 7683SOL    HW224491   3.180   2.736   0.001
 7684SOL     OW24492   2.921   3.203   0.854
 7684SOL    HW124493   2.935   3.130   0.794
 7684SOL    HW224494   2.982   3.270   0.824
 7685SOL     OW24495   2.168   2.643   0.938
 7685SOL    HW124496   2.253   2.684   0.947
 7685SOL    HW224497   2.182   2.552   0.962
 7686SOL     OW24498   2.186   2.380   1.006
 7686SOL    HW124499   2.151   2.291   1.001
 7686SOL    HW224500   2.264   2.378   0.950
 7687SOL     OW24501   3.000   2.234   1.683
 7687SOL    HW124502   2.957   2.283   1.753
 7687SOL    HW224503   3.090   2.267   1.683
 7688SOL     OW24504   3.029   2.062   1.469
 7688SOL    HW124505   3.018   2.121   1.544
 7688SOL    HW224506   3.078   2.114   1.405
 7689SOL     OW24507   1.942   3.641   0.945
 7689SOL    HW124508   1.915   3.562   0.899
 7689SOL    HW224509   2.033   3.655   0.917
 7690SOL     OW24510   2.350   3.436   0.901
 7690SOL    HW124511   2.420   3.497   0.926
 7690SOL    HW224512   2.392   3.373   0.843
 7691SOL     OW24513   2.820   2.636   1.229
 7691SOL    HW124514   2.893   2.623   1.289
 7691SOL    HW224515   2.745   2.597   1.274
 7692SOL     OW24516   1.917   2.465   1.103
 7692SOL    HW124517   1.995   2.425   1.065
 7692SOL    HW224518   1.926   2.451   1.197
 7693SOL     OW24519   2.033   2.401   1.760
 7693SOL    HW124520   2.101   2.342   1.728
 7693SOL    HW224521   2.019   2.463   1.689
 7694SOL     OW24522   3.216   2.812   1.646
 7694SOL    HW124523   3.244   2.903   1.642
 7694SOL    HW224524   3.220   2.782   1.555
 7695SOL     OW24525   2.675   2.439   0.380
 7695SOL    HW124526   2.686   2.364   0.321
 7695SOL    HW224527   2.599   2.486   0.345
 7696SOL     OW24528   3.497   2.471   1.165
 7696SOL    HW124529   3.489   2.412   1.240
 7696SOL    HW224530   3.587   2.457   1.133
 7697SOL     OW24531   2.098   3.402   1.733
 7697SOL    HW124532   2.099   3.454   1.813
 7697SOL    HW224533   2.109   3.312   1.762
 7698SOL     OW24534   2.580   2.310   1.242
 7698SOL    HW124535   2.520   2.237   1.227
 7698SOL    HW224536   2.566   2.368   1.168
 7699SOL     OW24537   2.739   3.551   1.514
 7699SOL    HW124538   2.756   3.501   1.435
 7699SOL    HW224539   2.814   3.610   1.522
 7700SOL     OW24540   2.311   2.339   0.199
 7700SOL    HW124541   2.369   2.415   0.209
 7700SOL    HW224542   2.243   2.369   0.138
 7701SOL     OW24543   2.020   3.009   1.461
 7701SOL    HW124544   2.006   2.980   1.552
 7701SOL    HW224545   2.010   2.929   1.410
 7702SOL     OW24546   3.167   2.888   1.204
 7702SOL    HW124547   3.193   2.837   1.128
 7702SOL    HW224548   3.100   2.948   1.171
 7703SOL     OW24549   3.165   2.707   0.330
 7703SOL    HW124550   3.089   2.671   0.376
 7703SOL    HW224551   3.150   2.687   0.238
 7704SOL     OW24552   3.649   3.607   1.160
 7704SOL    HW124553   3.711   3.628   1.089
 7704SOL    HW224554   3.614   3.521   1.136
 7705SOL     OW24555   3.096   3.602   1.092
 7705SOL    HW124556   3.183   3.626   1.059
 7705SOL    HW224557   3.104   3.511   1.119
 7706SOL     OW24558   1.938   3.143   1.004
 7706SOL    HW124559   1.935   3.158   1.099
 7706SOL    HW224560   1.864   3.085   0.986
 7707SOL     OW24561   2.554   3.546   1.730
 7707SOL    HW124562   2.505   3.628   1.722
 7707SOL    HW224563   2.621   3.552   1.662
 7708SOL     OW24564   2.767   1.958   0.093
 7708SOL    HW124565   2.794   1.966   0.001
 7708SOL    HW224566   2.847   1.942   0.141
 7709SOL     OW24567   3.574   2.017   0.495
 7709SOL    HW124568   3.649   1.997   0.439
 7709SOL    HW224569   3.558   1.936   0.543
 7710SOL     OW24570   3.253   3.427   0.496
 7710SOL    HW124571   3.316   3.464   0.434
 7710SOL    HW224572   3.205   3.504   0.529
 7711SOL     OW24573   1.992   3.674   1.838
 7711SOL    HW124574   1.951   3.600   1.883
 7711SOL    HW224575   2.051   3.712   1.903
 7712SOL     OW24576   3.135   2.792   0.665
 7712SOL    HW124577   3.209   2.734   0.683
 7712SOL    HW224578   3.172   2.861   0.610
 7713SOL     OW24579   2.663   3.138   1.422
 7713SOL    HW124580   2.639   3.183   1.503
 7713SOL    HW224581   2.586   3.149   1.365
 7714SOL     OW24582   2.517   3.485   0.189
 7714SOL    HW124583   2.590   3.481   0.127
 7714SOL    HW224584   2.475   3.399   0.182
 7715SOL     OW24585   3.475   3.600   1.393
 7715SOL    HW124586   3.540   3.599   1.322
 7715SOL    HW224587   3.462   3.693   1.412
 7716SOL     OW24588   3.705   2.034   0.955
 7716SOL    HW124589   3.736   1.945   0.938
 7716SOL    HW224590   3.615   2.035   0.923
 7717SOL     OW24591   2.109   2.175   0.718
 7717SOL    HW124592   2.019   2.201   0.698
 7717SOL    HW224593   2.111   2.165   0.813
 7718SOL     OW24594   3.056   3.471   0.064
 7718SOL    HW124595   3.055   3.377   0.081
 7718SOL    HW224596   3.048   3.478  -0.031
 7719SOL     OW24597   2.687   2.868   1.375
 7719SOL    HW124598   2.748   2.856   1.302
 7719SOL    HW224599   2.689   2.962   1.393
 7720SOL     OW24600   2.790   2.789   0.298
 7720SOL    HW124601   2.845   2.814   0.224
 7720SOL    HW224602   2.838   2.718   0.341
 7721SOL     OW24603   3.323   3.442   0.009
 7721SOL    HW124604   3.236   3.470   0.038
 7721SOL    HW224605   3.374   3.522   0.004
 7722SOL     OW24606   2.231   3.177   1.500
 7722SOL    HW124607   2.223   3.247   1.435
 7722SOL    HW224608   2.162   3.115   1.479
 7723SOL     OW24609   2.926   2.973   0.710
 7723SOL    HW124610   2.856   2.921   0.750
 7723SOL    HW224611   2.995   2.910   0.690
 7724SOL     OW24612   2.890   2.105   0.957
 7724SOL    HW124613   2.892   2.056   0.875
 7724SOL    HW224614   2.887   2.037   1.025
 7725SOL     OW24615   2.467   3.336   0.471
 7725SOL    HW124616   2.521   3.286   0.409
 7725SOL    HW224617   2.390   3.362   0.421
 7726SOL     OW24618   3.569   2.264   1.352
 7726SOL    HW124619   3.645   2.321   1.369
 7726SOL    HW224620   3.605   2.191   1.301
 7727SOL     OW24621   2.118   3.187   0.308
 7727SOL    HW124622   2.050   3.222   0.250
 7727SOL    HW224623   2.107   3.236   0.390
 7728SOL     OW24624   1.974   2.929   1.730
 7728SOL    HW124625   1.897   2.890   1.771
 7728SOL    HW224626   2.047   2.874   1.759
 7729SOL     OW24627   2.554   2.071   1.458
 7729SOL    HW124628   2.642   2.037   1.439
 7729SOL    HW224629   2.551   2.076   1.553
 7730SOL     OW24630   3.285   2.729   1.392
 7730SOL    HW124631   3.236   2.789   1.335
 7730SOL    HW224632   3.375   2.734   1.361
 7731SOL     OW24633   1.919   2.007   0.308
 7731SOL    HW124634   1.911   2.099   0.282
 7731SOL    HW224635   2.007   1.982   0.282
 7732SOL     OW24636   3.053   3.203   0.118
 7732SOL    HW124637   2.959   3.183   0.111
 7732SOL    HW224638   3.073   3.190   0.210
 7733SOL     OW24639   2.477   2.702   1.431
 7733SOL    HW124640   2.539   2.774   1.419
 7733SOL    HW224641   2.532   2.624   1.438
 7734SOL     OW24642   3.350   3.661   0.997
 7734SOL    HW124643   3.388   3.719   0.931
 7734SOL    HW224644   3.424   3.611   1.031
 7735SOL     OW24645   2.580   2.416   1.696
 7735SOL    HW124646   2.629   2.468   1.760
 7735SOL    HW224647   2.592   2.326   1.724
 7736SOL     OW24648   3.325   3.065   1.630
 7736SOL    HW124649   3.323   3.072   1.726
 7736SOL    HW224650   3.417   3.075   1.607
 7737SOL     OW24651   2.218   3.601   1.569
 7737SOL    HW124652   2.127   3.624   1.554
 7737SOL    HW224653   2.214   3.515   1.612
 7738SOL     OW24654   3.530   2.741   1.253
 7738SOL    HW124655   3.520   2.655   1.213
 7738SOL    HW224656   3.517   2.803   1.182
 7739SOL     OW24657   3.083   2.169   0.450
 7739SOL    HW124658   3.148   2.099   0.450
 7739SOL    HW224659   3.102   2.219   0.530
 7740SOL     OW24660   2.433   2.594   0.668
 7740SOL    HW124661   2.479   2.678   0.659
 7740SOL    HW224662   2.374   2.591   0.593
 7741SOL     OW24663   3.678   2.170   1.593
 7741SOL    HW124664   3.617   2.201   1.525
 7741SOL    HW224665   3.654   2.220   1.671
 7742SOL     OW24666   3.627   2.810   1.501
 7742SOL    HW124667   3.610   2.902   1.522
 7742SOL    HW224668   3.593   2.799   1.413
 7743SOL     OW24669   2.771   3.224   0.061
 7743SOL    HW124670   2.716   3.205   0.137
 7743SOL    HW224671   2.758   3.317   0.044
 7744SOL     OW24672   2.526   3.639   0.932
 7744SOL    HW124673   2.515   3.733   0.917
 7744SOL    HW224674   2.621   3.625   0.929
 7745SOL     OW24675   2.732   2.830   0.854
 7745SOL    HW124676   2.787   2.761   0.891
 7745SOL    HW224677   2.696   2.875   0.931
 7746SOL     OW24678   2.936   2.855   0.068
 7746SOL    HW124679   2.985   2.918   0.017
 7746SOL    HW224680   2.993   2.778   0.073
 7747SOL     OW24681   3.705   3.417   0.834
 7747SOL    HW124682   3.625   3.406   0.783
 7747SOL    HW224683   3.688   3.370   0.916
 7748SOL     OW24684   2.088   3.153   1.845
 7748SOL    HW124685   2.040   3.078   1.810
 7748SOL    HW224686   2.075   3.148   1.940
 7749SOL     OW24687   1.955   3.089   0.676
 7749SOL    HW124688   1.991   3.044   0.752
 7749SOL    HW224689   2.009   3.059   0.603
 7750SOL     OW24690   2.539   3.283   1.618
 7750SOL    HW124691   2.477   3.233   1.671
 7750SOL    HW224692   2.552   3.364   1.666
 7751SOL     OW24693   3.668   2.051   1.226
 7751SOL    HW124694   3.689   1.961   1.253
 7751SOL    HW224695   3.684   2.052   1.132
 7752SOL     OW24696   2.273   2.299   0.525
 7752SOL    HW124697   2.317   2.231   0.473
 7752SOL    HW224698   2.233   2.251   0.598
 7753SOL     OW24699   3.545   3.373   1.066
 7753SOL    HW124700   3.467   3.351   1.015
 7753SOL    HW224701   3.544   3.312   1.139
 7754SOL     OW24702   2.204   2.414   1.293
 7754SOL    HW124703   2.251   2.355   1.352
 7754SOL    HW224704   2.222   2.379   1.205
 7755SOL     OW24705   2.690   3.435   0.679
 7755SOL    HW124706   2.670   3.475   0.595
 7755SOL    HW224707   2.617   3.374   0.694
 7756SOL     OW24708   3.296   2.099   1.123
 7756SOL    HW124709   3.339   2.034   1.178
 7756SOL    HW224710   3.243   2.151   1.183
 7757SOL     OW24711   2.878   1.884   1.127
 7757SOL    HW124712   2.817   1.818   1.095
 7757SOL    HW224713   2.964   1.843   1.122
 7758SOL     OW24714   2.649   3.188   0.314
 7758SOL    HW124715   2.620   3.098   0.332
 7758SOL    HW224716   2.726   3.199   0.369
 7759SOL     OW24717   2.477   3.429   1.278
 7759SOL    HW124718   2.475   3.516   1.318
 7759SOL    HW224719   2.569   3.416   1.254
 7760SOL     OW24720   3.205   1.836   0.166
 7760SOL    HW124721   3.281   1.868   0.117
 7760SOL    HW224722   3.142   1.908   0.162
 7761SOL     OW24723   3.129   2.317   0.671
 7761SOL    HW124724   3.088   2.403   0.680
 7761SOL    HW224725   3.143   2.288   0.761
 7762SOL     OW24726   3.439   2.050   0.888
 7762SOL    HW124727   3.390   2.076   0.965
 7762SOL    HW224728   3.441   2.129   0.833
 7763SOL     OW24729   1.897   2.939   0.345
 7763SOL    HW124730   1.988   2.955   0.321
 7763SOL    HW224731   1.897   2.851   0.382
 7764SOL     OW24732   2.732   3.520   0.380
 7764SOL    HW124733   2.653   3.505   0.328
 7764SOL    HW224734   2.717   3.603   0.424
 7765SOL     OW24735   2.075   2.519   2.006
 7765SOL    HW124736   1.993   2.493   2.048
 7765SOL    HW224737   2.066   2.489   1.915
 7766SOL     OW24738   2.076   2.157   2.859
 7766SOL    HW124739   2.109   2.122   2.941
 7766SOL    HW224740   1.992   2.114   2.846
 7767SOL     OW24741   1.863   2.249   2.506
 7767SOL    HW124742   1.784   2.246   2.560
 7767SOL    HW224743   1.851   2.179   2.441
 7768SOL     OW24744   2.411   3.153   3.036
 7768SOL    HW124745   2.337   3.194   2.992
 7768SOL    HW224746   2.454   3.224   3.083
 7769SOL     OW24747   3.424   3.383   2.550
 7769SOL    HW124748   3.388   3.353   2.633
 7769SOL    HW224749   3.353   3.369   2.487
 7770SOL     OW24750   2.992   2.563   2.553
 7770SOL    HW124751   3.042   2.644   2.540
 7770SOL    HW224752   2.949   2.576   2.638
 7771SOL     OW24753   3.615   2.459   2.107
 7771SOL    HW124754   3.614   2.445   2.012
 7771SOL    HW224755   3.577   2.378   2.143
 7772SOL     OW24756   2.589   2.989   2.904
 7772SOL    HW124757   2.526   3.029   2.964
 7772SOL    HW224758   2.638   3.064   2.870
 7773SOL     OW24759   2.741   2.621   3.687
 7773SOL    HW124760   2.752   2.684   3.758
 7773SOL    HW224761   2.767   2.669   3.608
 7774SOL     OW24762   2.545   2.858   2.507
 7774SOL    HW124763   2.616   2.848   2.571
 7774SOL    HW224764   2.481   2.914   2.550
 7775SOL     OW24765   2.571   3.013   3.683
 7775SOL    HW124766   2.609   3.092   3.721
 7775SOL    HW224767   2.487   3.041   3.647
 7776SOL     OW24768   2.186   3.288   2.923
 7776SOL    HW124769   2.116   3.252   2.868
 7776SOL    HW224770   2.239   3.340   2.863
 7777SOL     OW24771   3.349   3.337   3.220
 7777SOL    HW124772   3.414   3.397   3.256
 7777SOL    HW224773   3.308   3.297   3.297
 7778SOL     OW24774   2.308   2.243   3.327
 7778SOL    HW124775   2.392   2.198   3.319
 7778SOL    HW224776   2.277   2.221   3.415
 7779SOL     OW24777   3.464   2.302   2.616
 7779SOL    HW124778   3.409   2.328   2.542
 7779SOL    HW224779   3.450   2.370   2.682
 7780SOL     OW24780   2.082   3.589   2.328
 7780SOL    HW124781   2.110   3.657   2.389
 7780SOL    HW224782   2.161   3.568   2.278
 7781SOL     OW24783   2.959   3.241   3.565
 7781SOL    HW124784   3.003   3.245   3.649
 7781SOL    HW224785   2.921   3.153   3.561
 7782SOL     OW24786   2.079   3.303   2.384
 7782SOL    HW124787   2.074   3.393   2.415
 7782SOL    HW224788   2.042   3.251   2.455
 7783SOL     OW24789   2.117   2.945   2.743
 7783SOL    HW124790   2.139   2.856   2.770
 7783SOL    HW224791   2.087   2.987   2.824
 7784SOL     OW24792   2.457   3.683   3.266
 7784SOL    HW124793   2.478   3.629   3.341
 7784SOL    HW224794   2.497   3.768   3.285
 7785SOL     OW24795   2.428   2.855   2.011
 7785SOL    HW124796   2.483   2.889   1.940
 7785SOL    HW224797   2.472   2.883   2.091
 7786SOL     OW24798   3.459   1.994   3.325
 7786SOL    HW124799   3.486   2.076   3.284
 7786SOL    HW224800   3.436   2.018   3.415
 7787SOL     OW24801   1.970   2.528   2.423
 7787SOL    HW124802   1.958   2.436   2.444
 7787SOL    HW224803   1.971   2.573   2.508
 7788SOL     OW24804   3.708   3.611   2.188
 7788SOL    HW124805   3.776   3.583   2.249
 7788SOL    HW224806   3.728   3.704   2.171
 7789SOL     OW24807   1.898   3.461   1.982
 7789SOL    HW124808   1.888   3.366   1.990
 7789SOL    HW224809   1.883   3.494   2.071
 7790SOL     OW24810   3.556   2.769   2.500
 7790SOL    HW124811   3.646   2.738   2.499
 7790SOL    HW224812   3.548   2.822   2.420
 7791SOL     OW24813   3.524   2.979   2.300
 7791SOL    HW124814   3.606   2.964   2.253
 7791SOL    HW224815   3.543   3.049   2.362
 7792SOL     OW24816   2.032   2.626   3.457
 7792SOL    HW124817   2.128   2.624   3.461
 7792SOL    HW224818   2.007   2.707   3.500
 7793SOL     OW24819   2.476   3.258   2.590
 7793SOL    HW124820   2.435   3.172   2.600
 7793SOL    HW224821   2.462   3.281   2.499
 7794SOL     OW24822   3.138   3.087   3.265
 7794SOL    HW124823   3.176   3.020   3.208
 7794SOL    HW224824   3.189   3.082   3.346
 7795SOL     OW24825   2.684   1.871   2.388
 7795SOL    HW124826   2.725   1.952   2.358
 7795SOL    HW224827   2.590   1.890   2.387
 7796SOL     OW24828   2.042   2.809   3.119
 7796SOL    HW124829   2.132   2.779   3.132
 7796SOL    HW224830   2.012   2.760   3.043
 7797SOL     OW24831   3.398   2.870   2.066
 7797SOL    HW124832   3.329   2.812   2.098
 7797SOL    HW224833   3.442   2.900   2.145
 7798SOL     OW24834   2.174   2.159   3.596
 7798SOL    HW124835   2.247   2.098   3.592
 7798SOL    HW224836   2.137   2.147   3.683
 7799SOL     OW24837   3.274   3.289   2.764
 7799SOL    HW124838   3.253   3.306   2.856
 7799SOL    HW224839   3.303   3.198   2.763
 7800SOL     OW24840   3.505   3.627   2.439
 7800SOL    HW124841   3.495   3.585   2.354
 7800SOL    HW224842   3.495   3.556   2.502
 7801SOL     OW24843   2.459   2.577   2.136
 7801SOL    HW124844   2.468   2.663   2.095
 7801SOL    HW224845   2.393   2.590   2.204
 7802SOL     OW24846   3.142   2.235   2.799
 7802SOL    HW124847   3.053   2.201   2.806
 7802SOL    HW224848   3.194   2.181   2.859
 7803SOL     OW24849   3.441   3.543   2.172
 7803SOL    HW124850   3.535   3.562   2.169
 7803SOL    HW224851   3.418   3.522   2.081
 7804SOL     OW24852   2.646   2.483   3.306
 7804SOL    HW124853   2.627   2.455   3.395
 7804SOL    HW224854   2.619   2.409   3.251
 7805SOL     OW24855   3.255   2.337   3.549
 7805SOL    HW124856   3.255   2.385   3.632
 7805SOL    HW224857   3.322   2.270   3.560
 7806SOL     OW24858   2.815   2.746   3.449
 7806SOL    HW124859   2.874   2.682   3.410
 7806SOL    HW224860   2.764   2.780   3.376
 7807SOL     OW24861   2.860   2.268   3.092
 7807SOL    HW124862   2.772   2.290   3.124
 7807SOL    HW224863   2.845   2.225   3.008
 7808SOL     OW24864   2.918   2.563   2.284
 7808SOL    HW124865   2.939   2.559   2.377
 7808SOL    HW224866   2.835   2.516   2.276
 7809SOL     OW24867   1.949   2.690   2.647
 7809SOL    HW124868   2.033   2.677   2.692
 7809SOL    HW224869   1.915   2.771   2.685
 7810SOL     OW24870   1.943   3.670   3.437
 7810SOL    HW124871   1.965   3.668   3.530
 7810SOL    HW224872   1.950   3.762   3.413
 7811SOL     OW24873   2.738   2.217   2.067
 7811SOL    HW124874   2.794   2.260   2.002
 7811SOL    HW224875   2.688   2.153   2.016
 7812SOL     OW24876   3.566   2.411   3.689
 7812SOL    HW124877   3.530   2.488   3.646
 7812SOL    HW224878   3.607   2.362   3.617
 7813SOL     OW24879   3.257   3.008   2.411
 7813SOL    HW124880   3.336   2.994   2.359
 7813SOL    HW224881   3.204   3.069   2.359
 7814SOL     OW24882   2.407   2.032   2.778
 7814SOL    HW124883   2.414   2.057   2.870
 7814SOL    HW224884   2.417   2.114   2.729
 7815SOL     OW24885   2.860   3.300   2.327
 7815SOL    HW124886   2.837   3.382   2.283
 7815SOL    HW224887   2.851   3.319   2.421
 7816SOL     OW24888   2.218   3.679   2.740
 7816SOL    HW124889   2.267   3.597   2.747
 7816SOL    HW224890   2.283   3.748   2.757
 7817SOL     OW24891   3.655   2.839   2.762
 7817SOL    HW124892   3.605   2.859   2.682
 7817SOL    HW224893   3.603   2.877   2.833
 7818SOL     OW24894   3.018   3.366   3.325
 7818SOL    HW124895   3.015   3.326   3.412
 7818SOL    HW224896   2.997   3.295   3.265
 7819SOL     OW24897   2.165   2.820   2.115
 7819SOL    HW124898   2.253   2.836   2.080
 7819SOL    HW224899   2.144   2.731   2.088
 7820SOL     OW24900   3.342   2.618   2.577
 7820SOL    HW124901   3.343   2.580   2.665
 7820SOL    HW224902   3.421   2.671   2.572
 7821SOL     OW24903   2.331   3.111   3.606
 7821SOL    HW124904   2.296   3.117   3.517
 7821SOL    HW224905   2.254   3.114   3.662
 7822SOL     OW24906   2.986   3.652   2.070
 7822SOL    HW124907   2.921   3.612   2.127
 7822SOL    HW224908   3.014   3.581   2.011
 7823SOL     OW24909   1.999   2.142   3.359
 7823SOL    HW124910   1.964   2.191   3.433
 7823SOL    HW224911   2.057   2.077   3.398
 7824SOL     OW24912   3.481   3.253   1.955
 7824SOL    HW124913   3.437   3.336   1.940
 7824SOL    HW224914   3.415   3.187   1.931
 7825SOL     OW24915   2.322   3.593   2.181
 7825SOL    HW124916   2.369   3.646   2.245
 7825SOL    HW224917   2.391   3.559   2.123
 7826SOL     OW24918   3.257   1.965   2.308
 7826SOL    HW124919   3.249   1.938   2.217
 7826SOL    HW224920   3.351   1.980   2.321
 7827SOL     OW24921   2.143   3.642   3.147
 7827SOL    HW124922   2.233   3.639   3.179
 7827SOL    HW224923   2.149   3.617   3.055
 7828SOL     OW24924   2.797   3.562   2.758
 7828SOL    HW124925   2.877   3.531   2.801
 7828SOL    HW224926   2.781   3.498   2.688
 7829SOL     OW24927   2.253   2.566   2.327
 7829SOL    HW124928   2.269   2.472   2.343
 7829SOL    HW224929   2.160   2.578   2.344
 7830SOL     OW24930   3.394   2.087   3.585
 7830SOL    HW124931   3.414   2.101   3.677
 7830SOL    HW224932   3.309   2.044   3.585
 7831SOL     OW24933   2.639   2.162   3.637
 7831SOL    HW124934   2.713   2.103   3.622
 7831SOL    HW224935   2.562   2.107   3.625
 7832SOL     OW24936   2.727   3.366   3.057
 7832SOL    HW124937   2.711   3.332   2.969
 7832SOL    HW224938   2.793   3.308   3.094
 7833SOL     OW24939   3.206   2.455   3.302
 7833SOL    HW124940   3.235   2.426   3.388
 7833SOL    HW224941   3.244   2.543   3.293
 7834SOL     OW24942   2.675   3.240   2.810
 7834SOL    HW124943   2.763   3.230   2.773
 7834SOL    HW224944   2.618   3.251   2.734
 7835SOL     OW24945   2.789   2.368   2.758
 7835SOL    HW124946   2.765   2.358   2.666
 7835SOL    HW224947   2.823   2.282   2.784
 7836SOL     OW24948   2.415   1.927   2.359
 7836SOL    HW124949   2.335   1.929   2.412
 7836SOL    HW224950   2.409   2.007   2.306
 7837SOL     OW24951   3.291   3.063   1.902
 7837SOL    HW124952   3.327   2.990   1.952
 7837SOL    HW224953   3.209   3.084   1.947
 7838SOL     OW24954   2.155   1.893   2.052
 7838SOL    HW124955   2.231   1.934   2.011
 7838SOL    HW224956   2.192   1.825   2.109
 7839SOL     OW24957   2.808   2.109   2.315
 7839SOL    HW124958   2.781   2.143   2.230
 7839SOL    HW224959   2.902   2.126   2.320
 7840SOL     OW24960   2.949   2.549   3.312
 7840SOL    HW124961   2.896   2.475   3.340
 7840SOL    HW224962   3.039   2.516   3.314
 7841SOL     OW24963   3.067   3.415   2.632
 7841SOL    HW124964   3.098   3.493   2.586
 7841SOL    HW224965   3.144   3.384   2.680
 7842SOL     OW24966   2.329   3.023   2.584
 7842SOL    HW124967   2.267   2.996   2.651
 7842SOL    HW224968   2.284   3.005   2.501
 7843SOL     OW24969   3.126   3.654   2.470
 7843SOL    HW124970   3.179   3.720   2.425
 7843SOL    HW224971   3.064   3.704   2.522
 7844SOL     OW24972   2.891   2.380   1.892
 7844SOL    HW124973   2.852   2.466   1.878
 7844SOL    HW224974   2.956   2.395   1.961
 7845SOL     OW24975   1.945   2.463   3.270
 7845SOL    HW124976   2.029   2.433   3.237
 7845SOL    HW224977   1.967   2.521   3.342
 7846SOL     OW24978   2.414   2.091   3.050
 7846SOL    HW124979   2.461   2.056   3.126
 7846SOL    HW224980   2.322   2.084   3.074
 7847SOL     OW24981   2.726   2.313   2.497
 7847SOL    HW124982   2.692   2.371   2.428
 7847SOL    HW224983   2.753   2.234   2.451
 7848SOL     OW24984   2.882   1.915   2.605
 7848SOL    HW124985   2.821   1.911   2.532
 7848SOL    HW224986   2.856   1.843   2.662
 7849SOL     OW24987   3.304   3.006   2.707
 7849SOL    HW124988   3.257   2.929   2.737
 7849SOL    HW224989   3.285   3.011   2.613
 7850SOL     OW24990   3.324   2.473   2.818
 7850SOL    HW124991   3.263   2.400   2.828
 7850SOL    HW224992   3.381   2.467   2.895
 7851SOL     OW24993   3.716   2.675   2.236
 7851SOL    HW124994   3.771   2.626   2.297
 7851SOL    HW224995   3.676   2.608   2.181
 7852SOL     OW24996   2.350   3.295   2.013
 7852SOL    HW124997   2.272   3.259   2.054
 7852SOL    HW224998   2.376   3.228   1.949
 7853SOL     OW24999   3.262   2.445   1.923
 7853SOL    HW125000   3.213   2.410   1.997
 7853SOL    HW225001   3.353   2.418   1.939
 7854SOL     OW25002   2.382   2.139   2.188
 7854SOL    HW125003   2.409   2.081   2.116
 7854SOL    HW225004   2.355   2.219   2.144
 7855SOL     OW25005   3.584   3.057   3.454
 7855SOL    HW125006   3.678   3.044   3.446
 7855SOL    HW225007   3.573   3.115   3.529
 7856SOL     OW25008   2.903   3.169   3.163
 7856SOL    HW125009   2.829   3.151   3.221
 7856SOL    HW225010   2.978   3.128   3.207
 7857SOL     OW25011   2.985   3.044   2.937
 7857SOL    HW125012   2.941   3.091   3.008
 7857SOL    HW225013   2.967   3.097   2.859
 7858SOL     OW25014   3.465   2.929   2.936
 7858SOL    HW125015   3.472   2.993   3.007
 7858SOL    HW225016   3.424   2.976   2.864
 7859SOL     OW25017   2.792   1.943   3.256
 7859SOL    HW125018   2.815   1.935   3.163
 7859SOL    HW225019   2.866   1.988   3.295
 7860SOL     OW25020   2.809   3.008   3.537
 7860SOL    HW125021   2.737   3.002   3.601
 7860SOL    HW225022   2.836   2.918   3.523
 7861SOL     OW25023   2.573   2.923   2.237
 7861SOL    HW125024   2.561   2.902   2.329
 7861SOL    HW225025   2.648   2.870   2.209
 7862SOL     OW25026   2.279   2.675   3.126
 7862SOL    HW125027   2.350   2.687   3.189
 7862SOL    HW225028   2.251   2.585   3.138
 7863SOL     OW25029   3.127   2.242   3.148
 7863SOL    HW125030   3.159   2.319   3.195
 7863SOL    HW225031   3.036   2.263   3.127
 7864SOL     OW25032   2.178   2.982   2.353
 7864SOL    HW125033   2.202   3.051   2.291
 7864SOL    HW225034   2.179   2.902   2.300
 7865SOL     OW25035   2.404   2.384   2.711
 7865SOL    HW125036   2.417   2.445   2.638
 7865SOL    HW225037   2.470   2.410   2.776
 7866SOL     OW25038   3.112   3.207   2.257
 7866SOL    HW125039   3.164   3.283   2.284
 7866SOL    HW225040   3.024   3.224   2.293
 7867SOL     OW25041   3.164   3.325   3.020
 7867SOL    HW125042   3.228   3.325   3.091
 7867SOL    HW225043   3.106   3.252   3.040
 7868SOL     OW25044   3.430   2.468   2.360
 7868SOL    HW125045   3.386   2.522   2.425
 7868SOL    HW225046   3.477   2.530   2.304
 7869SOL     OW25047   2.203   3.353   3.185
 7869SOL    HW125048   2.197   3.335   3.091
 7869SOL    HW225049   2.295   3.375   3.198
 7870SOL     OW25050   2.303   2.593   3.478
 7870SOL    HW125051   2.363   2.638   3.419
 7870SOL    HW225052   2.355   2.522   3.517
 7871SOL     OW25053   3.470   2.625   3.552
 7871SOL    HW125054   3.384   2.667   3.550
 7871SOL    HW225055   3.523   2.675   3.490
 7872SOL     OW25056   2.857   1.997   3.605
 7872SOL    HW125057   2.914   2.074   3.597
 7872SOL    HW225058   2.915   1.923   3.587
 7873SOL     OW25059   2.430   2.754   2.893
 7873SOL    HW125060   2.485   2.832   2.898
 7873SOL    HW225061   2.396   2.742   2.982
 7874SOL     OW25062   3.200   2.728   2.845
 7874SOL    HW125063   3.109   2.703   2.837
 7874SOL    HW225064   3.249   2.646   2.847
 7875SOL     OW25065   3.058   2.386   2.119
 7875SOL    HW125066   3.069   2.308   2.174
 7875SOL    HW225067   3.019   2.451   2.178
 7876SOL     OW25068   2.141   2.066   3.108
 7876SOL    HW125069   2.110   2.102   3.191
 7876SOL    HW225070   2.132   1.972   3.117
 7877SOL     OW25071   1.938   3.183   3.122
 7877SOL    HW125072   1.936   3.117   3.191
 7877SOL    HW225073   2.022   3.227   3.133
 7878SOL     OW25074   2.576   2.485   2.897
 7878SOL    HW125075   2.658   2.463   2.853
 7878SOL    HW225076   2.565   2.579   2.883
 7879SOL     OW25077   3.593   2.835   3.721
 7879SOL    HW125078   3.542   2.758   3.694
 7879SOL    HW225079   3.553   2.863   3.803
 7880SOL     OW25080   2.168   1.920   2.489
 7880SOL    HW125081   2.148   2.011   2.510
 7880SOL    HW225082   2.180   1.878   2.574
 7881SOL     OW25083   3.477   2.234   2.227
 7881SOL    HW125084   3.513   2.172   2.291
 7881SOL    HW225085   3.450   2.309   2.280
 7882SOL     OW25086   2.889   2.617   2.819
 7882SOL    HW125087   2.877   2.633   2.913
 7882SOL    HW225088   2.864   2.526   2.807
 7883SOL     OW25089   2.736   3.408   3.504
 7883SOL    HW125090   2.774   3.463   3.436
 7883SOL    HW225091   2.810   3.357   3.538
 7884SOL     OW25092   2.209   2.796   3.653
 7884SOL    HW125093   2.270   2.825   3.722
 7884SOL    HW225094   2.256   2.726   3.607
 7885SOL     OW25095   3.381   2.126   1.988
 7885SOL    HW125096   3.325   2.054   2.018
 7885SOL    HW225097   3.415   2.165   2.069
 7886SOL     OW25098   3.142   2.689   1.883
 7886SOL    HW125099   3.188   2.605   1.888
 7886SOL    HW225100   3.173   2.728   1.802
 7887SOL     OW25101   2.920   3.198   2.713
 7887SOL    HW125102   2.934   3.127   2.650
 7887SOL    HW225103   2.976   3.269   2.680
 7888SOL     OW25104   2.175   2.678   2.809
 7888SOL    HW125105   2.267   2.703   2.822
 7888SOL    HW225106   2.172   2.585   2.832
 7889SOL     OW25107   2.182   2.403   2.857
 7889SOL    HW125108   2.148   2.314   2.855
 7889SOL    HW225109   2.261   2.400   2.804
 7890SOL     OW25110   2.999   2.233   3.551
 7890SOL    HW125111   2.951   2.284   3.616
 7890SOL    HW225112   3.086   2.273   3.550
 7891SOL     OW25113   3.030   2.060   3.336
 7891SOL    HW125114   3.015   2.121   3.409
 7891SOL    HW225115   3.071   2.114   3.269
 7892SOL     OW25116   1.859   3.183   2.058
 7892SOL    HW125117   1.772   3.198   2.022
 7892SOL    HW225118   1.858   3.093   2.089
 7893SOL     OW25119   1.947   3.647   2.793
 7893SOL    HW125120   1.926   3.562   2.754
 7893SOL    HW225121   2.041   3.658   2.776
 7894SOL     OW25122   2.352   3.436   2.764
 7894SOL    HW125123   2.422   3.496   2.791
 7894SOL    HW225124   2.395   3.373   2.706
 7895SOL     OW25125   2.823   2.639   3.084
 7895SOL    HW125126   2.892   2.622   3.149
 7895SOL    HW225127   2.743   2.608   3.126
 7896SOL     OW25128   1.913   2.426   2.977
 7896SOL    HW125129   1.936   2.406   2.886
 7896SOL    HW225130   1.996   2.416   3.025
 7897SOL     OW25131   2.019   2.392   3.616
 7897SOL    HW125132   2.091   2.333   3.592
 7897SOL    HW225133   2.029   2.467   3.558
 7898SOL     OW25134   3.241   2.772   3.523
 7898SOL    HW125135   3.242   2.865   3.544
 7898SOL    HW225136   3.247   2.769   3.427
 7899SOL     OW25137   2.681   2.431   2.238
 7899SOL    HW125138   2.691   2.356   2.180
 7899SOL    HW225139   2.606   2.480   2.202
 7900SOL     OW25140   3.498   2.454   3.026
 7900SOL    HW125141   3.487   2.404   3.107
 7900SOL    HW225142   3.587   2.435   2.998
 7901SOL     OW25143   2.071   3.378   3.591
 7901SOL    HW125144   2.090   3.444   3.657
 7901SOL    HW225145   2.097   3.295   3.631
 7902SOL     OW25146   2.579   2.310   3.106
 7902SOL    HW125147   2.520   2.238   3.085
 7902SOL    HW225148   2.568   2.372   3.034
 7903SOL     OW25149   2.809   3.575   3.293
 7903SOL    HW125150   2.817   3.511   3.223
 7903SOL    HW225151   2.899   3.598   3.315
 7904SOL     OW25152   2.306   2.364   2.052
 7904SOL    HW125153   2.374   2.428   2.070
 7904SOL    HW225154   2.226   2.415   2.042
 7905SOL     OW25155   1.974   2.985   3.316
 7905SOL    HW125156   1.987   2.944   3.402
 7905SOL    HW225157   2.005   2.919   3.254
 7906SOL     OW25158   3.172   2.891   3.068
 7906SOL    HW125159   3.213   2.842   2.996
 7906SOL    HW225160   3.105   2.944   3.025
 7907SOL     OW25161   3.180   2.727   2.159
 7907SOL    HW125162   3.114   2.685   2.213
 7907SOL    HW225163   3.155   2.704   2.069
 7908SOL     OW25164   3.064   3.580   2.946
 7908SOL    HW125165   3.141   3.637   2.957
 7908SOL    HW225166   3.096   3.493   2.970
 7909SOL     OW25167   1.929   3.159   2.847
 7909SOL    HW125168   1.920   3.161   2.942
 7909SOL    HW225169   1.884   3.079   2.820
 7910SOL     OW25170   2.516   3.568   3.513
 7910SOL    HW125171   2.498   3.587   3.605
 7910SOL    HW225172   2.598   3.519   3.514
 7911SOL     OW25173   3.595   2.023   2.374
 7911SOL    HW125174   3.662   2.007   2.307
 7911SOL    HW225175   3.576   1.936   2.410
 7912SOL     OW25176   3.240   3.434   2.333
 7912SOL    HW125177   3.309   3.472   2.280
 7912SOL    HW225178   3.200   3.509   2.378
 7913SOL     OW25179   2.015   3.659   3.696
 7913SOL    HW125180   1.965   3.596   3.749
 7913SOL    HW225181   2.068   3.707   3.760
 7914SOL     OW25182   3.137   2.790   2.520
 7914SOL    HW125183   3.210   2.732   2.541
 7914SOL    HW225184   3.177   2.862   2.472
 7915SOL     OW25185   2.690   3.121   3.319
 7915SOL    HW125186   2.730   3.093   3.401
 7915SOL    HW225187   2.617   3.176   3.345
 7916SOL     OW25188   2.526   3.504   2.012
 7916SOL    HW125189   2.554   3.511   1.921
 7916SOL    HW225190   2.476   3.422   2.016
 7917SOL     OW25191   3.707   2.027   2.823
 7917SOL    HW125192   3.730   1.938   2.798
 7917SOL    HW225193   3.619   2.040   2.788
 7918SOL     OW25194   2.119   2.171   2.582
 7918SOL    HW125195   2.034   2.208   2.562
 7918SOL    HW225196   2.122   2.167   2.678
 7919SOL     OW25197   3.068   3.451   1.898
 7919SOL    HW125198   3.064   3.362   1.933
 7919SOL    HW225199   2.994   3.456   1.837
 7920SOL     OW25200   2.683   2.864   3.231
 7920SOL    HW125201   2.742   2.859   3.156
 7920SOL    HW225202   2.680   2.957   3.252
 7921SOL     OW25203   2.777   2.772   2.150
 7921SOL    HW125204   2.838   2.805   2.084
 7921SOL    HW225205   2.828   2.707   2.199
 7922SOL     OW25206   3.343   3.509   1.909
 7922SOL    HW125207   3.252   3.487   1.891
 7922SOL    HW225208   3.385   3.510   1.823
 7923SOL     OW25209   2.196   3.149   3.378
 7923SOL    HW125210   2.227   3.201   3.304
 7923SOL    HW225211   2.131   3.090   3.339
 7924SOL     OW25212   3.482   3.113   3.128
 7924SOL    HW125213   3.573   3.125   3.155
 7924SOL    HW225214   3.438   3.194   3.154
 7925SOL     OW25215   2.925   2.970   2.565
 7925SOL    HW125216   2.857   2.919   2.609
 7925SOL    HW225217   2.995   2.906   2.547
 7926SOL     OW25218   2.889   2.106   2.822
 7926SOL    HW125219   2.889   2.058   2.739
 7926SOL    HW225220   2.885   2.038   2.889
 7927SOL     OW25221   2.461   3.338   2.329
 7927SOL    HW125222   2.524   3.289   2.276
 7927SOL    HW225223   2.397   3.370   2.267
 7928SOL     OW25224   3.584   2.254   3.229
 7928SOL    HW125225   3.655   2.318   3.236
 7928SOL    HW225226   3.619   2.185   3.174
 7929SOL     OW25227   2.118   3.207   2.137
 7929SOL    HW125228   2.025   3.202   2.115
 7929SOL    HW225229   2.120   3.244   2.226
 7930SOL     OW25230   1.960   2.871   3.564
 7930SOL    HW125231   1.891   2.864   3.630
 7930SOL    HW225232   2.042   2.861   3.613
 7931SOL     OW25233   2.530   2.054   3.308
 7931SOL    HW125234   2.624   2.035   3.308
 7931SOL    HW225235   2.502   2.034   3.397
 7932SOL     OW25236   1.921   2.199   1.918
 7932SOL    HW125237   1.853   2.173   1.856
 7932SOL    HW225238   1.960   2.277   1.880
 7933SOL     OW25239   3.286   2.721   3.254
 7933SOL    HW125240   3.237   2.781   3.197
 7933SOL    HW225241   3.376   2.725   3.222
 7934SOL     OW25242   1.923   2.017   2.149
 7934SOL    HW125243   1.912   2.090   2.087
 7934SOL    HW225244   2.011   1.984   2.132
 7935SOL     OW25245   3.046   3.186   1.993
 7935SOL    HW125246   2.973   3.124   1.998
 7935SOL    HW225247   3.076   3.196   2.083
 7936SOL     OW25248   2.483   2.695   3.298
 7936SOL    HW125249   2.541   2.770   3.283
 7936SOL    HW225250   2.542   2.620   3.305
 7937SOL     OW25251   2.574   2.427   3.562
 7937SOL    HW125252   2.622   2.488   3.619
 7937SOL    HW225253   2.594   2.340   3.598
 7938SOL     OW25254   3.301   3.058   3.480
 7938SOL    HW125255   3.287   3.056   3.575
 7938SOL    HW225256   3.397   3.056   3.470
 7939SOL     OW25257   2.246   3.567   3.453
 7939SOL    HW125258   2.233   3.625   3.528
 7939SOL    HW225259   2.337   3.537   3.462
 7940SOL     OW25260   3.525   2.729   3.115
 7940SOL    HW125261   3.522   2.646   3.067
 7940SOL    HW225262   3.510   2.796   3.047
 7941SOL     OW25263   3.077   2.181   2.316
 7941SOL    HW125264   3.138   2.107   2.312
 7941SOL    HW225265   3.104   2.231   2.392
 7942SOL     OW25266   2.438   2.596   2.536
 7942SOL    HW125267   2.485   2.679   2.525
 7942SOL    HW225268   2.379   2.592   2.461
 7943SOL     OW25269   3.629   2.212   3.495
 7943SOL    HW125270   3.598   2.236   3.408
 7943SOL    HW225271   3.554   2.167   3.535
 7944SOL     OW25272   3.605   2.781   3.375
 7944SOL    HW125273   3.593   2.873   3.397
 7944SOL    HW225274   3.589   2.777   3.280
 7945SOL     OW25275   2.672   3.240   1.902
 7945SOL    HW125276   2.680   3.249   1.997
 7945SOL    HW225277   2.731   3.306   1.866
 7946SOL     OW25278   2.530   3.639   2.794
 7946SOL    HW125279   2.528   3.734   2.784
 7946SOL    HW225280   2.623   3.617   2.793
 7947SOL     OW25281   2.733   2.830   2.712
 7947SOL    HW125282   2.787   2.761   2.749
 7947SOL    HW225283   2.695   2.874   2.789
 7948SOL     OW25284   2.932   2.852   1.944
 7948SOL    HW125285   2.915   2.900   1.863
 7948SOL    HW225286   3.008   2.796   1.924
 7949SOL     OW25287   2.093   3.143   3.734
 7949SOL    HW125288   2.009   3.100   3.748
 7949SOL    HW225289   2.119   3.173   3.822
 7950SOL     OW25290   1.971   3.078   2.526
 7950SOL    HW125291   1.999   3.040   2.609
 7950SOL    HW225292   2.029   3.040   2.461
 7951SOL     OW25293   2.497   3.271   3.439
 7951SOL    HW125294   2.451   3.236   3.515
 7951SOL    HW225295   2.567   3.326   3.476
 7952SOL     OW25296   3.677   2.041   3.094
 7952SOL    HW125297   3.675   1.946   3.105
 7952SOL    HW225298   3.690   2.054   3.000
 7953SOL     OW25299   2.272   2.306   2.387
 7953SOL    HW125300   2.318   2.241   2.333
 7953SOL    HW225301   2.238   2.255   2.461
 7954SOL     OW25302   2.181   2.406   3.147
 7954SOL    HW125303   2.228   2.351   3.209
 7954SOL    HW225304   2.218   2.384   3.062
 7955SOL     OW25305   2.697   3.429   2.535
 7955SOL    HW125306   2.667   3.489   2.466
 7955SOL    HW225307   2.622   3.372   2.550
 7956SOL     OW25308   3.289   2.096   2.986
 7956SOL    HW125309   3.321   2.024   3.040
 7956SOL    HW225310   3.238   2.150   3.046
 7957SOL     OW25311   2.875   1.883   2.991
 7957SOL    HW125312   2.814   1.818   2.956
 7957SOL    HW225313   2.961   1.840   2.986
 7958SOL     OW25314   2.646   3.192   2.185
 7958SOL    HW125315   2.626   3.100   2.200
 7958SOL    HW225316   2.725   3.208   2.236
 7959SOL     OW25317   2.469   3.431   3.135
 7959SOL    HW125318   2.474   3.517   3.175
 7959SOL    HW225319   2.559   3.408   3.114
 7960SOL     OW25320   3.229   1.896   2.044
 7960SOL    HW125321   3.269   1.826   1.993
 7960SOL    HW225322   3.139   1.866   2.059
 7961SOL     OW25323   3.149   2.324   2.537
 7961SOL    HW125324   3.101   2.407   2.542
 7961SOL    HW225325   3.151   2.293   2.627
 7962SOL     OW25326   3.443   2.054   2.754
 7962SOL    HW125327   3.389   2.082   2.828
 7962SOL    HW225328   3.443   2.129   2.695
 7963SOL     OW25329   1.901   2.925   2.164
 7963SOL    HW125330   1.994   2.916   2.146
 7963SOL    HW225331   1.872   2.836   2.186
 7964SOL     OW25332   2.757   3.526   2.198
 7964SOL    HW125333   2.681   3.513   2.142
 7964SOL    HW225334   2.733   3.598   2.256
 7965SOL     OW25335   2.073   2.500   3.868
 7965SOL    HW125336   1.992   2.485   3.917
 7965SOL    HW225337   2.053   2.471   3.779
 7966SOL     OW25338   2.086   2.144   4.718
 7966SOL    HW125339   2.113   2.114   4.805
 7966SOL    HW225340   1.996   2.113   4.709
 7967SOL     OW25341   1.860   2.254   4.364
 7967SOL    HW125342   1.780   2.277   4.411
 7967SOL    HW225343   1.836   2.178   4.312
 7968SOL     OW25344   2.416   3.159   4.902
 7968SOL    HW125345   2.335   3.185   4.858
 7968SOL    HW225346   2.451   3.240   4.939
 7969SOL     OW25347   3.433   3.365   4.454
 7969SOL    HW125348   3.386   3.388   4.535
 7969SOL    HW225349   3.367   3.372   4.385
 7970SOL     OW25350   2.994   2.564   4.413
 7970SOL    HW125351   3.047   2.641   4.396
 7970SOL    HW225352   2.954   2.581   4.499
 7971SOL     OW25353   3.661   2.433   3.944
 7971SOL    HW125354   3.622   2.429   3.857
 7971SOL    HW225355   3.594   2.398   4.003
 7972SOL     OW25356   2.580   2.988   4.761
 7972SOL    HW125357   2.521   3.031   4.823
 7972SOL    HW225358   2.630   3.059   4.722
 7973SOL     OW25359   2.737   2.630   5.540
 7973SOL    HW125360   2.759   2.693   5.608
 7973SOL    HW225361   2.757   2.675   5.458
 7974SOL     OW25362   2.544   2.848   4.374
 7974SOL    HW125363   2.616   2.845   4.437
 7974SOL    HW225364   2.481   2.909   4.412
 7975SOL     OW25365   2.569   3.006   5.541
 7975SOL    HW125366   2.614   3.083   5.574
 7975SOL    HW225367   2.489   3.040   5.501
 7976SOL     OW25368   2.196   3.286   4.785
 7976SOL    HW125369   2.125   3.249   4.734
 7976SOL    HW225370   2.246   3.339   4.722
 7977SOL     OW25371   2.320   2.241   5.185
 7977SOL    HW125372   2.400   2.193   5.203
 7977SOL    HW225373   2.251   2.188   5.224
 7978SOL     OW25374   3.464   2.305   4.480
 7978SOL    HW125375   3.391   2.337   4.427
 7978SOL    HW225376   3.473   2.370   4.549
 7979SOL     OW25377   2.086   3.585   4.185
 7979SOL    HW125378   2.106   3.654   4.248
 7979SOL    HW225379   2.168   3.573   4.136
 7980SOL     OW25380   2.991   3.217   5.441
 7980SOL    HW125381   3.045   3.202   5.519
 7980SOL    HW225382   2.945   3.135   5.427
 7981SOL     OW25383   2.062   3.308   4.244
 7981SOL    HW125384   2.070   3.402   4.256
 7981SOL    HW225385   2.033   3.275   4.329
 7982SOL     OW25386   2.115   2.953   4.601
 7982SOL    HW125387   2.128   2.869   4.646
 7982SOL    HW225388   2.070   3.008   4.665
 7983SOL     OW25389   2.424   3.686   5.117
 7983SOL    HW125390   2.364   3.653   5.185
 7983SOL    HW225391   2.470   3.758   5.160
 7984SOL     OW25392   2.426   2.863   3.870
 7984SOL    HW125393   2.485   2.895   3.803
 7984SOL    HW225394   2.469   2.884   3.953
 7985SOL     OW25395   3.450   1.994   5.190
 7985SOL    HW125396   3.491   2.074   5.157
 7985SOL    HW225397   3.432   2.012   5.282
 7986SOL     OW25398   1.970   2.532   4.283
 7986SOL    HW125399   1.954   2.441   4.309
 7986SOL    HW225400   1.966   2.581   4.365
 7987SOL     OW25401   3.710   3.698   4.151
 7987SOL    HW125402   3.669   3.653   4.225
 7987SOL    HW225403   3.800   3.713   4.178
 7988SOL     OW25404   1.882   3.459   3.830
 7988SOL    HW125405   1.881   3.366   3.853
 7988SOL    HW225406   1.871   3.505   3.913
 7989SOL     OW25407   3.567   2.762   4.293
 7989SOL    HW125408   3.597   2.791   4.379
 7989SOL    HW225409   3.573   2.839   4.237
 7990SOL     OW25410   2.004   2.615   5.302
 7990SOL    HW125411   2.098   2.634   5.303
 7990SOL    HW225412   1.962   2.696   5.331
 7991SOL     OW25413   2.460   3.263   4.439
 7991SOL    HW125414   2.433   3.174   4.460
 7991SOL    HW225415   2.445   3.272   4.345
 7992SOL     OW25416   3.081   3.020   5.162
 7992SOL    HW125417   3.131   2.988   5.087
 7992SOL    HW225418   3.147   3.040   5.229
 7993SOL     OW25419   2.682   1.861   4.240
 7993SOL    HW125420   2.725   1.942   4.214
 7993SOL    HW225421   2.589   1.884   4.243
 7994SOL     OW25422   2.048   2.822   5.002
 7994SOL    HW125423   2.137   2.789   4.995
 7994SOL    HW225424   1.998   2.769   4.940
 7995SOL     OW25425   3.407   2.877   3.932
 7995SOL    HW125426   3.362   2.816   3.991
 7995SOL    HW225427   3.460   2.930   3.990
 7996SOL     OW25428   2.209   2.112   5.538
 7996SOL    HW125429   2.258   2.186   5.576
 7996SOL    HW225430   2.119   2.125   5.567
 7997SOL     OW25431   3.323   3.275   4.706
 7997SOL    HW125432   3.246   3.284   4.762
 7997SOL    HW225433   3.314   3.188   4.668
 7998SOL     OW25434   3.539   3.603   4.335
 7998SOL    HW125435   3.493   3.563   4.261
 7998SOL    HW225436   3.511   3.552   4.411
 7999SOL     OW25437   2.460   2.570   3.999
 7999SOL    HW125438   2.489   2.657   3.970
 7999SOL    HW225439   2.396   2.587   4.067
 8000SOL     OW25440   3.147   2.228   4.661
 8000SOL    HW125441   3.058   2.196   4.671
 8000SOL    HW225442   3.198   2.175   4.723
 8001SOL     OW25443   3.444   3.557   4.079
 8001SOL    HW125444   3.530   3.590   4.054
 8001SOL    HW225445   3.398   3.543   3.996
 8002SOL     OW25446   2.658   2.467   5.172
 8002SOL    HW125447   2.621   2.449   5.259
 8002SOL    HW225448   2.611   2.407   5.114
 8003SOL     OW25449   3.258   2.329   5.410
 8003SOL    HW125450   3.248   2.374   5.494
 8003SOL    HW225451   3.353   2.324   5.397
 8004SOL     OW25452   2.804   2.752   5.303
 8004SOL    HW125453   2.870   2.692   5.267
 8004SOL    HW225454   2.771   2.800   5.227
 8005SOL     OW25455   2.856   2.269   4.961
 8005SOL    HW125456   2.780   2.312   5.001
 8005SOL    HW225457   2.835   2.266   4.867
 8006SOL     OW25458   2.907   2.562   4.147
 8006SOL    HW125459   2.934   2.563   4.239
 8006SOL    HW225460   2.825   2.512   4.147
 8007SOL     OW25461   1.944   2.695   4.502
 8007SOL    HW125462   2.028   2.687   4.547
 8007SOL    HW225463   1.900   2.768   4.545
 8008SOL     OW25464   1.974   3.725   5.314
 8008SOL    HW125465   1.987   3.710   5.408
 8008SOL    HW225466   1.890   3.684   5.295
 8009SOL     OW25467   2.753   2.218   3.922
 8009SOL    HW125468   2.809   2.278   3.872
 8009SOL    HW225469   2.712   2.163   3.856
 8010SOL     OW25470   3.539   2.427   5.552
 8010SOL    HW125471   3.520   2.505   5.500
 8010SOL    HW225472   3.591   2.371   5.494
 8011SOL     OW25473   3.280   2.980   4.248
 8011SOL    HW125474   3.368   3.017   4.255
 8011SOL    HW225475   3.226   3.053   4.216
 8012SOL     OW25476   2.408   2.030   4.628
 8012SOL    HW125477   2.411   2.058   4.720
 8012SOL    HW225478   2.416   2.112   4.579
 8013SOL     OW25479   2.856   3.284   4.188
 8013SOL    HW125480   2.839   3.375   4.165
 8013SOL    HW225481   2.886   3.287   4.279
 8014SOL     OW25482   2.219   3.682   4.602
 8014SOL    HW125483   2.270   3.602   4.608
 8014SOL    HW225484   2.283   3.752   4.617
 8015SOL     OW25485   3.619   2.861   4.554
 8015SOL    HW125486   3.632   2.947   4.514
 8015SOL    HW225487   3.596   2.881   4.646
 8016SOL     OW25488   2.172   2.825   3.981
 8016SOL    HW125489   2.259   2.841   3.944
 8016SOL    HW225490   2.159   2.731   3.972
 8017SOL     OW25491   3.352   2.607   4.440
 8017SOL    HW125492   3.349   2.582   4.532
 8017SOL    HW225493   3.427   2.666   4.433
 8018SOL     OW25494   2.331   3.122   5.466
 8018SOL    HW125495   2.306   3.129   5.374
 8018SOL    HW225496   2.249   3.127   5.514
 8019SOL     OW25497   2.886   3.611   3.953
 8019SOL    HW125498   2.952   3.552   3.989
 8019SOL    HW225499   2.937   3.683   3.916
 8020SOL     OW25500   2.057   2.135   5.241
 8020SOL    HW125501   2.007   2.217   5.238
 8020SOL    HW225502   2.069   2.119   5.334
 8021SOL     OW25503   2.326   3.598   4.035
 8021SOL    HW125504   2.372   3.652   4.100
 8021SOL    HW225505   2.395   3.568   3.976
 8022SOL     OW25506   3.267   1.965   4.176
 8022SOL    HW125507   3.263   1.947   4.082
 8022SOL    HW225508   3.358   1.992   4.191
 8023SOL     OW25509   2.117   3.648   4.962
 8023SOL    HW125510   2.178   3.607   5.024
 8023SOL    HW225511   2.149   3.622   4.876
 8024SOL     OW25512   2.788   3.543   4.651
 8024SOL    HW125513   2.872   3.553   4.696
 8024SOL    HW225514   2.809   3.495   4.571
 8025SOL     OW25515   2.249   2.566   4.185
 8025SOL    HW125516   2.264   2.472   4.200
 8025SOL    HW225517   2.159   2.581   4.212
 8026SOL     OW25518   3.398   2.074   5.448
 8026SOL    HW125519   3.413   2.083   5.543
 8026SOL    HW225520   3.311   2.111   5.434
 8027SOL     OW25521   2.487   1.953   3.872
 8027SOL    HW125522   2.572   1.910   3.871
 8027SOL    HW225523   2.460   1.956   3.780
 8028SOL     OW25524   2.625   2.110   5.488
 8028SOL    HW125525   2.707   2.063   5.476
 8028SOL    HW225526   2.635   2.157   5.570
 8029SOL     OW25527   2.726   3.368   4.934
 8029SOL    HW125528   2.735   3.375   4.839
 8029SOL    HW225529   2.803   3.318   4.961
 8030SOL     OW25530   3.198   2.446   5.155
 8030SOL    HW125531   3.232   2.428   5.243
 8030SOL    HW225532   3.233   2.532   5.132
 8031SOL     OW25533   2.683   3.220   4.658
 8031SOL    HW125534   2.776   3.213   4.634
 8031SOL    HW225535   2.645   3.276   4.591
 8032SOL     OW25536   2.790   2.359   4.629
 8032SOL    HW125537   2.760   2.354   4.538
 8032SOL    HW225538   2.827   2.273   4.646
 8033SOL     OW25539   2.413   1.923   4.220
 8033SOL    HW125540   2.335   1.924   4.276
 8033SOL    HW225541   2.407   2.004   4.169
 8034SOL     OW25542   3.227   2.983   3.742
 8034SOL    HW125543   3.286   2.946   3.807
 8034SOL    HW225544   3.170   3.041   3.793
 8035SOL     OW25545   2.165   1.902   3.906
 8035SOL    HW125546   2.234   1.961   3.876
 8035SOL    HW225547   2.211   1.833   3.954
 8036SOL     OW25548   2.807   2.102   4.174
 8036SOL    HW125549   2.783   2.142   4.091
 8036SOL    HW225550   2.900   2.122   4.184
 8037SOL     OW25551   2.946   2.556   5.176
 8037SOL    HW125552   2.885   2.484   5.189
 8037SOL    HW225553   3.032   2.514   5.173
 8038SOL     OW25554   3.050   3.416   4.483
 8038SOL    HW125555   3.097   3.474   4.424
 8038SOL    HW225556   3.066   3.452   4.570
 8039SOL     OW25557   2.332   3.013   4.445
 8039SOL    HW125558   2.270   2.996   4.517
 8039SOL    HW225559   2.281   2.998   4.366
 8040SOL     OW25560   3.118   3.638   4.302
 8040SOL    HW125561   3.162   3.712   4.262
 8040SOL    HW225562   3.050   3.678   4.357
 8041SOL     OW25563   2.894   2.391   3.751
 8041SOL    HW125564   2.850   2.475   3.736
 8041SOL    HW225565   2.955   2.409   3.823
 8042SOL     OW25566   1.949   2.416   5.122
 8042SOL    HW125567   2.041   2.415   5.093
 8042SOL    HW225568   1.944   2.489   5.182
 8043SOL     OW25569   2.410   2.083   4.899
 8043SOL    HW125570   2.459   2.037   4.967
 8043SOL    HW225571   2.320   2.084   4.930
 8044SOL     OW25572   2.719   2.304   4.367
 8044SOL    HW125573   2.683   2.368   4.304
 8044SOL    HW225574   2.749   2.231   4.312
 8045SOL     OW25575   2.892   1.911   4.467
 8045SOL    HW125576   2.828   1.918   4.396
 8045SOL    HW225577   2.859   1.840   4.523
 8046SOL     OW25578   3.328   3.022   4.599
 8046SOL    HW125579   3.266   2.973   4.545
 8046SOL    HW225580   3.397   3.048   4.539
 8047SOL     OW25581   3.320   2.465   4.685
 8047SOL    HW125582   3.261   2.390   4.693
 8047SOL    HW225583   3.379   2.457   4.759
 8048SOL     OW25584   3.819   2.650   4.017
 8048SOL    HW125585   3.793   2.693   4.099
 8048SOL    HW225586   3.752   2.583   4.002
 8049SOL     OW25587   2.343   3.287   3.850
 8049SOL    HW125588   2.288   3.265   3.925
 8049SOL    HW225589   2.377   3.203   3.819
 8050SOL     OW25590   3.524   3.107   4.432
 8050SOL    HW125591   3.600   3.103   4.375
 8050SOL    HW225592   3.497   3.198   4.431
 8051SOL     OW25593   3.252   2.439   3.801
 8051SOL    HW125594   3.188   2.417   3.870
 8051SOL    HW225595   3.334   2.452   3.848
 8052SOL     OW25596   2.380   2.133   4.047
 8052SOL    HW125597   2.428   2.079   3.985
 8052SOL    HW225598   2.357   2.212   3.999
 8053SOL     OW25599   2.911   3.191   5.044
 8053SOL    HW125600   2.834   3.174   5.098
 8053SOL    HW225601   2.983   3.148   5.090
 8054SOL     OW25602   2.938   3.027   4.815
 8054SOL    HW125603   2.929   3.089   4.888
 8054SOL    HW225604   2.950   3.083   4.738
 8055SOL     OW25605   3.503   2.960   4.808
 8055SOL    HW125606   3.531   3.042   4.848
 8055SOL    HW225607   3.431   2.985   4.750
 8056SOL     OW25608   2.788   1.945   5.116
 8056SOL    HW125609   2.807   1.938   5.023
 8056SOL    HW225610   2.864   1.991   5.152
 8057SOL     OW25611   2.841   2.986   5.448
 8057SOL    HW125612   2.749   2.996   5.471
 8057SOL    HW225613   2.844   2.909   5.391
 8058SOL     OW25614   2.566   2.908   4.103
 8058SOL    HW125615   2.558   2.893   4.197
 8058SOL    HW225616   2.641   2.856   4.076
 8059SOL     OW25617   2.283   2.683   4.984
 8059SOL    HW125618   2.357   2.695   5.044
 8059SOL    HW225619   2.253   2.594   5.001
 8060SOL     OW25620   3.122   2.225   5.013
 8060SOL    HW125621   3.156   2.304   5.054
 8060SOL    HW225622   3.032   2.247   4.990
 8061SOL     OW25623   1.954   3.438   5.086
 8061SOL    HW125624   1.951   3.524   5.043
 8061SOL    HW225625   2.047   3.414   5.085
 8062SOL     OW25626   2.179   2.988   4.214
 8062SOL    HW125627   2.218   3.063   4.170
 8062SOL    HW225628   2.184   2.917   4.150
 8063SOL     OW25629   2.401   2.384   4.577
 8063SOL    HW125630   2.414   2.443   4.502
 8063SOL    HW225631   2.466   2.412   4.641
 8064SOL     OW25632   3.122   3.180   4.154
 8064SOL    HW125633   3.181   3.254   4.172
 8064SOL    HW225634   3.035   3.219   4.149
 8065SOL     OW25635   3.115   3.285   4.882
 8065SOL    HW125636   3.185   3.270   4.946
 8065SOL    HW225637   3.035   3.269   4.931
 8066SOL     OW25638   3.459   2.504   4.201
 8066SOL    HW125639   3.393   2.525   4.267
 8066SOL    HW225640   3.515   2.581   4.197
 8067SOL     OW25641   2.211   3.369   5.042
 8067SOL    HW125642   2.201   3.337   4.952
 8067SOL    HW225643   2.304   3.392   5.049
 8068SOL     OW25644   2.305   2.593   5.334
 8068SOL    HW125645   2.354   2.645   5.270
 8068SOL    HW225646   2.369   2.532   5.370
 8069SOL     OW25647   3.468   2.628   5.387
 8069SOL    HW125648   3.382   2.670   5.380
 8069SOL    HW225649   3.526   2.685   5.336
 8070SOL     OW25650   2.868   1.992   5.481
 8070SOL    HW125651   2.919   2.072   5.465
 8070SOL    HW225652   2.922   1.921   5.447
 8071SOL     OW25653   2.354   1.886   5.473
 8071SOL    HW125654   2.302   1.840   5.407
 8071SOL    HW225655   2.307   1.968   5.488
 8072SOL     OW25656   2.438   2.745   4.753
 8072SOL    HW125657   2.487   2.827   4.750
 8072SOL    HW225658   2.393   2.747   4.838
 8073SOL     OW25659   3.203   2.713   4.723
 8073SOL    HW125660   3.112   2.694   4.701
 8073SOL    HW225661   3.246   2.628   4.719
 8074SOL     OW25662   3.052   2.387   3.983
 8074SOL    HW125663   3.061   2.313   4.043
 8074SOL    HW225664   3.023   2.459   4.039
 8075SOL     OW25665   2.144   2.058   4.977
 8075SOL    HW125666   2.114   2.089   5.063
 8075SOL    HW225667   2.129   1.963   4.980
 8076SOL     OW25668   1.914   3.181   4.993
 8076SOL    HW125669   1.941   3.123   5.064
 8076SOL    HW225670   1.922   3.269   5.029
 8077SOL     OW25671   2.566   2.490   4.765
 8077SOL    HW125672   2.654   2.485   4.727
 8077SOL    HW225673   2.543   2.583   4.757
 8078SOL     OW25674   3.587   2.812   5.601
 8078SOL    HW125675   3.529   2.780   5.532
 8078SOL    HW225676   3.529   2.831   5.674
 8079SOL     OW25677   2.169   1.916   4.353
 8079SOL    HW125678   2.147   2.008   4.370
 8079SOL    HW225679   2.179   1.878   4.440
 8080SOL     OW25680   3.467   2.255   4.086
 8080SOL    HW125681   3.496   2.196   4.155
 8080SOL    HW225682   3.452   2.339   4.130
 8081SOL     OW25683   2.895   2.610   4.675
 8081SOL    HW125684   2.885   2.629   4.768
 8081SOL    HW225685   2.867   2.519   4.665
 8082SOL     OW25686   2.828   3.439   5.409
 8082SOL    HW125687   2.818   3.466   5.318
 8082SOL    HW225688   2.880   3.358   5.404
 8083SOL     OW25689   3.800   3.476   5.288
 8083SOL    HW125690   3.735   3.439   5.229
 8083SOL    HW225691   3.856   3.403   5.311
 8084SOL     OW25692   2.212   2.770   5.536
 8084SOL    HW125693   2.284   2.805   5.588
 8084SOL    HW225694   2.255   2.713   5.471
 8085SOL     OW25695   3.408   2.115   3.852
 8085SOL    HW125696   3.336   2.060   3.883
 8085SOL    HW225697   3.429   2.172   3.927
 8086SOL     OW25698   3.118   2.674   3.746
 8086SOL    HW125699   3.168   2.595   3.766
 8086SOL    HW225700   3.162   2.713   3.671
 8087SOL     OW25701   2.937   3.184   4.575
 8087SOL    HW125702   2.946   3.121   4.505
 8087SOL    HW225703   2.986   3.261   4.545
 8088SOL     OW25704   2.174   2.677   4.665
 8088SOL    HW125705   2.265   2.702   4.673
 8088SOL    HW225706   2.171   2.587   4.696
 8089SOL     OW25707   2.181   2.396   4.732
 8089SOL    HW125708   2.148   2.307   4.724
 8089SOL    HW225709   2.259   2.399   4.677
 8090SOL     OW25710   3.000   2.230   5.423
 8090SOL    HW125711   2.954   2.291   5.480
 8090SOL    HW225712   3.088   2.267   5.414
 8091SOL     OW25713   3.026   2.053   5.210
 8091SOL    HW125714   3.014   2.120   5.277
 8091SOL    HW225715   3.070   2.098   5.138
 8092SOL     OW25716   1.854   3.181   3.903
 8092SOL    HW125717   1.769   3.190   3.861
 8092SOL    HW225718   1.851   3.096   3.946
 8093SOL     OW25719   1.948   3.644   4.653
 8093SOL    HW125720   1.927   3.562   4.610
 8093SOL    HW225721   2.042   3.656   4.636
 8094SOL     OW25722   2.356   3.441   4.624
 8094SOL    HW125723   2.426   3.501   4.650
 8094SOL    HW225724   2.398   3.380   4.563
 8095SOL     OW25725   2.831   2.633   4.937
 8095SOL    HW125726   2.894   2.615   5.007
 8095SOL    HW225727   2.756   2.672   4.982
 8096SOL     OW25728   1.907   2.414   4.843
 8096SOL    HW125729   1.989   2.418   4.795
 8096SOL    HW225730   1.933   2.416   4.935
 8097SOL     OW25731   2.059   2.386   5.437
 8097SOL    HW125732   2.152   2.393   5.413
 8097SOL    HW225733   2.019   2.463   5.396
 8098SOL     OW25734   3.226   2.752   5.361
 8098SOL    HW125735   3.241   2.846   5.366
 8098SOL    HW225736   3.224   2.733   5.267
 8099SOL     OW25737   2.674   2.420   4.106
 8099SOL    HW125738   2.688   2.351   4.041
 8099SOL    HW225739   2.602   2.472   4.070
 8100SOL     OW25740   3.496   2.431   4.884
 8100SOL    HW125741   3.493   2.422   4.979
 8100SOL    HW225742   3.588   2.418   4.861
 8101SOL     OW25743   2.089   3.407   5.449
 8101SOL    HW125744   2.077   3.468   5.522
 8101SOL    HW225745   2.109   3.323   5.490
 8102SOL     OW25746   2.557   2.314   4.971
 8102SOL    HW125747   2.504   2.241   4.937
 8102SOL    HW225748   2.556   2.379   4.901
 8103SOL     OW25749   2.786   3.548   5.149
 8103SOL    HW125750   2.763   3.499   5.070
 8103SOL    HW225751   2.843   3.618   5.119
 8104SOL     OW25752   2.312   2.357   3.906
 8104SOL    HW125753   2.377   2.423   3.929
 8104SOL    HW225754   2.230   2.404   3.901
 8105SOL     OW25755   1.988   3.002   5.195
 8105SOL    HW125756   1.995   2.955   5.278
 8105SOL    HW225757   2.011   2.937   5.129
 8106SOL     OW25758   3.165   2.891   4.929
 8106SOL    HW125759   3.202   2.843   4.855
 8106SOL    HW225760   3.099   2.948   4.890
 8107SOL     OW25761   3.205   2.688   4.023
 8107SOL    HW125762   3.157   2.724   4.098
 8107SOL    HW225763   3.150   2.708   3.948
 8108SOL     OW25764   3.582   3.589   4.812
 8108SOL    HW125765   3.658   3.619   4.763
 8108SOL    HW225766   3.594   3.495   4.821
 8109SOL     OW25767   3.057   3.513   4.735
 8109SOL    HW125768   3.097   3.593   4.766
 8109SOL    HW225769   3.093   3.444   4.791
 8110SOL     OW25770   1.953   3.128   4.732
 8110SOL    HW125771   1.942   3.150   4.825
 8110SOL    HW225772   1.875   3.077   4.711
 8111SOL     OW25773   2.558   3.531   5.470
 8111SOL    HW125774   2.520   3.615   5.446
 8111SOL    HW225775   2.648   3.534   5.438
 8112SOL     OW25776   3.569   2.016   4.226
 8112SOL    HW125777   3.642   2.007   4.165
 8112SOL    HW225778   3.562   1.931   4.269
 8113SOL     OW25779   3.258   3.411   4.233
 8113SOL    HW125780   3.330   3.436   4.176
 8113SOL    HW225781   3.208   3.491   4.247
 8114SOL     OW25782   2.005   3.669   5.574
 8114SOL    HW125783   1.959   3.598   5.619
 8114SOL    HW225784   2.060   3.709   5.641
 8115SOL     OW25785   3.148   2.781   4.368
 8115SOL    HW125786   3.221   2.726   4.396
 8115SOL    HW225787   3.189   2.855   4.324
 8116SOL     OW25788   2.661   3.137   5.149
 8116SOL    HW125789   2.627   3.176   5.230
 8116SOL    HW225790   2.624   3.191   5.079
 8117SOL     OW25791   2.501   3.506   3.825
 8117SOL    HW125792   2.590   3.473   3.837
 8117SOL    HW225793   2.446   3.428   3.834
 8118SOL     OW25794   3.633   3.648   5.072
 8118SOL    HW125795   3.589   3.621   4.991
 8118SOL    HW225796   3.570   3.703   5.117
 8119SOL     OW25797   3.701   2.030   4.681
 8119SOL    HW125798   3.727   1.940   4.659
 8119SOL    HW225799   3.612   2.038   4.647
 8120SOL     OW25800   2.116   2.168   4.439
 8120SOL    HW125801   2.032   2.210   4.419
 8120SOL    HW225802   2.120   2.167   4.534
 8121SOL     OW25803   2.700   2.876   5.077
 8121SOL    HW125804   2.757   2.891   5.002
 8121SOL    HW225805   2.681   2.963   5.111
 8122SOL     OW25806   2.763   2.754   4.000
 8122SOL    HW125807   2.823   2.795   3.937
 8122SOL    HW225808   2.819   2.698   4.054
 8123SOL     OW25809   2.220   3.158   5.225
 8123SOL    HW125810   2.223   3.231   5.163
 8123SOL    HW225811   2.139   3.111   5.203
 8124SOL     OW25812   2.920   2.960   4.409
 8124SOL    HW125813   2.858   2.913   4.465
 8124SOL    HW225814   2.993   2.900   4.399
 8125SOL     OW25815   2.894   2.104   4.681
 8125SOL    HW125816   2.899   2.051   4.602
 8125SOL    HW225817   2.885   2.041   4.752
 8126SOL     OW25818   2.447   3.314   4.170
 8126SOL    HW125819   2.518   3.270   4.122
 8126SOL    HW225820   2.465   3.407   4.159
 8127SOL     OW25821   3.592   2.239   5.127
 8127SOL    HW125822   3.658   2.308   5.121
 8127SOL    HW225823   3.615   2.179   5.056
 8128SOL     OW25824   2.113   3.215   3.998
 8128SOL    HW125825   2.019   3.209   3.980
 8128SOL    HW225826   2.119   3.251   4.087
 8129SOL     OW25827   1.971   2.863   5.432
 8129SOL    HW125828   1.898   2.857   5.494
 8129SOL    HW225829   2.049   2.844   5.484
 8130SOL     OW25830   2.540   2.043   5.225
 8130SOL    HW125831   2.627   2.030   5.188
 8130SOL    HW225832   2.557   2.069   5.316
 8131SOL     OW25833   1.921   2.190   3.785
 8131SOL    HW125834   1.847   2.161   3.732
 8131SOL    HW225835   1.952   2.270   3.742
 8132SOL     OW25836   3.278   2.701   5.096
 8132SOL    HW125837   3.228   2.768   5.049
 8132SOL    HW225838   3.369   2.718   5.072
 8133SOL     OW25839   1.925   2.013   4.013
 8133SOL    HW125840   1.914   2.088   3.956
 8133SOL    HW225841   2.014   1.982   3.996
 8134SOL     OW25842   3.009   3.154   3.846
 8134SOL    HW125843   2.970   3.115   3.924
 8134SOL    HW225844   3.044   3.238   3.876
 8135SOL     OW25845   2.496   2.694   5.151
 8135SOL    HW125846   2.549   2.773   5.137
 8135SOL    HW225847   2.560   2.624   5.162
 8136SOL     OW25848   3.387   3.623   4.612
 8136SOL    HW125849   3.394   3.716   4.594
 8136SOL    HW225850   3.437   3.611   4.694
 8137SOL     OW25851   2.561   2.445   5.427
 8137SOL    HW125852   2.611   2.515   5.471
 8137SOL    HW225853   2.589   2.365   5.471
 8138SOL     OW25854   3.286   3.013   5.347
 8138SOL    HW125855   3.276   3.022   5.442
 8138SOL    HW225856   3.327   3.095   5.319
 8139SOL     OW25857   2.222   3.601   5.287
 8139SOL    HW125858   2.136   3.644   5.285
 8139SOL    HW225859   2.206   3.517   5.329
 8140SOL     OW25860   3.524   2.751   4.982
 8140SOL    HW125861   3.549   2.684   4.919
 8140SOL    HW225862   3.517   2.831   4.930
 8141SOL     OW25863   3.075   2.178   4.181
 8141SOL    HW125864   3.140   2.107   4.181
 8141SOL    HW225865   3.099   2.232   4.256
 8142SOL     OW25866   2.442   2.586   4.392
 8142SOL    HW125867   2.486   2.671   4.392
 8142SOL    HW225868   2.379   2.592   4.320
 8143SOL     OW25869   3.636   2.211   5.399
 8143SOL    HW125870   3.629   2.225   5.305
 8143SOL    HW225871   3.561   2.155   5.420
 8144SOL     OW25872   3.614   2.809   5.246
 8144SOL    HW125873   3.678   2.880   5.252
 8144SOL    HW225874   3.592   2.805   5.153
 8145SOL     OW25875   2.676   3.242   3.782
 8145SOL    HW125876   2.667   3.224   3.876
 8145SOL    HW225877   2.764   3.280   3.774
 8146SOL     OW25878   2.534   3.641   4.667
 8146SOL    HW125879   2.544   3.736   4.658
 8146SOL    HW225880   2.624   3.608   4.670
 8147SOL     OW25881   2.736   2.827   4.575
 8147SOL    HW125882   2.793   2.762   4.616
 8147SOL    HW225883   2.703   2.880   4.648
 8148SOL     OW25884   2.918   2.848   3.796
 8148SOL    HW125885   2.956   2.934   3.781
 8148SOL    HW225886   2.988   2.787   3.775
 8149SOL     OW25887   3.689   3.404   4.583
 8149SOL    HW125888   3.622   3.388   4.516
 8149SOL    HW225889   3.651   3.369   4.664
 8150SOL     OW25890   2.093   3.163   5.588
 8150SOL    HW125891   2.005   3.128   5.586
 8150SOL    HW225892   2.110   3.180   5.681
 8151SOL     OW25893   1.961   3.062   4.386
 8151SOL    HW125894   1.997   3.029   4.468
 8151SOL    HW225895   2.027   3.041   4.320
 8152SOL     OW25896   2.531   3.277   5.343
 8152SOL    HW125897   2.465   3.233   5.397
 8152SOL    HW225898   2.547   3.360   5.387
 8153SOL     OW25899   3.647   2.045   4.949
 8153SOL    HW125900   3.687   1.961   4.970
 8153SOL    HW225901   3.671   2.061   4.858
 8154SOL     OW25902   2.267   2.304   4.242
 8154SOL    HW125903   2.314   2.238   4.190
 8154SOL    HW225904   2.233   2.256   4.317
 8155SOL     OW25905   3.567   3.308   4.823
 8155SOL    HW125906   3.477   3.304   4.792
 8155SOL    HW225907   3.560   3.319   4.917
 8156SOL     OW25908   2.198   2.420   5.017
 8156SOL    HW125909   2.254   2.363   5.070
 8156SOL    HW225910   2.220   2.398   4.927
 8157SOL     OW25911   2.689   3.419   4.401
 8157SOL    HW125912   2.686   3.458   4.313
 8157SOL    HW225913   2.607   3.371   4.409
 8158SOL     OW25914   3.299   2.093   4.850
 8158SOL    HW125915   3.367   2.056   4.906
 8158SOL    HW225916   3.240   2.138   4.911
 8159SOL     OW25917   2.871   1.875   4.850
 8159SOL    HW125918   2.822   1.814   4.794
 8159SOL    HW225919   2.960   1.840   4.850
 8160SOL     OW25920   2.653   3.174   4.043
 8160SOL    HW125921   2.635   3.086   4.075
 8160SOL    HW225922   2.726   3.204   4.096
 8161SOL     OW25923   2.473   3.429   5.007
 8161SOL    HW125924   2.474   3.518   5.043
 8161SOL    HW225925   2.564   3.413   4.981
 8162SOL     OW25926   3.218   1.917   3.905
 8162SOL    HW125927   3.241   1.855   3.836
 8162SOL    HW225928   3.130   1.891   3.932
 8163SOL     OW25929   3.146   2.323   4.399
 8163SOL    HW125930   3.102   2.408   4.404
 8163SOL    HW225931   3.151   2.293   4.490
 8164SOL     OW25932   3.437   2.053   4.610
 8164SOL    HW125933   3.387   2.079   4.687
 8164SOL    HW225934   3.440   2.131   4.555
 8165SOL     OW25935   1.900   2.927   4.014
 8165SOL    HW125936   1.995   2.926   4.011
 8165SOL    HW225937   1.875   2.837   4.037
 8166SOL     OW25938   2.683   3.515   4.112
 8166SOL    HW125939   2.745   3.535   4.041
 8166SOL    HW225940   2.683   3.594   4.166
 8167SOL     OW25941   2.077   2.450   5.721
 8167SOL    HW125942   1.996   2.467   5.768
 8167SOL    HW225943   2.060   2.479   5.631
 8168SOL     OW25944   2.090   2.135   6.570
 8168SOL    HW125945   2.115   2.111   6.659
 8168SOL    HW225946   1.996   2.114   6.565
 8169SOL     OW25947   1.859   2.239   6.227
 8169SOL    HW125948   1.783   2.275   6.273
 8169SOL    HW225949   1.824   2.165   6.177
 8170SOL     OW25950   2.421   3.145   6.764
 8170SOL    HW125951   2.339   3.168   6.721
 8170SOL    HW225952   2.453   3.227   6.801
 8171SOL     OW25953   2.990   2.560   6.276
 8171SOL    HW125954   3.041   2.640   6.263
 8171SOL    HW225955   2.948   2.572   6.361
 8172SOL     OW25956   3.657   2.430   5.798
 8172SOL    HW125957   3.616   2.439   5.711
 8172SOL    HW225958   3.598   2.370   5.845
 8173SOL     OW25959   2.604   2.985   6.639
 8173SOL    HW125960   2.535   3.026   6.691
 8173SOL    HW225961   2.653   3.058   6.602
 8174SOL     OW25962   2.742   2.628   7.404
 8174SOL    HW125963   2.778   2.692   7.466
 8174SOL    HW225964   2.754   2.668   7.318
 8175SOL     OW25965   2.541   2.847   6.235
 8175SOL    HW125966   2.610   2.844   6.301
 8175SOL    HW225967   2.473   2.903   6.273
 8176SOL     OW25968   2.563   3.013   7.412
 8176SOL    HW125969   2.617   3.086   7.443
 8176SOL    HW225970   2.487   3.055   7.370
 8177SOL     OW25971   2.196   3.276   6.652
 8177SOL    HW125972   2.159   3.202   6.604
 8177SOL    HW225973   2.240   3.328   6.585
 8178SOL     OW25974   2.281   2.266   7.158
 8178SOL    HW125975   2.366   2.273   7.114
 8178SOL    HW225976   2.229   2.209   7.101
 8179SOL     OW25977   3.467   2.308   6.335
 8179SOL    HW125978   3.414   2.344   6.264
 8179SOL    HW225979   3.468   2.376   6.402
 8180SOL     OW25980   2.081   3.582   6.053
 8180SOL    HW125981   2.102   3.652   6.114
 8180SOL    HW225982   2.162   3.568   6.003
 8181SOL     OW25983   2.977   3.198   7.294
 8181SOL    HW125984   3.057   3.191   7.346
 8181SOL    HW225985   2.949   3.107   7.283
 8182SOL     OW25986   2.087   3.305   6.106
 8182SOL    HW125987   2.075   3.399   6.117
 8182SOL    HW225988   2.044   3.266   6.183
 8183SOL     OW25989   2.428   3.674   6.978
 8183SOL    HW125990   2.359   3.653   7.041
 8183SOL    HW225991   2.473   3.750   7.016
 8184SOL     OW25992   2.434   2.853   5.730
 8184SOL    HW125993   2.486   2.894   5.661
 8184SOL    HW225994   2.476   2.881   5.811
 8185SOL     OW25995   3.443   1.994   7.050
 8185SOL    HW125996   3.491   2.069   7.014
 8185SOL    HW225997   3.435   2.013   7.143
 8186SOL     OW25998   1.975   2.531   6.144
 8186SOL    HW125999   1.956   2.442   6.174
 8186SOL    HW226000   1.963   2.585   6.222
 8187SOL     OW26001   1.902   3.452   5.698
 8187SOL    HW126002   1.887   3.360   5.719
 8187SOL    HW226003   1.878   3.498   5.779
 8188SOL     OW26004   3.542   2.762   6.202
 8188SOL    HW126005   3.637   2.754   6.206
 8188SOL    HW226006   3.526   2.836   6.145
 8189SOL     OW26007   3.498   2.989   6.039
 8189SOL    HW126008   3.587   2.975   6.007
 8189SOL    HW226009   3.505   3.059   6.104
 8190SOL     OW26010   1.999   2.606   7.171
 8190SOL    HW126011   2.089   2.639   7.164
 8190SOL    HW226012   1.944   2.683   7.155
 8191SOL     OW26013   2.481   3.255   6.317
 8191SOL    HW126014   2.437   3.170   6.328
 8191SOL    HW226015   2.464   3.279   6.226
 8192SOL     OW26016   3.121   3.021   7.058
 8192SOL    HW126017   3.147   3.029   6.966
 8192SOL    HW226018   3.194   3.059   7.107
 8193SOL     OW26019   2.679   1.848   6.097
 8193SOL    HW126020   2.725   1.928   6.072
 8193SOL    HW226021   2.587   1.874   6.103
 8194SOL     OW26022   2.042   2.841   6.852
 8194SOL    HW126023   2.118   2.783   6.852
 8194SOL    HW226024   2.038   2.876   6.763
 8195SOL     OW26025   3.397   2.863   5.805
 8195SOL    HW126026   3.338   2.798   5.843
 8195SOL    HW226027   3.434   2.909   5.880
 8196SOL     OW26028   2.975   3.675   7.184
 8196SOL    HW126029   3.025   3.744   7.140
 8196SOL    HW226030   3.023   3.595   7.163
 8197SOL     OW26031   2.202   2.097   7.423
 8197SOL    HW126032   2.249   2.177   7.401
 8197SOL    HW226033   2.113   2.125   7.443
 8198SOL     OW26034   2.456   2.564   5.858
 8198SOL    HW126035   2.476   2.651   5.823
 8198SOL    HW226036   2.392   2.580   5.927
 8199SOL     OW26037   3.153   2.234   6.539
 8199SOL    HW126038   3.063   2.202   6.533
 8199SOL    HW226039   3.200   2.166   6.586
 8200SOL     OW26040   2.691   2.408   7.056
 8200SOL    HW126041   2.634   2.431   7.130
 8200SOL    HW226042   2.647   2.446   6.980
 8201SOL     OW26043   3.244   2.309   7.269
 8201SOL    HW126044   3.245   2.367   7.345
 8201SOL    HW226045   3.336   2.289   7.253
 8202SOL     OW26046   2.803   2.740   7.159
 8202SOL    HW126047   2.888   2.701   7.139
 8202SOL    HW226048   2.776   2.782   7.078
 8203SOL     OW26049   2.845   2.240   6.898
 8203SOL    HW126050   2.780   2.297   6.940
 8203SOL    HW226051   2.833   2.256   6.805
 8204SOL     OW26052   2.908   2.550   6.011
 8204SOL    HW126053   2.932   2.555   6.104
 8204SOL    HW226054   2.825   2.502   6.010
 8205SOL     OW26055   1.938   2.675   6.369
 8205SOL    HW126056   2.018   2.670   6.421
 8205SOL    HW226057   1.898   2.758   6.395
 8206SOL     OW26058   1.968   3.738   7.173
 8206SOL    HW126059   1.975   3.715   7.265
 8206SOL    HW226060   1.899   3.682   7.138
 8207SOL     OW26061   2.744   2.199   5.728
 8207SOL    HW126062   2.789   2.275   5.690
 8207SOL    HW226063   2.814   2.136   5.744
 8208SOL     OW26064   3.551   2.463   7.435
 8208SOL    HW126065   3.538   2.558   7.430
 8208SOL    HW226066   3.574   2.437   7.346
 8209SOL     OW26067   3.227   2.988   6.099
 8209SOL    HW126068   3.319   2.995   6.072
 8209SOL    HW226069   3.186   3.067   6.063
 8210SOL     OW26070   2.412   2.030   6.479
 8210SOL    HW126071   2.414   2.049   6.573
 8210SOL    HW226072   2.426   2.115   6.437
 8211SOL     OW26073   2.855   3.295   6.056
 8211SOL    HW126074   2.826   3.373   6.008
 8211SOL    HW226075   2.841   3.316   6.148
 8212SOL     OW26076   2.213   3.680   6.469
 8212SOL    HW126077   2.264   3.599   6.472
 8212SOL    HW226078   2.278   3.749   6.483
 8213SOL     OW26079   3.625   2.876   6.483
 8213SOL    HW126080   3.638   2.909   6.394
 8213SOL    HW226081   3.593   2.952   6.532
 8214SOL     OW26082   3.070   3.430   7.111
 8214SOL    HW126083   3.094   3.345   7.147
 8214SOL    HW226084   3.134   3.445   7.041
 8215SOL     OW26085   2.180   2.839   5.850
 8215SOL    HW126086   2.264   2.853   5.807
 8215SOL    HW226087   2.158   2.748   5.829
 8216SOL     OW26088   3.345   2.605   6.297
 8216SOL    HW126089   3.349   2.582   6.390
 8216SOL    HW226090   3.419   2.664   6.283
 8217SOL     OW26091   2.311   3.115   7.339
 8217SOL    HW126092   2.297   3.125   7.245
 8217SOL    HW226093   2.224   3.125   7.378
 8218SOL     OW26094   2.925   3.675   5.788
 8218SOL    HW126095   2.881   3.627   5.858
 8218SOL    HW226096   2.975   3.608   5.741
 8219SOL     OW26097   2.041   2.140   7.069
 8219SOL    HW126098   2.007   2.228   7.053
 8219SOL    HW226099   2.034   2.129   7.164
 8220SOL     OW26100   2.325   3.585   5.910
 8220SOL    HW126101   2.365   3.647   5.970
 8220SOL    HW226102   2.395   3.559   5.851
 8221SOL     OW26103   3.268   1.963   6.044
 8221SOL    HW126104   3.261   1.948   5.950
 8221SOL    HW226105   3.358   1.992   6.058
 8222SOL     OW26106   2.116   3.639   6.812
 8222SOL    HW126107   2.182   3.584   6.853
 8222SOL    HW226108   2.130   3.627   6.718
 8223SOL     OW26109   2.783   3.560   6.503
 8223SOL    HW126110   2.853   3.505   6.539
 8223SOL    HW226111   2.758   3.516   6.421
 8224SOL     OW26112   2.254   2.560   6.050
 8224SOL    HW126113   2.262   2.466   6.065
 8224SOL    HW226114   2.164   2.581   6.078
 8225SOL     OW26115   3.406   2.065   7.314
 8225SOL    HW126116   3.419   2.086   7.407
 8225SOL    HW226117   3.313   2.044   7.307
 8226SOL     OW26118   2.479   1.952   5.712
 8226SOL    HW126119   2.567   1.983   5.692
 8226SOL    HW226120   2.442   1.927   5.628
 8227SOL     OW26121   2.623   2.120   7.335
 8227SOL    HW126122   2.707   2.074   7.333
 8227SOL    HW226123   2.609   2.141   7.427
 8228SOL     OW26124   2.711   3.316   6.799
 8228SOL    HW126125   2.709   3.296   6.706
 8228SOL    HW226126   2.802   3.299   6.825
 8229SOL     OW26127   3.236   2.454   7.015
 8229SOL    HW126128   3.286   2.455   7.096
 8229SOL    HW226129   3.235   2.545   6.986
 8230SOL     OW26130   2.690   3.231   6.529
 8230SOL    HW126131   2.775   3.228   6.486
 8230SOL    HW226132   2.628   3.246   6.457
 8231SOL     OW26133   2.830   2.350   6.485
 8231SOL    HW126134   2.784   2.344   6.402
 8231SOL    HW226135   2.847   2.259   6.510
 8232SOL     OW26136   2.414   1.920   6.085
 8232SOL    HW126137   2.337   1.923   6.142
 8232SOL    HW226138   2.408   2.000   6.033
 8233SOL     OW26139   3.245   3.000   5.613
 8233SOL    HW126140   3.296   2.960   5.684
 8233SOL    HW226141   3.181   3.055   5.658
 8234SOL     OW26142   2.156   1.906   5.773
 8234SOL    HW126143   2.214   1.977   5.746
 8234SOL    HW226144   2.215   1.843   5.816
 8235SOL     OW26145   2.802   2.091   6.030
 8235SOL    HW126146   2.766   2.159   5.974
 8235SOL    HW226147   2.894   2.114   6.040
 8236SOL     OW26148   2.941   2.510   7.061
 8236SOL    HW126149   2.848   2.493   7.068
 8236SOL    HW226150   2.950   2.563   6.982
 8237SOL     OW26151   2.332   3.014   6.318
 8237SOL    HW126152   2.273   3.006   6.393
 8237SOL    HW226153   2.277   2.999   6.242
 8238SOL     OW26154   2.883   2.400   5.611
 8238SOL    HW126155   2.845   2.486   5.590
 8238SOL    HW226156   2.949   2.419   5.678
 8239SOL     OW26157   1.966   2.398   6.998
 8239SOL    HW126158   2.053   2.403   6.959
 8239SOL    HW226159   1.961   2.476   7.055
 8240SOL     OW26160   2.406   2.033   6.752
 8240SOL    HW126161   2.443   1.971   6.815
 8240SOL    HW226162   2.315   2.044   6.780
 8241SOL     OW26163   2.707   2.303   6.244
 8241SOL    HW126164   2.651   2.375   6.215
 8241SOL    HW226165   2.733   2.259   6.163
 8242SOL     OW26166   2.898   1.910   6.329
 8242SOL    HW126167   2.832   1.939   6.266
 8242SOL    HW226168   2.852   1.845   6.382
 8243SOL     OW26169   3.307   3.032   6.425
 8243SOL    HW126170   3.253   2.977   6.369
 8243SOL    HW226171   3.370   3.072   6.366
 8244SOL     OW26172   3.323   2.464   6.543
 8244SOL    HW126173   3.266   2.387   6.545
 8244SOL    HW226174   3.379   2.454   6.620
 8245SOL     OW26175   3.706   2.645   5.961
 8245SOL    HW126176   3.766   2.604   6.024
 8245SOL    HW226177   3.693   2.578   5.894
 8246SOL     OW26178   2.354   3.287   5.736
 8246SOL    HW126179   2.277   3.258   5.785
 8246SOL    HW226180   2.369   3.218   5.671
 8247SOL     OW26181   3.535   3.154   6.257
 8247SOL    HW126182   3.619   3.111   6.274
 8247SOL    HW226183   3.552   3.247   6.273
 8248SOL     OW26184   3.248   2.435   5.656
 8248SOL    HW126185   3.196   2.417   5.735
 8248SOL    HW226186   3.338   2.441   5.688
 8249SOL     OW26187   2.380   2.120   5.904
 8249SOL    HW126188   2.423   2.066   5.838
 8249SOL    HW226189   2.362   2.203   5.860
 8250SOL     OW26190   2.949   3.216   6.895
 8250SOL    HW126191   2.946   3.175   6.981
 8250SOL    HW226192   3.038   3.249   6.886
 8251SOL     OW26193   3.457   3.459   7.220
 8251SOL    HW126194   3.434   3.505   7.139
 8251SOL    HW226195   3.538   3.412   7.199
 8252SOL     OW26196   2.955   3.044   6.683
 8252SOL    HW126197   2.953   3.104   6.757
 8252SOL    HW226198   2.964   3.100   6.606
 8253SOL     OW26199   2.828   1.945   6.970
 8253SOL    HW126200   2.846   1.926   6.877
 8253SOL    HW226201   2.810   2.039   6.972
 8254SOL     OW26202   2.828   2.962   7.318
 8254SOL    HW126203   2.734   2.978   7.331
 8254SOL    HW226204   2.831   2.894   7.251
 8255SOL     OW26205   2.568   2.917   5.962
 8255SOL    HW126206   2.555   2.900   6.056
 8255SOL    HW226207   2.643   2.862   5.938
 8256SOL     OW26208   2.255   2.677   6.863
 8256SOL    HW126209   2.339   2.694   6.906
 8256SOL    HW226210   2.249   2.581   6.860
 8257SOL     OW26211   3.154   2.269   6.838
 8257SOL    HW126212   3.207   2.338   6.878
 8257SOL    HW226213   3.120   2.308   6.758
 8258SOL     OW26214   1.943   3.431   6.942
 8258SOL    HW126215   1.919   3.503   6.883
 8258SOL    HW226216   2.038   3.424   6.932
 8259SOL     OW26217   2.178   2.990   6.083
 8259SOL    HW126218   2.207   3.070   6.039
 8259SOL    HW226219   2.184   2.922   6.016
 8260SOL     OW26220   2.443   2.409   6.472
 8260SOL    HW126221   2.452   2.464   6.394
 8260SOL    HW226222   2.501   2.449   6.536
 8261SOL     OW26223   3.115   3.218   5.990
 8261SOL    HW126224   3.165   3.297   6.011
 8261SOL    HW226225   3.025   3.239   6.018
 8262SOL     OW26226   3.457   2.486   6.068
 8262SOL    HW126227   3.400   2.531   6.130
 8262SOL    HW226228   3.520   2.553   6.040
 8263SOL     OW26229   2.211   3.376   6.899
 8263SOL    HW126230   2.198   3.339   6.811
 8263SOL    HW226231   2.305   3.394   6.904
 8264SOL     OW26232   2.298   2.607   7.193
 8264SOL    HW126233   2.353   2.651   7.128
 8264SOL    HW226234   2.351   2.533   7.223
 8265SOL     OW26235   3.421   2.581   7.198
 8265SOL    HW126236   3.360   2.647   7.231
 8265SOL    HW226237   3.497   2.631   7.169
 8266SOL     OW26238   2.869   1.996   7.346
 8266SOL    HW126239   2.917   2.075   7.319
 8266SOL    HW226240   2.920   1.923   7.312
 8267SOL     OW26241   2.354   1.882   7.343
 8267SOL    HW126242   2.310   1.839   7.270
 8267SOL    HW226243   2.303   1.962   7.358
 8268SOL     OW26244   2.401   2.770   6.583
 8268SOL    HW126245   2.461   2.844   6.585
 8268SOL    HW226246   2.404   2.735   6.673
 8269SOL     OW26247   3.199   2.705   6.606
 8269SOL    HW126248   3.122   2.708   6.549
 8269SOL    HW226249   3.243   2.624   6.582
 8270SOL     OW26250   3.051   2.379   5.847
 8270SOL    HW126251   3.066   2.309   5.910
 8270SOL    HW226252   3.019   2.453   5.899
 8271SOL     OW26253   2.145   2.049   6.830
 8271SOL    HW126254   2.109   2.086   6.911
 8271SOL    HW226255   2.123   1.956   6.835
 8272SOL     OW26256   1.855   3.176   6.890
 8272SOL    HW126257   1.911   3.119   6.943
 8272SOL    HW226258   1.888   3.264   6.905
 8273SOL     OW26259   3.529   2.735   7.456
 8273SOL    HW126260   3.575   2.797   7.399
 8273SOL    HW226261   3.490   2.791   7.524
 8274SOL     OW26262   2.168   1.914   6.214
 8274SOL    HW126263   2.146   2.006   6.228
 8274SOL    HW226264   2.177   1.878   6.302
 8275SOL     OW26265   3.471   2.248   5.941
 8275SOL    HW126266   3.508   2.188   6.007
 8275SOL    HW226267   3.456   2.329   5.988
 8276SOL     OW26268   2.894   2.610   6.539
 8276SOL    HW126269   2.903   2.623   6.633
 8276SOL    HW226270   2.861   2.520   6.531
 8277SOL     OW26271   2.803   3.404   7.288
 8277SOL    HW126272   2.806   3.464   7.213
 8277SOL    HW226273   2.882   3.350   7.278
 8278SOL     OW26274   2.210   2.761   7.406
 8278SOL    HW126275   2.289   2.797   7.447
 8278SOL    HW226276   2.244   2.707   7.334
 8279SOL     OW26277   3.397   2.113   5.714
 8279SOL    HW126278   3.327   2.060   5.754
 8279SOL    HW226279   3.428   2.169   5.785
 8280SOL     OW26280   3.133   2.680   5.609
 8280SOL    HW126281   3.180   2.597   5.617
 8280SOL    HW226282   3.164   2.717   5.527
 8281SOL     OW26283   2.942   3.202   6.426
 8281SOL    HW126284   2.935   3.122   6.373
 8281SOL    HW226285   3.033   3.228   6.419
 8282SOL     OW26286   2.159   2.640   6.518
 8282SOL    HW126287   2.223   2.710   6.526
 8282SOL    HW226288   2.202   2.563   6.557
 8283SOL     OW26289   2.217   2.374   6.613
 8283SOL    HW126290   2.178   2.293   6.581
 8283SOL    HW226291   2.298   2.384   6.562
 8284SOL     OW26292   2.988   2.237   7.274
 8284SOL    HW126293   2.940   2.292   7.335
 8284SOL    HW226294   3.080   2.256   7.291
 8285SOL     OW26295   1.860   3.179   5.769
 8285SOL    HW126296   1.772   3.195   5.735
 8285SOL    HW226297   1.855   3.092   5.808
 8286SOL     OW26298   1.946   3.641   6.529
 8286SOL    HW126299   1.919   3.560   6.486
 8286SOL    HW226300   2.037   3.654   6.502
 8287SOL     OW26301   2.352   3.435   6.488
 8287SOL    HW126302   2.419   3.500   6.510
 8287SOL    HW226303   2.397   3.373   6.430
 8288SOL     OW26304   2.866   2.626   6.822
 8288SOL    HW126305   2.853   2.719   6.839
 8288SOL    HW226306   2.778   2.592   6.805
 8289SOL     OW26307   1.907   2.405   6.703
 8289SOL    HW126308   1.967   2.434   6.634
 8289SOL    HW226309   1.956   2.419   6.784
 8290SOL     OW26310   2.079   2.383   7.312
 8290SOL    HW126311   2.156   2.356   7.262
 8290SOL    HW226312   2.046   2.459   7.265
 8291SOL     OW26313   3.251   2.800   7.237
 8291SOL    HW126314   3.284   2.890   7.244
 8291SOL    HW226315   3.233   2.788   7.144
 8292SOL     OW26316   2.674   2.399   5.948
 8292SOL    HW126317   2.672   2.352   5.865
 8292SOL    HW226318   2.607   2.467   5.939
 8293SOL     OW26319   3.488   2.426   6.752
 8293SOL    HW126320   3.490   2.434   6.847
 8293SOL    HW226321   3.580   2.414   6.727
 8294SOL     OW26322   2.091   3.410   7.305
 8294SOL    HW126323   2.086   3.479   7.371
 8294SOL    HW226324   2.097   3.329   7.355
 8295SOL     OW26325   2.452   2.257   6.909
 8295SOL    HW126326   2.449   2.193   6.838
 8295SOL    HW226327   2.496   2.333   6.871
 8296SOL     OW26328   2.748   3.569   7.070
 8296SOL    HW126329   2.764   3.556   6.976
 8296SOL    HW226330   2.821   3.623   7.100
 8297SOL     OW26331   2.325   2.341   5.753
 8297SOL    HW126332   2.381   2.413   5.782
 8297SOL    HW226333   2.237   2.378   5.750
 8298SOL     OW26334   1.982   3.000   7.065
 8298SOL    HW126335   2.009   2.956   7.146
 8298SOL    HW226336   2.007   2.939   6.995
 8299SOL     OW26337   3.172   2.905   6.791
 8299SOL    HW126338   3.197   2.847   6.719
 8299SOL    HW226339   3.107   2.964   6.753
 8300SOL     OW26340   3.192   2.692   5.883
 8300SOL    HW126341   3.119   2.719   5.940
 8300SOL    HW226342   3.156   2.701   5.795
 8301SOL     OW26343   1.848   3.189   6.613
 8301SOL    HW126344   1.855   3.170   6.707
 8301SOL    HW226345   1.917   3.136   6.573
 8302SOL     OW26346   2.554   3.570   7.269
 8302SOL    HW126347   2.508   3.653   7.282
 8302SOL    HW226348   2.615   3.587   7.198
 8303SOL     OW26349   3.582   2.028   6.086
 8303SOL    HW126350   3.651   2.015   6.021
 8303SOL    HW226351   3.573   1.942   6.128
 8304SOL     OW26352   3.249   3.452   6.054
 8304SOL    HW126353   3.318   3.483   5.995
 8304SOL    HW226354   3.234   3.525   6.113
 8305SOL     OW26355   1.986   3.651   7.430
 8305SOL    HW126356   1.939   3.584   7.479
 8305SOL    HW226357   2.039   3.696   7.496
 8306SOL     OW26358   3.138   2.783   6.244
 8306SOL    HW126359   3.216   2.730   6.258
 8306SOL    HW226360   3.168   2.855   6.189
 8307SOL     OW26361   2.666   3.120   7.024
 8307SOL    HW126362   2.644   3.174   7.100
 8307SOL    HW226363   2.680   3.183   6.954
 8308SOL     OW26364   2.525   3.494   5.742
 8308SOL    HW126365   2.545   3.508   5.649
 8308SOL    HW226366   2.473   3.414   5.743
 8309SOL     OW26367   3.699   2.027   6.551
 8309SOL    HW126368   3.729   1.941   6.522
 8309SOL    HW226369   3.616   2.040   6.506
 8310SOL     OW26370   2.117   2.166   6.295
 8310SOL    HW126371   2.032   2.205   6.273
 8310SOL    HW226372   2.119   2.165   6.390
 8311SOL     OW26373   3.014   3.462   5.637
 8311SOL    HW126374   3.105   3.445   5.613
 8311SOL    HW226375   2.967   3.467   5.554
 8312SOL     OW26376   2.709   2.870   6.931
 8312SOL    HW126377   2.705   2.891   6.838
 8312SOL    HW226378   2.700   2.955   6.975
 8313SOL     OW26379   2.764   2.752   5.880
 8313SOL    HW126380   2.818   2.788   5.809
 8313SOL    HW226381   2.823   2.694   5.928
 8314SOL     OW26382   2.228   3.171   7.088
 8314SOL    HW126383   2.227   3.244   7.025
 8314SOL    HW226384   2.158   3.113   7.058
 8315SOL     OW26385   2.923   2.965   6.298
 8315SOL    HW126386   2.854   2.914   6.340
 8315SOL    HW226387   2.991   2.900   6.277
 8316SOL     OW26388   2.912   2.091   6.545
 8316SOL    HW126389   2.914   2.039   6.465
 8316SOL    HW226390   2.896   2.027   6.615
 8317SOL     OW26391   2.460   3.336   6.059
 8317SOL    HW126392   2.517   3.292   5.996
 8317SOL    HW226393   2.404   3.391   6.004
 8318SOL     OW26394   3.594   2.235   6.993
 8318SOL    HW126395   3.657   2.306   6.985
 8318SOL    HW226396   3.616   2.177   6.920
 8319SOL     OW26397   2.117   3.211   5.859
 8319SOL    HW126398   2.023   3.204   5.840
 8319SOL    HW226399   2.121   3.248   5.947
 8320SOL     OW26400   1.987   2.904   7.332
 8320SOL    HW126401   1.910   2.868   7.377
 8320SOL    HW226402   2.059   2.851   7.363
 8321SOL     OW26403   2.524   2.044   7.084
 8321SOL    HW126404   2.523   2.125   7.033
 8321SOL    HW226405   2.555   2.070   7.171
 8322SOL     OW26406   1.950   2.180   5.601
 8322SOL    HW126407   1.868   2.175   5.552
 8322SOL    HW226408   1.984   2.267   5.583
 8323SOL     OW26409   3.263   2.718   6.963
 8323SOL    HW126410   3.220   2.788   6.915
 8323SOL    HW226411   3.356   2.728   6.941
 8324SOL     OW26412   1.918   2.010   5.881
 8324SOL    HW126413   1.907   2.093   5.834
 8324SOL    HW226414   2.006   1.980   5.856
 8325SOL     OW26415   3.053   3.164   5.726
 8325SOL    HW126416   2.991   3.236   5.714
 8325SOL    HW226417   3.086   3.174   5.815
 8326SOL     OW26418   2.489   2.695   7.005
 8326SOL    HW126419   2.549   2.769   7.006
 8326SOL    HW226420   2.524   2.637   6.937
 8327SOL     OW26421   2.558   2.447   7.294
 8327SOL    HW126422   2.607   2.516   7.339
 8327SOL    HW226423   2.593   2.365   7.328
 8328SOL     OW26424   3.355   3.062   7.217
 8328SOL    HW126425   3.344   3.079   7.310
 8328SOL    HW226426   3.429   3.116   7.191
 8329SOL     OW26427   2.219   3.611   7.147
 8329SOL    HW126428   2.138   3.659   7.134
 8329SOL    HW226429   2.191   3.526   7.181
 8330SOL     OW26430   3.518   2.738   6.845
 8330SOL    HW126431   3.521   2.674   6.773
 8330SOL    HW226432   3.543   2.821   6.804
 8331SOL     OW26433   3.068   2.170   6.046
 8331SOL    HW126434   3.138   2.105   6.045
 8331SOL    HW226435   3.088   2.225   6.121
 8332SOL     OW26436   2.468   2.572   6.242
 8332SOL    HW126437   2.499   2.663   6.249
 8332SOL    HW226438   2.392   2.578   6.184
 8333SOL     OW26439   3.645   2.198   7.264
 8333SOL    HW126440   3.634   2.220   7.172
 8333SOL    HW226441   3.566   2.150   7.287
 8334SOL     OW26442   3.612   2.754   7.110
 8334SOL    HW126443   3.661   2.834   7.129
 8334SOL    HW226444   3.583   2.765   7.020
 8335SOL     OW26445   2.682   3.234   5.624
 8335SOL    HW126446   2.680   3.244   5.720
 8335SOL    HW226447   2.735   3.308   5.593
 8336SOL     OW26448   2.518   3.645   6.518
 8336SOL    HW126449   2.508   3.739   6.506
 8336SOL    HW226450   2.612   3.632   6.527
 8337SOL     OW26451   2.731   2.825   6.440
 8337SOL    HW126452   2.779   2.753   6.479
 8337SOL    HW226453   2.694   2.872   6.515
 8338SOL     OW26454   2.911   2.824   5.667
 8338SOL    HW126455   2.907   2.903   5.613
 8338SOL    HW226456   2.995   2.784   5.645
 8339SOL     OW26457   2.068   3.164   7.442
 8339SOL    HW126458   2.022   3.084   7.415
 8339SOL    HW226459   2.079   3.155   7.537
 8340SOL     OW26460   1.959   3.079   6.242
 8340SOL    HW126461   1.993   3.060   6.329
 8340SOL    HW226462   2.024   3.042   6.182
 8341SOL     OW26463   2.522   3.285   7.209
 8341SOL    HW126464   2.441   3.249   7.171
 8341SOL    HW226465   2.535   3.367   7.161
 8342SOL     OW26466   3.643   2.037   6.816
 8342SOL    HW126467   3.693   1.959   6.840
 8342SOL    HW226468   3.664   2.053   6.724
 8343SOL     OW26469   2.271   2.297   6.101
 8343SOL    HW126470   2.314   2.226   6.052
 8343SOL    HW226471   2.229   2.252   6.175
 8344SOL     OW26472   2.206   2.398   6.878
 8344SOL    HW126473   2.290   2.363   6.908
 8344SOL    HW226474   2.210   2.393   6.783
 8345SOL     OW26475   2.695   3.449   6.262
 8345SOL    HW126476   2.672   3.505   6.188
 8345SOL    HW226477   2.621   3.389   6.271
 8346SOL     OW26478   3.306   2.076   6.713
 8346SOL    HW126479   3.378   2.046   6.767
 8346SOL    HW226480   3.254   2.132   6.770
 8347SOL     OW26481   2.880   1.868   6.711
 8347SOL    HW126482   2.816   1.811   6.669
 8347SOL    HW226483   2.964   1.824   6.699
 8348SOL     OW26484   2.642   3.189   5.906
 8348SOL    HW126485   2.621   3.097   5.923
 8348SOL    HW226486   2.721   3.205   5.957
 8349SOL     OW26487   2.477   3.415   6.894
 8349SOL    HW126488   2.480   3.508   6.913
 8349SOL    HW226489   2.564   3.394   6.860
 8350SOL     OW26490   3.211   1.917   5.779
 8350SOL    HW126491   3.227   1.889   5.689
 8350SOL    HW226492   3.132   1.870   5.805
 8351SOL     OW26493   3.130   2.317   6.264
 8351SOL    HW126494   3.090   2.404   6.265
 8351SOL    HW226495   3.147   2.298   6.356
 8352SOL     OW26496   3.439   2.054   6.463
 8352SOL    HW126497   3.391   2.082   6.541
 8352SOL    HW226498   3.443   2.133   6.409
 8353SOL     OW26499   1.902   2.932   5.888
 8353SOL    HW126500   1.998   2.934   5.883
 8353SOL    HW226501   1.881   2.840   5.901
 8354SOL     OW26502   2.738   3.505   5.928
 8354SOL    HW126503   2.671   3.496   5.861
 8354SOL    HW226504   2.710   3.581   5.980
 8355SOL     OW26505   2.083   2.474   7.578
 8355SOL    HW126506   1.990   2.491   7.595
 8355SOL    HW226507   2.088   2.466   7.483
 8356SOL     OW26508   2.073   2.166   8.450
 8356SOL    HW126509   2.111   2.121   8.525
 8356SOL    HW226510   1.992   2.118   8.431
 8357SOL     OW26511   1.859   2.246   8.094
 8357SOL    HW126512   1.778   2.276   8.135
 8357SOL    HW226513   1.832   2.172   8.039
 8358SOL     OW26514   2.419   3.161   8.633
 8358SOL    HW126515   2.342   3.181   8.580
 8358SOL    HW226516   2.449   3.246   8.665
 8359SOL     OW26517   2.989   2.560   8.147
 8359SOL    HW126518   3.044   2.636   8.126
 8359SOL    HW226519   2.945   2.584   8.229
 8360SOL     OW26520   3.641   2.448   7.687
 8360SOL    HW126521   3.616   2.465   7.596
 8360SOL    HW226522   3.597   2.366   7.709
 8361SOL     OW26523   2.597   2.995   8.503
 8361SOL    HW126524   2.532   3.039   8.556
 8361SOL    HW226525   2.641   3.066   8.455
 8362SOL     OW26526   2.734   2.624   9.262
 8362SOL    HW126527   2.758   2.692   9.325
 8362SOL    HW226528   2.753   2.662   9.176
 8363SOL     OW26529   2.539   2.847   8.095
 8363SOL    HW126530   2.608   2.844   8.162
 8363SOL    HW226531   2.477   2.911   8.128
 8364SOL     OW26532   2.574   3.021   9.285
 8364SOL    HW126533   2.626   3.095   9.314
 8364SOL    HW226534   2.505   3.060   9.230
 8365SOL     OW26535   2.195   3.280   8.510
 8365SOL    HW126536   2.123   3.242   8.458
 8365SOL    HW226537   2.243   3.334   8.447
 8366SOL     OW26538   3.335   3.376   8.788
 8366SOL    HW126539   3.368   3.451   8.738
 8366SOL    HW226540   3.352   3.400   8.880
 8367SOL     OW26541   2.302   2.247   8.975
 8367SOL    HW126542   2.387   2.207   8.956
 8367SOL    HW226543   2.238   2.178   8.961
 8368SOL     OW26544   3.465   2.313   8.190
 8368SOL    HW126545   3.417   2.340   8.112
 8368SOL    HW226546   3.475   2.394   8.241
 8369SOL     OW26547   2.095   3.576   7.905
 8369SOL    HW126548   2.112   3.647   7.966
 8369SOL    HW226549   2.171   3.574   7.847
 8370SOL     OW26550   3.006   3.199   9.158
 8370SOL    HW126551   3.090   3.165   9.188
 8370SOL    HW226552   2.950   3.121   9.150
 8371SOL     OW26553   2.078   3.308   7.971
 8371SOL    HW126554   2.086   3.403   7.960
 8371SOL    HW226555   2.039   3.297   8.058
 8372SOL     OW26556   2.117   2.956   8.327
 8372SOL    HW126557   2.122   2.871   8.369
 8372SOL    HW226558   2.062   3.008   8.386
 8373SOL     OW26559   2.441   3.667   8.859
 8373SOL    HW126560   2.366   3.650   8.917
 8373SOL    HW226561   2.476   3.751   8.890
 8374SOL     OW26562   2.431   2.853   7.595
 8374SOL    HW126563   2.479   2.897   7.525
 8374SOL    HW226564   2.477   2.879   7.675
 8375SOL     OW26565   3.461   1.984   8.917
 8375SOL    HW126566   3.500   2.055   8.866
 8375SOL    HW226567   3.437   2.025   9.000
 8376SOL     OW26568   1.972   2.522   8.012
 8376SOL    HW126569   1.952   2.431   8.034
 8376SOL    HW226570   1.967   2.568   8.096
 8377SOL     OW26571   3.706   3.620   7.793
 8377SOL    HW126572   3.783   3.591   7.842
 8377SOL    HW226573   3.729   3.709   7.765
 8378SOL     OW26574   1.876   3.448   7.576
 8378SOL    HW126575   1.879   3.356   7.603
 8378SOL    HW226576   1.869   3.496   7.659
 8379SOL     OW26577   3.527   2.761   8.036
 8379SOL    HW126578   3.614   2.742   8.001
 8379SOL    HW226579   3.505   2.846   7.998
 8380SOL     OW26580   3.509   2.994   7.894
 8380SOL    HW126581   3.596   3.000   7.854
 8380SOL    HW226582   3.500   3.077   7.942
 8381SOL     OW26583   2.017   2.620   9.052
 8381SOL    HW126584   2.076   2.694   9.061
 8381SOL    HW226585   1.932   2.659   9.031
 8382SOL     OW26586   2.463   3.255   8.188
 8382SOL    HW126587   2.426   3.167   8.185
 8382SOL    HW226588   2.453   3.289   8.099
 8383SOL     OW26589   3.137   3.091   8.885
 8383SOL    HW126590   3.159   3.029   8.816
 8383SOL    HW226591   3.212   3.088   8.945
 8384SOL     OW26592   2.686   1.871   7.974
 8384SOL    HW126593   2.727   1.952   7.942
 8384SOL    HW226594   2.592   1.890   7.972
 8385SOL     OW26595   2.031   2.813   8.756
 8385SOL    HW126596   2.116   2.778   8.730
 8385SOL    HW226597   1.975   2.799   8.680
 8386SOL     OW26598   3.385   2.872   7.671
 8386SOL    HW126599   3.339   2.805   7.722
 8386SOL    HW226600   3.432   2.924   7.736
 8387SOL     OW26601   3.024   3.662   9.062
 8387SOL    HW126602   3.032   3.712   8.981
 8387SOL    HW226603   3.039   3.571   9.035
 8388SOL     OW26604   2.207   2.112   9.310
 8388SOL    HW126605   2.252   2.194   9.332
 8388SOL    HW226606   2.114   2.134   9.310
 8389SOL     OW26607   2.460   2.577   7.721
 8389SOL    HW126608   2.473   2.659   7.673
 8389SOL    HW226609   2.395   2.598   7.787
 8390SOL     OW26610   3.147   2.238   8.392
 8390SOL    HW126611   3.058   2.202   8.391
 8390SOL    HW226612   3.196   2.180   8.450
 8391SOL     OW26613   3.480   3.463   7.732
 8391SOL    HW126614   3.555   3.515   7.761
 8391SOL    HW226615   3.447   3.509   7.655
 8392SOL     OW26616   2.648   2.475   8.887
 8392SOL    HW126617   2.622   2.451   8.976
 8392SOL    HW226618   2.599   2.414   8.831
 8393SOL     OW26619   3.246   2.340   9.123
 8393SOL    HW126620   3.253   2.387   9.205
 8393SOL    HW226621   3.321   2.280   9.123
 8394SOL     OW26622   2.804   2.746   9.028
 8394SOL    HW126623   2.861   2.677   8.995
 8394SOL    HW226624   2.767   2.787   8.950
 8395SOL     OW26625   2.857   2.263   8.673
 8395SOL    HW126626   2.777   2.314   8.683
 8395SOL    HW226627   2.858   2.237   8.581
 8396SOL     OW26628   2.903   2.554   7.881
 8396SOL    HW126629   2.927   2.549   7.974
 8396SOL    HW226630   2.822   2.503   7.875
 8397SOL     OW26631   1.944   2.672   8.242
 8397SOL    HW126632   2.031   2.680   8.281
 8397SOL    HW226633   1.897   2.750   8.271
 8398SOL     OW26634   1.971   3.738   9.031
 8398SOL    HW126635   1.973   3.719   9.125
 8398SOL    HW226636   1.906   3.677   8.996
 8399SOL     OW26637   2.766   2.202   7.632
 8399SOL    HW126638   2.799   2.277   7.583
 8399SOL    HW226639   2.818   2.128   7.601
 8400SOL     OW26640   3.551   2.433   9.285
 8400SOL    HW126641   3.523   2.509   9.233
 8400SOL    HW226642   3.594   2.376   9.222
 8401SOL     OW26643   3.224   3.000   7.999
 8401SOL    HW126644   3.306   3.048   8.013
 8401SOL    HW226645   3.174   3.056   7.939
 8402SOL     OW26646   2.406   2.031   8.339
 8402SOL    HW126647   2.416   2.073   8.424
 8402SOL    HW226648   2.418   2.103   8.276
 8403SOL     OW26649   2.849   3.306   7.921
 8403SOL    HW126650   2.807   3.379   7.875
 8403SOL    HW226651   2.899   3.348   7.991
 8404SOL     OW26652   2.216   3.682   8.335
 8404SOL    HW126653   2.267   3.601   8.334
 8404SOL    HW226654   2.281   3.752   8.340
 8405SOL     OW26655   3.626   2.836   8.315
 8405SOL    HW126656   3.658   2.889   8.242
 8405SOL    HW226657   3.556   2.888   8.354
 8406SOL     OW26658   3.063   3.408   8.960
 8406SOL    HW126659   3.073   3.322   9.001
 8406SOL    HW226660   3.092   3.394   8.869
 8407SOL     OW26661   2.173   2.829   7.701
 8407SOL    HW126662   2.260   2.853   7.670
 8407SOL    HW226663   2.148   2.753   7.647
 8408SOL     OW26664   3.350   2.611   8.171
 8408SOL    HW126665   3.368   2.595   8.264
 8408SOL    HW226666   3.421   2.669   8.143
 8409SOL     OW26667   2.316   3.131   9.200
 8409SOL    HW126668   2.298   3.136   9.106
 8409SOL    HW226669   2.230   3.132   9.241
 8410SOL     OW26670   2.046   2.131   8.937
 8410SOL    HW126671   1.960   2.168   8.920
 8410SOL    HW226672   2.028   2.046   8.977
 8411SOL     OW26673   3.480   3.222   7.535
 8411SOL    HW126674   3.452   3.314   7.532
 8411SOL    HW226675   3.402   3.173   7.507
 8412SOL     OW26676   2.344   3.614   7.767
 8412SOL    HW126677   2.377   3.666   7.840
 8412SOL    HW226678   2.403   3.634   7.695
 8413SOL     OW26679   3.264   1.968   7.897
 8413SOL    HW126680   3.251   1.944   7.805
 8413SOL    HW226681   3.350   2.010   7.899
 8414SOL     OW26682   2.120   3.646   8.666
 8414SOL    HW126683   2.178   3.577   8.697
 8414SOL    HW226684   2.116   3.634   8.571
 8415SOL     OW26685   2.798   3.555   8.367
 8415SOL    HW126686   2.880   3.507   8.378
 8415SOL    HW226687   2.759   3.520   8.287
 8416SOL     OW26688   2.257   2.557   7.921
 8416SOL    HW126689   2.271   2.463   7.932
 8416SOL    HW226690   2.162   2.568   7.929
 8417SOL     OW26691   3.389   2.092   9.167
 8417SOL    HW126692   3.398   2.105   9.261
 8417SOL    HW226693   3.303   2.051   9.156
 8418SOL     OW26694   2.485   1.957   7.576
 8418SOL    HW126695   2.575   1.927   7.567
 8418SOL    HW226696   2.444   1.934   7.493
 8419SOL     OW26697   2.625   2.148   9.202
 8419SOL    HW126698   2.708   2.099   9.201
 8419SOL    HW226699   2.584   2.124   9.284
 8420SOL     OW26700   2.724   3.358   8.651
 8420SOL    HW126701   2.718   3.335   8.558
 8420SOL    HW226702   2.804   3.315   8.682
 8421SOL     OW26703   3.195   2.455   8.873
 8421SOL    HW126704   3.231   2.431   8.958
 8421SOL    HW226705   3.233   2.541   8.855
 8422SOL     OW26706   2.685   3.236   8.389
 8422SOL    HW126707   2.772   3.232   8.348
 8422SOL    HW226708   2.625   3.257   8.318
 8423SOL     OW26709   2.783   2.355   8.352
 8423SOL    HW126710   2.757   2.355   8.260
 8423SOL    HW226711   2.823   2.269   8.367
 8424SOL     OW26712   2.417   1.925   7.947
 8424SOL    HW126713   2.334   1.923   7.995
 8424SOL    HW226714   2.410   2.002   7.890
 8425SOL     OW26715   3.270   3.048   7.484
 8425SOL    HW126716   3.309   2.987   7.547
 8425SOL    HW226717   3.189   3.077   7.526
 8426SOL     OW26718   2.151   1.908   7.632
 8426SOL    HW126719   2.197   1.973   7.579
 8426SOL    HW226720   2.220   1.854   7.670
 8427SOL     OW26721   2.802   2.110   7.900
 8427SOL    HW126722   2.775   2.149   7.817
 8427SOL    HW226723   2.896   2.128   7.905
 8428SOL     OW26724   2.941   2.536   8.929
 8428SOL    HW126725   2.884   2.468   8.892
 8428SOL    HW226726   3.030   2.508   8.906
 8429SOL     OW26727   2.331   3.013   8.168
 8429SOL    HW126728   2.261   2.995   8.231
 8429SOL    HW226729   2.289   3.004   8.083
 8430SOL     OW26730   2.880   2.395   7.476
 8430SOL    HW126731   2.842   2.480   7.453
 8430SOL    HW226732   2.950   2.416   7.538
 8431SOL     OW26733   1.945   2.428   8.843
 8431SOL    HW126734   1.958   2.418   8.749
 8431SOL    HW226735   1.907   2.516   8.853
 8432SOL     OW26736   2.422   2.085   8.614
 8432SOL    HW126737   2.464   2.003   8.641
 8432SOL    HW226738   2.331   2.075   8.642
 8433SOL     OW26739   2.715   2.308   8.090
 8433SOL    HW126740   2.679   2.368   8.024
 8433SOL    HW226741   2.749   2.234   8.038
 8434SOL     OW26742   2.874   1.923   8.199
 8434SOL    HW126743   2.818   1.922   8.121
 8434SOL    HW226744   2.850   1.843   8.247
 8435SOL     OW26745   3.318   3.021   8.301
 8435SOL    HW126746   3.260   2.989   8.232
 8435SOL    HW226747   3.377   3.082   8.255
 8436SOL     OW26748   3.329   2.478   8.425
 8436SOL    HW126749   3.274   2.400   8.416
 8436SOL    HW226750   3.387   2.458   8.498
 8437SOL     OW26751   3.717   2.664   7.839
 8437SOL    HW126752   3.785   2.620   7.891
 8437SOL    HW226753   3.693   2.601   7.772
 8438SOL     OW26754   2.406   3.308   7.519
 8438SOL    HW126755   2.356   3.296   7.601
 8438SOL    HW226756   2.372   3.240   7.461
 8439SOL     OW26757   3.252   2.442   7.503
 8439SOL    HW126758   3.206   2.425   7.585
 8439SOL    HW226759   3.344   2.453   7.528
 8440SOL     OW26760   2.381   2.124   7.767
 8440SOL    HW126761   2.423   2.070   7.700
 8440SOL    HW226762   2.360   2.206   7.723
 8441SOL     OW26763   3.596   3.124   9.069
 8441SOL    HW126764   3.674   3.078   9.039
 8441SOL    HW226765   3.610   3.215   9.043
 8442SOL     OW26766   2.906   3.193   8.779
 8442SOL    HW126767   2.838   3.163   8.840
 8442SOL    HW226768   2.988   3.166   8.819
 8443SOL     OW26769   3.406   3.459   9.039
 8443SOL    HW126770   3.431   3.550   9.024
 8443SOL    HW226771   3.400   3.451   9.134
 8444SOL     OW26772   2.987   3.067   8.548
 8444SOL    HW126773   2.948   3.126   8.613
 8444SOL    HW226774   2.967   3.108   8.464
 8445SOL     OW26775   3.429   2.928   8.539
 8445SOL    HW126776   3.423   2.998   8.604
 8445SOL    HW226777   3.382   2.962   8.463
 8446SOL     OW26778   2.781   1.947   8.836
 8446SOL    HW126779   2.799   1.929   8.744
 8446SOL    HW226780   2.861   1.990   8.868
 8447SOL     OW26781   2.842   2.975   9.176
 8447SOL    HW126782   2.749   2.994   9.189
 8447SOL    HW226783   2.842   2.901   9.115
 8448SOL     OW26784   2.566   2.909   7.826
 8448SOL    HW126785   2.556   2.889   7.919
 8448SOL    HW226786   2.645   2.861   7.800
 8449SOL     OW26787   2.270   2.690   8.716
 8449SOL    HW126788   2.349   2.703   8.770
 8449SOL    HW226789   2.263   2.596   8.706
 8450SOL     OW26790   3.121   2.225   8.744
 8450SOL    HW126791   3.156   2.308   8.776
 8450SOL    HW226792   3.033   2.246   8.712
 8451SOL     OW26793   1.944   3.438   8.809
 8451SOL    HW126794   1.912   3.501   8.745
 8451SOL    HW226795   2.039   3.434   8.795
 8452SOL     OW26796   2.187   2.988   7.935
 8452SOL    HW126797   2.203   3.063   7.878
 8452SOL    HW226798   2.189   2.913   7.876
 8453SOL     OW26799   2.407   2.390   8.313
 8453SOL    HW126800   2.413   2.449   8.238
 8453SOL    HW226801   2.482   2.415   8.369
 8454SOL     OW26802   3.088   3.184   7.853
 8454SOL    HW126803   3.150   3.257   7.851
 8454SOL    HW226804   3.004   3.225   7.871
 8455SOL     OW26805   3.131   3.329   8.605
 8455SOL    HW126806   3.212   3.333   8.656
 8455SOL    HW226807   3.133   3.243   8.563
 8456SOL     OW26808   3.455   2.471   7.936
 8456SOL    HW126809   3.403   2.534   7.986
 8456SOL    HW226810   3.514   2.525   7.884
 8457SOL     OW26811   2.211   3.386   8.756
 8457SOL    HW126812   2.200   3.344   8.671
 8457SOL    HW226813   2.305   3.401   8.763
 8458SOL     OW26814   2.324   2.568   9.066
 8458SOL    HW126815   2.367   2.626   9.004
 8458SOL    HW226816   2.394   2.514   9.102
 8459SOL     OW26817   3.465   2.641   9.134
 8459SOL    HW126818   3.381   2.687   9.124
 8459SOL    HW226819   3.521   2.678   9.066
 8460SOL     OW26820   2.859   2.001   9.220
 8460SOL    HW126821   2.915   2.075   9.195
 8460SOL    HW226822   2.904   1.924   9.185
 8461SOL     OW26823   2.352   1.896   9.211
 8461SOL    HW126824   2.305   1.848   9.142
 8461SOL    HW226825   2.300   1.975   9.225
 8462SOL     OW26826   2.459   2.739   8.491
 8462SOL    HW126827   2.505   2.821   8.474
 8462SOL    HW226828   2.392   2.763   8.556
 8463SOL     OW26829   3.188   2.708   8.486
 8463SOL    HW126830   3.174   2.750   8.401
 8463SOL    HW226831   3.240   2.630   8.467
 8464SOL     OW26832   3.060   2.386   7.703
 8464SOL    HW126833   3.064   2.317   7.769
 8464SOL    HW226834   3.048   2.467   7.753
 8465SOL     OW26835   2.161   2.053   8.692
 8465SOL    HW126836   2.116   2.086   8.770
 8465SOL    HW226837   2.141   1.959   8.691
 8466SOL     OW26838   1.915   3.174   8.722
 8466SOL    HW126839   1.945   3.122   8.796
 8466SOL    HW226840   1.920   3.265   8.753
 8467SOL     OW26841   2.581   2.488   8.508
 8467SOL    HW126842   2.660   2.478   8.456
 8467SOL    HW226843   2.554   2.579   8.494
 8468SOL     OW26844   3.602   2.792   9.341
 8468SOL    HW126845   3.568   2.760   9.258
 8468SOL    HW226846   3.525   2.824   9.388
 8469SOL     OW26847   2.170   1.913   8.075
 8469SOL    HW126848   2.146   2.004   8.091
 8469SOL    HW226849   2.182   1.875   8.162
 8470SOL     OW26850   3.459   2.226   7.818
 8470SOL    HW126851   3.514   2.177   7.880
 8470SOL    HW226852   3.447   2.312   7.859
 8471SOL     OW26853   2.865   2.613   8.395
 8471SOL    HW126854   2.878   2.628   8.488
 8471SOL    HW226855   2.853   2.519   8.386
 8472SOL     OW26856   2.827   3.408   9.153
 8472SOL    HW126857   2.812   3.458   9.073
 8472SOL    HW226858   2.893   3.343   9.130
 8473SOL     OW26859   2.209   2.730   9.280
 8473SOL    HW126860   2.284   2.780   9.314
 8473SOL    HW226861   2.247   2.675   9.211
 8474SOL     OW26862   3.394   2.112   7.578
 8474SOL    HW126863   3.322   2.055   7.607
 8474SOL    HW226864   3.419   2.162   7.656
 8475SOL     OW26865   3.152   2.698   7.470
 8475SOL    HW126866   3.194   2.612   7.465
 8475SOL    HW226867   3.188   2.747   7.395
 8476SOL     OW26868   2.946   3.199   8.302
 8476SOL    HW126869   2.932   3.119   8.252
 8476SOL    HW226870   3.023   3.239   8.263
 8477SOL     OW26871   2.177   2.679   8.393
 8477SOL    HW126872   2.267   2.699   8.368
 8477SOL    HW226873   2.179   2.588   8.421
 8478SOL     OW26874   2.194   2.405   8.470
 8478SOL    HW126875   2.152   2.321   8.454
 8478SOL    HW226876   2.271   2.405   8.413
 8479SOL     OW26877   2.996   2.229   9.146
 8479SOL    HW126878   2.947   2.292   9.199
 8479SOL    HW226879   3.080   2.271   9.130
 8480SOL     OW26880   3.021   2.052   8.932
 8480SOL    HW126881   3.009   2.119   8.999
 8480SOL    HW226882   3.063   2.098   8.860
 8481SOL     OW26883   1.843   3.181   7.667
 8481SOL    HW126884   1.755   3.181   7.629
 8481SOL    HW226885   1.858   3.090   7.693
 8482SOL     OW26886   1.953   3.641   8.397
 8482SOL    HW126887   1.923   3.565   8.348
 8482SOL    HW226888   2.042   3.657   8.365
 8483SOL     OW26889   2.357   3.441   8.358
 8483SOL    HW126890   2.427   3.502   8.380
 8483SOL    HW226891   2.396   3.381   8.295
 8484SOL     OW26892   2.839   2.626   8.669
 8484SOL    HW126893   2.915   2.646   8.724
 8484SOL    HW226894   2.768   2.611   8.732
 8485SOL     OW26895   1.905   2.413   8.573
 8485SOL    HW126896   1.942   2.350   8.512
 8485SOL    HW226897   1.923   2.498   8.533
 8486SOL     OW26898   3.240   2.797   9.103
 8486SOL    HW126899   3.266   2.889   9.099
 8486SOL    HW226900   3.237   2.768   9.012
 8487SOL     OW26901   2.665   2.416   7.828
 8487SOL    HW126902   2.679   2.354   7.757
 8487SOL    HW226903   2.601   2.478   7.795
 8488SOL     OW26904   3.504   2.428   8.627
 8488SOL    HW126905   3.507   2.381   8.711
 8488SOL    HW226906   3.594   2.423   8.594
 8489SOL     OW26907   2.092   3.409   9.174
 8489SOL    HW126908   2.084   3.464   9.252
 8489SOL    HW226909   2.102   3.321   9.208
 8490SOL     OW26910   2.506   2.327   8.710
 8490SOL    HW126911   2.490   2.241   8.671
 8490SOL    HW226912   2.530   2.382   8.636
 8491SOL     OW26913   2.746   3.551   8.929
 8491SOL    HW126914   2.760   3.503   8.848
 8491SOL    HW226915   2.755   3.643   8.905
 8492SOL     OW26916   2.321   2.352   7.639
 8492SOL    HW126917   2.380   2.426   7.658
 8492SOL    HW226918   2.236   2.393   7.624
 8493SOL     OW26919   1.990   3.009   8.936
 8493SOL    HW126920   1.999   2.967   9.021
 8493SOL    HW226921   2.004   2.938   8.873
 8494SOL     OW26922   3.147   2.893   8.681
 8494SOL    HW126923   3.177   2.832   8.614
 8494SOL    HW226924   3.090   2.955   8.634
 8495SOL     OW26925   3.177   2.674   7.745
 8495SOL    HW126926   3.113   2.732   7.787
 8495SOL    HW226927   3.169   2.694   7.652
 8496SOL     OW26928   3.106   3.595   8.552
 8496SOL    HW126929   3.178   3.609   8.490
 8496SOL    HW226930   3.110   3.502   8.573
 8497SOL     OW26931   1.941   3.130   8.454
 8497SOL    HW126932   1.925   3.144   8.547
 8497SOL    HW226933   1.873   3.069   8.427
 8498SOL     OW26934   2.553   3.533   9.192
 8498SOL    HW126935   2.498   3.609   9.174
 8498SOL    HW226936   2.627   3.542   9.132
 8499SOL     OW26937   3.603   2.024   7.957
 8499SOL    HW126938   3.663   2.012   7.883
 8499SOL    HW226939   3.585   1.934   7.987
 8500SOL     OW26940   3.239   3.402   7.845
 8500SOL    HW126941   3.332   3.399   7.819
 8500SOL    HW226942   3.215   3.494   7.832
 8501SOL     OW26943   1.982   3.677   9.295
 8501SOL    HW126944   1.946   3.598   9.335
 8501SOL    HW226945   2.044   3.711   9.360
 8502SOL     OW26946   3.141   2.780   8.118
 8502SOL    HW126947   3.218   2.724   8.127
 8502SOL    HW226948   3.172   2.854   8.066
 8503SOL     OW26949   2.657   3.129   8.886
 8503SOL    HW126950   2.623   3.173   8.964
 8503SOL    HW226951   2.624   3.180   8.813
 8504SOL     OW26952   3.694   2.025   8.421
 8504SOL    HW126953   3.725   1.946   8.375
 8504SOL    HW226954   3.612   2.047   8.378
 8505SOL     OW26955   2.113   2.162   8.163
 8505SOL    HW126956   2.030   2.201   8.137
 8505SOL    HW226957   2.117   2.175   8.257
 8506SOL     OW26958   3.050   3.421   7.508
 8506SOL    HW126959   3.144   3.438   7.514
 8506SOL    HW226960   3.016   3.491   7.452
 8507SOL     OW26961   2.688   2.869   8.812
 8507SOL    HW126962   2.721   2.873   8.722
 8507SOL    HW226963   2.677   2.960   8.838
 8508SOL     OW26964   2.777   2.764   7.756
 8508SOL    HW126965   2.828   2.789   7.679
 8508SOL    HW226966   2.830   2.696   7.798
 8509SOL     OW26967   3.325   3.472   7.463
 8509SOL    HW126968   3.303   3.564   7.477
 8509SOL    HW226969   3.371   3.471   7.379
 8510SOL     OW26970   2.221   3.173   8.953
 8510SOL    HW126971   2.228   3.241   8.885
 8510SOL    HW226972   2.147   3.119   8.925
 8511SOL     OW26973   3.455   3.125   8.735
 8511SOL    HW126974   3.542   3.156   8.710
 8511SOL    HW226975   3.405   3.206   8.750
 8512SOL     OW26976   2.920   2.968   8.173
 8512SOL    HW126977   2.849   2.907   8.193
 8512SOL    HW226978   2.988   2.915   8.132
 8513SOL     OW26979   2.893   2.103   8.416
 8513SOL    HW126980   2.890   2.059   8.331
 8513SOL    HW226981   2.886   2.033   8.480
 8514SOL     OW26982   2.448   3.354   7.935
 8514SOL    HW126983   2.505   3.295   7.885
 8514SOL    HW226984   2.432   3.428   7.877
 8515SOL     OW26985   3.602   2.241   8.844
 8515SOL    HW126986   3.670   2.307   8.838
 8515SOL    HW226987   3.627   2.175   8.779
 8516SOL     OW26988   2.112   3.197   7.726
 8516SOL    HW126989   2.018   3.204   7.711
 8516SOL    HW226990   2.126   3.242   7.809
 8517SOL     OW26991   1.988   2.903   9.199
 8517SOL    HW126992   1.905   2.875   9.237
 8517SOL    HW226993   2.053   2.843   9.237
 8518SOL     OW26994   2.540   2.051   8.950
 8518SOL    HW126995   2.622   2.031   8.904
 8518SOL    HW226996   2.568   2.088   9.034
 8519SOL     OW26997   1.942   2.194   7.467
 8519SOL    HW126998   1.869   2.186   7.406
 8519SOL    HW226999   1.988   2.273   7.438
 8520SOL     OW27000   3.278   2.717   8.845
 8520SOL    HW127001   3.226   2.779   8.793
 8520SOL    HW227002   3.365   2.719   8.806
 8521SOL     OW27003   1.918   2.015   7.735
 8521SOL    HW127004   1.905   2.088   7.674
 8521SOL    HW227005   2.006   1.983   7.713
 8522SOL     OW27006   3.034   3.163   7.588
 8522SOL    HW127007   3.040   3.254   7.561
 8522SOL    HW227008   3.061   3.163   7.680
 8523SOL     OW27009   2.486   2.695   8.883
 8523SOL    HW127010   2.539   2.772   8.863
 8523SOL    HW227011   2.548   2.622   8.880
 8524SOL     OW27012   2.556   2.434   9.149
 8524SOL    HW127013   2.613   2.494   9.198
 8524SOL    HW227014   2.584   2.347   9.176
 8525SOL     OW27015   3.332   3.054   9.085
 8525SOL    HW127016   3.330   3.074   9.179
 8525SOL    HW227017   3.422   3.073   9.059
 8526SOL     OW27018   2.224   3.612   9.022
 8526SOL    HW127019   2.143   3.658   9.000
 8526SOL    HW227020   2.196   3.526   9.052
 8527SOL     OW27021   3.513   2.727   8.707
 8527SOL    HW127022   3.527   2.650   8.651
 8527SOL    HW227023   3.494   2.798   8.645
 8528SOL     OW27024   3.068   2.175   7.907
 8528SOL    HW127025   3.137   2.109   7.901
 8528SOL    HW227026   3.094   2.229   7.982
 8529SOL     OW27027   2.425   2.598   8.136
 8529SOL    HW127028   2.476   2.677   8.120
 8529SOL    HW227029   2.372   2.588   8.057
 8530SOL     OW27030   3.633   2.208   9.118
 8530SOL    HW127031   3.628   2.232   9.025
 8530SOL    HW227032   3.551   2.162   9.135
 8531SOL     OW27033   3.619   2.776   8.961
 8531SOL    HW127034   3.656   2.865   8.965
 8531SOL    HW227035   3.599   2.763   8.869
 8532SOL     OW27036   2.745   3.211   7.488
 8532SOL    HW127037   2.802   3.184   7.559
 8532SOL    HW227038   2.804   3.232   7.416
 8533SOL     OW27039   2.531   3.646   8.401
 8533SOL    HW127040   2.519   3.732   8.359
 8533SOL    HW227041   2.624   3.626   8.388
 8534SOL     OW27042   2.718   2.824   8.302
 8534SOL    HW127043   2.771   2.752   8.333
 8534SOL    HW227044   2.699   2.876   8.380
 8535SOL     OW27045   2.914   2.812   7.531
 8535SOL    HW127046   2.901   2.886   7.472
 8535SOL    HW227047   3.002   2.780   7.509
 8536SOL     OW27048   2.063   3.153   9.293
 8536SOL    HW127049   2.030   3.074   9.250
 8536SOL    HW227050   2.002   3.168   9.365
 8537SOL     OW27051   1.956   3.077   8.116
 8537SOL    HW127052   2.001   3.032   8.187
 8537SOL    HW227053   2.016   3.068   8.041
 8538SOL     OW27054   2.543   3.262   9.095
 8538SOL    HW127055   2.453   3.243   9.121
 8538SOL    HW227056   2.556   3.354   9.119
 8539SOL     OW27057   3.660   2.026   8.690
 8539SOL    HW127058   3.674   1.931   8.693
 8539SOL    HW227059   3.673   2.049   8.598
 8540SOL     OW27060   2.280   2.294   7.974
 8540SOL    HW127061   2.319   2.232   7.912
 8540SOL    HW227062   2.235   2.239   8.037
 8541SOL     OW27063   2.228   2.414   8.740
 8541SOL    HW127064   2.310   2.366   8.748
 8541SOL    HW227065   2.207   2.409   8.647
 8542SOL     OW27066   2.686   3.466   8.138
 8542SOL    HW127067   2.689   3.536   8.073
 8542SOL    HW227068   2.632   3.398   8.098
 8543SOL     OW27069   3.286   2.088   8.572
 8543SOL    HW127070   3.332   2.022   8.623
 8543SOL    HW227071   3.234   2.136   8.637
 8544SOL     OW27072   2.868   1.867   8.577
 8544SOL    HW127073   2.825   1.810   8.514
 8544SOL    HW227074   2.957   1.832   8.585
 8545SOL     OW27075   2.615   3.185   7.811
 8545SOL    HW127076   2.610   3.090   7.804
 8545SOL    HW227077   2.706   3.203   7.837
 8546SOL     OW27078   2.480   3.418   8.745
 8546SOL    HW127079   2.480   3.507   8.782
 8546SOL    HW227080   2.567   3.407   8.708
 8547SOL     OW27081   3.214   1.908   7.635
 8547SOL    HW127082   3.247   1.850   7.567
 8547SOL    HW227083   3.126   1.875   7.653
 8548SOL     OW27084   3.136   2.320   8.125
 8548SOL    HW127085   3.097   2.407   8.126
 8548SOL    HW227086   3.152   2.300   8.217
 8549SOL     OW27087   3.441   2.068   8.330
 8549SOL    HW127088   3.383   2.096   8.401
 8549SOL    HW227089   3.444   2.143   8.270
 8550SOL     OW27090   1.901   2.924   7.757
 8550SOL    HW127091   1.995   2.923   7.740
 8550SOL    HW227092   1.879   2.833   7.777
 8551SOL     OW27093   2.736   3.529   7.816
 8551SOL    HW127094   2.794   3.544   7.741
 8551SOL    HW227095   2.747   3.607   7.870
 8552SOL     OW27096   2.063   2.470   9.411
 8552SOL    HW127097   1.984   2.489   9.461
 8552SOL    HW227098   2.075   2.546   9.355
 8553SOL     OW27099   2.085   2.147  10.303
 8553SOL    HW127100   2.112   2.112  10.388
 8553SOL    HW227101   1.995   2.114  10.291
 8554SOL     OW27102   1.855   2.248   9.952
 8554SOL    HW127103   1.776   2.279   9.996
 8554SOL    HW227104   1.826   2.173   9.901
 8555SOL     OW27105   2.446   3.165  10.509
 8555SOL    HW127106   2.361   3.163  10.466
 8555SOL    HW227107   2.462   3.257  10.528
 8556SOL     OW27108   2.992   2.564  10.007
 8556SOL    HW127109   3.047   2.641   9.991
 8556SOL    HW227110   2.936   2.589  10.080
 8557SOL     OW27111   3.601   2.474   9.552
 8557SOL    HW127112   3.588   2.487   9.458
 8557SOL    HW227113   3.619   2.380   9.560
 8558SOL     OW27114   2.638   3.004  10.390
 8558SOL    HW127115   2.565   3.040  10.440
 8558SOL    HW227116   2.661   3.073  10.328
 8559SOL     OW27117   2.744   2.617  11.135
 8559SOL    HW127118   2.730   2.683  11.203
 8559SOL    HW227119   2.759   2.669  11.055
 8560SOL     OW27120   2.544   2.848   9.957
 8560SOL    HW127121   2.611   2.851  10.025
 8560SOL    HW227122   2.477   2.909   9.986
 8561SOL     OW27123   2.573   3.013  11.131
 8561SOL    HW127124   2.621   3.089  11.164
 8561SOL    HW227125   2.495   3.049  11.091
 8562SOL     OW27126   2.211   3.269  10.373
 8562SOL    HW127127   2.134   3.231  10.330
 8562SOL    HW227128   2.249   3.327  10.307
 8563SOL     OW27129   3.310   3.367  10.660
 8563SOL    HW127130   3.370   3.440  10.668
 8563SOL    HW227131   3.246   3.380  10.730
 8564SOL     OW27132   2.325   2.240  10.765
 8564SOL    HW127133   2.395   2.178  10.783
 8564SOL    HW227134   2.246   2.196  10.795
 8565SOL     OW27135   3.468   2.310  10.051
 8565SOL    HW127136   3.428   2.336   9.968
 8565SOL    HW227137   3.491   2.393  10.093
 8566SOL     OW27138   2.086   3.578   9.769
 8566SOL    HW127139   2.110   3.652   9.825
 8566SOL    HW227140   2.161   3.568   9.710
 8567SOL     OW27141   3.001   3.204  11.005
 8567SOL    HW127142   3.043   3.195  11.091
 8567SOL    HW227143   2.949   3.125  10.995
 8568SOL     OW27144   2.087   3.313   9.849
 8568SOL    HW127145   2.079   3.408   9.839
 8568SOL    HW227146   2.029   3.292   9.921
 8569SOL     OW27147   2.135   2.955  10.209
 8569SOL    HW127148   2.119   2.867  10.242
 8569SOL    HW227149   2.073   3.010  10.257
 8570SOL     OW27150   2.474   3.641  10.746
 8570SOL    HW127151   2.390   3.625  10.789
 8570SOL    HW227152   2.495   3.732  10.766
 8571SOL     OW27153   2.433   2.849   9.451
 8571SOL    HW127154   2.480   2.897   9.383
 8571SOL    HW227155   2.477   2.874   9.533
 8572SOL     OW27156   3.445   1.996  10.766
 8572SOL    HW127157   3.500   2.062  10.723
 8572SOL    HW227158   3.428   2.031  10.853
 8573SOL     OW27159   1.984   2.513   9.873
 8573SOL    HW127160   1.949   2.427   9.894
 8573SOL    HW227161   1.972   2.564   9.954
 8574SOL     OW27162   1.913   3.454   9.433
 8574SOL    HW127163   1.896   3.361   9.448
 8574SOL    HW227164   1.883   3.498   9.512
 8575SOL     OW27165   3.556   2.783   9.971
 8575SOL    HW127166   3.620   2.735   9.919
 8575SOL    HW227167   3.509   2.838   9.908
 8576SOL     OW27168   3.474   2.920   9.747
 8576SOL    HW127169   3.550   2.874   9.713
 8576SOL    HW227170   3.495   3.013   9.736
 8577SOL     OW27171   1.978   2.612  10.893
 8577SOL    HW127172   2.063   2.656  10.896
 8577SOL    HW227173   1.914   2.682  10.882
 8578SOL     OW27174   2.465   3.246  10.071
 8578SOL    HW127175   2.422   3.161  10.063
 8578SOL    HW227176   2.464   3.282   9.983
 8579SOL     OW27177   3.123   3.103  10.720
 8579SOL    HW127178   3.156   3.031  10.667
 8579SOL    HW227179   3.180   3.106  10.796
 8580SOL     OW27180   2.686   1.870   9.833
 8580SOL    HW127181   2.726   1.951   9.802
 8580SOL    HW227182   2.592   1.888   9.831
 8581SOL     OW27183   2.041   2.818  10.603
 8581SOL    HW127184   2.127   2.780  10.583
 8581SOL    HW227185   1.983   2.783  10.536
 8582SOL     OW27186   3.375   2.854   9.499
 8582SOL    HW127187   3.303   2.791   9.509
 8582SOL    HW227188   3.399   2.876   9.589
 8583SOL     OW27189   3.038   3.677  10.942
 8583SOL    HW127190   3.046   3.741  10.872
 8583SOL    HW227191   3.062   3.594  10.901
 8584SOL     OW27192   2.211   2.109  11.163
 8584SOL    HW127193   2.251   2.192  11.188
 8584SOL    HW227194   2.117   2.124  11.168
 8585SOL     OW27195   3.348   3.283  10.290
 8585SOL    HW127196   3.259   3.295  10.322
 8585SOL    HW227197   3.341   3.213  10.224
 8586SOL     OW27198   2.450   2.570   9.578
 8586SOL    HW127199   2.460   2.653   9.533
 8586SOL    HW227200   2.388   2.588   9.649
 8587SOL     OW27201   3.144   2.239  10.288
 8587SOL    HW127202   3.071   2.188  10.252
 8587SOL    HW227203   3.200   2.174  10.330
 8588SOL     OW27204   2.650   2.467  10.748
 8588SOL    HW127205   2.626   2.446  10.838
 8588SOL    HW227206   2.620   2.391  10.697
 8589SOL     OW27207   3.253   2.333  10.986
 8589SOL    HW127208   3.258   2.381  11.069
 8589SOL    HW227209   3.310   2.257  10.998
 8590SOL     OW27210   2.803   2.753  10.891
 8590SOL    HW127211   2.863   2.687  10.856
 8590SOL    HW227212   2.762   2.791  10.813
 8591SOL     OW27213   2.918   2.551   9.733
 8591SOL    HW127214   2.934   2.547   9.827
 8591SOL    HW227215   2.834   2.508   9.721
 8592SOL     OW27216   1.947   2.674  10.090
 8592SOL    HW127217   2.026   2.671  10.144
 8592SOL    HW227218   1.899   2.750  10.122
 8593SOL     OW27219   1.987   3.734  10.886
 8593SOL    HW127220   1.983   3.712  10.979
 8593SOL    HW227221   1.936   3.666  10.843
 8594SOL     OW27222   2.772   2.209   9.504
 8594SOL    HW127223   2.805   2.281   9.450
 8594SOL    HW227224   2.798   2.130   9.456
 8595SOL     OW27225   3.552   2.429  11.144
 8595SOL    HW127226   3.526   2.505  11.092
 8595SOL    HW227227   3.587   2.367  11.080
 8596SOL     OW27228   3.216   2.992   9.850
 8596SOL    HW127229   3.293   2.968   9.799
 8596SOL    HW227230   3.180   3.068   9.804
 8597SOL     OW27231   2.411   2.029  10.210
 8597SOL    HW127232   2.413   2.066  10.298
 8597SOL    HW227233   2.408   2.105  10.152
 8598SOL     OW27234   2.890   3.337   9.799
 8598SOL    HW127235   2.833   3.383   9.738
 8598SOL    HW227236   2.852   3.353   9.885
 8599SOL     OW27237   2.212   3.679  10.185
 8599SOL    HW127238   2.262   3.597  10.191
 8599SOL    HW227239   2.277   3.748  10.199
 8600SOL     OW27240   3.668   2.905  10.199
 8600SOL    HW127241   3.626   2.883  10.115
 8600SOL    HW227242   3.596   2.915  10.260
 8601SOL     OW27243   3.086   3.408  10.828
 8601SOL    HW127244   3.075   3.333  10.887
 8601SOL    HW227245   3.019   3.394  10.760
 8602SOL     OW27246   2.176   2.835   9.564
 8602SOL    HW127247   2.264   2.859   9.535
 8602SOL    HW227248   2.147   2.769   9.501
 8603SOL     OW27249   3.349   2.619  10.044
 8603SOL    HW127250   3.357   2.577  10.130
 8603SOL    HW227251   3.430   2.669  10.034
 8604SOL     OW27252   2.329   3.137  11.048
 8604SOL    HW127253   2.303   3.143  10.956
 8604SOL    HW227254   2.246   3.127  11.096
 8605SOL     OW27255   2.888   3.637   9.536
 8605SOL    HW127256   2.926   3.567   9.483
 8605SOL    HW227257   2.950   3.709   9.529
 8606SOL     OW27258   2.067   2.138  10.814
 8606SOL    HW127259   1.986   2.188  10.803
 8606SOL    HW227260   2.039   2.054  10.850
 8607SOL     OW27261   2.332   3.592   9.630
 8607SOL    HW127262   2.383   3.650   9.686
 8607SOL    HW227263   2.396   3.556   9.569
 8608SOL     OW27264   3.261   1.966   9.757
 8608SOL    HW127265   3.247   1.942   9.665
 8608SOL    HW227266   3.351   1.999   9.759
 8609SOL     OW27267   2.136   3.658  10.524
 8609SOL    HW127268   2.155   3.575  10.569
 8609SOL    HW227269   2.106   3.631  10.437
 8610SOL     OW27270   2.850   3.494  10.234
 8610SOL    HW127271   2.935   3.505  10.191
 8610SOL    HW227272   2.788   3.493  10.161
 8611SOL     OW27273   2.259   2.551   9.788
 8611SOL    HW127274   2.276   2.458   9.800
 8611SOL    HW227275   2.165   2.561   9.803
 8612SOL     OW27276   3.386   2.085  11.031
 8612SOL    HW127277   3.396   2.107  11.124
 8612SOL    HW227278   3.324   2.012  11.030
 8613SOL     OW27279   2.506   1.970   9.423
 8613SOL    HW127280   2.582   1.912   9.418
 8613SOL    HW227281   2.451   1.944   9.349
 8614SOL     OW27282   2.624   2.138  11.066
 8614SOL    HW127283   2.706   2.090  11.065
 8614SOL    HW227284   2.580   2.109  11.146
 8615SOL     OW27285   3.192   2.441  10.739
 8615SOL    HW127286   3.227   2.410  10.822
 8615SOL    HW227287   3.234   2.526  10.726
 8616SOL     OW27288   2.686   3.232  10.244
 8616SOL    HW127289   2.755   3.240  10.179
 8616SOL    HW227290   2.605   3.246  10.196
 8617SOL     OW27291   2.812   2.345  10.212
 8617SOL    HW127292   2.774   2.359  10.125
 8617SOL    HW227293   2.839   2.253  10.211
 8618SOL     OW27294   2.419   1.925   9.804
 8618SOL    HW127295   2.337   1.924   9.854
 8618SOL    HW227296   2.410   2.002   9.747
 8619SOL     OW27297   3.300   3.079   9.353
 8619SOL    HW127298   3.328   3.000   9.399
 8619SOL    HW227299   3.214   3.099   9.391
 8620SOL     OW27300   2.149   1.909   9.496
 8620SOL    HW127301   2.193   1.975   9.443
 8620SOL    HW227302   2.219   1.854   9.529
 8621SOL     OW27303   2.803   2.113   9.765
 8621SOL    HW127304   2.778   2.148   9.680
 8621SOL    HW227305   2.898   2.129   9.771
 8622SOL     OW27306   2.944   2.550  10.779
 8622SOL    HW127307   2.887   2.478  10.806
 8622SOL    HW227308   3.031   2.511  10.776
 8623SOL     OW27309   3.096   3.454  10.092
 8623SOL    HW127310   3.089   3.530  10.034
 8623SOL    HW227311   3.185   3.421  10.076
 8624SOL     OW27312   2.335   3.007  10.035
 8624SOL    HW127313   2.267   2.990  10.100
 8624SOL    HW227314   2.290   3.003   9.951
 8625SOL     OW27315   3.094   3.678   9.929
 8625SOL    HW127316   3.154   3.638   9.865
 8625SOL    HW227317   3.069   3.761   9.889
 8626SOL     OW27318   2.879   2.401   9.340
 8626SOL    HW127319   2.835   2.481   9.310
 8626SOL    HW227320   2.957   2.432   9.386
 8627SOL     OW27321   1.959   2.418  10.701
 8627SOL    HW127322   2.051   2.423  10.675
 8627SOL    HW227323   1.948   2.488  10.766
 8628SOL     OW27324   2.421   2.087  10.485
 8628SOL    HW127325   2.454   2.006  10.524
 8628SOL    HW227326   2.329   2.090  10.511
 8629SOL     OW27327   2.726   2.322   9.951
 8629SOL    HW127328   2.683   2.379   9.887
 8629SOL    HW227329   2.752   2.245   9.901
 8630SOL     OW27330   2.861   1.936  10.071
 8630SOL    HW127331   2.812   1.933   9.989
 8630SOL    HW227332   2.845   1.851  10.112
 8631SOL     OW27333   3.312   3.058  10.133
 8631SOL    HW127334   3.251   2.995  10.095
 8631SOL    HW227335   3.342   3.110  10.059
 8632SOL     OW27336   3.329   2.480  10.285
 8632SOL    HW127337   3.282   2.397  10.281
 8632SOL    HW227338   3.390   2.469  10.358
 8633SOL     OW27339   3.672   2.686   9.729
 8633SOL    HW127340   3.749   2.640   9.762
 8633SOL    HW227341   3.653   2.645   9.645
 8634SOL     OW27342   2.346   3.275   9.449
 8634SOL    HW127343   2.276   3.241   9.504
 8634SOL    HW227344   2.346   3.219   9.372
 8635SOL     OW27345   3.257   2.441   9.375
 8635SOL    HW127346   3.208   2.411   9.452
 8635SOL    HW227347   3.348   2.423   9.398
 8636SOL     OW27348   2.386   2.125   9.622
 8636SOL    HW127349   2.434   2.077   9.555
 8636SOL    HW227350   2.356   2.204   9.577
 8637SOL     OW27351   3.605   3.104  10.871
 8637SOL    HW127352   3.693   3.069  10.854
 8637SOL    HW227353   3.620   3.194  10.900
 8638SOL     OW27354   2.884   3.235  10.618
 8638SOL    HW127355   2.807   3.203  10.665
 8638SOL    HW227356   2.958   3.188  10.657
 8639SOL     OW27357   3.471   3.492  10.974
 8639SOL    HW127358   3.458   3.525  10.885
 8639SOL    HW227359   3.552   3.441  10.968
 8640SOL     OW27360   2.998   3.064  10.405
 8640SOL    HW127361   2.915   3.024  10.430
 8640SOL    HW227362   2.995   3.067  10.309
 8641SOL     OW27363   3.464   2.953  10.377
 8641SOL    HW127364   3.455   3.015  10.450
 8641SOL    HW227365   3.404   2.987  10.311
 8642SOL     OW27366   2.778   1.956  10.696
 8642SOL    HW127367   2.802   1.926  10.608
 8642SOL    HW227368   2.858   1.996  10.730
 8643SOL     OW27369   2.844   2.978  11.036
 8643SOL    HW127370   2.754   2.996  11.062
 8643SOL    HW227371   2.838   2.901  10.979
 8644SOL     OW27372   2.563   2.905   9.684
 8644SOL    HW127373   2.552   2.887   9.777
 8644SOL    HW227374   2.645   2.861   9.660
 8645SOL     OW27375   2.280   2.686  10.569
 8645SOL    HW127376   2.349   2.697  10.634
 8645SOL    HW227377   2.248   2.597  10.580
 8646SOL     OW27378   3.047   2.293  10.554
 8646SOL    HW127379   3.098   2.347  10.615
 8646SOL    HW227380   3.104   2.284  10.477
 8647SOL     OW27381   1.938   3.492  10.697
 8647SOL    HW127382   1.894   3.519  10.617
 8647SOL    HW227383   2.010   3.436  10.667
 8648SOL     OW27384   2.190   2.988   9.803
 8648SOL    HW127385   2.191   3.064   9.744
 8648SOL    HW227386   2.192   2.913   9.744
 8649SOL     OW27387   2.410   2.389  10.177
 8649SOL    HW127388   2.415   2.443  10.099
 8649SOL    HW227389   2.481   2.420  10.233
 8650SOL     OW27390   3.127   3.219   9.718
 8650SOL    HW127391   3.197   3.284   9.725
 8650SOL    HW227392   3.048   3.265   9.746
 8651SOL     OW27393   3.125   3.314  10.460
 8651SOL    HW127394   3.192   3.331  10.526
 8651SOL    HW227395   3.109   3.220  10.467
 8652SOL     OW27396   3.455   2.460   9.804
 8652SOL    HW127397   3.395   2.531   9.827
 8652SOL    HW227398   3.509   2.496   9.733
 8653SOL     OW27399   2.198   3.394  10.613
 8653SOL    HW127400   2.185   3.341  10.534
 8653SOL    HW227401   2.292   3.407  10.619
 8654SOL     OW27402   2.286   2.614  10.919
 8654SOL    HW127403   2.350   2.653  10.859
 8654SOL    HW227404   2.318   2.525  10.935
 8655SOL     OW27405   3.478   2.646  10.999
 8655SOL    HW127406   3.392   2.688  10.993
 8655SOL    HW227407   3.530   2.688  10.930
 8656SOL     OW27408   2.861   2.001  11.065
 8656SOL    HW127409   2.917   2.075  11.044
 8656SOL    HW227410   2.909   1.924  11.036
 8657SOL     OW27411   2.356   1.894  11.064
 8657SOL    HW127412   2.305   1.846  10.998
 8657SOL    HW227413   2.303   1.971  11.083
 8658SOL     OW27414   2.451   2.735  10.360
 8658SOL    HW127415   2.452   2.826  10.332
 8658SOL    HW227416   2.381   2.729  10.425
 8659SOL     OW27417   3.191   2.716  10.330
 8659SOL    HW127418   3.161   2.738  10.242
 8659SOL    HW227419   3.242   2.636  10.319
 8660SOL     OW27420   3.075   2.379   9.577
 8660SOL    HW127421   3.074   2.301   9.632
 8660SOL    HW227422   3.029   2.445   9.629
 8661SOL     OW27423   2.158   2.057  10.555
 8661SOL    HW127424   2.119   2.090  10.637
 8661SOL    HW227425   2.137   1.963  10.555
 8662SOL     OW27426   1.942   3.187  10.594
 8662SOL    HW127427   1.969   3.124  10.660
 8662SOL    HW227428   1.847   3.192  10.601
 8663SOL     OW27429   2.589   2.505  10.355
 8663SOL    HW127430   2.661   2.528  10.296
 8663SOL    HW227431   2.536   2.584  10.361
 8664SOL     OW27432   3.609   2.822  11.174
 8664SOL    HW127433   3.567   2.754  11.121
 8664SOL    HW227434   3.546   2.840  11.244
 8665SOL     OW27435   2.175   1.918   9.935
 8665SOL    HW127436   2.147   2.008   9.952
 8665SOL    HW227437   2.182   1.878  10.022
 8666SOL     OW27438   3.458   2.213   9.682
 8666SOL    HW127439   3.516   2.164   9.740
 8666SOL    HW227440   3.451   2.299   9.723
 8667SOL     OW27441   2.856   2.611  10.255
 8667SOL    HW127442   2.873   2.620  10.348
 8667SOL    HW227443   2.859   2.517  10.238
 8668SOL     OW27444   2.841   3.424  11.044
 8668SOL    HW127445   2.822   3.472  10.964
 8668SOL    HW227446   2.886   3.345  11.014
 8669SOL     OW27447   3.709   3.362  10.913
 8669SOL    HW127448   3.732   3.388  10.823
 8669SOL    HW227449   3.790   3.374  10.963
 8670SOL     OW27450   2.217   2.770  11.134
 8670SOL    HW127451   2.299   2.788  11.180
 8670SOL    HW227452   2.242   2.713  11.061
 8671SOL     OW27453   3.382   2.121   9.435
 8671SOL    HW127454   3.316   2.059   9.464
 8671SOL    HW227455   3.413   2.162   9.516
 8672SOL     OW27456   3.153   2.692   9.340
 8672SOL    HW127457   3.195   2.606   9.337
 8672SOL    HW227458   3.180   2.735   9.258
 8673SOL     OW27459   2.958   3.225  10.175
 8673SOL    HW127460   2.953   3.149  10.118
 8673SOL    HW227461   3.007   3.290  10.125
 8674SOL     OW27462   2.167   2.667  10.253
 8674SOL    HW127463   2.255   2.678  10.218
 8674SOL    HW227464   2.167   2.579  10.290
 8675SOL     OW27465   2.188   2.392  10.328
 8675SOL    HW127466   2.149   2.306  10.313
 8675SOL    HW227467   2.265   2.393  10.271
 8676SOL     OW27468   2.996   2.236  10.995
 8676SOL    HW127469   2.950   2.287  11.061
 8676SOL    HW227470   3.084   2.272  10.993
 8677SOL     OW27471   3.012   2.081  10.766
 8677SOL    HW127472   3.007   2.132  10.847
 8677SOL    HW227473   3.042   2.144  10.700
 8678SOL     OW27474   1.878   3.178   9.500
 8678SOL    HW127475   1.788   3.199   9.473
 8678SOL    HW227476   1.870   3.091   9.539
 8679SOL     OW27477   1.953   3.638  10.258
 8679SOL    HW127478   1.922   3.563  10.208
 8679SOL    HW227479   2.041   3.655  10.224
 8680SOL     OW27480   2.365   3.452  10.220
 8680SOL    HW127481   2.440   3.512  10.229
 8680SOL    HW227482   2.397   3.383  10.161
 8681SOL     OW27483   2.839   2.577  10.527
 8681SOL    HW127484   2.895   2.588  10.604
 8681SOL    HW227485   2.752   2.604  10.556
 8682SOL     OW27486   1.893   2.403  10.433
 8682SOL    HW127487   1.972   2.406  10.379
 8682SOL    HW227488   1.925   2.409  10.523
 8683SOL     OW27489   2.052   2.392  11.043
 8683SOL    HW127490   2.089   2.337  10.974
 8683SOL    HW227491   2.017   2.469  10.998
 8684SOL     OW27492   3.247   2.792  10.962
 8684SOL    HW127493   3.265   2.886  10.956
 8684SOL    HW227494   3.244   2.762  10.871
 8685SOL     OW27495   2.675   2.428   9.683
 8685SOL    HW127496   2.686   2.358   9.619
 8685SOL    HW227497   2.602   2.480   9.649
 8686SOL     OW27498   3.504   2.452  10.490
 8686SOL    HW127499   3.502   2.399  10.570
 8686SOL    HW227500   3.592   2.439  10.456
 8687SOL     OW27501   2.104   3.408  11.035
 8687SOL    HW127502   2.078   3.465  11.106
 8687SOL    HW227503   2.106   3.320  11.073
 8688SOL     OW27504   2.610   2.289  10.525
 8688SOL    HW127505   2.542   2.222  10.521
 8688SOL    HW227506   2.575   2.362  10.474
 8689SOL     OW27507   2.761   3.558  10.814
 8689SOL    HW127508   2.686   3.537  10.758
 8689SOL    HW227509   2.787   3.646  10.787
 8690SOL     OW27510   2.306   2.347   9.482
 8690SOL    HW127511   2.364   2.419   9.506
 8690SOL    HW227512   2.222   2.389   9.464
 8691SOL     OW27513   2.005   3.003  10.797
 8691SOL    HW127514   2.003   2.957  10.881
 8691SOL    HW227515   2.014   2.934  10.732
 8692SOL     OW27516   3.171   2.893  10.535
 8692SOL    HW127517   3.190   2.829  10.467
 8692SOL    HW227518   3.118   2.960  10.492
 8693SOL     OW27519   3.162   2.697   9.615
 8693SOL    HW127520   3.080   2.672   9.656
 8693SOL    HW227521   3.145   2.694   9.521
 8694SOL     OW27522   3.657   3.602  10.492
 8694SOL    HW127523   3.709   3.629  10.417
 8694SOL    HW227524   3.620   3.517  10.467
 8695SOL     OW27525   3.111   3.600  10.422
 8695SOL    HW127526   3.185   3.631  10.370
 8695SOL    HW227527   3.127   3.506  10.433
 8696SOL     OW27528   1.958   3.133  10.326
 8696SOL    HW127529   1.953   3.154  10.419
 8696SOL    HW227530   1.877   3.086  10.308
 8697SOL     OW27531   2.547   3.540  11.060
 8697SOL    HW127532   2.483   3.609  11.045
 8697SOL    HW227533   2.618   3.560  10.999
 8698SOL     OW27534   3.609   2.025   9.822
 8698SOL    HW127535   3.666   2.010   9.746
 8698SOL    HW227536   3.584   1.937   9.851
 8699SOL     OW27537   1.998   3.664  11.150
 8699SOL    HW127538   1.952   3.592  11.193
 8699SOL    HW227539   2.046   3.707  11.220
 8700SOL     OW27540   3.144   2.788  10.005
 8700SOL    HW127541   3.221   2.731  10.006
 8700SOL    HW227542   3.166   2.855   9.940
 8701SOL     OW27543   2.644   3.139  10.726
 8701SOL    HW127544   2.620   3.185  10.806
 8701SOL    HW227545   2.569   3.149  10.668
 8702SOL     OW27546   2.527   3.472   9.461
 8702SOL    HW127547   2.541   3.497   9.370
 8702SOL    HW227548   2.466   3.399   9.457
 8703SOL     OW27549   3.474   3.588  10.707
 8703SOL    HW127550   3.535   3.590  10.633
 8703SOL    HW227551   3.458   3.680  10.728
 8704SOL     OW27552   3.703   2.027  10.279
 8704SOL    HW127553   3.733   1.940  10.252
 8704SOL    HW227554   3.620   2.039  10.232
 8705SOL     OW27555   2.111   2.168  10.021
 8705SOL    HW127556   2.026   2.204   9.997
 8705SOL    HW227557   2.111   2.168  10.117
 8706SOL     OW27558   2.994   3.445   9.371
 8706SOL    HW127559   3.066   3.391   9.337
 8706SOL    HW227560   2.936   3.457   9.296
 8707SOL     OW27561   2.685   2.874  10.666
 8707SOL    HW127562   2.683   2.886  10.571
 8707SOL    HW227563   2.677   2.962  10.702
 8708SOL     OW27564   2.788   2.775   9.623
 8708SOL    HW127565   2.832   2.800   9.542
 8708SOL    HW227566   2.838   2.700   9.656
 8709SOL     OW27567   2.224   3.172  10.802
 8709SOL    HW127568   2.203   3.246  10.745
 8709SOL    HW227569   2.148   3.114  10.794
 8710SOL     OW27570   3.448   3.129  10.591
 8710SOL    HW127571   3.524   3.130  10.649
 8710SOL    HW227572   3.397   3.207  10.615
 8711SOL     OW27573   2.928   2.987  10.061
 8711SOL    HW127574   2.850   2.933  10.074
 8711SOL    HW227575   2.981   2.938   9.998
 8712SOL     OW27576   2.884   2.094  10.297
 8712SOL    HW127577   2.876   2.052  10.211
 8712SOL    HW227578   2.882   2.021  10.359
 8713SOL     OW27579   2.470   3.349   9.824
 8713SOL    HW127580   2.523   3.294   9.767
 8713SOL    HW227581   2.415   3.400   9.764
 8714SOL     OW27582   3.594   2.252  10.695
 8714SOL    HW127583   3.668   2.313  10.698
 8714SOL    HW227584   3.621   2.183  10.634
 8715SOL     OW27585   2.136   3.191   9.616
 8715SOL    HW127586   2.050   3.195   9.575
 8715SOL    HW227587   2.127   3.242   9.696
 8716SOL     OW27588   1.988   2.901  11.053
 8716SOL    HW127589   1.909   2.871  11.097
 8716SOL    HW227590   2.059   2.849  11.092
 8717SOL     OW27591   2.540   2.056  10.810
 8717SOL    HW127592   2.624   2.032  10.771
 8717SOL    HW227593   2.563   2.088  10.898
 8718SOL     OW27594   1.945   2.198   9.344
 8718SOL    HW127595   1.884   2.199   9.270
 8718SOL    HW227596   1.959   2.291   9.363
 8719SOL     OW27597   3.283   2.706  10.704
 8719SOL    HW127598   3.232   2.770  10.654
 8719SOL    HW227599   3.371   2.713  10.668
 8720SOL     OW27600   1.917   2.013   9.601
 8720SOL    HW127601   1.900   2.084   9.539
 8720SOL    HW227602   2.005   1.982   9.577
 8721SOL     OW27603   3.059   3.147   9.453
 8721SOL    HW127604   2.975   3.184   9.426
 8721SOL    HW227605   3.068   3.173   9.545
 8722SOL     OW27606   2.488   2.690  10.744
 8722SOL    HW127607   2.546   2.764  10.727
 8722SOL    HW227608   2.547   2.614  10.749
 8723SOL     OW27609   3.346   3.646  10.275
 8723SOL    HW127610   3.344   3.631  10.180
 8723SOL    HW227611   3.425   3.602  10.305
 8724SOL     OW27612   2.588   2.416  11.003
 8724SOL    HW127613   2.629   2.474  11.067
 8724SOL    HW227614   2.598   2.328  11.041
 8725SOL     OW27615   3.328   3.056  10.933
 8725SOL    HW127616   3.322   3.072  11.027
 8725SOL    HW227617   3.419   3.075  10.911
 8726SOL     OW27618   2.235   3.603  10.879
 8726SOL    HW127619   2.155   3.649  10.854
 8726SOL    HW227620   2.205   3.521  10.918
 8727SOL     OW27621   3.518   2.742  10.562
 8727SOL    HW127622   3.523   2.659  10.515
 8727SOL    HW227623   3.504   2.807  10.494
 8728SOL     OW27624   3.071   2.173   9.776
 8728SOL    HW127625   3.139   2.106   9.767
 8728SOL    HW227626   3.098   2.223   9.853
 8729SOL     OW27627   2.436   2.596   9.996
 8729SOL    HW127628   2.481   2.678   9.977
 8729SOL    HW227629   2.377   2.583   9.921
 8730SOL     OW27630   3.618   2.222  10.971
 8730SOL    HW127631   3.609   2.240  10.877
 8730SOL    HW227632   3.542   2.168  10.992
 8731SOL     OW27633   3.613   2.796  10.817
 8731SOL    HW127634   3.598   2.890  10.830
 8731SOL    HW227635   3.592   2.781  10.725
 8732SOL     OW27636   2.721   3.246   9.363
 8732SOL    HW127637   2.676   3.317   9.408
 8732SOL    HW227638   2.758   3.286   9.285
 8733SOL     OW27639   2.552   3.652  10.250
 8733SOL    HW127640   2.505   3.734  10.236
 8733SOL    HW227641   2.630   3.659  10.195
 8734SOL     OW27642   2.721   2.838  10.170
 8734SOL    HW127643   2.767   2.758  10.197
 8734SOL    HW227644   2.688   2.875  10.252
 8735SOL     OW27645   2.914   2.817   9.390
 8735SOL    HW127646   2.901   2.889   9.328
 8735SOL    HW227647   3.001   2.783   9.368
 8736SOL     OW27648   3.689   3.446  10.114
 8736SOL    HW127649   3.639   3.470  10.036
 8736SOL    HW227650   3.662   3.356  10.133
 8737SOL     OW27651   2.072   3.152  11.150
 8737SOL    HW127652   2.037   3.075  11.105
 8737SOL    HW227653   2.013   3.165  11.224
 8738SOL     OW27654   1.948   3.088   9.978
 8738SOL    HW127655   1.969   3.036  10.055
 8738SOL    HW227656   2.017   3.065   9.915
 8739SOL     OW27657   2.544   3.279  10.940
 8739SOL    HW127658   2.466   3.236  10.976
 8739SOL    HW227659   2.546   3.364  10.983
 8740SOL     OW27660   3.656   2.036  10.547
 8740SOL    HW127661   3.687   1.947  10.563
 8740SOL    HW227662   3.672   2.051  10.453
 8741SOL     OW27663   2.294   2.290   9.841
 8741SOL    HW127664   2.323   2.225   9.777
 8741SOL    HW227665   2.236   2.241   9.900
 8742SOL     OW27666   3.562   3.361  10.432
 8742SOL    HW127667   3.488   3.337  10.376
 8742SOL    HW227668   3.590   3.279  10.471
 8743SOL     OW27669   2.210   2.426  10.602
 8743SOL    HW127670   2.260   2.360  10.651
 8743SOL    HW227671   2.215   2.398  10.511
 8744SOL     OW27672   2.697   3.471   9.991
 8744SOL    HW127673   2.709   3.548   9.935
 8744SOL    HW227674   2.628   3.420   9.947
 8745SOL     OW27675   3.293   2.069  10.435
 8745SOL    HW127676   3.314   1.978  10.416
 8745SOL    HW227677   3.301   2.077  10.530
 8746SOL     OW27678   2.870   1.864  10.449
 8746SOL    HW127679   2.816   1.800  10.402
 8746SOL    HW227680   2.957   1.826  10.449
 8747SOL     OW27681   2.618   3.179   9.674
 8747SOL    HW127682   2.593   3.088   9.665
 8747SOL    HW227683   2.699   3.187   9.623
 8748SOL     OW27684   2.474   3.435  10.566
 8748SOL    HW127685   2.482   3.503  10.633
 8748SOL    HW227686   2.491   3.480  10.483
 8749SOL     OW27687   3.212   1.911   9.493
 8749SOL    HW127688   3.242   1.858   9.420
 8749SOL    HW227689   3.125   1.876   9.514
 8750SOL     OW27690   3.129   2.318  10.000
 8750SOL    HW127691   3.088   2.404   9.993
 8750SOL    HW227692   3.156   2.313  10.092
 8751SOL     OW27693   3.447   2.066  10.188
 8751SOL    HW127694   3.398   2.099  10.264
 8751SOL    HW227695   3.450   2.139  10.127
 8752SOL     OW27696   1.901   2.927   9.627
 8752SOL    HW127697   1.995   2.925   9.610
 8752SOL    HW227698   1.878   2.836   9.645
 8753SOL     OW27699   2.703   3.501   9.677
 8753SOL    HW127700   2.640   3.486   9.607
 8753SOL    HW227701   2.766   3.562   9.640
 8754SOL     OW27702   2.078   2.479  11.307
 8754SOL    HW127703   1.987   2.482  11.337
 8754SOL    HW227704   2.071   2.465  11.212
 8755SOL     OW27705   2.074   2.157  12.156
 8755SOL    HW127706   2.112   2.122  12.236
 8755SOL    HW227707   1.987   2.119  12.152
 8756SOL     OW27708   1.863   2.247  11.809
 8756SOL    HW127709   1.782   2.269  11.855
 8756SOL    HW227710   1.841   2.172  11.755
 8757SOL     OW27711   2.404   3.112  12.329
 8757SOL    HW127712   2.326   3.153  12.292
 8757SOL    HW227713   2.444   3.181  12.383
 8758SOL     OW27714   3.447   3.380  11.883
 8758SOL    HW127715   3.401   3.355  11.963
 8758SOL    HW227716   3.379   3.382  11.816
 8759SOL     OW27717   3.004   2.558  11.859
 8759SOL    HW127718   3.044   2.645  11.856
 8759SOL    HW227719   2.952   2.558  11.939
 8760SOL     OW27720   3.648   2.455  11.394
 8760SOL    HW127721   3.615   2.452  11.304
 8760SOL    HW227722   3.607   2.379  11.437
 8761SOL     OW27723   2.618   2.987  12.230
 8761SOL    HW127724   2.538   3.019  12.271
 8761SOL    HW227725   2.651   3.061  12.180
 8762SOL     OW27726   2.550   2.872  11.812
 8762SOL    HW127727   2.613   2.857  11.882
 8762SOL    HW227728   2.481   2.923  11.853
 8763SOL     OW27729   2.197   3.271  12.228
 8763SOL    HW127730   2.118   3.236  12.186
 8763SOL    HW227731   2.238   3.325  12.161
 8764SOL     OW27732   3.459   2.296  11.920
 8764SOL    HW127733   3.390   2.311  11.856
 8764SOL    HW227734   3.454   2.371  11.979
 8765SOL     OW27735   2.080   3.582  11.636
 8765SOL    HW127736   2.105   3.656  11.691
 8765SOL    HW227737   2.153   3.572  11.574
 8766SOL     OW27738   2.096   3.314  11.714
 8766SOL    HW127739   2.075   3.408  11.709
 8766SOL    HW227740   2.036   3.279  11.779
 8767SOL     OW27741   2.128   2.950  12.059
 8767SOL    HW127742   2.135   2.859  12.088
 8767SOL    HW227743   2.074   2.992  12.126
 8768SOL     OW27744   2.437   2.848  11.315
 8768SOL    HW127745   2.486   2.893  11.246
 8768SOL    HW227746   2.477   2.879  11.396
 8769SOL     OW27747   1.974   2.521  11.736
 8769SOL    HW127748   1.952   2.430  11.757
 8769SOL    HW227749   1.970   2.566  11.820
 8770SOL     OW27750   3.705   3.611  11.498
 8770SOL    HW127751   3.776   3.589  11.558
 8770SOL    HW227752   3.719   3.704  11.477
 8771SOL     OW27753   1.914   3.451  11.291
 8771SOL    HW127754   1.892   3.359  11.306
 8771SOL    HW227755   1.881   3.496  11.368
 8772SOL     OW27756   3.556   2.784  11.825
 8772SOL    HW127757   3.638   2.739  11.806
 8772SOL    HW227758   3.535   2.832  11.745
 8773SOL     OW27759   3.515   2.964  11.603
 8773SOL    HW127760   3.601   2.960  11.562
 8773SOL    HW227761   3.525   3.028  11.674
 8774SOL     OW27762   2.029   2.591   0.215
 8774SOL    HW127763   2.071   2.626   0.294
 8774SOL    HW227764   1.953   2.648   0.201
 8775SOL     OW27765   2.472   3.261  11.899
 8775SOL    HW127766   2.428   3.177  11.906
 8775SOL    HW227767   2.459   3.288  11.809
 8776SOL     OW27768   2.684   1.863  11.692
 8776SOL    HW127769   2.726   1.944  11.663
 8776SOL    HW227770   2.591   1.883  11.692
 8777SOL     OW27771   2.058   2.839  12.444
 8777SOL    HW127772   2.132   2.778  12.437
 8777SOL    HW227773   1.981   2.787  12.420
 8778SOL     OW27774   3.393   2.866  11.373
 8778SOL    HW127775   3.324   2.807  11.405
 8778SOL    HW227776   3.437   2.896  11.452
 8779SOL     OW27777   3.313   3.281  12.102
 8779SOL    HW127778   3.256   3.293  12.178
 8779SOL    HW227779   3.304   3.188  12.080
 8780SOL     OW27780   3.505   3.635  11.744
 8780SOL    HW127781   3.489   3.593  11.660
 8780SOL    HW227782   3.502   3.564  11.808
 8781SOL     OW27783   2.450   2.572  11.438
 8781SOL    HW127784   2.455   2.658  11.397
 8781SOL    HW227785   2.391   2.583  11.512
 8782SOL     OW27786   3.159   2.240  12.113
 8782SOL    HW127787   3.070   2.205  12.111
 8782SOL    HW227788   3.206   2.183  12.172
 8783SOL     OW27789   3.438   3.536  11.486
 8783SOL    HW127790   3.531   3.555  11.477
 8783SOL    HW227791   3.408   3.521  11.396
 8784SOL     OW27792   2.834   2.207  12.382
 8784SOL    HW127793   2.820   2.277  12.445
 8784SOL    HW227794   2.770   2.223  12.313
 8785SOL     OW27795   2.921   2.562  11.591
 8785SOL    HW127796   2.939   2.554  11.685
 8785SOL    HW227797   2.837   2.517  11.579
 8786SOL     OW27798   1.948   2.683  11.958
 8786SOL    HW127799   2.031   2.675  12.004
 8786SOL    HW227800   1.906   2.760  11.995
 8787SOL     OW27801   2.765   2.198  11.359
 8787SOL    HW127802   2.802   2.268  11.305
 8787SOL    HW227803   2.789   2.118  11.313
 8788SOL     OW27804   3.248   3.005  11.708
 8788SOL    HW127805   3.328   2.992  11.657
 8788SOL    HW227806   3.195   3.066  11.656
 8789SOL     OW27807   2.417   2.020  12.069
 8789SOL    HW127808   2.425   2.106  12.110
 8789SOL    HW227809   2.414   2.037  11.975
 8790SOL     OW27810   2.862   3.311  11.640
 8790SOL    HW127811   2.832   3.385  11.589
 8790SOL    HW227812   2.835   3.330  11.730
 8791SOL     OW27813   2.219   3.679  12.042
 8791SOL    HW127814   2.263   3.595  12.051
 8791SOL    HW227815   2.287   3.744  12.061
 8792SOL     OW27816   3.663   2.922  12.054
 8792SOL    HW127817   3.614   2.897  11.975
 8792SOL    HW227818   3.597   2.924  12.123
 8793SOL     OW27819   2.169   2.825  11.432
 8793SOL    HW127820   2.249   2.849  11.386
 8793SOL    HW227821   2.143   2.741  11.393
 8794SOL     OW27822   3.345   2.618  11.886
 8794SOL    HW127823   3.343   2.576  11.972
 8794SOL    HW227824   3.424   2.672  11.887
 8795SOL     OW27825   2.992   3.638  11.402
 8795SOL    HW127826   2.913   3.602  11.442
 8795SOL    HW227827   3.015   3.576  11.334
 8796SOL     OW27828   3.493   3.249  11.272
 8796SOL    HW127829   3.451   3.333  11.252
 8796SOL    HW227830   3.428   3.184  11.246
 8797SOL     OW27831   2.323   3.603  11.487
 8797SOL    HW127832   2.373   3.654  11.551
 8797SOL    HW227833   2.389   3.562  11.432
 8798SOL     OW27834   3.261   1.967  11.622
 8798SOL    HW127835   3.256   1.944  11.529
 8798SOL    HW227836   3.354   1.977  11.639
 8799SOL     OW27837   2.108   3.645  12.388
 8799SOL    HW127838   2.126   3.564  12.435
 8799SOL    HW227839   2.064   3.617  12.307
 8800SOL     OW27840   2.814   3.557  12.067
 8800SOL    HW127841   2.899   3.513  12.067
 8800SOL    HW227842   2.764   3.510  11.999
 8801SOL     OW27843   2.256   2.561  11.647
 8801SOL    HW127844   2.270   2.467  11.659
 8801SOL    HW227845   2.163   2.573  11.662
 8802SOL     OW27846   2.511   1.973  11.275
 8802SOL    HW127847   2.573   1.901  11.287
 8802SOL    HW227848   2.455   1.944  11.202
 8803SOL     OW27849   2.665   3.222  12.105
 8803SOL    HW127850   2.755   3.230  12.071
 8803SOL    HW227851   2.609   3.240  12.030
 8804SOL     OW27852   2.831   2.367  12.066
 8804SOL    HW127853   2.783   2.360  11.984
 8804SOL    HW227854   2.855   2.276  12.087
 8805SOL     OW27855   2.418   1.926  11.666
 8805SOL    HW127856   2.336   1.924  11.714
 8805SOL    HW227857   2.411   2.002  11.609
 8806SOL     OW27858   3.294   3.067  11.209
 8806SOL    HW127859   3.323   2.991  11.260
 8806SOL    HW227860   3.208   3.088  11.244
 8807SOL     OW27861   2.148   1.910  11.359
 8807SOL    HW127862   2.199   1.977  11.313
 8807SOL    HW227863   2.214   1.853  11.399
 8808SOL     OW27864   2.803   2.104  11.620
 8808SOL    HW127865   2.779   2.142  11.535
 8808SOL    HW227866   2.895   2.127  11.632
 8809SOL     OW27867   3.071   3.449  11.977
 8809SOL    HW127868   3.090   3.509  11.905
 8809SOL    HW227869   3.156   3.435  12.018
 8810SOL     OW27870   2.332   3.024  11.894
 8810SOL    HW127871   2.266   2.999  11.959
 8810SOL    HW227872   2.287   3.012  11.810
 8811SOL     OW27873   3.122   3.654  11.786
 8811SOL    HW127874   3.174   3.713  11.730
 8811SOL    HW227875   3.054   3.710  11.823
 8812SOL     OW27876   2.889   2.389  11.199
 8812SOL    HW127877   2.845   2.472  11.182
 8812SOL    HW227878   2.951   2.408  11.270
 8813SOL     OW27879   2.419   2.018  12.383
 8813SOL    HW127880   2.453   2.033  12.294
 8813SOL    HW227881   2.331   2.054  12.381
 8814SOL     OW27882   2.726   2.332  11.816
 8814SOL    HW127883   2.663   2.396  11.781
 8814SOL    HW227884   2.736   2.269  11.745
 8815SOL     OW27885   2.889   1.907  11.912
 8815SOL    HW127886   2.825   1.916  11.841
 8815SOL    HW227887   2.858   1.834  11.964
 8816SOL     OW27888   3.294   3.016  12.026
 8816SOL    HW127889   3.230   2.945  12.021
 8816SOL    HW227890   3.325   3.026  11.936
 8817SOL     OW27891   3.326   2.476  12.127
 8817SOL    HW127892   3.268   2.400  12.131
 8817SOL    HW227893   3.386   2.464  12.200
 8818SOL     OW27894   3.694   2.668  11.559
 8818SOL    HW127895   3.755   2.622  11.618
 8818SOL    HW227896   3.676   2.605  11.490
 8819SOL     OW27897   2.352   3.285  11.322
 8819SOL    HW127898   2.279   3.252  11.374
 8819SOL    HW227899   2.347   3.236  11.240
 8820SOL     OW27900   3.550   3.127  11.813
 8820SOL    HW127901   3.645   3.122  11.829
 8820SOL    HW227902   3.527   3.217  11.835
 8821SOL     OW27903   3.252   2.438  11.239
 8821SOL    HW127904   3.194   2.413  11.311
 8821SOL    HW227905   3.340   2.415  11.270
 8822SOL     OW27906   2.391   2.122  11.480
 8822SOL    HW127907   2.442   2.078  11.412
 8822SOL    HW227908   2.361   2.203  11.438
 8823SOL     OW27909   2.964   3.104  12.286
 8823SOL    HW127910   2.881   3.120  12.330
 8823SOL    HW227911   2.950   3.132  12.196
 8824SOL     OW27912   3.464   2.955  12.246
 8824SOL    HW127913   3.430   2.988  12.329
 8824SOL    HW227914   3.396   2.975  12.182
 8825SOL     OW27915   2.575   2.929  11.541
 8825SOL    HW127916   2.562   2.910  11.634
 8825SOL    HW227917   2.649   2.873  11.516
 8826SOL     OW27918   2.278   2.660  12.462
 8826SOL    HW127919   2.339   2.696  12.525
 8826SOL    HW227920   2.332   2.605  12.405
 8827SOL     OW27921   3.110   2.212  12.444
 8827SOL    HW127922   3.143   2.298  12.471
 8827SOL    HW227923   3.021   2.230  12.412
 8828SOL     OW27924   2.186   2.990  11.662
 8828SOL    HW127925   2.188   3.061  11.598
 8828SOL    HW227926   2.187   2.910  11.609
 8829SOL     OW27927   3.109   3.213  11.563
 8829SOL    HW127928   3.166   3.282  11.597
 8829SOL    HW227929   3.022   3.236  11.596
 8830SOL     OW27930   3.149   3.308  12.319
 8830SOL    HW127931   3.208   3.299  12.394
 8830SOL    HW227932   3.091   3.232  12.324
 8831SOL     OW27933   3.438   2.478  11.658
 8831SOL    HW127934   3.387   2.522  11.726
 8831SOL    HW227935   3.485   2.549  11.614
 8832SOL     OW27936   2.234   3.402  12.462
 8832SOL    HW127937   2.203   3.347  12.390
 8832SOL    HW227938   2.312   3.446  12.427
 8833SOL     OW27939   2.428   2.763  12.219
 8833SOL    HW127940   2.490   2.833  12.197
 8833SOL    HW227941   2.372   2.800  12.287
 8834SOL     OW27942   3.179   2.715  12.173
 8834SOL    HW127943   3.093   2.686  12.143
 8834SOL    HW227944   3.235   2.638  12.162
 8835SOL     OW27945   3.058   2.385  11.430
 8835SOL    HW127946   3.066   2.308  11.487
 8835SOL    HW227947   3.017   2.451  11.486
 8836SOL     OW27948   2.144   2.049  12.400
 8836SOL    HW127949   2.106   2.081  12.482
 8836SOL    HW227950   2.135   1.954  12.405
 8837SOL     OW27951   1.917   3.184  12.430
 8837SOL    HW127952   1.956   3.107  12.473
 8837SOL    HW227953   1.920   3.252  12.497
 8838SOL     OW27954   2.609   2.553  12.266
 8838SOL    HW127955   2.587   2.475  12.216
 8838SOL    HW227956   2.547   2.619  12.236
 8839SOL     OW27957   2.176   1.918  11.795
 8839SOL    HW127958   2.149   2.008  11.814
 8839SOL    HW227959   2.182   1.876  11.881
 8840SOL     OW27960   3.486   2.245  11.524
 8840SOL    HW127961   3.518   2.180  11.587
 8840SOL    HW227962   3.461   2.319  11.578
 8841SOL     OW27963   2.905   2.617  12.134
 8841SOL    HW127964   2.894   2.626  12.228
 8841SOL    HW227965   2.872   2.529  12.114
 8842SOL     OW27966   3.384   2.132  11.294
 8842SOL    HW127967   3.325   2.065  11.328
 8842SOL    HW227968   3.421   2.172  11.372
 8843SOL     OW27969   3.145   2.688  11.195
 8843SOL    HW127970   3.187   2.602  11.201
 8843SOL    HW227971   3.181   2.725  11.114
 8844SOL     OW27972   2.927   3.209  12.031
 8844SOL    HW127973   2.936   3.134  11.972
 8844SOL    HW227974   2.984   3.276  11.994
 8845SOL     OW27975   2.175   2.678  12.116
 8845SOL    HW127976   2.269   2.694  12.122
 8845SOL    HW227977   2.165   2.585  12.135
 8846SOL     OW27978   2.166   2.411  12.172
 8846SOL    HW127979   2.128   2.323  12.161
 8846SOL    HW227980   2.260   2.396  12.169
 8847SOL     OW27981   3.050   2.060   0.162
 8847SOL    HW127982   3.019   2.123   0.227
 8847SOL    HW227983   3.061   2.111   0.082
 8848SOL     OW27984   1.883   3.174  11.360
 8848SOL    HW127985   1.794   3.195  11.333
 8848SOL    HW227986   1.877   3.086  11.397
 8849SOL     OW27987   1.959   3.640  12.120
 8849SOL    HW127988   1.927   3.563  12.072
 8849SOL    HW227989   2.047   3.656  12.085
 8850SOL     OW27990   2.359   3.443  12.078
 8850SOL    HW127991   2.432   3.501  12.102
 8850SOL    HW227992   2.398   3.381  12.016
 8851SOL     OW27993   2.833   2.627  12.405
 8851SOL    HW127994   2.815   2.708  12.452
 8851SOL    HW227995   2.749   2.603  12.365
 8852SOL     OW27996   1.913   2.429  12.294
 8852SOL    HW127997   1.980   2.431  12.226
 8852SOL    HW227998   1.962   2.418  12.375
 8853SOL     OW27999   2.690   2.435  11.519
 8853SOL    HW128000   2.680   2.357  11.465
 8853SOL    HW228001   2.610   2.485  11.505
 8854SOL     OW28002   3.514   2.454  12.326
 8854SOL    HW128003   3.513   2.403  12.407
 8854SOL    HW228004   3.605   2.449  12.295
 8855SOL     OW28005   2.568   2.331  12.460
 8855SOL    HW128006   2.517   2.272  12.405
 8855SOL    HW228007   2.581   2.409  12.407
 8856SOL     OW28008   2.745   3.509   0.039
 8856SOL    HW128009   2.765   3.560  -0.039
 8856SOL    HW228010   2.801   3.547   0.107
 8857SOL     OW28011   2.316   2.347  11.343
 8857SOL    HW128012   2.376   2.417  11.368
 8857SOL    HW228013   2.230   2.389  11.339
 8858SOL     OW28014   3.138   2.901  12.369
 8858SOL    HW128015   3.160   2.840  12.298
 8858SOL    HW228016   3.087   2.970  12.326
 8859SOL     OW28017   3.179   2.718  11.472
 8859SOL    HW128018   3.107   2.683  11.524
 8859SOL    HW228019   3.151   2.706  11.381
 8860SOL     OW28020   3.603   3.611  12.291
 8860SOL    HW128021   3.680   3.627  12.237
 8860SOL    HW228022   3.594   3.515  12.293
 8861SOL     OW28023   3.112   3.580  12.287
 8861SOL    HW128024   3.190   3.618  12.246
 8861SOL    HW228025   3.126   3.486  12.281
 8862SOL     OW28026   1.940   3.152  12.161
 8862SOL    HW128027   1.926   3.161  12.255
 8862SOL    HW228028   1.884   3.079  12.135
 8863SOL     OW28029   3.591   2.028  11.671
 8863SOL    HW128030   3.658   2.011  11.605
 8863SOL    HW228031   3.574   1.942  11.711
 8864SOL     OW28032   3.259   3.428  11.671
 8864SOL    HW128033   3.315   3.460  11.601
 8864SOL    HW228034   3.206   3.504  11.697
 8865SOL     OW28035   3.142   2.798  11.847
 8865SOL    HW128036   3.213   2.734  11.855
 8865SOL    HW228037   3.176   2.865  11.789
 8866SOL     OW28038   2.529   3.491  11.332
 8866SOL    HW128039   2.544   3.506  11.239
 8866SOL    HW228040   2.475   3.412  11.335
 8867SOL     OW28041   3.472   3.665   0.026
 8867SOL    HW128042   3.522   3.650  -0.054
 8867SOL    HW228043   3.530   3.719   0.080
 8868SOL     OW28044   3.705   2.032  12.142
 8868SOL    HW128045   3.735   1.944  12.119
 8868SOL    HW228046   3.619   2.039  12.101
 8869SOL     OW28047   2.120   2.169  11.881
 8869SOL    HW128048   2.035   2.206  11.859
 8869SOL    HW228049   2.124   2.173  11.977
 8870SOL     OW28050   3.070   3.459  11.209
 8870SOL    HW128051   3.060   3.367  11.234
 8870SOL    HW228052   3.004   3.473  11.141
 8871SOL     OW28053   2.658   2.882  12.490
 8871SOL    HW128054   2.661   2.921  12.402
 8871SOL    HW228055   2.744   2.902  12.527
 8872SOL     OW28056   2.779   2.774  11.462
 8872SOL    HW128057   2.840   2.807  11.396
 8872SOL    HW228058   2.828   2.705  11.508
 8873SOL     OW28059   3.348   3.501  11.221
 8873SOL    HW128060   3.255   3.485  11.204
 8873SOL    HW228061   3.388   3.504  11.134
 8874SOL     OW28062   2.930   2.976  11.895
 8874SOL    HW128063   2.856   2.923  11.924
 8874SOL    HW228064   2.996   2.912  11.868
 8875SOL     OW28065   2.917   2.103  12.112
 8875SOL    HW128066   2.908   2.040  12.041
 8875SOL    HW228067   2.889   2.055  12.190
 8876SOL     OW28068   2.468   3.354  11.645
 8876SOL    HW128069   2.523   3.303  11.586
 8876SOL    HW228070   2.389   3.372  11.595
 8877SOL     OW28071   3.617   2.292   0.041
 8877SOL    HW128072   3.710   2.313   0.041
 8877SOL    HW228073   3.613   2.203   0.005
 8878SOL     OW28074   2.140   3.199  11.477
 8878SOL    HW128075   2.053   3.196  11.437
 8878SOL    HW228076   2.127   3.245  11.560
 8879SOL     OW28077   1.942   2.186  11.194
 8879SOL    HW128078   1.863   2.169  11.144
 8879SOL    HW228079   1.975   2.269  11.161
 8880SOL     OW28080   1.915   2.013  11.465
 8880SOL    HW128081   1.899   2.086  11.406
 8880SOL    HW228082   2.002   1.981  11.441
 8881SOL     OW28083   3.042   3.191  11.291
 8881SOL    HW128084   2.952   3.157  11.291
 8881SOL    HW228085   3.068   3.192  11.383
 8882SOL     OW28086   3.350   3.655  12.165
 8882SOL    HW128087   3.375   3.721  12.100
 8882SOL    HW228088   3.433   3.630  12.207
 8883SOL     OW28089   3.529   2.728  12.409
 8883SOL    HW128090   3.516   2.643  12.367
 8883SOL    HW228091   3.513   2.792  12.340
 8884SOL     OW28092   3.075   2.180  11.629
 8884SOL    HW128093   3.136   2.107  11.625
 8884SOL    HW228094   3.103   2.232  11.704
 8885SOL     OW28095   2.512   2.599  11.759
 8885SOL    HW128096   2.524   2.693  11.774
 8885SOL    HW228097   2.420   2.590  11.735
 8886SOL     OW28098   3.697   2.747   0.120
 8886SOL    HW128099   3.678   2.828   0.168
 8886SOL    HW228100   3.629   2.743   0.052
 8887SOL     OW28101   2.723   3.225  11.220
 8887SOL    HW128102   2.688   3.255  11.304
 8887SOL    HW228103   2.744   3.306  11.173
 8888SOL     OW28104   2.534   3.653  12.128
 8888SOL    HW128105   2.514   3.739  12.094
 8888SOL    HW228106   2.626   3.639  12.107
 8889SOL     OW28107   2.732   2.829  12.024
 8889SOL    HW128108   2.777   2.749  12.054
 8889SOL    HW228109   2.702   2.870  12.105
 8890SOL     OW28110   2.941   2.854  11.262
 8890SOL    HW128111   2.917   2.904  11.184
 8890SOL    HW228112   3.013   2.798  11.234
 8891SOL     OW28113   3.717   3.411  12.013
 8891SOL    HW128114   3.631   3.398  11.974
 8891SOL    HW228115   3.733   3.331  12.063
 8892SOL     OW28116   1.957   3.087  11.835
 8892SOL    HW128117   1.987   3.046  11.917
 8892SOL    HW228118   2.018   3.055  11.769
 8893SOL     OW28119   3.651   2.044  12.413
 8893SOL    HW128120   3.670   1.950  12.417
 8893SOL    HW228121   3.670   2.068  12.322
 8894SOL     OW28122   2.279   2.296  11.687
 8894SOL    HW128123   2.319   2.227  11.635
 8894SOL    HW228124   2.237   2.250  11.760
 8895SOL     OW28125   3.565   3.346  12.287
 8895SOL    HW128126   3.494   3.296  12.246
 8895SOL    HW228127   3.612   3.282  12.340
 8896SOL     OW28128   2.686   3.452  11.850
 8896SOL    HW128129   2.668   3.512  11.779
 8896SOL    HW228130   2.615   3.389  11.847
 8897SOL     OW28131   3.308   2.095  12.300
 8897SOL    HW128132   3.376   2.070  12.361
 8897SOL    HW228133   3.237   2.128  12.355
 8898SOL     OW28134   2.857   1.836  12.314
 8898SOL    HW128135   2.825   1.789  12.237
 8898SOL    HW228136   2.950   1.813  12.320
 8899SOL     OW28137   2.639   3.198  11.499
 8899SOL    HW128138   2.612   3.106  11.503
 8899SOL    HW228139   2.723   3.200  11.544
 8900SOL     OW28140   3.227   1.908  11.354
 8900SOL    HW128141   3.265   1.836  11.305
 8900SOL    HW228142   3.136   1.881  11.370
 8901SOL     OW28143   3.161   2.324  11.847
 8901SOL    HW128144   3.109   2.405  11.846
 8901SOL    HW228145   3.157   2.294  11.937
 8902SOL     OW28146   3.443   2.048  12.059
 8902SOL    HW128147   3.390   2.075  12.134
 8902SOL    HW228148   3.443   2.124  12.001
 8903SOL     OW28149   1.903   2.925  11.488
 8903SOL    HW128150   1.996   2.914  11.465
 8903SOL    HW228151   1.873   2.836  11.506
 8904SOL     OW28152   2.751   3.529  11.512
 8904SOL    HW128153   2.676   3.512  11.455
 8904SOL    HW228154   2.724   3.603  11.566
 8905SOL     OW28155   2.147   4.319   0.033
 8905SOL    HW128156   2.104   4.367   0.104
 8905SOL    HW228157   2.082   4.316  -0.037
 8906SOL     OW28158   2.080   4.012   0.994
 8906SOL    HW128159   2.109   3.977   1.078
 8906SOL    HW228160   1.991   3.978   0.984
 8907SOL     OW28161   1.855   4.108   0.639
 8907SOL    HW128162   1.777   4.139   0.685
 8907SOL    HW228163   1.826   4.028   0.594
 8908SOL     OW28164   2.372   5.028   1.169
 8908SOL    HW128165   2.340   4.995   1.253
 8908SOL    HW228166   2.415   5.110   1.190
 8909SOL     OW28167   3.442   5.241   0.711
 8909SOL    HW128168   3.394   5.224   0.792
 8909SOL    HW228169   3.374   5.245   0.643
 8910SOL     OW28170   2.997   4.424   0.688
 8910SOL    HW128171   3.035   4.512   0.680
 8910SOL    HW228172   2.939   4.430   0.764
 8911SOL     OW28173   3.578   4.338   0.272
 8911SOL    HW128174   3.596   4.398   0.200
 8911SOL    HW228175   3.579   4.251   0.233
 8912SOL     OW28176   2.579   4.863   1.040
 8912SOL    HW128177   2.507   4.903   1.090
 8912SOL    HW228178   2.629   4.937   1.006
 8913SOL     OW28179   2.740   4.477   1.833
 8913SOL    HW128180   2.738   4.540   1.905
 8913SOL    HW228181   2.762   4.529   1.756
 8914SOL     OW28182   2.548   4.716   0.646
 8914SOL    HW128183   2.615   4.711   0.714
 8914SOL    HW228184   2.481   4.774   0.682
 8915SOL     OW28185   2.578   4.871   1.817
 8915SOL    HW128186   2.624   4.947   1.854
 8915SOL    HW228187   2.497   4.908   1.781
 8916SOL     OW28188   3.324   5.224   1.364
 8916SOL    HW128189   3.381   5.302   1.370
 8916SOL    HW228190   3.254   5.242   1.427
 8917SOL     OW28191   2.318   4.101   1.462
 8917SOL    HW128192   2.404   4.060   1.470
 8917SOL    HW228193   2.258   4.040   1.506
 8918SOL     OW28194   3.473   4.184   0.746
 8918SOL    HW128195   3.424   4.208   0.667
 8918SOL    HW228196   3.530   4.259   0.763
 8919SOL     OW28197   2.073   5.440   0.473
 8919SOL    HW128198   2.094   5.516   0.528
 8919SOL    HW228199   2.149   5.429   0.416
 8920SOL     OW28200   3.010   5.058   1.687
 8920SOL    HW128201   3.041   5.062   1.778
 8920SOL    HW228202   2.950   4.984   1.686
 8921SOL     OW28203   2.095   5.175   0.556
 8921SOL    HW128204   2.070   5.267   0.549
 8921SOL    HW228205   2.030   5.137   0.614
 8922SOL     OW28206   2.161   4.820   0.929
 8922SOL    HW128207   2.164   4.725   0.938
 8922SOL    HW228208   2.070   4.843   0.950
 8923SOL     OW28209   2.456   5.510   1.417
 8923SOL    HW128210   2.377   5.493   1.468
 8923SOL    HW228211   2.486   5.595   1.447
 8924SOL     OW28212   2.446   4.680   0.148
 8924SOL    HW128213   2.514   4.696   0.082
 8924SOL    HW228214   2.474   4.730   0.224
 8925SOL     OW28215   3.447   3.867   1.453
 8925SOL    HW128216   3.484   3.947   1.415
 8925SOL    HW228217   3.430   3.889   1.544
 8926SOL     OW28218   1.980   4.367   0.555
 8926SOL    HW128219   1.947   4.281   0.578
 8926SOL    HW228220   1.976   4.418   0.636
 8927SOL     OW28221   3.697   5.484   0.346
 8927SOL    HW128222   3.774   5.456   0.395
 8927SOL    HW228223   3.721   5.571   0.313
 8928SOL     OW28224   1.899   5.232   0.145
 8928SOL    HW128225   1.810   5.200   0.129
 8928SOL    HW228226   1.886   5.316   0.190
 8929SOL     OW28227   3.522   4.645   0.650
 8929SOL    HW128228   3.595   4.597   0.613
 8929SOL    HW228229   3.500   4.711   0.584
 8930SOL     OW28230   3.502   4.840   0.443
 8930SOL    HW128231   3.585   4.837   0.395
 8930SOL    HW228232   3.517   4.903   0.513
 8931SOL     OW28233   1.990   4.473   1.580
 8931SOL    HW128234   2.079   4.506   1.588
 8931SOL    HW228235   1.934   4.551   1.583
 8932SOL     OW28236   2.475   5.116   0.730
 8932SOL    HW128237   2.439   5.028   0.734
 8932SOL    HW228238   2.462   5.143   0.639
 8933SOL     OW28239   3.128   4.937   1.422
 8933SOL    HW128240   3.213   4.899   1.401
 8933SOL    HW228241   3.129   4.945   1.518
 8934SOL     OW28242   2.688   3.749   0.519
 8934SOL    HW128243   2.725   3.834   0.495
 8934SOL    HW228244   2.593   3.764   0.522
 8935SOL     OW28245   2.052   4.685   1.281
 8935SOL    HW128246   2.136   4.642   1.265
 8935SOL    HW228247   1.988   4.635   1.231
 8936SOL     OW28248   3.335   4.763   0.220
 8936SOL    HW128249   3.292   4.692   0.267
 8936SOL    HW228250   3.405   4.792   0.279
 8937SOL     OW28251   3.038   5.545   1.626
 8937SOL    HW128252   3.048   5.612   1.559
 8937SOL    HW228253   3.075   5.465   1.586
 8938SOL     OW28254   2.187   3.986   1.780
 8938SOL    HW128255   2.249   4.040   1.829
 8938SOL    HW228256   2.109   3.982   1.836
 8939SOL     OW28257   3.323   5.146   0.949
 8939SOL    HW128258   3.256   5.159   1.016
 8939SOL    HW228259   3.305   5.058   0.915
 8940SOL     OW28260   3.503   5.491   0.571
 8940SOL    HW128261   3.537   5.451   0.491
 8940SOL    HW228262   3.492   5.418   0.631
 8941SOL     OW28263   2.444   4.428   0.276
 8941SOL    HW128264   2.452   4.516   0.240
 8941SOL    HW228265   2.379   4.437   0.346
 8942SOL     OW28266   3.135   4.091   0.931
 8942SOL    HW128267   3.047   4.054   0.941
 8942SOL    HW228268   3.191   4.035   0.984
 8943SOL     OW28269   3.445   5.341   0.302
 8943SOL    HW128270   3.513   5.406   0.284
 8943SOL    HW228271   3.467   5.268   0.244
 8944SOL     OW28272   2.644   4.345   1.444
 8944SOL    HW128273   2.624   4.316   1.533
 8944SOL    HW228274   2.619   4.272   1.388
 8945SOL     OW28275   3.262   4.195   1.682
 8945SOL    HW128276   3.266   4.236   1.768
 8945SOL    HW228277   3.312   4.114   1.691
 8946SOL     OW28278   2.810   4.608   1.591
 8946SOL    HW128279   2.865   4.539   1.552
 8946SOL    HW228280   2.758   4.641   1.518
 8947SOL     OW28281   2.861   4.143   1.216
 8947SOL    HW128282   2.773   4.148   1.253
 8947SOL    HW228283   2.857   4.072   1.152
 8948SOL     OW28284   2.916   4.427   0.424
 8948SOL    HW128285   2.937   4.417   0.517
 8948SOL    HW228286   2.831   4.384   0.413
 8949SOL     OW28287   1.965   4.531   0.771
 8949SOL    HW128288   2.041   4.536   0.828
 8949SOL    HW228289   1.905   4.598   0.804
 8950SOL     OW28290   1.979   5.577   1.583
 8950SOL    HW128291   1.989   5.555   1.675
 8950SOL    HW228292   1.885   5.589   1.571
 8951SOL     OW28293   2.733   4.088   0.199
 8951SOL    HW128294   2.809   4.127   0.156
 8951SOL    HW228295   2.733   3.997   0.172
 8952SOL     OW28296   3.557   4.286   1.832
 8952SOL    HW128297   3.534   4.362   1.779
 8952SOL    HW228298   3.595   4.224   1.770
 8953SOL     OW28299   3.236   4.860   0.533
 8953SOL    HW128300   3.319   4.852   0.485
 8953SOL    HW228301   3.187   4.926   0.483
 8954SOL     OW28302   2.406   3.898   0.906
 8954SOL    HW128303   2.413   3.923   0.998
 8954SOL    HW228304   2.410   3.981   0.859
 8955SOL     OW28305   2.856   5.157   0.476
 8955SOL    HW128306   2.813   5.233   0.436
 8955SOL    HW228307   2.841   5.168   0.570
 8956SOL     OW28308   2.217   5.545   0.874
 8956SOL    HW128309   2.276   5.470   0.878
 8956SOL    HW228310   2.273   5.620   0.894
 8957SOL     OW28311   3.655   4.769   0.897
 8957SOL    HW128312   3.620   4.768   0.808
 8957SOL    HW228313   3.578   4.765   0.954
 8958SOL     OW28314   3.089   5.266   1.509
 8958SOL    HW128315   3.073   5.197   1.573
 8958SOL    HW228316   3.003   5.285   1.472
 8959SOL     OW28317   2.177   4.705   0.272
 8959SOL    HW128318   2.250   4.716   0.210
 8959SOL    HW228319   2.136   4.623   0.246
 8960SOL     OW28320   3.327   4.519   0.797
 8960SOL    HW128321   3.349   4.425   0.795
 8960SOL    HW228322   3.400   4.561   0.753
 8961SOL     OW28323   2.337   4.984   1.725
 8961SOL    HW128324   2.314   4.934   1.647
 8961SOL    HW228325   2.255   4.990   1.774
 8962SOL     OW28326   2.915   5.505   0.226
 8962SOL    HW128327   2.942   5.482   0.315
 8962SOL    HW228328   2.971   5.452   0.170
 8963SOL     OW28329   2.056   3.969   1.532
 8963SOL    HW128330   1.994   4.042   1.532
 8963SOL    HW228331   2.096   3.971   1.619
 8964SOL     OW28332   2.309   5.457   0.330
 8964SOL    HW128333   2.359   5.512   0.390
 8964SOL    HW228334   2.374   5.417   0.273
 8965SOL     OW28335   3.263   3.824   0.449
 8965SOL    HW128336   3.262   3.797   0.357
 8965SOL    HW228337   3.356   3.826   0.472
 8966SOL     OW28338   2.108   5.520   1.217
 8966SOL    HW128339   2.158   5.443   1.244
 8966SOL    HW228340   2.087   5.504   1.125
 8967SOL     OW28341   2.798   5.422   0.898
 8967SOL    HW128342   2.885   5.382   0.909
 8967SOL    HW228343   2.760   5.375   0.823
 8968SOL     OW28344   2.255   4.415   0.480
 8968SOL    HW128345   2.270   4.321   0.491
 8968SOL    HW228346   2.162   4.428   0.500
 8969SOL     OW28347   3.392   3.943   1.724
 8969SOL    HW128348   3.397   3.972   1.815
 8969SOL    HW228349   3.354   3.855   1.730
 8970SOL     OW28350   2.484   3.821   0.124
 8970SOL    HW128351   2.580   3.820   0.123
 8970SOL    HW228352   2.459   3.736   0.088
 8971SOL     OW28353   2.616   4.007   1.759
 8971SOL    HW128354   2.700   3.963   1.750
 8971SOL    HW228355   2.578   3.972   1.839
 8972SOL     OW28356   2.731   5.234   1.194
 8972SOL    HW128357   2.718   5.205   1.103
 8972SOL    HW228358   2.811   5.189   1.222
 8973SOL     OW28359   3.198   4.315   1.443
 8973SOL    HW128360   3.229   4.275   1.525
 8973SOL    HW228361   3.244   4.399   1.438
 8974SOL     OW28362   2.680   5.104   0.947
 8974SOL    HW128363   2.770   5.097   0.914
 8974SOL    HW228364   2.627   5.123   0.870
 8975SOL     OW28365   2.803   4.250   0.894
 8975SOL    HW128366   2.776   4.233   0.804
 8975SOL    HW228367   2.826   4.163   0.928
 8976SOL     OW28368   2.415   3.791   0.493
 8976SOL    HW128369   2.338   3.790   0.550
 8976SOL    HW228370   2.405   3.870   0.440
 8977SOL     OW28371   3.245   4.914  -0.005
 8977SOL    HW128372   3.300   4.874   0.063
 8977SOL    HW228373   3.194   4.980   0.042
 8978SOL     OW28374   2.167   3.808   0.208
 8978SOL    HW128375   2.247   3.859   0.201
 8978SOL    HW228376   2.196   3.721   0.236
 8979SOL     OW28377   2.809   3.988   0.454
 8979SOL    HW128378   2.784   4.024   0.368
 8979SOL    HW228379   2.904   3.994   0.455
 8980SOL     OW28380   2.941   4.410   1.451
 8980SOL    HW128381   2.882   4.337   1.469
 8980SOL    HW228382   3.029   4.372   1.454
 8981SOL     OW28383   3.070   5.306   0.798
 8981SOL    HW128384   3.085   5.364   0.723
 8981SOL    HW228385   3.139   5.329   0.860
 8982SOL     OW28386   2.339   4.879   0.731
 8982SOL    HW128387   2.278   4.847   0.797
 8982SOL    HW228388   2.292   4.872   0.648
 8983SOL     OW28389   3.114   5.515   0.610
 8983SOL    HW128390   3.170   5.576   0.561
 8983SOL    HW228391   3.050   5.571   0.654
 8984SOL     OW28392   2.911   4.262   0.026
 8984SOL    HW128393   2.893   4.351  -0.005
 8984SOL    HW228394   2.965   4.273   0.104
 8985SOL     OW28395   1.958   4.272   1.396
 8985SOL    HW128396   2.049   4.274   1.369
 8985SOL    HW228397   1.950   4.344   1.460
 8986SOL     OW28398   2.416   3.946   1.180
 8986SOL    HW128399   2.460   3.877   1.230
 8986SOL    HW228400   2.326   3.946   1.211
 8987SOL     OW28401   2.733   4.190   0.637
 8987SOL    HW128402   2.690   4.242   0.569
 8987SOL    HW228403   2.758   4.109   0.593
 8988SOL     OW28404   2.875   3.780   0.742
 8988SOL    HW128405   2.815   3.768   0.669
 8988SOL    HW228406   2.856   3.707   0.801
 8989SOL     OW28407   3.318   4.894   0.834
 8989SOL    HW128408   3.248   4.867   0.774
 8989SOL    HW228409   3.392   4.914   0.776
 8990SOL     OW28410   3.277   4.326   1.021
 8990SOL    HW128411   3.244   4.238   1.001
 8990SOL    HW228412   3.354   4.311   1.074
 8991SOL     OW28413   3.694   4.556   0.443
 8991SOL    HW128414   3.742   4.481   0.478
 8991SOL    HW228415   3.652   4.522   0.364
 8992SOL     OW28416   2.352   5.125   0.166
 8992SOL    HW128417   2.291   5.078   0.224
 8992SOL    HW228418   2.295   5.169   0.103
 8993SOL     OW28419   3.536   4.977   0.682
 8993SOL    HW128420   3.631   4.967   0.682
 8993SOL    HW228421   3.521   5.071   0.680
 8994SOL     OW28422   3.271   4.278   0.089
 8994SOL    HW128423   3.209   4.275   0.162
 8994SOL    HW228424   3.329   4.204   0.105
 8995SOL     OW28425   2.390   3.996   0.307
 8995SOL    HW128426   2.435   3.936   0.247
 8995SOL    HW228427   2.391   4.080   0.261
 8996SOL     OW28428   3.635   4.991   1.619
 8996SOL    HW128429   3.698   4.942   1.567
 8996SOL    HW228430   3.661   5.083   1.610
 8997SOL     OW28431   2.923   5.064   1.306
 8997SOL    HW128432   2.845   5.044   1.358
 8997SOL    HW228433   2.995   5.023   1.354
 8998SOL     OW28434   3.467   5.339   1.652
 8998SOL    HW128435   3.456   5.381   1.567
 8998SOL    HW228436   3.556   5.304   1.651
 8999SOL     OW28437   2.998   4.902   1.091
 8999SOL    HW128438   2.962   4.953   1.163
 8999SOL    HW228439   2.981   4.956   1.013
 9000SOL     OW28440   3.434   4.806   1.070
 9000SOL    HW128441   3.444   4.877   1.134
 9000SOL    HW228442   3.395   4.849   0.994
 9001SOL     OW28443   2.771   3.859   1.371
 9001SOL    HW128444   2.798   3.813   1.292
 9001SOL    HW228445   2.852   3.878   1.417
 9002SOL     OW28446   2.843   4.845   1.712
 9002SOL    HW128447   2.755   4.858   1.747
 9002SOL    HW228448   2.839   4.762   1.665
 9003SOL     OW28449   2.572   4.787   0.374
 9003SOL    HW128450   2.557   4.764   0.466
 9003SOL    HW228451   2.649   4.737   0.348
 9004SOL     OW28452   2.286   4.544   1.252
 9004SOL    HW128453   2.353   4.555   1.320
 9004SOL    HW228454   2.254   4.455   1.264
 9005SOL     OW28455   3.129   4.107   1.277
 9005SOL    HW128456   3.159   4.181   1.329
 9005SOL    HW228457   3.039   4.128   1.254
 9006SOL     OW28458   1.932   5.303   1.355
 9006SOL    HW128459   1.886   5.374   1.310
 9006SOL    HW228460   2.024   5.316   1.333
 9007SOL     OW28461   2.195   4.854   0.502
 9007SOL    HW128462   2.185   4.931   0.447
 9007SOL    HW228463   2.199   4.780   0.441
 9008SOL     OW28464   2.402   4.249   0.857
 9008SOL    HW128465   2.417   4.309   0.783
 9008SOL    HW228466   2.471   4.271   0.919
 9009SOL     OW28467   3.106   5.071   0.406
 9009SOL    HW128468   3.162   5.143   0.435
 9009SOL    HW228469   3.018   5.096   0.435
 9010SOL     OW28470   3.149   5.189   1.159
 9010SOL    HW128471   3.214   5.198   1.229
 9010SOL    HW228472   3.075   5.143   1.200
 9011SOL     OW28473   3.436   4.338   0.506
 9011SOL    HW128474   3.373   4.408   0.491
 9011SOL    HW228475   3.495   4.343   0.431
 9012SOL     OW28476   2.204   5.264   1.271
 9012SOL    HW128477   2.196   5.189   1.329
 9012SOL    HW228478   2.298   5.280   1.266
 9013SOL     OW28479   2.295   4.458   1.616
 9013SOL    HW128480   2.350   4.504   1.552
 9013SOL    HW228481   2.349   4.384   1.645
 9014SOL     OW28482   3.479   4.500   1.685
 9014SOL    HW128483   3.384   4.507   1.678
 9014SOL    HW228484   3.512   4.556   1.615
 9015SOL     OW28485   2.849   3.872   1.743
 9015SOL    HW128486   2.917   3.937   1.728
 9015SOL    HW228487   2.886   3.789   1.712
 9016SOL     OW28488   2.359   3.762   1.742
 9016SOL    HW128489   2.311   3.701   1.686
 9016SOL    HW228490   2.300   3.838   1.749
 9017SOL     OW28491   2.452   4.597   1.034
 9017SOL    HW128492   2.487   4.686   1.039
 9017SOL    HW228493   2.396   4.589   1.111
 9018SOL     OW28494   3.060   4.253   0.268
 9018SOL    HW128495   3.076   4.179   0.326
 9018SOL    HW228496   3.018   4.319   0.323
 9019SOL     OW28497   2.143   3.921   1.253
 9019SOL    HW128498   2.122   3.943   1.344
 9019SOL    HW228499   2.141   3.826   1.251
 9020SOL     OW28500   1.934   5.040   1.273
 9020SOL    HW128501   1.950   4.983   1.348
 9020SOL    HW228502   1.923   5.127   1.311
 9021SOL     OW28503   2.580   4.345   1.042
 9021SOL    HW128504   2.661   4.335   0.991
 9021SOL    HW228505   2.553   4.436   1.027
 9022SOL     OW28506   3.550   4.715   1.849
 9022SOL    HW128507   3.539   4.631   1.804
 9022SOL    HW228508   3.511   4.701   1.935
 9023SOL     OW28509   2.176   3.784   0.632
 9023SOL    HW128510   2.150   3.874   0.652
 9023SOL    HW228511   2.184   3.742   0.718
 9024SOL     OW28512   3.460   4.075   0.376
 9024SOL    HW128513   3.510   4.014   0.429
 9024SOL    HW228514   3.451   4.153   0.430
 9025SOL     OW28515   2.941   4.470   0.983
 9025SOL    HW128516   2.904   4.490   1.069
 9025SOL    HW228517   2.902   4.386   0.959
 9026SOL     OW28518   2.848   5.289   1.724
 9026SOL    HW128519   2.833   5.333   1.641
 9026SOL    HW228520   2.879   5.202   1.700
 9027SOL     OW28521   3.721   5.246   1.595
 9027SOL    HW128522   3.746   5.268   1.505
 9027SOL    HW228523   3.802   5.257   1.646
 9028SOL     OW28524   2.219   4.656   1.795
 9028SOL    HW128525   2.285   4.667   1.863
 9028SOL    HW228526   2.250   4.583   1.743
 9029SOL     OW28527   3.336   4.016   0.143
 9029SOL    HW128528   3.305   3.926   0.155
 9029SOL    HW228529   3.389   4.033   0.221
 9030SOL     OW28530   3.138   4.520   0.074
 9030SOL    HW128531   3.199   4.448   0.061
 9030SOL    HW228532   3.155   4.579   0.000
 9031SOL     OW28533   2.938   5.070   0.869
 9031SOL    HW128534   2.941   5.002   0.803
 9031SOL    HW228535   2.991   5.142   0.833
 9032SOL     OW28536   2.182   4.539   0.943
 9032SOL    HW128537   2.278   4.550   0.943
 9032SOL    HW228538   2.168   4.450   0.973
 9033SOL     OW28539   2.180   4.260   1.009
 9033SOL    HW128540   2.144   4.172   0.999
 9033SOL    HW228541   2.258   4.260   0.952
 9034SOL     OW28542   2.999   4.107   1.679
 9034SOL    HW128543   2.955   4.154   1.750
 9034SOL    HW228544   3.090   4.139   1.683
 9035SOL     OW28545   3.020   3.932   1.467
 9035SOL    HW128546   3.011   3.994   1.540
 9035SOL    HW228547   3.071   3.979   1.402
 9036SOL     OW28548   1.959   5.499   0.952
 9036SOL    HW128549   1.929   5.422   0.904
 9036SOL    HW228550   2.045   5.518   0.915
 9037SOL     OW28551   2.341   5.251   0.926
 9037SOL    HW128552   2.395   5.324   0.955
 9037SOL    HW228553   2.387   5.216   0.850
 9038SOL     OW28554   2.822   4.509   1.225
 9038SOL    HW128555   2.880   4.486   1.298
 9038SOL    HW228556   2.740   4.463   1.244
 9039SOL     OW28557   1.902   4.277   1.122
 9039SOL    HW128558   1.983   4.274   1.071
 9039SOL    HW228559   1.932   4.273   1.213
 9040SOL     OW28560   2.044   4.257   1.740
 9040SOL    HW128561   2.130   4.239   1.701
 9040SOL    HW228562   2.009   4.329   1.688
 9041SOL     OW28563   3.233   4.634   1.658
 9041SOL    HW128564   3.276   4.717   1.678
 9041SOL    HW228565   3.239   4.626   1.562
 9042SOL     OW28566   2.676   4.300   0.376
 9042SOL    HW128567   2.682   4.227   0.314
 9042SOL    HW228568   2.599   4.349   0.347
 9043SOL     OW28569   3.505   4.320   1.177
 9043SOL    HW128570   3.504   4.257   1.249
 9043SOL    HW228571   3.591   4.309   1.137
 9044SOL     OW28572   2.104   5.261   1.715
 9044SOL    HW128573   2.084   5.336   1.771
 9044SOL    HW228574   2.108   5.186   1.774
 9045SOL     OW28575   2.579   4.167   1.250
 9045SOL    HW128576   2.523   4.092   1.229
 9045SOL    HW228577   2.569   4.226   1.175
 9046SOL     OW28578   2.803   5.390   1.464
 9046SOL    HW128579   2.759   5.359   1.385
 9046SOL    HW228580   2.798   5.486   1.458
 9047SOL     OW28581   2.392   4.219   0.110
 9047SOL    HW128582   2.415   4.289   0.172
 9047SOL    HW228583   2.302   4.239   0.085
 9048SOL     OW28584   2.017   4.868   1.478
 9048SOL    HW128585   2.006   4.821   1.561
 9048SOL    HW228586   2.026   4.798   1.413
 9049SOL     OW28587   3.184   4.702   1.139
 9049SOL    HW128588   3.267   4.750   1.132
 9049SOL    HW228589   3.117   4.770   1.134
 9050SOL     OW28590   3.173   4.555   0.342
 9050SOL    HW128591   3.089   4.527   0.379
 9050SOL    HW228592   3.165   4.538   0.248
 9051SOL     OW28593   3.610   5.455   1.135
 9051SOL    HW128594   3.684   5.488   1.083
 9051SOL    HW228595   3.604   5.363   1.112
 9052SOL     OW28596   3.102   5.454   1.087
 9052SOL    HW128597   3.188   5.484   1.057
 9052SOL    HW228598   3.117   5.364   1.116
 9053SOL     OW28599   1.976   5.009   1.013
 9053SOL    HW128600   1.951   5.018   1.105
 9053SOL    HW228601   1.898   4.975   0.970
 9054SOL     OW28602   2.542   5.399   1.742
 9054SOL    HW128603   2.482   5.473   1.737
 9054SOL    HW228604   2.620   5.429   1.694
 9055SOL     OW28605   2.755   3.820   0.112
 9055SOL    HW128606   2.802   3.840   0.031
 9055SOL    HW228607   2.821   3.780   0.169
 9056SOL     OW28608   3.599   3.880   0.509
 9056SOL    HW128609   3.665   3.856   0.445
 9056SOL    HW228610   3.574   3.797   0.549
 9057SOL     OW28611   3.258   5.287   0.500
 9057SOL    HW128612   3.319   5.309   0.430
 9057SOL    HW228613   3.215   5.370   0.522
 9058SOL     OW28614   2.024   5.503   1.840
 9058SOL    HW128615   1.969   5.443   1.891
 9058SOL    HW228616   2.065   5.560   1.905
 9059SOL     OW28617   3.128   4.663   0.678
 9059SOL    HW128618   3.206   4.615   0.705
 9059SOL    HW228619   3.160   4.725   0.613
 9060SOL     OW28620   2.675   5.013   1.421
 9060SOL    HW128621   2.647   5.042   1.508
 9060SOL    HW228622   2.623   5.066   1.360
 9061SOL     OW28623   2.511   5.346   0.188
 9061SOL    HW128624   2.585   5.349   0.127
 9061SOL    HW228625   2.474   5.258   0.177
 9062SOL     OW28626   3.479   5.450   1.386
 9062SOL    HW128627   3.529   5.457   1.305
 9062SOL    HW228628   3.465   5.541   1.413
 9063SOL     OW28629   3.716   3.896   0.958
 9063SOL    HW128630   3.741   3.806   0.938
 9063SOL    HW228631   3.627   3.904   0.923
 9064SOL     OW28632   2.113   4.036   0.713
 9064SOL    HW128633   2.026   4.069   0.691
 9064SOL    HW228634   2.115   4.034   0.809
 9065SOL     OW28635   3.031   5.335   0.059
 9065SOL    HW128636   3.041   5.242   0.083
 9065SOL    HW228637   3.102   5.351  -0.003
 9066SOL     OW28638   2.682   4.737   1.380
 9066SOL    HW128639   2.735   4.723   1.301
 9066SOL    HW228640   2.684   4.831   1.394
 9067SOL     OW28641   2.785   4.645   0.298
 9067SOL    HW128642   2.841   4.677   0.227
 9067SOL    HW228643   2.836   4.575   0.338
 9068SOL     OW28644   3.302   5.318  -0.000
 9068SOL    HW128645   3.314   5.371   0.078
 9068SOL    HW228646   3.377   5.258   0.000
 9069SOL     OW28647   2.209   5.057   1.449
 9069SOL    HW128648   2.203   5.106   1.530
 9069SOL    HW228649   2.143   4.988   1.457
 9070SOL     OW28650   3.446   4.997   1.265
 9070SOL    HW128651   3.537   5.001   1.296
 9070SOL    HW228652   3.404   5.073   1.306
 9071SOL     OW28653   2.920   4.847   0.719
 9071SOL    HW128654   2.848   4.794   0.755
 9071SOL    HW228655   2.984   4.783   0.689
 9072SOL     OW28656   2.884   3.966   0.963
 9072SOL    HW128657   2.881   3.921   0.879
 9072SOL    HW228658   2.880   3.896   1.028
 9073SOL     OW28659   2.460   5.195   0.476
 9073SOL    HW128660   2.514   5.153   0.409
 9073SOL    HW228661   2.388   5.235   0.427
 9074SOL     OW28662   3.591   4.121   1.372
 9074SOL    HW128663   3.665   4.181   1.378
 9074SOL    HW228664   3.623   4.048   1.318
 9075SOL     OW28665   2.131   5.057   0.318
 9075SOL    HW128666   2.054   5.081   0.266
 9075SOL    HW228667   2.120   5.105   0.401
 9076SOL     OW28668   1.973   4.761   1.723
 9076SOL    HW128669   1.899   4.733   1.778
 9076SOL    HW228670   2.049   4.721   1.765
 9077SOL     OW28671   2.538   3.931   1.498
 9077SOL    HW128672   2.621   3.910   1.455
 9077SOL    HW228673   2.563   3.953   1.588
 9078SOL     OW28674   3.280   4.590   1.392
 9078SOL    HW128675   3.228   4.618   1.317
 9078SOL    HW228676   3.370   4.591   1.360
 9079SOL     OW28677   1.921   3.869   0.309
 9079SOL    HW128678   1.918   3.964   0.301
 9079SOL    HW228679   2.007   3.844   0.276
 9080SOL     OW28680   3.052   5.071   0.130
 9080SOL    HW128681   2.961   5.043   0.122
 9080SOL    HW228682   3.072   5.057   0.223
 9081SOL     OW28683   2.481   4.560   1.437
 9081SOL    HW128684   2.541   4.633   1.424
 9081SOL    HW228685   2.538   4.483   1.442
 9082SOL     OW28686   3.355   5.513   0.991
 9082SOL    HW128687   3.377   5.584   0.930
 9082SOL    HW228688   3.438   5.494   1.036
 9083SOL     OW28689   2.574   4.283   1.700
 9083SOL    HW128690   2.624   4.337   1.760
 9083SOL    HW228691   2.590   4.193   1.729
 9084SOL     OW28692   2.227   5.460   1.561
 9084SOL    HW128693   2.144   5.506   1.546
 9084SOL    HW228694   2.203   5.380   1.607
 9085SOL     OW28695   3.518   4.594   1.253
 9085SOL    HW128696   3.526   4.505   1.220
 9085SOL    HW228697   3.515   4.649   1.174
 9086SOL     OW28698   3.088   4.039   0.444
 9086SOL    HW128699   3.149   3.965   0.447
 9086SOL    HW228700   3.108   4.089   0.523
 9087SOL     OW28701   2.446   4.456   0.676
 9087SOL    HW128702   2.488   4.540   0.660
 9087SOL    HW228703   2.381   4.448   0.606
 9088SOL     OW28704   3.618   4.089   1.647
 9088SOL    HW128705   3.600   4.103   1.554
 9088SOL    HW228706   3.551   4.028   1.676
 9089SOL     OW28707   3.570   4.684   1.509
 9089SOL    HW128708   3.661   4.708   1.526
 9089SOL    HW228709   3.568   4.659   1.417
 9090SOL     OW28710   2.761   5.084   0.059
 9090SOL    HW128711   2.708   5.071   0.137
 9090SOL    HW228712   2.757   5.178   0.043
 9091SOL     OW28713   2.504   5.480   0.935
 9091SOL    HW128714   2.489   5.574   0.924
 9091SOL    HW228715   2.599   5.470   0.932
 9092SOL     OW28716   2.731   4.699   0.861
 9092SOL    HW128717   2.779   4.631   0.909
 9092SOL    HW228718   2.682   4.746   0.929
 9093SOL     OW28719   2.945   4.730   0.090
 9093SOL    HW128720   2.979   4.789   0.023
 9093SOL    HW228721   3.017   4.670   0.108
 9094SOL     OW28722   3.710   5.270   0.829
 9094SOL    HW128723   3.628   5.265   0.780
 9094SOL    HW228724   3.692   5.221   0.910
 9095SOL     OW28725   2.103   5.020   1.856
 9095SOL    HW128726   2.029   4.961   1.841
 9095SOL    HW228727   2.102   5.035   1.951
 9096SOL     OW28728   1.946   4.961   0.676
 9096SOL    HW128729   1.922   4.895   0.740
 9096SOL    HW228730   2.004   4.915   0.614
 9097SOL     OW28731   2.541   5.141   1.623
 9097SOL    HW128732   2.468   5.096   1.666
 9097SOL    HW228733   2.545   5.227   1.666
 9098SOL     OW28734   3.676   3.910   1.229
 9098SOL    HW128735   3.673   3.817   1.249
 9098SOL    HW228736   3.689   3.913   1.134
 9099SOL     OW28737   2.281   4.153   0.518
 9099SOL    HW128738   2.318   4.083   0.465
 9099SOL    HW228739   2.236   4.108   0.589
 9100SOL     OW28740   3.569   5.196   1.067
 9100SOL    HW128741   3.482   5.181   1.031
 9100SOL    HW228742   3.577   5.132   1.138
 9101SOL     OW28743   2.207   4.284   1.292
 9101SOL    HW128744   2.257   4.223   1.346
 9101SOL    HW228745   2.220   4.253   1.203
 9102SOL     OW28746   2.693   5.300   0.678
 9102SOL    HW128747   2.693   5.345   0.594
 9102SOL    HW228748   2.613   5.248   0.677
 9103SOL     OW28749   3.289   3.955   1.109
 9103SOL    HW128750   3.305   3.867   1.144
 9103SOL    HW228751   3.244   4.002   1.179
 9104SOL     OW28752   2.867   3.744   1.131
 9104SOL    HW128753   2.811   3.674   1.100
 9104SOL    HW228754   2.955   3.706   1.131
 9105SOL     OW28755   2.645   5.050   0.314
 9105SOL    HW128756   2.614   4.961   0.329
 9105SOL    HW228757   2.723   5.059   0.369
 9106SOL     OW28758   2.476   5.276   1.271
 9106SOL    HW128759   2.474   5.355   1.325
 9106SOL    HW228760   2.567   5.272   1.239
 9107SOL     OW28761   3.222   3.768   0.183
 9107SOL    HW128762   3.262   3.713   0.116
 9107SOL    HW228763   3.129   3.745   0.181
 9108SOL     OW28764   3.141   4.185   0.668
 9108SOL    HW128765   3.090   4.266   0.678
 9108SOL    HW228766   3.147   4.149   0.757
 9109SOL     OW28767   3.454   3.930   0.885
 9109SOL    HW128768   3.397   3.945   0.961
 9109SOL    HW228769   3.446   4.011   0.834
 9110SOL     OW28770   1.902   4.800   0.354
 9110SOL    HW128771   1.992   4.801   0.321
 9110SOL    HW228772   1.888   4.711   0.384
 9111SOL     OW28773   2.709   5.371   0.400
 9111SOL    HW128774   2.643   5.366   0.330
 9111SOL    HW228775   2.709   5.464   0.426
 9112SOL     OW28776   2.075   4.359   1.998
 9112SOL    HW128777   1.987   4.353   2.036
 9112SOL    HW228778   2.062   4.335   1.906
 9113SOL     OW28779   2.084   4.010   2.863
 9113SOL    HW128780   2.115   3.978   2.948
 9113SOL    HW228781   1.996   3.974   2.854
 9114SOL     OW28782   1.866   4.139   2.501
 9114SOL    HW128783   1.777   4.139   2.536
 9114SOL    HW228784   1.877   4.052   2.463
 9115SOL     OW28785   2.427   5.015   3.059
 9115SOL    HW128786   2.349   4.991   3.108
 9115SOL    HW228787   2.439   5.109   3.078
 9116SOL     OW28788   3.447   5.188   2.569
 9116SOL    HW128789   3.399   5.181   2.651
 9116SOL    HW228790   3.379   5.201   2.503
 9117SOL     OW28791   2.987   4.426   2.551
 9117SOL    HW128792   3.040   4.505   2.544
 9117SOL    HW228793   2.944   4.434   2.637
 9118SOL     OW28794   3.641   4.320   2.087
 9118SOL    HW128795   3.614   4.308   1.996
 9118SOL    HW228796   3.606   4.244   2.134
 9119SOL     OW28797   2.587   4.861   2.900
 9119SOL    HW128798   2.524   4.898   2.961
 9119SOL    HW228799   2.641   4.935   2.873
 9120SOL     OW28800   2.673   4.545   3.678
 9120SOL    HW128801   2.726   4.549   3.757
 9120SOL    HW228802   2.734   4.563   3.607
 9121SOL     OW28803   2.545   4.719   2.506
 9121SOL    HW128804   2.615   4.711   2.572
 9121SOL    HW228805   2.479   4.774   2.547
 9122SOL     OW28806   2.561   4.881   3.661
 9122SOL    HW128807   2.599   4.961   3.698
 9122SOL    HW228808   2.483   4.911   3.614
 9123SOL     OW28809   2.140   5.217   2.914
 9123SOL    HW128810   2.115   5.128   2.892
 9123SOL    HW228811   2.219   5.233   2.863
 9124SOL     OW28812   3.321   5.235   3.222
 9124SOL    HW128813   3.378   5.311   3.236
 9124SOL    HW228814   3.260   5.237   3.296
 9125SOL     OW28815   2.300   4.071   3.329
 9125SOL    HW128816   2.394   4.062   3.314
 9125SOL    HW228817   2.290   4.062   3.424
 9126SOL     OW28818   3.479   4.195   2.593
 9126SOL    HW128819   3.389   4.172   2.567
 9126SOL    HW228820   3.472   4.217   2.686
 9127SOL     OW28821   2.082   5.441   2.329
 9127SOL    HW128822   2.103   5.512   2.389
 9127SOL    HW228823   2.161   5.432   2.275
 9128SOL     OW28824   2.995   5.068   3.557
 9128SOL    HW128825   3.048   5.051   3.635
 9128SOL    HW228826   2.941   4.990   3.548
 9129SOL     OW28827   2.082   5.166   2.387
 9129SOL    HW128828   2.074   5.261   2.393
 9129SOL    HW228829   2.041   5.134   2.468
 9130SOL     OW28830   2.119   4.813   2.745
 9130SOL    HW128831   2.136   4.724   2.776
 9130SOL    HW228832   2.087   4.860   2.822
 9131SOL     OW28833   2.443   5.536   3.259
 9131SOL    HW128834   2.375   5.503   3.318
 9131SOL    HW228835   2.480   5.611   3.305
 9132SOL     OW28836   2.430   4.717   2.007
 9132SOL    HW128837   2.487   4.753   1.939
 9132SOL    HW228838   2.472   4.744   2.089
 9133SOL     OW28839   1.972   4.395   2.424
 9133SOL    HW128840   1.950   4.305   2.449
 9133SOL    HW228841   1.971   4.444   2.507
 9134SOL     OW28842   3.710   5.473   2.189
 9134SOL    HW128843   3.780   5.449   2.250
 9134SOL    HW228844   3.723   5.566   2.173
 9135SOL     OW28845   1.899   5.309   1.978
 9135SOL    HW128846   1.883   5.218   2.001
 9135SOL    HW228847   1.875   5.358   2.057
 9136SOL     OW28848   3.588   4.632   2.489
 9136SOL    HW128849   3.661   4.606   2.545
 9136SOL    HW228850   3.610   4.597   2.402
 9137SOL     OW28851   3.519   4.832   2.295
 9137SOL    HW128852   3.608   4.835   2.260
 9137SOL    HW228853   3.527   4.782   2.376
 9138SOL     OW28854   2.018   4.498   3.452
 9138SOL    HW128855   2.112   4.489   3.462
 9138SOL    HW228856   1.995   4.574   3.505
 9139SOL     OW28857   2.489   5.113   2.595
 9139SOL    HW128858   2.444   5.030   2.607
 9139SOL    HW228859   2.470   5.139   2.505
 9140SOL     OW28860   3.152   4.961   3.269
 9140SOL    HW128861   3.195   4.893   3.217
 9140SOL    HW228862   3.197   4.958   3.354
 9141SOL     OW28863   2.683   3.734   2.361
 9141SOL    HW128864   2.726   3.818   2.349
 9141SOL    HW228865   2.590   3.755   2.373
 9142SOL     OW28866   1.996   4.642   3.079
 9142SOL    HW128867   2.087   4.616   3.068
 9142SOL    HW228868   1.998   4.707   3.150
 9143SOL     OW28869   3.386   4.737   2.071
 9143SOL    HW128870   3.315   4.682   2.104
 9143SOL    HW228871   3.434   4.764   2.150
 9144SOL     OW28872   3.023   5.539   3.478
 9144SOL    HW128873   3.056   5.592   3.406
 9144SOL    HW228874   3.051   5.450   3.458
 9145SOL     OW28875   2.205   4.000   3.638
 9145SOL    HW128876   2.265   4.046   3.697
 9145SOL    HW228877   2.122   3.996   3.685
 9146SOL     OW28878   3.331   5.135   2.811
 9146SOL    HW128879   3.267   5.151   2.881
 9146SOL    HW228880   3.310   5.047   2.779
 9147SOL     OW28881   3.514   5.477   2.441
 9147SOL    HW128882   3.495   5.435   2.357
 9147SOL    HW228883   3.512   5.406   2.505
 9148SOL     OW28884   2.453   4.426   2.130
 9148SOL    HW128885   2.471   4.515   2.099
 9148SOL    HW228886   2.390   4.438   2.201
 9149SOL     OW28887   3.154   4.101   2.797
 9149SOL    HW128888   3.074   4.052   2.817
 9149SOL    HW228889   3.222   4.034   2.791
 9150SOL     OW28890   3.445   5.394   2.171
 9150SOL    HW128891   3.537   5.423   2.169
 9150SOL    HW228892   3.419   5.390   2.079
 9151SOL     OW28893   2.564   4.357   3.317
 9151SOL    HW128894   2.580   4.327   3.406
 9151SOL    HW228895   2.550   4.277   3.267
 9152SOL     OW28896   3.225   4.229   3.511
 9152SOL    HW128897   3.177   4.223   3.593
 9152SOL    HW228898   3.304   4.177   3.525
 9153SOL     OW28899   2.832   4.599   3.455
 9153SOL    HW128900   2.903   4.538   3.437
 9153SOL    HW228901   2.795   4.619   3.369
 9154SOL     OW28902   2.912   4.426   2.284
 9154SOL    HW128903   2.935   4.423   2.377
 9154SOL    HW228904   2.831   4.376   2.278
 9155SOL     OW28905   1.943   4.557   2.645
 9155SOL    HW128906   2.030   4.546   2.684
 9155SOL    HW228907   1.905   4.630   2.694
 9156SOL     OW28908   1.983   5.592   3.452
 9156SOL    HW128909   1.987   5.581   3.547
 9156SOL    HW228910   1.922   5.525   3.423
 9157SOL     OW28911   2.761   4.070   2.056
 9157SOL    HW128912   2.803   4.130   1.995
 9157SOL    HW228913   2.786   3.983   2.024
 9158SOL     OW28914   3.589   4.288   3.672
 9158SOL    HW128915   3.540   4.360   3.632
 9158SOL    HW228916   3.605   4.227   3.600
 9159SOL     OW28917   3.253   4.871   2.403
 9159SOL    HW128918   3.335   4.871   2.355
 9159SOL    HW228919   3.195   4.929   2.353
 9160SOL     OW28920   2.395   3.905   2.759
 9160SOL    HW128921   2.407   3.916   2.853
 9160SOL    HW228922   2.418   3.989   2.722
 9161SOL     OW28923   2.856   5.166   2.322
 9161SOL    HW128924   2.833   5.248   2.280
 9161SOL    HW228925   2.838   5.180   2.415
 9162SOL     OW28926   2.215   5.537   2.738
 9162SOL    HW128927   2.257   5.451   2.745
 9162SOL    HW228928   2.284   5.599   2.762
 9163SOL     OW28929   3.580   4.824   2.708
 9163SOL    HW128930   3.563   4.743   2.661
 9163SOL    HW228931   3.538   4.812   2.793
 9164SOL     OW28932   3.084   5.267   3.379
 9164SOL    HW128933   3.081   5.202   3.449
 9164SOL    HW228934   3.021   5.236   3.314
 9165SOL     OW28935   2.169   4.687   2.121
 9165SOL    HW128936   2.255   4.704   2.082
 9165SOL    HW228937   2.154   4.593   2.106
 9166SOL     OW28938   3.345   4.478   2.591
 9166SOL    HW128939   3.335   4.422   2.668
 9166SOL    HW228940   3.435   4.511   2.597
 9167SOL     OW28941   2.323   4.988   3.543
 9167SOL    HW128942   2.284   4.967   3.458
 9167SOL    HW228943   2.249   4.992   3.603
 9168SOL     OW28944   2.988   5.510   2.078
 9168SOL    HW128945   2.915   5.474   2.127
 9168SOL    HW228946   3.014   5.439   2.018
 9169SOL     OW28947   2.010   3.958   3.415
 9169SOL    HW128948   1.980   4.046   3.439
 9169SOL    HW228949   2.083   3.941   3.474
 9170SOL     OW28950   3.469   5.101   1.960
 9170SOL    HW128951   3.463   5.194   1.939
 9170SOL    HW228952   3.404   5.088   2.030
 9171SOL     OW28953   2.324   5.454   2.184
 9171SOL    HW128954   2.366   5.512   2.247
 9171SOL    HW228955   2.395   5.424   2.126
 9172SOL     OW28956   3.269   3.841   2.304
 9172SOL    HW128957   3.270   3.804   2.216
 9172SOL    HW228958   3.361   3.843   2.331
 9173SOL     OW28959   2.088   5.524   3.075
 9173SOL    HW128960   2.141   5.460   3.122
 9173SOL    HW228961   2.091   5.496   2.984
 9174SOL     OW28962   2.795   5.427   2.757
 9174SOL    HW128963   2.853   5.372   2.810
 9174SOL    HW228964   2.768   5.370   2.685
 9175SOL     OW28965   2.250   4.423   2.322
 9175SOL    HW128966   2.264   4.329   2.337
 9175SOL    HW228967   2.159   4.438   2.350
 9176SOL     OW28968   3.413   4.028   3.630
 9176SOL    HW128969   3.389   4.030   3.723
 9176SOL    HW228970   3.437   3.937   3.613
 9177SOL     OW28971   2.504   3.838   1.963
 9177SOL    HW128972   2.560   3.766   1.993
 9177SOL    HW228973   2.457   3.801   1.888
 9178SOL     OW28974   2.554   3.995   3.610
 9178SOL    HW128975   2.648   3.983   3.623
 9178SOL    HW228976   2.516   3.980   3.696
 9179SOL     OW28977   2.757   5.259   3.051
 9179SOL    HW128978   2.728   5.209   2.975
 9179SOL    HW228979   2.817   5.200   3.097
 9180SOL     OW28980   2.688   5.113   2.816
 9180SOL    HW128981   2.772   5.098   2.772
 9180SOL    HW228982   2.623   5.114   2.746
 9181SOL     OW28983   2.795   4.231   2.766
 9181SOL    HW128984   2.769   4.215   2.675
 9181SOL    HW228985   2.834   4.149   2.795
 9182SOL     OW28986   2.410   3.788   2.353
 9182SOL    HW128987   2.338   3.790   2.415
 9182SOL    HW228988   2.396   3.865   2.297
 9183SOL     OW28989   3.277   4.883   1.867
 9183SOL    HW128990   3.301   4.823   1.937
 9183SOL    HW228991   3.197   4.925   1.897
 9184SOL     OW28992   2.162   3.775   2.050
 9184SOL    HW128993   2.226   3.846   2.060
 9184SOL    HW228994   2.205   3.698   2.088
 9185SOL     OW28995   2.808   3.979   2.318
 9185SOL    HW128996   2.791   4.017   2.232
 9185SOL    HW228997   2.903   3.989   2.330
 9186SOL     OW28998   3.094   5.280   2.644
 9186SOL    HW128999   3.106   5.357   2.589
 9186SOL    HW229000   3.149   5.296   2.720
 9187SOL     OW29001   2.332   4.882   2.583
 9187SOL    HW129002   2.272   4.861   2.655
 9187SOL    HW229003   2.280   4.867   2.504
 9188SOL     OW29004   3.127   5.510   2.474
 9188SOL    HW129005   3.175   5.578   2.427
 9188SOL    HW229006   3.057   5.558   2.519
 9189SOL     OW29007   2.893   4.249   1.891
 9189SOL    HW129008   2.850   4.334   1.879
 9189SOL    HW229009   2.954   4.263   1.964
 9190SOL     OW29010   1.959   4.301   3.280
 9190SOL    HW129011   2.047   4.280   3.246
 9190SOL    HW229012   1.975   4.352   3.359
 9191SOL     OW29013   2.420   3.922   3.030
 9191SOL    HW129014   2.470   3.864   3.088
 9191SOL    HW229015   2.333   3.928   3.072
 9192SOL     OW29016   2.722   4.176   2.504
 9192SOL    HW129017   2.688   4.233   2.435
 9192SOL    HW229018   2.753   4.098   2.458
 9193SOL     OW29019   2.882   3.772   2.602
 9193SOL    HW129020   2.825   3.753   2.528
 9193SOL    HW229021   2.860   3.706   2.667
 9194SOL     OW29022   3.277   4.900   2.687
 9194SOL    HW129023   3.247   4.819   2.728
 9194SOL    HW229024   3.262   4.886   2.593
 9195SOL     OW29025   3.331   4.316   2.830
 9195SOL    HW129026   3.267   4.245   2.831
 9195SOL    HW229027   3.385   4.300   2.908
 9196SOL     OW29028   3.683   4.532   2.248
 9196SOL    HW129029   3.747   4.488   2.304
 9196SOL    HW229030   3.662   4.468   2.181
 9197SOL     OW29031   2.354   5.150   2.013
 9197SOL    HW129032   2.276   5.128   2.064
 9197SOL    HW229033   2.358   5.083   1.945
 9198SOL     OW29034   3.256   4.299   1.937
 9198SOL    HW129035   3.196   4.272   2.006
 9198SOL    HW229036   3.342   4.267   1.965
 9199SOL     OW29037   2.368   3.981   2.158
 9199SOL    HW129038   2.434   3.942   2.100
 9199SOL    HW229039   2.348   4.066   2.119
 9200SOL     OW29040   3.608   5.002   3.446
 9200SOL    HW129041   3.668   4.928   3.456
 9200SOL    HW229042   3.598   5.037   3.534
 9201SOL     OW29043   2.919   5.072   3.185
 9201SOL    HW129044   2.843   5.041   3.235
 9201SOL    HW229045   2.994   5.031   3.229
 9202SOL     OW29046   3.452   5.384   3.523
 9202SOL    HW129047   3.470   5.396   3.429
 9202SOL    HW229048   3.524   5.329   3.554
 9203SOL     OW29049   2.989   4.927   2.956
 9203SOL    HW129050   2.944   4.971   3.029
 9203SOL    HW229051   2.961   4.975   2.878
 9204SOL     OW29052   3.484   4.833   2.966
 9204SOL    HW129053   3.509   4.894   3.035
 9204SOL    HW229054   3.392   4.812   2.984
 9205SOL     OW29055   2.827   4.852   3.554
 9205SOL    HW129056   2.741   4.852   3.597
 9205SOL    HW229057   2.837   4.764   3.520
 9206SOL     OW29058   2.573   4.784   2.235
 9206SOL    HW129059   2.561   4.765   2.328
 9206SOL    HW229060   2.647   4.728   2.209
 9207SOL     OW29061   2.265   4.538   3.104
 9207SOL    HW129062   2.324   4.573   3.170
 9207SOL    HW229063   2.242   4.451   3.135
 9208SOL     OW29064   1.937   5.315   3.225
 9208SOL    HW129065   1.931   5.389   3.165
 9208SOL    HW229066   2.030   5.294   3.227
 9209SOL     OW29067   2.173   4.847   2.356
 9209SOL    HW129068   2.192   4.924   2.302
 9209SOL    HW229069   2.178   4.773   2.296
 9210SOL     OW29070   2.405   4.245   2.708
 9210SOL    HW129071   2.424   4.307   2.637
 9210SOL    HW229072   2.469   4.267   2.776
 9211SOL     OW29073   3.111   5.082   2.241
 9211SOL    HW129074   3.165   5.149   2.282
 9211SOL    HW229075   3.024   5.095   2.278
 9212SOL     OW29076   3.155   5.189   3.016
 9212SOL    HW129077   3.217   5.203   3.088
 9212SOL    HW229078   3.096   5.120   3.047
 9213SOL     OW29079   3.411   4.354   2.332
 9213SOL    HW129080   3.375   4.377   2.418
 9213SOL    HW229081   3.493   4.403   2.326
 9214SOL     OW29082   2.201   5.297   3.173
 9214SOL    HW129083   2.188   5.248   3.092
 9214SOL    HW229084   2.277   5.258   3.214
 9215SOL     OW29085   2.296   4.464   3.478
 9215SOL    HW129086   2.343   4.520   3.416
 9215SOL    HW229087   2.363   4.407   3.515
 9216SOL     OW29088   3.463   4.495   3.549
 9216SOL    HW129089   3.367   4.497   3.557
 9216SOL    HW229090   3.484   4.565   3.488
 9217SOL     OW29091   2.333   3.762   3.618
 9217SOL    HW129092   2.390   3.774   3.542
 9217SOL    HW229093   2.293   3.848   3.631
 9218SOL     OW29094   2.434   4.610   2.888
 9218SOL    HW129095   2.481   4.692   2.901
 9218SOL    HW229096   2.387   4.596   2.970
 9219SOL     OW29097   3.196   4.574   2.864
 9219SOL    HW129098   3.107   4.540   2.855
 9219SOL    HW229099   3.250   4.496   2.875
 9220SOL     OW29100   3.052   4.251   2.121
 9220SOL    HW129101   3.070   4.175   2.176
 9220SOL    HW229102   3.014   4.316   2.180
 9221SOL     OW29103   2.149   3.922   3.120
 9221SOL    HW129104   2.158   3.971   3.201
 9221SOL    HW229105   2.134   3.832   3.147
 9222SOL     OW29106   1.894   5.062   3.124
 9222SOL    HW129107   1.973   5.016   3.153
 9222SOL    HW229108   1.902   5.149   3.163
 9223SOL     OW29109   2.574   4.333   2.903
 9223SOL    HW129110   2.660   4.312   2.865
 9223SOL    HW229111   2.569   4.429   2.897
 9224SOL     OW29112   3.580   4.710   3.699
 9224SOL    HW129113   3.547   4.621   3.686
 9224SOL    HW229114   3.555   4.732   3.789
 9225SOL     OW29115   2.168   3.786   2.495
 9225SOL    HW129116   2.152   3.877   2.518
 9225SOL    HW229117   2.184   3.742   2.578
 9226SOL     OW29118   3.487   4.113   2.211
 9226SOL    HW129119   3.513   4.043   2.271
 9226SOL    HW229120   3.451   4.181   2.268
 9227SOL     OW29121   2.890   4.482   2.821
 9227SOL    HW129122   2.891   4.498   2.915
 9227SOL    HW229123   2.864   4.390   2.811
 9228SOL     OW29124   2.837   5.289   3.585
 9228SOL    HW129125   2.826   5.328   3.498
 9228SOL    HW229126   2.883   5.207   3.568
 9229SOL     OW29127   3.733   5.325   3.468
 9229SOL    HW129128   3.734   5.268   3.391
 9229SOL    HW229129   3.777   5.275   3.536
 9230SOL     OW29130   2.219   4.659   3.670
 9230SOL    HW129131   2.291   4.683   3.729
 9230SOL    HW229132   2.256   4.590   3.615
 9231SOL     OW29133   3.377   4.007   1.983
 9231SOL    HW129134   3.326   3.931   2.014
 9231SOL    HW229135   3.419   4.040   2.062
 9232SOL     OW29136   3.128   4.536   1.889
 9232SOL    HW129137   3.174   4.454   1.904
 9232SOL    HW229138   3.161   4.567   1.804
 9233SOL     OW29139   2.928   5.064   2.708
 9233SOL    HW129140   2.941   4.989   2.651
 9233SOL    HW229141   2.992   5.129   2.678
 9234SOL     OW29142   2.181   4.538   2.784
 9234SOL    HW129143   2.272   4.564   2.801
 9234SOL    HW229144   2.174   4.450   2.819
 9235SOL     OW29145   2.174   4.265   2.843
 9235SOL    HW129146   2.148   4.173   2.854
 9235SOL    HW229147   2.257   4.260   2.795
 9236SOL     OW29148   1.863   5.037   2.049
 9236SOL    HW129149   1.774   5.054   2.017
 9236SOL    HW229150   1.859   4.949   2.086
 9237SOL     OW29151   1.946   5.504   2.791
 9237SOL    HW129152   1.924   5.419   2.753
 9237SOL    HW229153   2.039   5.517   2.769
 9238SOL     OW29154   2.354   5.296   2.760
 9238SOL    HW129155   2.422   5.359   2.784
 9238SOL    HW229156   2.401   5.228   2.711
 9239SOL     OW29157   2.878   4.507   3.091
 9239SOL    HW129158   2.946   4.472   3.148
 9239SOL    HW229159   2.798   4.503   3.144
 9240SOL     OW29160   1.924   4.287   2.987
 9240SOL    HW129161   1.962   4.299   2.900
 9240SOL    HW229162   1.997   4.261   3.043
 9241SOL     OW29163   2.038   4.225   3.550
 9241SOL    HW129164   2.132   4.219   3.562
 9241SOL    HW229165   2.013   4.307   3.593
 9242SOL     OW29166   3.220   4.653   3.508
 9242SOL    HW129167   3.258   4.740   3.518
 9242SOL    HW229168   3.234   4.631   3.416
 9243SOL     OW29169   2.681   4.286   2.230
 9243SOL    HW129170   2.691   4.212   2.170
 9243SOL    HW229171   2.604   4.333   2.197
 9244SOL     OW29172   2.086   5.270   3.590
 9244SOL    HW129173   2.090   5.323   3.670
 9244SOL    HW229174   2.104   5.181   3.620
 9245SOL     OW29175   2.502   4.176   3.117
 9245SOL    HW129176   2.498   4.089   3.078
 9245SOL    HW229177   2.534   4.233   3.047
 9246SOL     OW29178   2.772   5.403   3.338
 9246SOL    HW129179   2.757   5.367   3.251
 9246SOL    HW229180   2.777   5.498   3.323
 9247SOL     OW29181   2.310   4.213   2.022
 9247SOL    HW129182   2.375   4.276   2.051
 9247SOL    HW229183   2.227   4.260   2.026
 9248SOL     OW29184   1.944   4.793   3.330
 9248SOL    HW129185   1.967   4.769   3.420
 9248SOL    HW229186   2.019   4.844   3.300
 9249SOL     OW29187   3.216   4.788   3.029
 9249SOL    HW129188   3.207   4.708   2.977
 9249SOL    HW229189   3.136   4.837   3.011
 9250SOL     OW29190   3.171   4.603   2.163
 9250SOL    HW129191   3.127   4.558   2.235
 9250SOL    HW229192   3.136   4.562   2.084
 9251SOL     OW29193   3.616   5.475   2.993
 9251SOL    HW129194   3.694   5.489   2.940
 9251SOL    HW229195   3.603   5.381   2.993
 9252SOL     OW29196   3.102   5.455   2.946
 9252SOL    HW129197   3.190   5.480   2.917
 9252SOL    HW229198   3.113   5.366   2.980
 9253SOL     OW29199   1.931   5.003   2.858
 9253SOL    HW129200   1.923   5.016   2.952
 9253SOL    HW229201   1.885   4.921   2.841
 9254SOL     OW29202   2.556   5.404   3.612
 9254SOL    HW129203   2.516   5.485   3.580
 9254SOL    HW229204   2.640   5.399   3.566
 9255SOL     OW29205   3.567   3.880   2.348
 9255SOL    HW129206   3.646   3.868   2.296
 9255SOL    HW229207   3.556   3.798   2.396
 9256SOL     OW29208   3.259   5.288   2.349
 9256SOL    HW129209   3.318   5.331   2.287
 9256SOL    HW229210   3.211   5.360   2.391
 9257SOL     OW29211   1.987   5.542   3.717
 9257SOL    HW129212   1.946   5.465   3.757
 9257SOL    HW229213   2.047   5.575   3.784
 9258SOL     OW29214   3.142   4.647   2.518
 9258SOL    HW129215   3.215   4.591   2.546
 9258SOL    HW229216   3.184   4.717   2.468
 9259SOL     OW29217   2.670   4.996   3.281
 9259SOL    HW129218   2.652   5.035   3.366
 9259SOL    HW229219   2.590   5.011   3.230
 9260SOL     OW29220   2.529   5.357   2.018
 9260SOL    HW129221   2.543   5.371   1.924
 9260SOL    HW229222   2.476   5.278   2.023
 9261SOL     OW29223   3.478   5.459   3.241
 9261SOL    HW129224   3.529   5.466   3.161
 9261SOL    HW229225   3.467   5.550   3.271
 9262SOL     OW29226   2.123   4.037   2.584
 9262SOL    HW129227   2.050   4.099   2.577
 9262SOL    HW229228   2.136   4.027   2.679
 9263SOL     OW29229   3.074   5.317   1.895
 9263SOL    HW129230   3.059   5.228   1.927
 9263SOL    HW229231   3.003   5.332   1.832
 9264SOL     OW29232   2.705   4.723   3.231
 9264SOL    HW129233   2.763   4.731   3.155
 9264SOL    HW229234   2.696   4.813   3.263
 9265SOL     OW29235   2.772   4.626   2.138
 9265SOL    HW129236   2.837   4.668   2.082
 9265SOL    HW229237   2.822   4.566   2.193
 9266SOL     OW29238   3.352   5.359   1.905
 9266SOL    HW129239   3.258   5.347   1.893
 9266SOL    HW229240   3.387   5.362   1.817
 9267SOL     OW29241   3.498   5.024   3.169
 9267SOL    HW129242   3.541   4.998   3.251
 9267SOL    HW229243   3.428   5.083   3.197
 9268SOL     OW29244   2.932   4.830   2.566
 9268SOL    HW129245   2.861   4.784   2.611
 9268SOL    HW229246   2.998   4.763   2.550
 9269SOL     OW29247   2.901   3.970   2.806
 9269SOL    HW129248   2.900   3.916   2.728
 9269SOL    HW229249   2.883   3.909   2.878
 9270SOL     OW29250   2.464   5.202   2.335
 9270SOL    HW129251   2.516   5.155   2.270
 9270SOL    HW229252   2.395   5.245   2.285
 9271SOL     OW29253   2.117   5.074   2.138
 9271SOL    HW129254   2.025   5.066   2.117
 9271SOL    HW229255   2.118   5.110   2.227
 9272SOL     OW29256   1.967   4.731   3.594
 9272SOL    HW129257   1.899   4.718   3.659
 9272SOL    HW229258   2.049   4.711   3.640
 9273SOL     OW29259   2.568   3.922   3.351
 9273SOL    HW129260   2.663   3.916   3.340
 9273SOL    HW229261   2.556   3.950   3.442
 9274SOL     OW29262   1.934   4.050   1.895
 9274SOL    HW129263   1.856   4.031   1.842
 9274SOL    HW229264   1.969   4.131   1.859
 9275SOL     OW29265   3.285   4.617   3.245
 9275SOL    HW129266   3.273   4.678   3.172
 9275SOL    HW229267   3.378   4.596   3.243
 9276SOL     OW29268   1.921   3.875   2.147
 9276SOL    HW129269   1.914   3.944   2.081
 9276SOL    HW229270   2.009   3.839   2.136
 9277SOL     OW29271   3.046   5.046   1.973
 9277SOL    HW129272   2.962   5.000   1.982
 9277SOL    HW229273   3.077   5.057   2.063
 9278SOL     OW29274   2.456   4.595   3.288
 9278SOL    HW129275   2.526   4.660   3.284
 9278SOL    HW229276   2.501   4.512   3.298
 9279SOL     OW29277   3.359   5.520   2.858
 9279SOL    HW129278   3.387   5.589   2.798
 9279SOL    HW229279   3.438   5.498   2.907
 9280SOL     OW29280   2.586   4.303   3.580
 9280SOL    HW129281   2.617   4.382   3.624
 9280SOL    HW229282   2.633   4.232   3.622
 9281SOL     OW29283   3.319   4.926   3.489
 9281SOL    HW129284   3.309   4.930   3.584
 9281SOL    HW229285   3.414   4.924   3.475
 9282SOL     OW29286   2.237   5.468   3.438
 9282SOL    HW129287   2.150   5.507   3.426
 9282SOL    HW229288   2.220   5.380   3.471
 9283SOL     OW29289   3.553   4.576   3.101
 9283SOL    HW129290   3.613   4.512   3.063
 9283SOL    HW229291   3.562   4.653   3.045
 9284SOL     OW29292   3.082   4.049   2.315
 9284SOL    HW129293   3.144   3.976   2.310
 9284SOL    HW229294   3.108   4.097   2.394
 9285SOL     OW29295   2.447   4.450   2.523
 9285SOL    HW129296   2.489   4.536   2.523
 9285SOL    HW229297   2.380   4.456   2.455
 9286SOL     OW29298   3.613   4.102   3.452
 9286SOL    HW129299   3.598   4.033   3.387
 9286SOL    HW229300   3.556   4.078   3.526
 9287SOL     OW29301   3.562   4.685   3.369
 9287SOL    HW129302   3.639   4.694   3.425
 9287SOL    HW229303   3.594   4.638   3.292
 9288SOL     OW29304   2.712   5.088   1.909
 9288SOL    HW129305   2.689   5.093   2.001
 9288SOL    HW229306   2.734   5.177   1.884
 9289SOL     OW29307   2.524   5.507   2.780
 9289SOL    HW129308   2.511   5.602   2.776
 9289SOL    HW229309   2.619   5.497   2.787
 9290SOL     OW29310   2.734   4.698   2.712
 9290SOL    HW129311   2.784   4.626   2.752
 9290SOL    HW229312   2.690   4.740   2.786
 9291SOL     OW29313   2.938   4.724   1.946
 9291SOL    HW129314   2.920   4.766   1.861
 9291SOL    HW229315   3.006   4.660   1.927
 9292SOL     OW29316   3.710   5.254   2.726
 9292SOL    HW129317   3.628   5.283   2.766
 9292SOL    HW229318   3.758   5.213   2.798
 9293SOL     OW29319   2.103   5.021   3.711
 9293SOL    HW129320   2.037   4.951   3.706
 9293SOL    HW229321   2.115   5.035   3.805
 9294SOL     OW29322   1.949   4.926   2.528
 9294SOL    HW129323   1.984   4.901   2.614
 9294SOL    HW229324   2.018   4.899   2.466
 9295SOL     OW29325   2.537   5.144   3.473
 9295SOL    HW129326   2.460   5.095   3.502
 9295SOL    HW229327   2.551   5.209   3.542
 9296SOL     OW29328   2.268   4.159   2.371
 9296SOL    HW129329   2.318   4.091   2.326
 9296SOL    HW229330   2.242   4.119   2.454
 9297SOL     OW29331   3.555   5.214   2.960
 9297SOL    HW129332   3.473   5.182   2.924
 9297SOL    HW229333   3.574   5.156   3.034
 9298SOL     OW29334   2.189   4.253   3.147
 9298SOL    HW129335   2.238   4.201   3.210
 9298SOL    HW229336   2.242   4.250   3.067
 9299SOL     OW29337   2.698   5.294   2.535
 9299SOL    HW129338   2.654   5.360   2.480
 9299SOL    HW229339   2.629   5.231   2.555
 9300SOL     OW29340   2.864   3.763   2.981
 9300SOL    HW129341   2.795   3.701   3.007
 9300SOL    HW229342   2.943   3.709   2.974
 9301SOL     OW29343   2.645   5.052   2.177
 9301SOL    HW129344   2.622   4.962   2.198
 9301SOL    HW229345   2.720   5.072   2.233
 9302SOL     OW29346   2.491   5.280   3.130
 9302SOL    HW129347   2.478   5.364   3.174
 9302SOL    HW229348   2.584   5.277   3.110
 9303SOL     OW29349   3.236   3.767   2.031
 9303SOL    HW129350   3.279   3.686   2.003
 9303SOL    HW229351   3.145   3.743   2.047
 9304SOL     OW29352   3.150   4.192   2.539
 9304SOL    HW129353   3.097   4.271   2.545
 9304SOL    HW229354   3.150   4.157   2.628
 9305SOL     OW29355   3.386   3.964   2.762
 9305SOL    HW129356   3.413   3.941   2.851
 9305SOL    HW229357   3.467   3.959   2.711
 9306SOL     OW29358   1.896   4.787   2.167
 9306SOL    HW129359   1.991   4.780   2.154
 9306SOL    HW229360   1.868   4.698   2.189
 9307SOL     OW29361   2.758   5.392   2.192
 9307SOL    HW129362   2.678   5.377   2.140
 9307SOL    HW229363   2.733   5.460   2.255
 9308SOL     OW29364   2.039   4.362   3.798
 9308SOL    HW129365   1.976   4.349   3.869
 9308SOL    HW229366   2.120   4.323   3.830
 9309SOL     OW29367   2.084   4.015   4.720
 9309SOL    HW129368   2.116   3.980   4.803
 9309SOL    HW229369   1.997   3.977   4.710
 9310SOL     OW29370   1.858   4.139   4.360
 9310SOL    HW129371   1.773   4.146   4.403
 9310SOL    HW229372   1.864   4.047   4.334
 9311SOL     OW29373   2.448   5.026   4.940
 9311SOL    HW129374   2.362   5.016   4.900
 9311SOL    HW229375   2.464   5.121   4.937
 9312SOL     OW29376   3.391   5.292   4.444
 9312SOL    HW129377   3.386   5.214   4.499
 9312SOL    HW229378   3.341   5.269   4.366
 9313SOL     OW29379   3.661   4.322   3.932
 9313SOL    HW129380   3.624   4.306   3.845
 9313SOL    HW229381   3.615   4.260   3.989
 9314SOL     OW29382   2.595   4.838   4.785
 9314SOL    HW129383   2.546   4.908   4.828
 9314SOL    HW229384   2.679   4.879   4.761
 9315SOL     OW29385   2.732   4.485   5.558
 9315SOL    HW129386   2.733   4.543   5.634
 9315SOL    HW229387   2.769   4.538   5.487
 9316SOL     OW29388   2.548   4.720   4.365
 9316SOL    HW129389   2.621   4.699   4.424
 9316SOL    HW229390   2.489   4.774   4.418
 9317SOL     OW29391   2.576   4.868   5.522
 9317SOL    HW129392   2.617   4.944   5.564
 9317SOL    HW229393   2.487   4.897   5.503
 9318SOL     OW29394   2.206   5.132   4.803
 9318SOL    HW129395   2.129   5.093   4.764
 9318SOL    HW229396   2.243   5.188   4.735
 9319SOL     OW29397   3.326   5.233   5.086
 9319SOL    HW129398   3.381   5.312   5.087
 9319SOL    HW229399   3.287   5.230   5.173
 9320SOL     OW29400   2.301   4.132   5.225
 9320SOL    HW129401   2.386   4.088   5.224
 9320SOL    HW229402   2.238   4.062   5.241
 9321SOL     OW29403   3.483   4.188   4.483
 9321SOL    HW129404   3.417   4.253   4.459
 9321SOL    HW229405   3.541   4.234   4.543
 9322SOL     OW29406   2.073   5.464   4.181
 9322SOL    HW129407   2.104   5.528   4.245
 9322SOL    HW229408   2.153   5.432   4.139
 9323SOL     OW29409   2.985   5.062   5.410
 9323SOL    HW129410   3.020   5.057   5.498
 9323SOL    HW229411   2.937   4.980   5.398
 9324SOL     OW29412   2.066   5.163   4.246
 9324SOL    HW129413   2.067   5.244   4.295
 9324SOL    HW229414   2.034   5.097   4.308
 9325SOL     OW29415   2.115   4.809   4.602
 9325SOL    HW129416   2.131   4.722   4.639
 9325SOL    HW229417   2.076   4.859   4.674
 9326SOL     OW29418   2.444   5.539   5.128
 9326SOL    HW129419   2.375   5.508   5.186
 9326SOL    HW229420   2.478   5.618   5.170
 9327SOL     OW29421   2.424   4.735   3.864
 9327SOL    HW129422   2.485   4.757   3.794
 9327SOL    HW229423   2.473   4.752   3.944
 9328SOL     OW29424   1.969   4.393   4.284
 9328SOL    HW129425   1.944   4.303   4.308
 9328SOL    HW229426   1.968   4.440   4.367
 9329SOL     OW29427   3.693   5.484   4.044
 9329SOL    HW129428   3.759   5.440   4.098
 9329SOL    HW229429   3.722   5.575   4.039
 9330SOL     OW29430   1.891   5.322   3.846
 9330SOL    HW129431   1.886   5.227   3.857
 9330SOL    HW229432   1.873   5.357   3.934
 9331SOL     OW29433   3.543   4.583   4.233
 9331SOL    HW129434   3.635   4.560   4.217
 9331SOL    HW229435   3.543   4.679   4.236
 9332SOL     OW29436   2.010   4.472   5.304
 9332SOL    HW129437   2.104   4.485   5.307
 9332SOL    HW229438   1.974   4.557   5.330
 9333SOL     OW29439   2.474   5.120   4.456
 9333SOL    HW129440   2.435   5.034   4.468
 9333SOL    HW229441   2.461   5.140   4.363
 9334SOL     OW29442   3.156   4.962   5.130
 9334SOL    HW129443   3.221   4.927   5.069
 9334SOL    HW229444   3.195   4.949   5.216
 9335SOL     OW29445   2.682   3.745   4.248
 9335SOL    HW129446   2.732   3.823   4.222
 9335SOL    HW229447   2.592   3.775   4.254
 9336SOL     OW29448   2.049   4.686   4.997
 9336SOL    HW129449   2.137   4.648   4.989
 9336SOL    HW229450   1.991   4.621   4.957
 9337SOL     OW29451   3.425   4.756   3.929
 9337SOL    HW129452   3.372   4.702   3.988
 9337SOL    HW229453   3.499   4.785   3.983
 9338SOL     OW29454   3.006   5.533   5.328
 9338SOL    HW129455   3.048   5.590   5.264
 9338SOL    HW229456   3.040   5.446   5.309
 9339SOL     OW29457   2.208   3.982   5.531
 9339SOL    HW129458   2.261   4.047   5.578
 9339SOL    HW229459   2.123   3.984   5.575
 9340SOL     OW29460   3.489   5.515   4.297
 9340SOL    HW129461   3.491   5.463   4.217
 9340SOL    HW229462   3.469   5.451   4.366
 9341SOL     OW29463   2.450   4.430   3.971
 9341SOL    HW129464   2.499   4.509   3.946
 9341SOL    HW229465   2.404   4.454   4.051
 9342SOL     OW29466   3.426   5.417   4.031
 9342SOL    HW129467   3.522   5.421   4.026
 9342SOL    HW229468   3.398   5.398   3.942
 9343SOL     OW29469   2.646   4.375   5.185
 9343SOL    HW129470   2.626   4.333   5.269
 9343SOL    HW229471   2.624   4.308   5.119
 9344SOL     OW29472   2.819   4.589   5.262
 9344SOL    HW129473   2.910   4.565   5.246
 9344SOL    HW229474   2.769   4.511   5.239
 9345SOL     OW29475   2.898   4.427   4.166
 9345SOL    HW129476   2.924   4.422   4.258
 9345SOL    HW229477   2.819   4.372   4.161
 9346SOL     OW29478   1.941   4.569   4.498
 9346SOL    HW129479   2.022   4.544   4.544
 9346SOL    HW229480   1.912   4.649   4.541
 9347SOL     OW29481   1.990   5.593   5.293
 9347SOL    HW129482   1.976   5.566   5.384
 9347SOL    HW229483   1.943   5.527   5.241
 9348SOL     OW29484   2.752   4.098   3.909
 9348SOL    HW129485   2.801   4.172   3.873
 9348SOL    HW229486   2.768   4.027   3.847
 9349SOL     OW29487   2.388   3.911   4.617
 9349SOL    HW129488   2.402   3.931   4.709
 9349SOL    HW229489   2.445   3.973   4.570
 9350SOL     OW29490   2.825   5.178   4.210
 9350SOL    HW129491   2.843   5.252   4.151
 9350SOL    HW229492   2.907   5.129   4.212
 9351SOL     OW29493   2.225   5.538   4.588
 9351SOL    HW129494   2.260   5.450   4.603
 9351SOL    HW229495   2.293   5.597   4.621
 9352SOL     OW29496   3.082   5.271   5.246
 9352SOL    HW129497   3.066   5.199   5.308
 9352SOL    HW229498   3.074   5.230   5.160
 9353SOL     OW29499   2.170   4.696   3.979
 9353SOL    HW129500   2.255   4.718   3.940
 9353SOL    HW229501   2.161   4.602   3.964
 9354SOL     OW29502   3.293   4.398   4.425
 9354SOL    HW129503   3.217   4.375   4.479
 9354SOL    HW229504   3.274   4.486   4.394
 9355SOL     OW29505   2.337   4.990   5.460
 9355SOL    HW129506   2.307   4.989   5.369
 9355SOL    HW229507   2.257   4.990   5.512
 9356SOL     OW29508   2.996   5.525   3.930
 9356SOL    HW129509   2.920   5.492   3.978
 9356SOL    HW229510   3.022   5.452   3.874
 9357SOL     OW29511   2.058   3.981   5.228
 9357SOL    HW129512   1.998   4.041   5.273
 9357SOL    HW229513   2.043   3.896   5.270
 9358SOL     OW29514   3.520   5.108   3.742
 9358SOL    HW129515   3.577   5.108   3.820
 9358SOL    HW229516   3.451   5.046   3.763
 9359SOL     OW29517   2.322   5.458   4.047
 9359SOL    HW129518   2.371   5.507   4.113
 9359SOL    HW229519   2.389   5.424   3.988
 9360SOL     OW29520   3.249   3.821   4.103
 9360SOL    HW129521   3.235   3.744   4.047
 9360SOL    HW229522   3.338   3.810   4.137
 9361SOL     OW29523   2.135   5.515   4.966
 9361SOL    HW129524   2.198   5.449   4.995
 9361SOL    HW229525   2.049   5.477   4.984
 9362SOL     OW29526   2.805   5.430   4.622
 9362SOL    HW129527   2.888   5.383   4.632
 9362SOL    HW229528   2.758   5.380   4.555
 9363SOL     OW29529   2.242   4.426   4.177
 9363SOL    HW129530   2.262   4.334   4.196
 9363SOL    HW229531   2.154   4.439   4.213
 9364SOL     OW29532   2.504   3.843   3.839
 9364SOL    HW129533   2.595   3.819   3.855
 9364SOL    HW229534   2.470   3.773   3.784
 9365SOL     OW29535   2.609   4.013   5.487
 9365SOL    HW129536   2.695   3.973   5.490
 9365SOL    HW229537   2.567   3.986   5.568
 9366SOL     OW29538   2.748   5.237   4.934
 9366SOL    HW129539   2.733   5.203   4.846
 9366SOL    HW229540   2.814   5.180   4.971
 9367SOL     OW29541   2.679   5.124   4.682
 9367SOL    HW129542   2.764   5.101   4.646
 9367SOL    HW229543   2.617   5.111   4.610
 9368SOL     OW29544   2.690   4.193   4.638
 9368SOL    HW129545   2.759   4.248   4.602
 9368SOL    HW229546   2.729   4.106   4.642
 9369SOL     OW29547   2.404   3.786   4.217
 9369SOL    HW129548   2.334   3.789   4.283
 9369SOL    HW229549   2.393   3.868   4.168
 9370SOL     OW29550   3.289   4.920   3.761
 9370SOL    HW129551   3.340   4.854   3.808
 9370SOL    HW229552   3.215   4.940   3.819
 9371SOL     OW29553   2.165   3.780   3.908
 9371SOL    HW129554   2.225   3.853   3.924
 9371SOL    HW229555   2.211   3.704   3.945
 9372SOL     OW29556   2.812   3.975   4.163
 9372SOL    HW129557   2.801   4.013   4.076
 9372SOL    HW229558   2.905   3.986   4.183
 9373SOL     OW29559   3.063   5.316   4.531
 9373SOL    HW129560   3.094   5.363   4.454
 9373SOL    HW229561   3.137   5.319   4.592
 9374SOL     OW29562   2.332   4.885   4.453
 9374SOL    HW129563   2.272   4.857   4.522
 9374SOL    HW229564   2.286   4.865   4.371
 9375SOL     OW29565   3.122   5.520   4.328
 9375SOL    HW129566   3.166   5.588   4.277
 9375SOL    HW229567   3.051   5.566   4.372
 9376SOL     OW29568   2.865   4.300   3.754
 9376SOL    HW129569   2.931   4.358   3.792
 9376SOL    HW229570   2.915   4.228   3.716
 9377SOL     OW29571   1.948   4.289   5.109
 9377SOL    HW129572   2.040   4.275   5.086
 9377SOL    HW229573   1.951   4.356   5.178
 9378SOL     OW29574   2.418   3.945   4.890
 9378SOL    HW129575   2.469   3.875   4.930
 9378SOL    HW229576   2.332   3.938   4.930
 9379SOL     OW29577   2.623   4.139   4.320
 9379SOL    HW129578   2.643   4.207   4.256
 9379SOL    HW229579   2.702   4.084   4.322
 9380SOL     OW29580   2.902   3.737   4.442
 9380SOL    HW129581   2.819   3.727   4.396
 9380SOL    HW229582   2.883   3.711   4.532
 9381SOL     OW29583   3.772   4.545   4.051
 9381SOL    HW129584   3.810   4.499   4.126
 9381SOL    HW229585   3.719   4.478   4.007
 9382SOL     OW29586   2.353   5.158   3.881
 9382SOL    HW129587   2.274   5.125   3.923
 9382SOL    HW229588   2.393   5.079   3.843
 9383SOL     OW29589   3.240   4.305   3.802
 9383SOL    HW129590   3.180   4.276   3.871
 9383SOL    HW229591   3.321   4.258   3.819
 9384SOL     OW29592   2.369   3.981   4.021
 9384SOL    HW129593   2.429   3.928   3.968
 9384SOL    HW229594   2.392   4.072   4.000
 9385SOL     OW29595   3.604   4.953   5.262
 9385SOL    HW129596   3.660   4.876   5.254
 9385SOL    HW229597   3.638   5.000   5.338
 9386SOL     OW29598   2.908   5.063   5.091
 9386SOL    HW129599   2.881   5.070   5.183
 9386SOL    HW229600   2.992   5.018   5.094
 9387SOL     OW29601   3.459   5.356   5.376
 9387SOL    HW129602   3.462   5.390   5.286
 9387SOL    HW229603   3.541   5.306   5.385
 9388SOL     OW29604   2.881   4.930   4.824
 9388SOL    HW129605   2.917   4.980   4.898
 9388SOL    HW229606   2.915   4.974   4.746
 9389SOL     OW29607   2.824   4.841   5.393
 9389SOL    HW129608   2.742   4.840   5.442
 9389SOL    HW229609   2.830   4.754   5.355
 9390SOL     OW29610   2.573   4.781   4.094
 9390SOL    HW129611   2.564   4.764   4.188
 9390SOL    HW229612   2.648   4.727   4.068
 9391SOL     OW29613   2.282   4.544   4.979
 9391SOL    HW129614   2.351   4.555   5.043
 9391SOL    HW229615   2.255   4.452   4.988
 9392SOL     OW29616   2.180   4.845   4.220
 9392SOL    HW129617   2.219   4.914   4.166
 9392SOL    HW229618   2.183   4.767   4.165
 9393SOL     OW29619   2.423   4.261   4.584
 9393SOL    HW129620   2.430   4.326   4.515
 9393SOL    HW229621   2.513   4.229   4.595
 9394SOL     OW29622   3.087   5.087   4.129
 9394SOL    HW129623   3.149   5.155   4.153
 9394SOL    HW229624   3.113   5.010   4.180
 9395SOL     OW29625   3.147   5.192   4.881
 9395SOL    HW129626   3.212   5.200   4.951
 9395SOL    HW229627   3.154   5.101   4.853
 9396SOL     OW29628   3.414   4.349   4.185
 9396SOL    HW129629   3.366   4.351   4.268
 9396SOL    HW229630   3.469   4.427   4.187
 9397SOL     OW29631   2.231   5.238   5.052
 9397SOL    HW129632   2.207   5.204   4.966
 9397SOL    HW229633   2.324   5.260   5.044
 9398SOL     OW29634   2.290   4.463   5.330
 9398SOL    HW129635   2.351   4.510   5.273
 9398SOL    HW229636   2.335   4.380   5.349
 9399SOL     OW29637   2.836   3.866   5.522
 9399SOL    HW129638   2.887   3.878   5.441
 9399SOL    HW229639   2.879   3.793   5.566
 9400SOL     OW29640   2.366   3.758   5.467
 9400SOL    HW129641   2.316   3.701   5.409
 9400SOL    HW229642   2.310   3.835   5.479
 9401SOL     OW29643   2.402   4.637   4.739
 9401SOL    HW129644   2.474   4.698   4.752
 9401SOL    HW229645   2.381   4.606   4.827
 9402SOL     OW29646   3.058   4.259   4.003
 9402SOL    HW129647   3.075   4.181   4.056
 9402SOL    HW229648   3.016   4.320   4.064
 9403SOL     OW29649   2.148   3.920   4.972
 9403SOL    HW129650   2.120   3.951   5.058
 9403SOL    HW229651   2.137   3.825   4.976
 9404SOL     OW29652   1.902   5.065   5.006
 9404SOL    HW129653   1.939   5.005   5.071
 9404SOL    HW229654   1.922   5.152   5.040
 9405SOL     OW29655   2.599   4.390   4.809
 9405SOL    HW129656   2.656   4.330   4.761
 9405SOL    HW229657   2.549   4.436   4.741
 9406SOL     OW29658   2.158   3.785   4.357
 9406SOL    HW129659   2.144   3.878   4.378
 9406SOL    HW229660   2.176   3.744   4.442
 9407SOL     OW29661   3.508   4.119   4.079
 9407SOL    HW129662   3.524   4.053   4.147
 9407SOL    HW229663   3.476   4.195   4.127
 9408SOL     OW29664   2.841   5.288   5.458
 9408SOL    HW129665   2.824   5.331   5.374
 9408SOL    HW229666   2.883   5.205   5.434
 9409SOL     OW29667   3.710   5.245   5.350
 9409SOL    HW129668   3.740   5.274   5.265
 9409SOL    HW229669   3.786   5.255   5.408
 9410SOL     OW29670   2.217   4.655   5.520
 9410SOL    HW129671   2.284   4.667   5.587
 9410SOL    HW229672   2.250   4.583   5.465
 9411SOL     OW29673   3.356   3.999   3.892
 9411SOL    HW129674   3.304   3.938   3.944
 9411SOL    HW229675   3.415   4.041   3.955
 9412SOL     OW29676   3.095   4.520   3.718
 9412SOL    HW129677   3.152   4.449   3.749
 9412SOL    HW229678   3.146   4.563   3.649
 9413SOL     OW29679   2.929   5.066   4.587
 9413SOL    HW129680   2.927   4.993   4.524
 9413SOL    HW229681   2.982   5.133   4.545
 9414SOL     OW29682   2.162   4.534   4.656
 9414SOL    HW129683   2.251   4.566   4.670
 9414SOL    HW229684   2.165   4.442   4.683
 9415SOL     OW29685   2.186   4.264   4.717
 9415SOL    HW129686   2.158   4.173   4.715
 9415SOL    HW229687   2.272   4.264   4.675
 9416SOL     OW29688   2.982   4.137   5.412
 9416SOL    HW129689   2.965   4.174   5.499
 9416SOL    HW229690   3.074   4.111   5.416
 9417SOL     OW29691   1.861   5.042   3.912
 9417SOL    HW129692   1.774   5.054   3.876
 9417SOL    HW229693   1.860   4.954   3.949
 9418SOL     OW29694   1.953   5.521   4.632
 9418SOL    HW129695   1.928   5.434   4.602
 9418SOL    HW229696   2.048   5.522   4.630
 9419SOL     OW29697   2.350   5.297   4.628
 9419SOL    HW129698   2.420   5.356   4.656
 9419SOL    HW229699   2.393   5.234   4.570
 9420SOL     OW29700   1.910   4.291   4.833
 9420SOL    HW129701   1.993   4.281   4.787
 9420SOL    HW229702   1.934   4.286   4.926
 9421SOL     OW29703   2.052   4.248   5.460
 9421SOL    HW129704   2.131   4.214   5.419
 9421SOL    HW229705   2.027   4.322   5.405
 9422SOL     OW29706   3.224   4.663   5.354
 9422SOL    HW129707   3.268   4.748   5.344
 9422SOL    HW229708   3.287   4.600   5.318
 9423SOL     OW29709   2.669   4.287   4.092
 9423SOL    HW129710   2.698   4.216   4.034
 9423SOL    HW229711   2.606   4.336   4.039
 9424SOL     OW29712   2.090   5.265   5.451
 9424SOL    HW129713   2.073   5.320   5.528
 9424SOL    HW229714   2.105   5.178   5.486
 9425SOL     OW29715   2.536   4.198   4.995
 9425SOL    HW129716   2.513   4.118   4.947
 9425SOL    HW229717   2.557   4.261   4.926
 9426SOL     OW29718   2.752   5.397   5.214
 9426SOL    HW129719   2.759   5.357   5.127
 9426SOL    HW229720   2.786   5.486   5.202
 9427SOL     OW29721   2.269   4.240   3.895
 9427SOL    HW129722   2.342   4.301   3.900
 9427SOL    HW229723   2.247   4.221   3.986
 9428SOL     OW29724   2.005   4.872   5.191
 9428SOL    HW129725   2.004   4.822   5.273
 9428SOL    HW229726   2.020   4.806   5.123
 9429SOL     OW29727   3.165   4.626   4.042
 9429SOL    HW129728   3.181   4.634   4.136
 9429SOL    HW229729   3.171   4.532   4.025
 9430SOL     OW29730   3.627   5.442   4.875
 9430SOL    HW129731   3.693   5.467   4.810
 9430SOL    HW229732   3.606   5.351   4.854
 9431SOL     OW29733   3.101   5.462   4.836
 9431SOL    HW129734   3.188   5.483   4.804
 9431SOL    HW229735   3.104   5.368   4.856
 9432SOL     OW29736   1.964   4.991   4.746
 9432SOL    HW129737   1.937   5.011   4.835
 9432SOL    HW229738   1.890   4.944   4.708
 9433SOL     OW29739   2.550   5.391   5.445
 9433SOL    HW129740   2.498   5.470   5.435
 9433SOL    HW229741   2.626   5.405   5.389
 9434SOL     OW29742   3.521   3.880   4.236
 9434SOL    HW129743   3.588   3.826   4.195
 9434SOL    HW229744   3.506   3.839   4.322
 9435SOL     OW29745   3.248   5.299   4.208
 9435SOL    HW129746   3.308   5.332   4.141
 9435SOL    HW229747   3.201   5.376   4.238
 9436SOL     OW29748   1.984   5.542   5.565
 9436SOL    HW129749   1.943   5.465   5.605
 9436SOL    HW229750   2.043   5.576   5.632
 9437SOL     OW29751   2.522   5.370   3.881
 9437SOL    HW129752   2.547   5.378   3.789
 9437SOL    HW229753   2.475   5.287   3.885
 9438SOL     OW29754   3.477   5.459   5.112
 9438SOL    HW129755   3.534   5.459   5.035
 9438SOL    HW229756   3.464   5.551   5.131
 9439SOL     OW29757   3.684   3.892   4.707
 9439SOL    HW129758   3.728   3.812   4.678
 9439SOL    HW229759   3.604   3.895   4.655
 9440SOL     OW29760   2.121   4.044   4.440
 9440SOL    HW129761   2.042   4.097   4.443
 9440SOL    HW229762   2.145   4.031   4.532
 9441SOL     OW29763   3.058   5.313   3.764
 9441SOL    HW129764   3.052   5.225   3.800
 9441SOL    HW229765   2.986   5.320   3.702
 9442SOL     OW29766   2.678   4.779   5.100
 9442SOL    HW129767   2.712   4.768   5.011
 9442SOL    HW229768   2.737   4.727   5.155
 9443SOL     OW29769   2.773   4.622   4.005
 9443SOL    HW129770   2.837   4.663   3.947
 9443SOL    HW229771   2.824   4.563   4.060
 9444SOL     OW29772   3.320   5.420   3.767
 9444SOL    HW129773   3.238   5.370   3.762
 9444SOL    HW229774   3.369   5.394   3.689
 9445SOL     OW29775   2.254   5.006   5.203
 9445SOL    HW129776   2.239   5.091   5.161
 9445SOL    HW229777   2.170   4.961   5.196
 9446SOL     OW29778   3.432   4.982   5.041
 9446SOL    HW129779   3.501   4.967   5.106
 9446SOL    HW229780   3.404   5.072   5.056
 9447SOL     OW29781   2.905   4.852   4.424
 9447SOL    HW129782   2.867   4.768   4.450
 9447SOL    HW229783   2.987   4.829   4.380
 9448SOL     OW29784   2.800   3.936   4.644
 9448SOL    HW129785   2.875   3.933   4.585
 9448SOL    HW229786   2.825   3.880   4.717
 9449SOL     OW29787   2.445   5.181   4.191
 9449SOL    HW129788   2.512   5.138   4.138
 9449SOL    HW229789   2.392   5.230   4.128
 9450SOL     OW29790   2.117   5.078   3.994
 9450SOL    HW129791   2.024   5.066   3.973
 9450SOL    HW229792   2.117   5.110   4.084
 9451SOL     OW29793   1.974   4.746   5.433
 9451SOL    HW129794   1.902   4.725   5.493
 9451SOL    HW229795   2.052   4.714   5.478
 9452SOL     OW29796   2.526   3.935   5.230
 9452SOL    HW129797   2.608   3.953   5.185
 9452SOL    HW229798   2.544   3.952   5.322
 9453SOL     OW29799   1.952   4.049   3.746
 9453SOL    HW129800   1.858   4.051   3.759
 9453SOL    HW229801   1.970   4.122   3.687
 9454SOL     OW29802   1.926   3.873   4.031
 9454SOL    HW129803   1.930   3.960   3.991
 9454SOL    HW229804   2.013   3.835   4.015
 9455SOL     OW29805   3.024   5.050   3.862
 9455SOL    HW129806   2.980   4.965   3.863
 9455SOL    HW229807   3.050   5.065   3.953
 9456SOL     OW29808   2.479   4.582   5.160
 9456SOL    HW129809   2.540   4.654   5.142
 9456SOL    HW229810   2.535   4.504   5.166
 9457SOL     OW29811   3.352   5.521   4.738
 9457SOL    HW129812   3.380   5.546   4.650
 9457SOL    HW229813   3.426   5.471   4.773
 9458SOL     OW29814   2.570   4.287   5.428
 9458SOL    HW129815   2.621   4.339   5.490
 9458SOL    HW229816   2.588   4.196   5.454
 9459SOL     OW29817   3.338   4.924   5.348
 9459SOL    HW129818   3.344   4.956   5.438
 9459SOL    HW229819   3.427   4.930   5.313
 9460SOL     OW29820   2.238   5.467   5.298
 9460SOL    HW129821   2.154   5.508   5.278
 9460SOL    HW229822   2.216   5.379   5.328
 9461SOL     OW29823   3.085   4.036   4.182
 9461SOL    HW129824   3.142   3.965   4.153
 9461SOL    HW229825   3.121   4.062   4.267
 9462SOL     OW29826   2.423   4.465   4.398
 9462SOL    HW129827   2.480   4.542   4.391
 9462SOL    HW229828   2.371   4.467   4.317
 9463SOL     OW29829   2.660   5.110   3.768
 9463SOL    HW129830   2.669   5.098   3.862
 9463SOL    HW229831   2.731   5.169   3.743
 9464SOL     OW29832   2.527   5.506   4.664
 9464SOL    HW129833   2.520   5.598   4.637
 9464SOL    HW229834   2.620   5.486   4.656
 9465SOL     OW29835   2.742   4.643   4.550
 9465SOL    HW129836   2.785   4.557   4.552
 9465SOL    HW229837   2.726   4.664   4.642
 9466SOL     OW29838   2.935   4.729   3.806
 9466SOL    HW129839   2.933   4.754   3.714
 9466SOL    HW229840   3.001   4.660   3.811
 9467SOL     OW29841   3.701   5.295   4.583
 9467SOL    HW129842   3.700   5.253   4.498
 9467SOL    HW229843   3.686   5.223   4.645
 9468SOL     OW29844   2.095   5.018   5.579
 9468SOL    HW129845   2.029   4.950   5.563
 9468SOL    HW229846   2.096   5.029   5.674
 9469SOL     OW29847   1.971   4.935   4.384
 9469SOL    HW129848   1.993   4.901   4.471
 9469SOL    HW229849   2.036   4.895   4.326
 9470SOL     OW29850   2.535   5.124   5.321
 9470SOL    HW129851   2.474   5.088   5.386
 9470SOL    HW229852   2.559   5.210   5.356
 9471SOL     OW29853   3.737   3.889   4.983
 9471SOL    HW129854   3.708   3.799   4.997
 9471SOL    HW229855   3.707   3.912   4.895
 9472SOL     OW29856   2.259   4.160   4.221
 9472SOL    HW129857   2.332   4.101   4.204
 9472SOL    HW229858   2.222   4.130   4.304
 9473SOL     OW29859   3.572   5.177   4.827
 9473SOL    HW129860   3.501   5.113   4.821
 9473SOL    HW229861   3.640   5.134   4.878
 9474SOL     OW29862   2.204   4.280   5.017
 9474SOL    HW129863   2.252   4.232   5.085
 9474SOL    HW229864   2.239   4.245   4.934
 9475SOL     OW29865   2.683   5.304   4.416
 9475SOL    HW129866   2.734   5.261   4.348
 9475SOL    HW229867   2.607   5.247   4.429
 9476SOL     OW29868   3.291   3.948   4.781
 9476SOL    HW129869   3.266   3.860   4.808
 9476SOL    HW229870   3.213   4.001   4.795
 9477SOL     OW29871   2.641   5.052   4.044
 9477SOL    HW129872   2.627   4.959   4.060
 9477SOL    HW229873   2.709   5.078   4.106
 9478SOL     OW29874   2.493   5.294   5.006
 9478SOL    HW129875   2.489   5.381   5.046
 9478SOL    HW229876   2.584   5.285   4.978
 9479SOL     OW29877   3.445   3.917   4.563
 9479SOL    HW129878   3.393   3.929   4.643
 9479SOL    HW229879   3.452   4.006   4.526
 9480SOL     OW29880   1.901   4.784   4.017
 9480SOL    HW129881   1.996   4.779   4.009
 9480SOL    HW229882   1.873   4.696   4.043
 9481SOL     OW29883   2.767   5.412   4.043
 9481SOL    HW129884   2.685   5.384   4.002
 9481SOL    HW229885   2.739   5.467   4.117
 9482SOL     OW29886   2.077   4.366   5.715
 9482SOL    HW129887   1.998   4.337   5.760
 9482SOL    HW229888   2.067   4.335   5.626
 9483SOL     OW29889   2.087   4.008   6.579
 9483SOL    HW129890   2.125   3.977   6.662
 9483SOL    HW229891   1.999   3.971   6.577
 9484SOL     OW29892   1.864   4.123   6.218
 9484SOL    HW129893   1.781   4.118   6.264
 9484SOL    HW229894   1.868   4.042   6.167
 9485SOL     OW29895   2.443   5.025   6.790
 9485SOL    HW129896   2.365   5.021   6.736
 9485SOL    HW229897   2.457   5.118   6.807
 9486SOL     OW29898   3.389   5.240   6.257
 9486SOL    HW129899   3.381   5.208   6.346
 9486SOL    HW229900   3.387   5.161   6.203
 9487SOL     OW29901   2.626   4.872   6.625
 9487SOL    HW129902   2.573   4.880   6.704
 9487SOL    HW229903   2.649   4.963   6.602
 9488SOL     OW29904   2.679   4.518   7.410
 9488SOL    HW129905   2.757   4.520   7.466
 9488SOL    HW229906   2.709   4.552   7.326
 9489SOL     OW29907   2.536   4.728   6.222
 9489SOL    HW129908   2.608   4.713   6.284
 9489SOL    HW229909   2.471   4.778   6.273
 9490SOL     OW29910   2.569   4.882   7.411
 9490SOL    HW129911   2.607   4.966   7.436
 9490SOL    HW229912   2.489   4.905   7.364
 9491SOL     OW29913   2.177   5.156   6.649
 9491SOL    HW129914   2.112   5.111   6.595
 9491SOL    HW229915   2.236   5.199   6.586
 9492SOL     OW29916   3.297   5.223   6.937
 9492SOL    HW129917   3.363   5.290   6.954
 9492SOL    HW229918   3.280   5.182   7.022
 9493SOL     OW29919   2.283   4.111   7.182
 9493SOL    HW129920   2.370   4.093   7.147
 9493SOL    HW229921   2.224   4.068   7.120
 9494SOL     OW29922   2.077   5.450   6.054
 9494SOL    HW129923   2.102   5.520   6.114
 9494SOL    HW229924   2.156   5.431   6.004
 9495SOL     OW29925   3.018   5.044   7.283
 9495SOL    HW129926   3.100   4.997   7.270
 9495SOL    HW229927   2.951   4.975   7.282
 9496SOL     OW29928   2.084   5.164   6.107
 9496SOL    HW129929   2.070   5.256   6.130
 9496SOL    HW229930   2.045   5.115   6.180
 9497SOL     OW29931   2.107   4.805   6.486
 9497SOL    HW129932   2.132   4.713   6.477
 9497SOL    HW229933   2.108   4.822   6.580
 9498SOL     OW29934   2.433   5.548   6.978
 9498SOL    HW129935   2.371   5.512   7.041
 9498SOL    HW229936   2.473   5.623   7.022
 9499SOL     OW29937   2.425   4.724   5.729
 9499SOL    HW129938   2.489   4.744   5.662
 9499SOL    HW229939   2.466   4.751   5.811
 9500SOL     OW29940   3.456   3.823   7.076
 9500SOL    HW129941   3.491   3.809   6.989
 9500SOL    HW229942   3.449   3.918   7.085
 9501SOL     OW29943   1.966   4.389   6.144
 9501SOL    HW129944   1.951   4.297   6.165
 9501SOL    HW229945   1.969   4.432   6.229
 9502SOL     OW29946   3.691   5.499   5.926
 9502SOL    HW129947   3.764   5.457   5.972
 9502SOL    HW229948   3.726   5.585   5.901
 9503SOL     OW29949   1.907   5.318   5.699
 9503SOL    HW129950   1.892   5.224   5.714
 9503SOL    HW229951   1.881   5.360   5.781
 9504SOL     OW29952   1.996   4.458   7.172
 9504SOL    HW129953   2.090   4.473   7.160
 9504SOL    HW229954   1.956   4.544   7.156
 9505SOL     OW29955   2.472   5.124   6.317
 9505SOL    HW129956   2.432   5.037   6.329
 9505SOL    HW229957   2.462   5.142   6.224
 9506SOL     OW29958   3.167   4.940   7.039
 9506SOL    HW129959   3.188   4.879   6.969
 9506SOL    HW229960   3.213   4.905   7.116
 9507SOL     OW29961   2.653   3.709   6.075
 9507SOL    HW129962   2.707   3.788   6.078
 9507SOL    HW229963   2.564   3.741   6.088
 9508SOL     OW29964   1.978   4.741   6.809
 9508SOL    HW129965   2.062   4.696   6.825
 9508SOL    HW229966   1.920   4.672   6.778
 9509SOL     OW29967   3.141   5.542   7.192
 9509SOL    HW129968   3.081   5.588   7.134
 9509SOL    HW229969   3.128   5.449   7.172
 9510SOL     OW29970   2.202   3.965   7.428
 9510SOL    HW129971   2.254   4.026   7.375
 9510SOL    HW229972   2.120   4.010   7.443
 9511SOL     OW29973   3.304   5.153   6.508
 9511SOL    HW129974   3.258   5.150   6.592
 9511SOL    HW229975   3.304   5.062   6.478
 9512SOL     OW29976   3.468   5.499   6.165
 9512SOL    HW129977   3.480   5.462   6.077
 9512SOL    HW229978   3.452   5.423   6.220
 9513SOL     OW29979   2.454   4.424   5.848
 9513SOL    HW129980   2.484   4.511   5.825
 9513SOL    HW229981   2.392   4.438   5.920
 9514SOL     OW29982   3.429   5.448   5.888
 9514SOL    HW129983   3.524   5.449   5.889
 9514SOL    HW229984   3.406   5.410   5.803
 9515SOL     OW29985   2.596   4.347   7.050
 9515SOL    HW129986   2.612   4.291   7.127
 9515SOL    HW229987   2.573   4.285   6.980
 9516SOL     OW29988   3.257   4.188   7.285
 9516SOL    HW129989   3.267   4.216   7.376
 9516SOL    HW229990   3.305   4.105   7.280
 9517SOL     OW29991   2.808   4.601   7.174
 9517SOL    HW129992   2.872   4.535   7.148
 9517SOL    HW229993   2.735   4.589   7.113
 9518SOL     OW29994   2.815   4.142   6.821
 9518SOL    HW129995   2.787   4.060   6.862
 9518SOL    HW229996   2.904   4.126   6.791
 9519SOL     OW29997   2.846   4.488   6.021
 9519SOL    HW129998   2.912   4.493   6.090
 9519SOL    HW229999   2.802   4.404   6.035
 9520SOL     OW30000   1.935   4.568   6.361
 9520SOL    HW130001   2.018   4.540   6.400
 9520SOL    HW230002   1.914   4.650   6.406
 9521SOL     OW30003   1.984   5.593   7.175
 9521SOL    HW130004   1.978   5.581   7.270
 9521SOL    HW230005   1.927   5.526   7.138
 9522SOL     OW30006   2.772   4.066   5.767
 9522SOL    HW130007   2.816   4.138   5.723
 9522SOL    HW230008   2.797   3.988   5.717
 9523SOL     OW30009   3.513   4.350   7.407
 9523SOL    HW130010   3.473   4.405   7.340
 9523SOL    HW230011   3.550   4.277   7.358
 9524SOL     OW30012   2.401   3.902   6.482
 9524SOL    HW130013   2.412   3.922   6.574
 9524SOL    HW230014   2.435   3.979   6.436
 9525SOL     OW30015   2.818   5.182   6.083
 9525SOL    HW130016   2.875   5.233   6.025
 9525SOL    HW230017   2.878   5.127   6.134
 9526SOL     OW30018   2.218   5.533   6.464
 9526SOL    HW130019   2.259   5.447   6.467
 9526SOL    HW230020   2.289   5.595   6.479
 9527SOL     OW30021   3.666   4.843   6.434
 9527SOL    HW130022   3.626   4.827   6.348
 9527SOL    HW230023   3.599   4.817   6.497
 9528SOL     OW30024   3.068   5.276   7.124
 9528SOL    HW130025   3.072   5.199   7.181
 9528SOL    HW230026   3.042   5.241   7.039
 9529SOL     OW30027   2.165   4.684   5.840
 9529SOL    HW130028   2.251   4.702   5.803
 9529SOL    HW230029   2.149   4.592   5.822
 9530SOL     OW30030   2.331   5.006   7.330
 9530SOL    HW130031   2.300   5.013   7.239
 9530SOL    HW230032   2.252   4.991   7.381
 9531SOL     OW30033   2.991   5.529   5.791
 9531SOL    HW130034   2.913   5.498   5.837
 9531SOL    HW230035   3.022   5.454   5.741
 9532SOL     OW30036   2.062   3.980   7.069
 9532SOL    HW130037   1.997   4.048   7.088
 9532SOL    HW230038   2.026   3.902   7.111
 9533SOL     OW30039   2.318   5.460   5.905
 9533SOL    HW130040   2.367   5.506   5.973
 9533SOL    HW230041   2.385   5.423   5.848
 9534SOL     OW30042   2.125   5.509   6.806
 9534SOL    HW130043   2.175   5.440   6.847
 9534SOL    HW230044   2.125   5.487   6.713
 9535SOL     OW30045   2.815   5.429   6.483
 9535SOL    HW130046   2.898   5.382   6.493
 9535SOL    HW230047   2.766   5.378   6.418
 9536SOL     OW30048   2.248   4.427   6.043
 9536SOL    HW130049   2.265   4.335   6.059
 9536SOL    HW230050   2.157   4.440   6.070
 9537SOL     OW30051   3.388   3.951   7.314
 9537SOL    HW130052   3.384   3.933   7.408
 9537SOL    HW230053   3.393   3.864   7.273
 9538SOL     OW30054   2.496   3.844   5.694
 9538SOL    HW130055   2.568   3.786   5.719
 9538SOL    HW230056   2.457   3.802   5.617
 9539SOL     OW30057   2.607   3.955   7.372
 9539SOL    HW130058   2.698   3.925   7.365
 9539SOL    HW230059   2.614   4.051   7.372
 9540SOL     OW30060   2.745   5.246   6.791
 9540SOL    HW130061   2.734   5.210   6.703
 9540SOL    HW230062   2.815   5.193   6.830
 9541SOL     OW30063   3.203   4.321   7.040
 9541SOL    HW130064   3.244   4.293   7.121
 9541SOL    HW230065   3.241   4.408   7.023
 9542SOL     OW30066   2.688   5.125   6.529
 9542SOL    HW130067   2.770   5.105   6.483
 9542SOL    HW230068   2.620   5.119   6.461
 9543SOL     OW30069   2.716   4.162   6.488
 9543SOL    HW130070   2.716   4.164   6.392
 9543SOL    HW230071   2.801   4.126   6.511
 9544SOL     OW30072   2.394   3.788   6.075
 9544SOL    HW130073   2.321   3.793   6.137
 9544SOL    HW230074   2.388   3.869   6.025
 9545SOL     OW30075   2.165   3.772   5.779
 9545SOL    HW130076   2.233   3.839   5.774
 9545SOL    HW230077   2.209   3.697   5.820
 9546SOL     OW30078   2.785   3.957   6.027
 9546SOL    HW130079   2.785   3.997   5.940
 9546SOL    HW230080   2.876   3.960   6.054
 9547SOL     OW30081   2.943   4.388   7.056
 9547SOL    HW130082   2.907   4.304   7.025
 9547SOL    HW230083   3.038   4.375   7.056
 9548SOL     OW30084   3.096   5.324   6.412
 9548SOL    HW130085   3.130   5.335   6.323
 9548SOL    HW230086   3.160   5.266   6.455
 9549SOL     OW30087   2.322   4.891   6.318
 9549SOL    HW130088   2.270   4.857   6.391
 9549SOL    HW230089   2.272   4.868   6.240
 9550SOL     OW30090   3.129   5.512   6.188
 9550SOL    HW130091   3.169   5.587   6.144
 9550SOL    HW230092   3.072   5.551   6.254
 9551SOL     OW30093   2.894   4.276   5.642
 9551SOL    HW130094   2.838   4.345   5.609
 9551SOL    HW230095   2.968   4.321   5.682
 9552SOL     OW30096   1.957   4.259   6.989
 9552SOL    HW130097   2.045   4.246   6.955
 9552SOL    HW230098   1.965   4.335   7.047
 9553SOL     OW30099   2.426   3.930   6.751
 9553SOL    HW130100   2.475   3.868   6.804
 9553SOL    HW230101   2.336   3.925   6.785
 9554SOL     OW30102   2.696   4.154   6.209
 9554SOL    HW130103   2.675   4.213   6.136
 9554SOL    HW230104   2.717   4.071   6.168
 9555SOL     OW30105   2.802   3.796   6.303
 9555SOL    HW130106   2.761   3.713   6.281
 9555SOL    HW230107   2.837   3.783   6.391
 9556SOL     OW30108   3.280   4.909   6.384
 9556SOL    HW130109   3.288   4.815   6.396
 9556SOL    HW230110   3.308   4.925   6.293
 9557SOL     OW30111   3.259   4.305   6.661
 9557SOL    HW130112   3.239   4.213   6.646
 9557SOL    HW230113   3.348   4.305   6.694
 9558SOL     OW30114   3.788   4.550   5.914
 9558SOL    HW130115   3.817   4.520   6.000
 9558SOL    HW230116   3.727   4.482   5.884
 9559SOL     OW30117   2.353   5.156   5.744
 9559SOL    HW130118   2.271   5.125   5.784
 9559SOL    HW230119   2.376   5.088   5.681
 9560SOL     OW30120   2.369   3.989   5.890
 9560SOL    HW130121   2.432   3.946   5.831
 9560SOL    HW230122   2.348   4.071   5.846
 9561SOL     OW30123   2.937   5.094   6.952
 9561SOL    HW130124   2.856   5.054   6.984
 9561SOL    HW230125   3.005   5.033   6.979
 9562SOL     OW30126   3.469   5.375   7.261
 9562SOL    HW130127   3.447   5.391   7.169
 9562SOL    HW230128   3.560   5.347   7.259
 9563SOL     OW30129   2.994   4.948   6.681
 9563SOL    HW130130   2.923   4.917   6.737
 9563SOL    HW230131   2.978   4.904   6.597
 9564SOL     OW30132   3.486   4.817   6.651
 9564SOL    HW130133   3.503   4.879   6.722
 9564SOL    HW230134   3.400   4.781   6.671
 9565SOL     OW30135   2.755   3.877   6.976
 9565SOL    HW130136   2.772   3.817   6.904
 9565SOL    HW230137   2.841   3.894   7.014
 9566SOL     OW30138   2.827   4.841   7.302
 9566SOL    HW130139   2.735   4.846   7.328
 9566SOL    HW230140   2.833   4.763   7.247
 9567SOL     OW30141   2.566   4.797   5.958
 9567SOL    HW130142   2.557   4.773   6.050
 9567SOL    HW230143   2.636   4.741   5.925
 9568SOL     OW30144   3.100   4.110   6.885
 9568SOL    HW130145   3.153   4.184   6.915
 9568SOL    HW230146   3.140   4.082   6.803
 9569SOL     OW30147   1.951   5.301   6.951
 9569SOL    HW130148   1.932   5.369   6.887
 9569SOL    HW230149   2.046   5.287   6.944
 9570SOL     OW30150   2.173   4.841   6.086
 9570SOL    HW130151   2.210   4.906   6.027
 9570SOL    HW230152   2.176   4.759   6.037
 9571SOL     OW30153   2.398   4.273   6.453
 9571SOL    HW130154   2.421   4.327   6.378
 9571SOL    HW230155   2.469   4.286   6.515
 9572SOL     OW30156   3.095   5.069   5.962
 9572SOL    HW130157   3.131   5.157   5.977
 9572SOL    HW230158   3.149   5.012   6.016
 9573SOL     OW30159   3.134   5.196   6.724
 9573SOL    HW130160   3.190   5.194   6.801
 9573SOL    HW230161   3.083   5.115   6.730
 9574SOL     OW30162   2.216   5.257   6.893
 9574SOL    HW130163   2.201   5.214   6.809
 9574SOL    HW230164   2.311   5.267   6.898
 9575SOL     OW30165   2.269   4.463   7.188
 9575SOL    HW130166   2.302   4.514   7.114
 9575SOL    HW230167   2.327   4.386   7.192
 9576SOL     OW30168   2.864   3.878   7.356
 9576SOL    HW130169   2.923   3.951   7.341
 9576SOL    HW230170   2.904   3.805   7.309
 9577SOL     OW30171   2.338   3.736   7.360
 9577SOL    HW130172   2.301   3.695   7.282
 9577SOL    HW230173   2.294   3.821   7.366
 9578SOL     OW30174   2.379   4.658   6.620
 9578SOL    HW130175   2.474   4.665   6.630
 9578SOL    HW230176   2.349   4.623   6.704
 9579SOL     OW30177   3.209   4.578   6.630
 9579SOL    HW130178   3.216   4.573   6.534
 9579SOL    HW230179   3.220   4.488   6.660
 9580SOL     OW30180   2.160   3.907   6.823
 9580SOL    HW130181   2.131   3.945   6.906
 9580SOL    HW230182   2.141   3.814   6.831
 9581SOL     OW30183   1.868   5.049   6.861
 9581SOL    HW130184   1.912   4.978   6.908
 9581SOL    HW230185   1.904   5.129   6.900
 9582SOL     OW30186   2.598   4.344   6.644
 9582SOL    HW130187   2.643   4.270   6.604
 9582SOL    HW230188   2.655   4.419   6.629
 9583SOL     OW30189   2.160   3.783   6.221
 9583SOL    HW130190   2.145   3.875   6.242
 9583SOL    HW230191   2.175   3.741   6.306
 9584SOL     OW30192   2.818   4.508   6.583
 9584SOL    HW130193   2.878   4.519   6.657
 9584SOL    HW230194   2.875   4.492   6.508
 9585SOL     OW30195   2.842   5.262   7.312
 9585SOL    HW130196   2.830   5.303   7.226
 9585SOL    HW230197   2.899   5.187   7.295
 9586SOL     OW30198   3.726   5.303   7.209
 9586SOL    HW130199   3.742   5.310   7.115
 9586SOL    HW230200   3.750   5.213   7.230
 9587SOL     OW30201   2.214   4.641   7.390
 9587SOL    HW130202   2.296   4.658   7.436
 9587SOL    HW230203   2.238   4.579   7.320
 9588SOL     OW30204   3.135   4.534   5.575
 9588SOL    HW130205   3.207   4.538   5.638
 9588SOL    HW230206   3.170   4.576   5.497
 9589SOL     OW30207   2.909   5.058   6.381
 9589SOL    HW130208   2.917   4.969   6.346
 9589SOL    HW230209   2.998   5.084   6.403
 9590SOL     OW30210   2.169   4.539   6.494
 9590SOL    HW130211   2.253   4.571   6.529
 9590SOL    HW230212   2.162   4.449   6.525
 9591SOL     OW30213   2.146   4.270   6.546
 9591SOL    HW130214   2.132   4.178   6.569
 9591SOL    HW230215   2.237   4.273   6.516
 9592SOL     OW30216   2.991   4.131   7.321
 9592SOL    HW130217   2.983   4.188   7.398
 9592SOL    HW230218   3.081   4.144   7.291
 9593SOL     OW30219   2.999   3.945   7.077
 9593SOL    HW130220   3.013   4.011   7.145
 9593SOL    HW230221   3.041   3.982   6.999
 9594SOL     OW30222   1.860   5.043   5.780
 9594SOL    HW130223   1.771   5.060   5.749
 9594SOL    HW230224   1.858   4.953   5.813
 9595SOL     OW30225   1.951   5.505   6.528
 9595SOL    HW130226   1.924   5.422   6.489
 9595SOL    HW230227   2.042   5.516   6.498
 9596SOL     OW30228   2.353   5.298   6.492
 9596SOL    HW130229   2.425   5.354   6.522
 9596SOL    HW230230   2.394   5.236   6.432
 9597SOL     OW30231   2.824   4.541   6.865
 9597SOL    HW130232   2.888   4.503   6.926
 9597SOL    HW230233   2.781   4.465   6.825
 9598SOL     OW30234   1.912   4.294   6.699
 9598SOL    HW130235   1.986   4.294   6.637
 9598SOL    HW230236   1.953   4.286   6.785
 9599SOL     OW30237   2.080   4.240   7.321
 9599SOL    HW130238   2.155   4.207   7.272
 9599SOL    HW230239   2.047   4.312   7.268
 9600SOL     OW30240   2.667   4.268   5.953
 9600SOL    HW130241   2.689   4.200   5.889
 9600SOL    HW230242   2.597   4.318   5.912
 9601SOL     OW30243   3.511   4.328   6.781
 9601SOL    HW130244   3.511   4.265   6.852
 9601SOL    HW230245   3.593   4.313   6.734
 9602SOL     OW30246   2.090   5.271   7.320
 9602SOL    HW130247   2.076   5.293   7.412
 9602SOL    HW230248   2.113   5.178   7.320
 9603SOL     OW30249   2.477   4.192   6.848
 9603SOL    HW130250   2.486   4.104   6.811
 9603SOL    HW230251   2.520   4.249   6.784
 9604SOL     OW30252   2.755   5.396   7.078
 9604SOL    HW130253   2.744   5.330   7.010
 9604SOL    HW230254   2.812   5.462   7.039
 9605SOL     OW30255   2.309   4.212   5.741
 9605SOL    HW130256   2.377   4.274   5.768
 9605SOL    HW230257   2.228   4.263   5.745
 9606SOL     OW30258   1.983   4.867   7.057
 9606SOL    HW130259   2.007   4.820   7.136
 9606SOL    HW230260   2.000   4.806   6.986
 9607SOL     OW30261   3.198   4.789   6.795
 9607SOL    HW130262   3.201   4.710   6.741
 9607SOL    HW230263   3.137   4.848   6.749
 9608SOL     OW30264   3.647   5.466   6.740
 9608SOL    HW130265   3.705   5.480   6.665
 9608SOL    HW230266   3.609   5.379   6.724
 9609SOL     OW30267   3.107   5.474   6.707
 9609SOL    HW130268   3.189   5.489   6.659
 9609SOL    HW230269   3.103   5.380   6.719
 9610SOL     OW30270   1.908   5.033   6.579
 9610SOL    HW130271   1.906   5.018   6.673
 9610SOL    HW230272   1.892   4.947   6.541
 9611SOL     OW30273   2.572   5.408   7.340
 9611SOL    HW130274   2.520   5.477   7.299
 9611SOL    HW230275   2.648   5.397   7.282
 9612SOL     OW30276   3.192   5.316   6.005
 9612SOL    HW130277   3.288   5.318   5.997
 9612SOL    HW230278   3.173   5.375   6.077
 9613SOL     OW30279   1.967   5.559   7.443
 9613SOL    HW130280   1.939   5.471   7.469
 9613SOL    HW230281   2.036   5.581   7.505
 9614SOL     OW30282   2.679   5.020   7.012
 9614SOL    HW130283   2.628   5.065   7.080
 9614SOL    HW230284   2.614   4.975   6.959
 9615SOL     OW30285   2.518   5.369   5.730
 9615SOL    HW130286   2.547   5.370   5.638
 9615SOL    HW230287   2.470   5.288   5.739
 9616SOL     OW30288   3.472   5.441   6.985
 9616SOL    HW130289   3.529   5.433   6.908
 9616SOL    HW230290   3.472   5.535   7.004
 9617SOL     OW30291   3.696   3.918   6.598
 9617SOL    HW130292   3.713   3.827   6.572
 9617SOL    HW230293   3.612   3.939   6.557
 9618SOL     OW30294   2.124   4.038   6.303
 9618SOL    HW130295   2.042   4.087   6.294
 9618SOL    HW230296   2.138   4.033   6.398
 9619SOL     OW30297   3.067   5.323   5.619
 9619SOL    HW130298   3.058   5.235   5.655
 9619SOL    HW230299   2.991   5.333   5.561
 9620SOL     OW30300   2.662   4.751   6.917
 9620SOL    HW130301   2.717   4.679   6.886
 9620SOL    HW230302   2.720   4.804   6.971
 9621SOL     OW30303   2.744   4.638   5.825
 9621SOL    HW130304   2.821   4.670   5.778
 9621SOL    HW230305   2.780   4.584   5.896
 9622SOL     OW30306   3.330   5.420   5.615
 9622SOL    HW130307   3.246   5.374   5.612
 9622SOL    HW230308   3.376   5.390   5.537
 9623SOL     OW30309   2.197   5.054   7.100
 9623SOL    HW130310   2.222   5.106   7.024
 9623SOL    HW230311   2.144   4.983   7.065
 9624SOL     OW30312   3.530   5.003   6.859
 9624SOL    HW130313   3.608   4.968   6.902
 9624SOL    HW230314   3.461   4.997   6.925
 9625SOL     OW30315   2.934   4.802   6.295
 9625SOL    HW130316   2.857   4.758   6.332
 9625SOL    HW230317   3.000   4.734   6.287
 9626SOL     OW30318   2.450   5.188   6.051
 9626SOL    HW130319   2.517   5.146   5.997
 9626SOL    HW230320   2.382   5.213   5.989
 9627SOL     OW30321   3.589   4.137   6.981
 9627SOL    HW130322   3.671   4.183   6.966
 9627SOL    HW230323   3.599   4.054   6.935
 9628SOL     OW30324   2.117   5.074   5.858
 9628SOL    HW130325   2.023   5.065   5.839
 9628SOL    HW230326   2.120   5.106   5.948
 9629SOL     OW30327   1.982   4.773   7.328
 9629SOL    HW130328   1.908   4.734   7.374
 9629SOL    HW230329   2.057   4.719   7.354
 9630SOL     OW30330   2.522   3.900   7.111
 9630SOL    HW130331   2.604   3.901   7.062
 9630SOL    HW230332   2.547   3.918   7.201
 9631SOL     OW30333   1.942   4.057   5.626
 9631SOL    HW130334   1.863   4.032   5.579
 9631SOL    HW230335   1.979   4.130   5.575
 9632SOL     OW30336   3.273   4.576   6.968
 9632SOL    HW130337   3.242   4.650   6.915
 9632SOL    HW230338   3.368   4.580   6.962
 9633SOL     OW30339   1.926   3.879   5.876
 9633SOL    HW130340   1.921   3.953   5.815
 9633SOL    HW230341   2.014   3.844   5.864
 9634SOL     OW30342   3.017   5.060   5.696
 9634SOL    HW130343   2.947   4.995   5.708
 9634SOL    HW230344   3.060   5.065   5.782
 9635SOL     OW30345   2.509   4.597   7.094
 9635SOL    HW130346   2.532   4.650   7.017
 9635SOL    HW230347   2.536   4.508   7.070
 9636SOL     OW30348   3.361   5.525   6.588
 9636SOL    HW130349   3.359   5.477   6.505
 9636SOL    HW230350   3.419   5.474   6.644
 9637SOL     OW30351   2.632   4.254   7.319
 9637SOL    HW130352   2.618   4.342   7.355
 9637SOL    HW230353   2.727   4.244   7.314
 9638SOL     OW30354   2.238   5.468   7.162
 9638SOL    HW130355   2.151   5.505   7.149
 9638SOL    HW230356   2.222   5.379   7.194
 9639SOL     OW30357   3.530   4.595   6.853
 9639SOL    HW130358   3.521   4.503   6.828
 9639SOL    HW230359   3.544   4.640   6.770
 9640SOL     OW30360   2.440   4.457   6.250
 9640SOL    HW130361   2.489   4.538   6.243
 9640SOL    HW230362   2.378   4.459   6.177
 9641SOL     OW30363   3.595   4.118   7.261
 9641SOL    HW130364   3.593   4.132   7.166
 9641SOL    HW230365   3.527   4.053   7.277
 9642SOL     OW30366   3.715   4.659   7.055
 9642SOL    HW130367   3.723   4.752   7.033
 9642SOL    HW230368   3.639   4.629   7.005
 9643SOL     OW30369   2.678   5.095   5.626
 9643SOL    HW130370   2.674   5.096   5.721
 9643SOL    HW230371   2.731   5.173   5.604
 9644SOL     OW30372   2.530   5.510   6.531
 9644SOL    HW130373   2.524   5.597   6.492
 9644SOL    HW230374   2.621   5.484   6.519
 9645SOL     OW30375   2.711   4.706   6.427
 9645SOL    HW130376   2.750   4.628   6.466
 9645SOL    HW230377   2.683   4.759   6.502
 9646SOL     OW30378   2.938   4.706   5.645
 9646SOL    HW130379   2.953   4.764   5.571
 9646SOL    HW230380   3.005   4.639   5.637
 9647SOL     OW30381   3.717   5.249   6.443
 9647SOL    HW130382   3.714   5.200   6.361
 9647SOL    HW230383   3.739   5.184   6.509
 9648SOL     OW30384   2.078   5.009   7.432
 9648SOL    HW130385   2.039   4.932   7.390
 9648SOL    HW230386   2.065   4.993   7.526
 9649SOL     OW30387   1.966   4.941   6.255
 9649SOL    HW130388   1.992   4.901   6.337
 9649SOL    HW230389   2.025   4.904   6.190
 9650SOL     OW30390   2.527   5.152   7.201
 9650SOL    HW130391   2.466   5.096   7.249
 9650SOL    HW230392   2.548   5.223   7.262
 9651SOL     OW30393   3.648   3.900   6.864
 9651SOL    HW130394   3.718   3.838   6.887
 9651SOL    HW230395   3.660   3.915   6.771
 9652SOL     OW30396   2.265   4.165   6.094
 9652SOL    HW130397   2.318   4.098   6.050
 9652SOL    HW230398   2.237   4.124   6.176
 9653SOL     OW30399   3.521   5.235   6.701
 9653SOL    HW130400   3.487   5.196   6.620
 9653SOL    HW230401   3.536   5.160   6.759
 9654SOL     OW30402   2.201   4.247   6.881
 9654SOL    HW130403   2.291   4.215   6.872
 9654SOL    HW230404   2.208   4.341   6.867
 9655SOL     OW30405   2.673   5.318   6.280
 9655SOL    HW130406   2.725   5.278   6.210
 9655SOL    HW230407   2.599   5.258   6.292
 9656SOL     OW30408   2.809   3.712   6.762
 9656SOL    HW130409   2.798   3.666   6.679
 9656SOL    HW230410   2.876   3.778   6.744
 9657SOL     OW30411   2.647   5.060   5.900
 9657SOL    HW130412   2.625   4.970   5.922
 9657SOL    HW230413   2.711   5.086   5.967
 9658SOL     OW30414   2.483   5.296   6.858
 9658SOL    HW130415   2.485   5.384   6.895
 9658SOL    HW230416   2.574   5.276   6.838
 9659SOL     OW30417   3.439   4.027   6.543
 9659SOL    HW130418   3.357   4.017   6.590
 9659SOL    HW230419   3.425   4.100   6.483
 9660SOL     OW30420   1.900   4.787   5.889
 9660SOL    HW130421   1.994   4.778   5.872
 9660SOL    HW230422   1.872   4.698   5.911
 9661SOL     OW30423   2.760   5.430   5.897
 9661SOL    HW130424   2.683   5.383   5.866
 9661SOL    HW230425   2.734   5.468   5.981
 9662SOL     OW30426   2.088   4.364   7.574
 9662SOL    HW130427   1.999   4.332   7.590
 9662SOL    HW230428   2.105   4.344   7.482
 9663SOL     OW30429   2.075   4.024   8.448
 9663SOL    HW130430   2.113   3.980   8.524
 9663SOL    HW230431   1.990   3.982   8.435
 9664SOL     OW30432   1.865   4.107   8.090
 9664SOL    HW130433   1.779   4.120   8.130
 9664SOL    HW230434   1.852   4.034   8.029
 9665SOL     OW30435   2.433   5.028   8.648
 9665SOL    HW130436   2.354   5.021   8.595
 9665SOL    HW230437   2.463   5.119   8.637
 9666SOL     OW30438   3.430   5.283   8.160
 9666SOL    HW130439   3.392   5.229   8.230
 9666SOL    HW230440   3.373   5.267   8.085
 9667SOL     OW30441   2.979   4.434   8.167
 9667SOL    HW130442   3.046   4.402   8.107
 9667SOL    HW230443   2.992   4.529   8.169
 9668SOL     OW30444   2.608   4.862   8.505
 9668SOL    HW130445   2.547   4.900   8.569
 9668SOL    HW230446   2.640   4.937   8.455
 9669SOL     OW30447   2.714   4.500   9.259
 9669SOL    HW130448   2.746   4.566   9.320
 9669SOL    HW230449   2.747   4.528   9.174
 9670SOL     OW30450   2.545   4.721   8.094
 9670SOL    HW130451   2.609   4.706   8.163
 9670SOL    HW230452   2.478   4.776   8.134
 9671SOL     OW30453   2.567   4.877   9.272
 9671SOL    HW130454   2.608   4.959   9.299
 9671SOL    HW230455   2.488   4.904   9.225
 9672SOL     OW30456   2.190   5.142   8.510
 9672SOL    HW130457   2.116   5.100   8.465
 9672SOL    HW230458   2.236   5.190   8.441
 9673SOL     OW30459   3.296   5.259   8.845
 9673SOL    HW130460   3.358   5.329   8.827
 9673SOL    HW230461   3.287   5.260   8.940
 9674SOL     OW30462   2.289   4.126   8.998
 9674SOL    HW130463   2.374   4.087   8.974
 9674SOL    HW230464   2.224   4.063   8.967
 9675SOL     OW30465   2.080   5.444   7.913
 9675SOL    HW130466   2.107   5.518   7.968
 9675SOL    HW230467   2.154   5.428   7.855
 9676SOL     OW30468   2.998   5.059   9.167
 9676SOL    HW130469   3.086   5.026   9.187
 9676SOL    HW230470   2.946   4.980   9.152
 9677SOL     OW30471   2.101   5.171   7.978
 9677SOL    HW130472   2.076   5.264   7.979
 9677SOL    HW230473   2.044   5.130   8.043
 9678SOL     OW30474   2.118   4.808   8.332
 9678SOL    HW130475   2.139   4.718   8.355
 9678SOL    HW230476   2.062   4.838   8.403
 9679SOL     OW30477   2.451   5.554   8.908
 9679SOL    HW130478   2.369   5.515   8.939
 9679SOL    HW230479   2.483   5.493   8.842
 9680SOL     OW30480   2.426   4.717   7.592
 9680SOL    HW130481   2.484   4.744   7.521
 9680SOL    HW230482   2.472   4.743   7.672
 9681SOL     OW30483   1.965   4.382   8.009
 9681SOL    HW130484   1.954   4.288   8.028
 9681SOL    HW230485   1.969   4.423   8.095
 9682SOL     OW30486   3.697   5.489   7.787
 9682SOL    HW130487   3.772   5.459   7.838
 9682SOL    HW230488   3.726   5.571   7.747
 9683SOL     OW30489   1.915   5.317   7.563
 9683SOL    HW130490   1.900   5.223   7.574
 9683SOL    HW230491   1.883   5.356   7.644
 9684SOL     OW30492   1.992   4.462   9.038
 9684SOL    HW130493   2.083   4.490   9.031
 9684SOL    HW230494   1.941   4.541   9.016
 9685SOL     OW30495   2.464   5.121   8.185
 9685SOL    HW130496   2.425   5.034   8.188
 9685SOL    HW230497   2.457   5.147   8.093
 9686SOL     OW30498   3.145   4.968   8.901
 9686SOL    HW130499   3.148   4.904   8.829
 9686SOL    HW230500   3.229   4.957   8.945
 9687SOL     OW30501   2.662   3.733   8.006
 9687SOL    HW130502   2.705   3.799   7.953
 9687SOL    HW230503   2.569   3.749   7.994
 9688SOL     OW30504   2.040   4.683   8.730
 9688SOL    HW130505   2.128   4.646   8.725
 9688SOL    HW230506   1.994   4.645   8.656
 9689SOL     OW30507   2.990   5.541   9.067
 9689SOL    HW130508   3.033   5.598   9.004
 9689SOL    HW230509   3.023   5.453   9.048
 9690SOL     OW30510   2.213   3.967   9.297
 9690SOL    HW130511   2.270   4.042   9.282
 9690SOL    HW230512   2.124   4.003   9.289
 9691SOL     OW30513   3.296   5.167   8.372
 9691SOL    HW130514   3.249   5.170   8.456
 9691SOL    HW230515   3.293   5.074   8.347
 9692SOL     OW30516   3.488   5.517   8.022
 9692SOL    HW130517   3.486   5.477   7.935
 9692SOL    HW230518   3.479   5.444   8.082
 9693SOL     OW30519   2.467   4.434   7.710
 9693SOL    HW130520   2.486   4.507   7.650
 9693SOL    HW230521   2.404   4.470   7.772
 9694SOL     OW30522   3.181   4.075   8.455
 9694SOL    HW130523   3.123   4.040   8.388
 9694SOL    HW230524   3.268   4.045   8.429
 9695SOL     OW30525   3.428   5.429   7.763
 9695SOL    HW130526   3.523   5.434   7.754
 9695SOL    HW230527   3.396   5.408   7.676
 9696SOL     OW30528   2.642   4.331   8.912
 9696SOL    HW130529   2.607   4.298   8.994
 9696SOL    HW230530   2.607   4.271   8.845
 9697SOL     OW30531   2.828   4.597   9.030
 9697SOL    HW130532   2.879   4.526   8.993
 9697SOL    HW230533   2.773   4.629   8.958
 9698SOL     OW30534   2.820   4.134   8.698
 9698SOL    HW130535   2.726   4.147   8.690
 9698SOL    HW230536   2.847   4.102   8.612
 9699SOL     OW30537   2.866   4.458   7.889
 9699SOL    HW130538   2.893   4.425   7.974
 9699SOL    HW230539   2.814   4.387   7.851
 9700SOL     OW30540   1.950   4.534   8.239
 9700SOL    HW130541   2.035   4.531   8.283
 9700SOL    HW230542   1.913   4.619   8.265
 9701SOL     OW30543   1.981   5.606   9.034
 9701SOL    HW130544   1.977   5.583   9.127
 9701SOL    HW230545   1.908   5.559   8.994
 9702SOL     OW30546   2.810   4.102   7.630
 9702SOL    HW130547   2.872   4.172   7.609
 9702SOL    HW230548   2.836   4.030   7.572
 9703SOL     OW30549   3.575   4.351   9.332
 9703SOL    HW130550   3.494   4.401   9.324
 9703SOL    HW230551   3.625   4.374   9.254
 9704SOL     OW30552   3.264   4.855   7.953
 9704SOL    HW130553   3.319   4.824   7.881
 9704SOL    HW230554   3.209   4.923   7.914
 9705SOL     OW30555   2.396   3.895   8.337
 9705SOL    HW130556   2.415   3.938   8.420
 9705SOL    HW230557   2.423   3.958   8.271
 9706SOL     OW30558   2.884   5.181   7.930
 9706SOL    HW130559   2.838   5.243   7.875
 9706SOL    HW230560   2.836   5.182   8.013
 9707SOL     OW30561   2.218   5.541   8.324
 9707SOL    HW130562   2.265   5.458   8.329
 9707SOL    HW230563   2.287   5.608   8.334
 9708SOL     OW30564   3.062   5.283   9.004
 9708SOL    HW130565   3.054   5.196   9.042
 9708SOL    HW230566   3.071   5.267   8.910
 9709SOL     OW30567   2.165   4.684   7.696
 9709SOL    HW130568   2.251   4.705   7.658
 9709SOL    HW230569   2.142   4.600   7.656
 9710SOL     OW30570   3.302   4.527   8.252
 9710SOL    HW130571   3.297   4.466   8.326
 9710SOL    HW230572   3.371   4.491   8.196
 9711SOL     OW30573   2.327   5.005   9.192
 9711SOL    HW130574   2.296   5.012   9.102
 9711SOL    HW230575   2.248   4.992   9.245
 9712SOL     OW30576   2.994   5.488   7.706
 9712SOL    HW130577   2.915   5.445   7.738
 9712SOL    HW230578   3.021   5.436   7.630
 9713SOL     OW30579   2.068   3.976   8.938
 9713SOL    HW130580   1.991   4.032   8.929
 9713SOL    HW230581   2.033   3.894   8.972
 9714SOL     OW30582   3.466   5.170   7.603
 9714SOL    HW130583   3.442   5.241   7.544
 9714SOL    HW230584   3.408   5.098   7.578
 9715SOL     OW30585   2.321   5.464   7.768
 9715SOL    HW130586   2.380   5.506   7.831
 9715SOL    HW230587   2.380   5.420   7.707
 9716SOL     OW30588   2.128   5.516   8.660
 9716SOL    HW130589   2.171   5.436   8.692
 9716SOL    HW230590   2.102   5.495   8.571
 9717SOL     OW30591   2.812   5.419   8.340
 9717SOL    HW130592   2.900   5.380   8.341
 9717SOL    HW230593   2.766   5.372   8.271
 9718SOL     OW30594   2.250   4.426   7.922
 9718SOL    HW130595   2.271   4.333   7.927
 9718SOL    HW230596   2.154   4.429   7.925
 9719SOL     OW30597   2.482   3.789   7.583
 9719SOL    HW130598   2.559   3.836   7.553
 9719SOL    HW230599   2.434   3.766   7.503
 9720SOL     OW30600   2.628   4.009   9.213
 9720SOL    HW130601   2.708   3.959   9.198
 9720SOL    HW230602   2.600   3.983   9.301
 9721SOL     OW30603   2.734   5.244   8.643
 9721SOL    HW130604   2.723   5.210   8.554
 9721SOL    HW230605   2.808   5.195   8.678
 9722SOL     OW30606   2.665   5.115   8.394
 9722SOL    HW130607   2.753   5.106   8.356
 9722SOL    HW230608   2.607   5.119   8.318
 9723SOL     OW30609   2.764   4.231   8.343
 9723SOL    HW130610   2.759   4.223   8.247
 9723SOL    HW230611   2.804   4.148   8.371
 9724SOL     OW30612   2.402   3.794   7.963
 9724SOL    HW130613   2.315   3.796   8.003
 9724SOL    HW230614   2.401   3.868   7.901
 9725SOL     OW30615   2.143   3.775   7.626
 9725SOL    HW130616   2.181   3.839   7.567
 9725SOL    HW230617   2.218   3.729   7.664
 9726SOL     OW30618   2.759   3.943   7.865
 9726SOL    HW130619   2.767   4.004   7.791
 9726SOL    HW230620   2.834   3.884   7.855
 9727SOL     OW30621   2.919   4.375   8.886
 9727SOL    HW130622   2.830   4.339   8.887
 9727SOL    HW230623   2.973   4.304   8.850
 9728SOL     OW30624   3.073   5.323   8.265
 9728SOL    HW130625   3.102   5.376   8.191
 9728SOL    HW230626   3.152   5.278   8.295
 9729SOL     OW30627   2.328   4.884   8.173
 9729SOL    HW130628   2.261   4.855   8.234
 9729SOL    HW230629   2.290   4.869   8.086
 9730SOL     OW30630   3.126   5.519   8.062
 9730SOL    HW130631   3.176   5.573   8.001
 9730SOL    HW230632   3.040   5.561   8.067
 9731SOL     OW30633   1.964   4.262   8.853
 9731SOL    HW130634   2.053   4.263   8.819
 9731SOL    HW230635   1.961   4.336   8.915
 9732SOL     OW30636   2.425   3.953   8.612
 9732SOL    HW130637   2.471   3.871   8.631
 9732SOL    HW230638   2.335   3.937   8.639
 9733SOL     OW30639   2.720   4.168   8.070
 9733SOL    HW130640   2.692   4.224   7.997
 9733SOL    HW230641   2.737   4.083   8.030
 9734SOL     OW30642   2.807   3.812   8.227
 9734SOL    HW130643   2.766   3.794   8.142
 9734SOL    HW230644   2.850   3.729   8.250
 9735SOL     OW30645   3.279   4.912   8.282
 9735SOL    HW130646   3.230   4.842   8.239
 9735SOL    HW230647   3.362   4.917   8.234
 9736SOL     OW30648   3.290   4.362   8.475
 9736SOL    HW130649   3.272   4.268   8.466
 9736SOL    HW230650   3.385   4.368   8.486
 9737SOL     OW30651   2.353   5.153   7.613
 9737SOL    HW130652   2.274   5.111   7.646
 9737SOL    HW230653   2.381   5.098   7.540
 9738SOL     OW30654   3.522   4.993   8.161
 9738SOL    HW130655   3.611   4.964   8.141
 9738SOL    HW230656   3.494   5.037   8.081
 9739SOL     OW30657   2.375   3.979   7.767
 9739SOL    HW130658   2.421   3.924   7.703
 9739SOL    HW230659   2.355   4.060   7.719
 9740SOL     OW30660   2.914   5.111   8.817
 9740SOL    HW130661   2.837   5.058   8.836
 9740SOL    HW230662   2.989   5.054   8.835
 9741SOL     OW30663   3.458   5.366   9.102
 9741SOL    HW130664   3.455   5.402   9.014
 9741SOL    HW230665   3.546   5.328   9.110
 9742SOL     OW30666   2.988   4.972   8.544
 9742SOL    HW130667   2.918   4.909   8.561
 9742SOL    HW230668   2.976   4.996   8.452
 9743SOL     OW30669   2.779   3.821   8.838
 9743SOL    HW130670   2.800   3.795   8.748
 9743SOL    HW230671   2.851   3.879   8.864
 9744SOL     OW30672   2.841   4.833   9.170
 9744SOL    HW130673   2.749   4.836   9.194
 9744SOL    HW230674   2.848   4.758   9.111
 9745SOL     OW30675   2.563   4.785   7.822
 9745SOL    HW130676   2.557   4.758   7.914
 9745SOL    HW230677   2.642   4.742   7.790
 9746SOL     OW30678   2.277   4.552   8.720
 9746SOL    HW130679   2.351   4.554   8.780
 9746SOL    HW230680   2.253   4.459   8.715
 9747SOL     OW30681   3.149   4.095   8.735
 9747SOL    HW130682   3.244   4.097   8.746
 9747SOL    HW230683   3.136   4.094   8.640
 9748SOL     OW30684   1.946   5.293   8.805
 9748SOL    HW130685   1.911   5.358   8.744
 9748SOL    HW230686   2.041   5.294   8.790
 9749SOL     OW30687   2.185   4.844   7.938
 9749SOL    HW130688   2.200   4.909   7.869
 9749SOL    HW230689   2.188   4.760   7.893
 9750SOL     OW30690   2.404   4.262   8.310
 9750SOL    HW130691   2.408   4.325   8.238
 9750SOL    HW230692   2.494   4.258   8.343
 9751SOL     OW30693   3.120   5.067   7.851
 9751SOL    HW130694   3.177   5.139   7.877
 9751SOL    HW230695   3.032   5.094   7.879
 9752SOL     OW30696   3.144   5.197   8.602
 9752SOL    HW130697   3.197   5.185   8.680
 9752SOL    HW230698   3.090   5.118   8.596
 9753SOL     OW30699   2.218   5.265   8.746
 9753SOL    HW130700   2.209   5.216   8.665
 9753SOL    HW230701   2.312   5.278   8.756
 9754SOL     OW30702   2.279   4.459   9.056
 9754SOL    HW130703   2.344   4.502   9.000
 9754SOL    HW230704   2.314   4.370   9.068
 9755SOL     OW30705   2.851   3.859   9.162
 9755SOL    HW130706   2.886   3.906   9.087
 9755SOL    HW230707   2.893   3.774   9.160
 9756SOL     OW30708   2.360   3.748   9.214
 9756SOL    HW130709   2.316   3.701   9.144
 9756SOL    HW230710   2.308   3.828   9.226
 9757SOL     OW30711   2.432   4.615   8.479
 9757SOL    HW130712   2.496   4.686   8.482
 9757SOL    HW230713   2.399   4.609   8.569
 9758SOL     OW30714   3.150   4.594   8.495
 9758SOL    HW130715   3.186   4.625   8.412
 9758SOL    HW230716   3.195   4.511   8.511
 9759SOL     OW30717   2.163   3.912   8.687
 9759SOL    HW130718   2.133   3.939   8.774
 9759SOL    HW230719   2.147   3.818   8.684
 9760SOL     OW30720   1.873   5.036   8.731
 9760SOL    HW130721   1.921   4.977   8.789
 9760SOL    HW230722   1.901   5.123   8.757
 9761SOL     OW30723   2.590   4.355   8.513
 9761SOL    HW130724   2.664   4.326   8.459
 9761SOL    HW230725   2.563   4.438   8.474
 9762SOL     OW30726   3.576   4.678   9.350
 9762SOL    HW130727   3.651   4.696   9.293
 9762SOL    HW230728   3.513   4.635   9.292
 9763SOL     OW30729   2.154   3.775   8.081
 9763SOL    HW130730   2.138   3.867   8.100
 9763SOL    HW230731   2.174   3.736   8.167
 9764SOL     OW30732   2.869   4.490   8.440
 9764SOL    HW130733   2.963   4.509   8.445
 9764SOL    HW230734   2.864   4.413   8.382
 9765SOL     OW30735   2.813   5.263   9.159
 9765SOL    HW130736   2.811   5.302   9.072
 9765SOL    HW230737   2.878   5.194   9.153
 9766SOL     OW30738   3.720   5.301   9.077
 9766SOL    HW130739   3.740   5.298   8.983
 9766SOL    HW230740   3.800   5.274   9.120
 9767SOL     OW30741   2.215   4.636   9.255
 9767SOL    HW130742   2.296   4.653   9.304
 9767SOL    HW230743   2.241   4.573   9.188
 9768SOL     OW30744   3.376   3.958   7.585
 9768SOL    HW130745   3.308   4.024   7.582
 9768SOL    HW230746   3.455   4.005   7.612
 9769SOL     OW30747   2.913   5.075   8.297
 9769SOL    HW130748   2.913   4.996   8.242
 9769SOL    HW230749   2.979   5.132   8.256
 9770SOL     OW30750   2.176   4.542   8.398
 9770SOL    HW130751   2.269   4.563   8.399
 9770SOL    HW230752   2.172   4.449   8.419
 9771SOL     OW30753   2.187   4.267   8.462
 9771SOL    HW130754   2.151   4.179   8.448
 9771SOL    HW230755   2.266   4.269   8.408
 9772SOL     OW30756   3.004   3.963   8.938
 9772SOL    HW130757   3.080   3.980   8.993
 9772SOL    HW230758   3.022   4.009   8.856
 9773SOL     OW30759   1.861   5.049   7.661
 9773SOL    HW130760   1.774   5.066   7.624
 9773SOL    HW230761   1.860   4.956   7.683
 9774SOL     OW30762   1.959   5.499   8.401
 9774SOL    HW130763   1.925   5.422   8.356
 9774SOL    HW230764   2.045   5.513   8.362
 9775SOL     OW30765   2.361   5.307   8.358
 9775SOL    HW130766   2.437   5.358   8.386
 9775SOL    HW230767   2.395   5.245   8.294
 9776SOL     OW30768   2.817   4.560   8.701
 9776SOL    HW130769   2.867   4.496   8.753
 9776SOL    HW230770   2.825   4.529   8.611
 9777SOL     OW30771   1.899   4.278   8.567
 9777SOL    HW130772   1.963   4.265   8.496
 9777SOL    HW230773   1.951   4.272   8.647
 9778SOL     OW30774   2.077   4.236   9.178
 9778SOL    HW130775   2.144   4.201   9.119
 9778SOL    HW230776   2.039   4.310   9.130
 9779SOL     OW30777   2.675   4.273   7.810
 9779SOL    HW130778   2.709   4.217   7.740
 9779SOL    HW230779   2.605   4.324   7.769
 9780SOL     OW30780   2.092   5.266   9.179
 9780SOL    HW130781   2.080   5.313   9.261
 9780SOL    HW230782   2.106   5.175   9.205
 9781SOL     OW30783   2.526   4.187   8.712
 9781SOL    HW130784   2.498   4.106   8.670
 9781SOL    HW230785   2.544   4.246   8.639
 9782SOL     OW30786   2.756   5.383   8.916
 9782SOL    HW130787   2.772   5.330   8.839
 9782SOL    HW230788   2.811   5.460   8.904
 9783SOL     OW30789   2.312   4.215   7.651
 9783SOL    HW130790   2.381   4.280   7.661
 9783SOL    HW230791   2.234   4.265   7.628
 9784SOL     OW30792   1.995   4.868   8.922
 9784SOL    HW130793   2.005   4.823   9.006
 9784SOL    HW230794   2.012   4.800   8.857
 9785SOL     OW30795   3.149   4.796   8.692
 9785SOL    HW130796   3.166   4.714   8.646
 9785SOL    HW230797   3.115   4.855   8.625
 9786SOL     OW30798   3.648   5.465   8.613
 9786SOL    HW130799   3.706   5.481   8.539
 9786SOL    HW230800   3.605   5.383   8.592
 9787SOL     OW30801   3.104   5.471   8.579
 9787SOL    HW130802   3.184   5.494   8.533
 9787SOL    HW230803   3.108   5.375   8.587
 9788SOL     OW30804   1.926   5.014   8.450
 9788SOL    HW130805   1.900   5.009   8.542
 9788SOL    HW230806   1.879   4.941   8.408
 9789SOL     OW30807   2.583   5.428   9.198
 9789SOL    HW130808   2.542   5.448   9.114
 9789SOL    HW230809   2.666   5.388   9.175
 9790SOL     OW30810   3.547   3.765   7.979
 9790SOL    HW130811   3.600   3.845   7.974
 9790SOL    HW230812   3.585   3.707   7.914
 9791SOL     OW30813   3.261   5.291   7.941
 9791SOL    HW130814   3.314   5.325   7.868
 9791SOL    HW230815   3.199   5.361   7.959
 9792SOL     OW30816   1.984   5.535   9.297
 9792SOL    HW130817   1.940   5.460   9.339
 9792SOL    HW230818   2.038   5.572   9.366
 9793SOL     OW30819   3.130   4.700   8.137
 9793SOL    HW130820   3.188   4.629   8.162
 9793SOL    HW230821   3.171   4.739   8.060
 9794SOL     OW30822   2.657   5.011   8.856
 9794SOL    HW130823   2.620   5.055   8.932
 9794SOL    HW230824   2.584   5.004   8.794
 9795SOL     OW30825   2.530   5.363   7.614
 9795SOL    HW130826   2.557   5.375   7.523
 9795SOL    HW230827   2.487   5.277   7.615
 9796SOL     OW30828   3.474   5.465   8.841
 9796SOL    HW130829   3.541   5.459   8.773
 9796SOL    HW230830   3.458   5.558   8.851
 9797SOL     OW30831   2.119   4.028   8.167
 9797SOL    HW130832   2.035   4.068   8.143
 9797SOL    HW230833   2.121   4.033   8.263
 9798SOL     OW30834   3.061   5.331   7.491
 9798SOL    HW130835   3.045   5.242   7.523
 9798SOL    HW230836   3.004   5.340   7.415
 9799SOL     OW30837   2.669   4.731   8.842
 9799SOL    HW130838   2.720   4.684   8.776
 9799SOL    HW230839   2.692   4.823   8.829
 9800SOL     OW30840   2.785   4.670   7.735
 9800SOL    HW130841   2.846   4.683   7.662
 9800SOL    HW230842   2.821   4.595   7.783
 9801SOL     OW30843   3.332   5.404   7.495
 9801SOL    HW130844   3.243   5.373   7.477
 9801SOL    HW230845   3.377   5.399   7.411
 9802SOL     OW30846   2.212   5.045   8.954
 9802SOL    HW130847   2.221   5.106   8.880
 9802SOL    HW230848   2.144   4.984   8.926
 9803SOL     OW30849   3.406   5.044   8.728
 9803SOL    HW130850   3.455   4.983   8.784
 9803SOL    HW230851   3.366   5.106   8.790
 9804SOL     OW30852   2.900   4.843   8.170
 9804SOL    HW130853   2.833   4.777   8.191
 9804SOL    HW230854   2.977   4.792   8.146
 9805SOL     OW30855   2.845   3.977   8.442
 9805SOL    HW130856   2.835   3.937   8.356
 9805SOL    HW230857   2.870   3.905   8.500
 9806SOL     OW30858   2.468   5.211   7.929
 9806SOL    HW130859   2.532   5.157   7.883
 9806SOL    HW230860   2.397   5.223   7.866
 9807SOL     OW30861   2.123   5.057   7.736
 9807SOL    HW130862   2.031   5.060   7.712
 9807SOL    HW230863   2.127   5.100   7.822
 9808SOL     OW30864   1.987   4.773   9.188
 9808SOL    HW130865   1.910   4.735   9.232
 9808SOL    HW230866   2.060   4.717   9.217
 9809SOL     OW30867   2.536   3.916   8.957
 9809SOL    HW130868   2.616   3.898   8.908
 9809SOL    HW230869   2.565   3.951   9.041
 9810SOL     OW30870   1.931   4.077   7.480
 9810SOL    HW130871   1.863   4.052   7.417
 9810SOL    HW230872   1.983   4.142   7.434
 9811SOL     OW30873   1.916   3.883   7.733
 9811SOL    HW130874   1.903   3.955   7.672
 9811SOL    HW230875   2.003   3.849   7.712
 9812SOL     OW30876   3.000   5.084   7.596
 9812SOL    HW130877   3.005   5.008   7.539
 9812SOL    HW230878   3.048   5.058   7.675
 9813SOL     OW30879   2.480   4.549   8.896
 9813SOL    HW130880   2.537   4.624   8.880
 9813SOL    HW230881   2.540   4.474   8.895
 9814SOL     OW30882   3.347   5.538   8.458
 9814SOL    HW130883   3.359   5.534   8.363
 9814SOL    HW230884   3.406   5.470   8.492
 9815SOL     OW30885   2.550   4.282   9.165
 9815SOL    HW130886   2.605   4.348   9.208
 9815SOL    HW230887   2.588   4.199   9.192
 9816SOL     OW30888   2.225   5.470   9.035
 9816SOL    HW130889   2.143   5.514   9.012
 9816SOL    HW230890   2.199   5.384   9.067
 9817SOL     OW30891   2.420   4.470   8.134
 9817SOL    HW130892   2.479   4.541   8.109
 9817SOL    HW230893   2.366   4.455   8.056
 9818SOL     OW30894   2.674   5.125   7.482
 9818SOL    HW130895   2.732   5.111   7.557
 9818SOL    HW230896   2.727   5.175   7.420
 9819SOL     OW30897   2.546   5.516   8.416
 9819SOL    HW130898   2.528   5.592   8.362
 9819SOL    HW230899   2.634   5.487   8.389
 9820SOL     OW30900   2.715   4.685   8.311
 9820SOL    HW130901   2.764   4.611   8.346
 9820SOL    HW230902   2.689   4.736   8.389
 9821SOL     OW30903   2.949   4.728   7.519
 9821SOL    HW130904   2.906   4.770   7.445
 9821SOL    HW230905   3.023   4.681   7.479
 9822SOL     OW30906   3.692   5.281   8.286
 9822SOL    HW130907   3.614   5.275   8.230
 9822SOL    HW230908   3.716   5.190   8.304
 9823SOL     OW30909   2.070   5.011   9.297
 9823SOL    HW130910   2.043   4.933   9.249
 9823SOL    HW230911   2.003   5.020   9.365
 9824SOL     OW30912   1.965   4.950   8.109
 9824SOL    HW130913   1.999   4.904   8.186
 9824SOL    HW230914   2.018   4.918   8.036
 9825SOL     OW30915   2.525   5.154   9.055
 9825SOL    HW130916   2.457   5.102   9.097
 9825SOL    HW230917   2.573   5.194   9.128
 9826SOL     OW30918   2.276   4.162   7.970
 9826SOL    HW130919   2.318   4.103   7.907
 9826SOL    HW230920   2.241   4.103   8.037
 9827SOL     OW30921   3.506   5.240   8.558
 9827SOL    HW130922   3.469   5.211   8.475
 9827SOL    HW230923   3.484   5.171   8.621
 9828SOL     OW30924   2.207   4.280   8.734
 9828SOL    HW130925   2.282   4.232   8.768
 9828SOL    HW230926   2.211   4.268   8.639
 9829SOL     OW30927   2.681   5.320   8.123
 9829SOL    HW130928   2.687   5.368   8.040
 9829SOL    HW230929   2.611   5.256   8.108
 9830SOL     OW30930   2.869   3.729   8.590
 9830SOL    HW130931   2.822   3.679   8.523
 9830SOL    HW230932   2.958   3.694   8.587
 9831SOL     OW30933   2.644   5.050   7.808
 9831SOL    HW130934   2.610   4.961   7.797
 9831SOL    HW230935   2.739   5.039   7.813
 9832SOL     OW30936   2.494   5.305   8.765
 9832SOL    HW130937   2.526   5.274   8.850
 9832SOL    HW230938   2.570   5.299   8.708
 9833SOL     OW30939   3.235   3.714   7.556
 9833SOL    HW130940   3.281   3.798   7.565
 9833SOL    HW230941   3.208   3.692   7.645
 9834SOL     OW30942   1.904   4.788   7.762
 9834SOL    HW130943   1.995   4.780   7.735
 9834SOL    HW230944   1.875   4.699   7.780
 9835SOL     OW30945   2.740   5.384   7.809
 9835SOL    HW130946   2.675   5.366   7.741
 9835SOL    HW230947   2.715   5.470   7.844
 9836SOL     OW30948   2.092   4.369   9.432
 9836SOL    HW130949   2.005   4.333   9.448
 9836SOL    HW230950   2.110   4.350   9.340
 9837SOL     OW30951   2.081   4.013  10.306
 9837SOL    HW130952   2.112   3.977  10.389
 9837SOL    HW230953   1.994   3.976  10.294
 9838SOL     OW30954   1.855   4.110   9.948
 9838SOL    HW130955   1.772   4.131   9.991
 9838SOL    HW230956   1.837   4.031   9.898
 9839SOL     OW30957   2.439   5.029  10.500
 9839SOL    HW130958   2.354   5.029  10.456
 9839SOL    HW230959   2.451   5.119  10.530
 9840SOL     OW30960   3.355   5.211   9.999
 9840SOL    HW130961   3.400   5.288  10.034
 9840SOL    HW230962   3.325   5.239   9.912
 9841SOL     OW30963   2.997   4.436  10.008
 9841SOL    HW130964   3.042   4.517   9.984
 9841SOL    HW230965   2.947   4.459  10.087
 9842SOL     OW30966   3.598   4.282   9.589
 9842SOL    HW130967   3.572   4.316   9.504
 9842SOL    HW230968   3.659   4.211   9.569
 9843SOL     OW30969   2.630   4.878  10.370
 9843SOL    HW130970   2.561   4.914  10.426
 9843SOL    HW230971   2.659   4.952  10.317
 9844SOL     OW30972   2.744   4.477  11.137
 9844SOL    HW130973   2.724   4.549  11.196
 9844SOL    HW230974   2.763   4.520  11.053
 9845SOL     OW30975   2.553   4.721   9.954
 9845SOL    HW130976   2.624   4.721  10.019
 9845SOL    HW230977   2.485   4.776   9.994
 9846SOL     OW30978   2.577   4.875  11.138
 9846SOL    HW130979   2.628   4.950  11.168
 9846SOL    HW230980   2.501   4.913  11.095
 9847SOL     OW30981   2.195   5.135  10.377
 9847SOL    HW130982   2.121   5.093  10.334
 9847SOL    HW230983   2.236   5.187  10.307
 9848SOL     OW30984   3.319   5.223  10.673
 9848SOL    HW130985   3.376   5.300  10.676
 9848SOL    HW230986   3.252   5.241  10.740
 9849SOL     OW30987   2.311   4.112  10.789
 9849SOL    HW130988   2.387   4.053  10.793
 9849SOL    HW230989   2.236   4.055  10.805
 9850SOL     OW30990   3.489   4.242  10.035
 9850SOL    HW130991   3.464   4.211   9.949
 9850SOL    HW230992   3.571   4.290  10.020
 9851SOL     OW30993   2.998   5.066  11.006
 9851SOL    HW130994   3.040   5.055  11.091
 9851SOL    HW230995   2.948   4.986  10.994
 9852SOL     OW30996   2.040   5.229   9.880
 9852SOL    HW130997   1.976   5.265   9.942
 9852SOL    HW230998   2.046   5.137   9.904
 9853SOL     OW30999   2.136   4.813  10.203
 9853SOL    HW131000   2.137   4.723  10.235
 9853SOL    HW231001   2.074   4.858  10.259
 9854SOL     OW31002   2.452   5.522  10.734
 9854SOL    HW131003   2.373   5.503  10.785
 9854SOL    HW231004   2.479   5.609  10.764
 9855SOL     OW31005   2.428   4.715   9.454
 9855SOL    HW131006   2.481   4.752   9.384
 9855SOL    HW231007   2.473   4.740   9.535
 9856SOL     OW31008   3.448   3.852  10.770
 9856SOL    HW131009   3.491   3.921  10.719
 9856SOL    HW231010   3.427   3.893  10.853
 9857SOL     OW31011   1.965   4.378   9.866
 9857SOL    HW131012   1.950   4.287   9.892
 9857SOL    HW231013   1.967   4.426   9.949
 9858SOL     OW31014   3.696   5.480   9.640
 9858SOL    HW131015   3.769   5.451   9.695
 9858SOL    HW231016   3.720   5.569   9.614
 9859SOL     OW31017   1.909   5.323   9.452
 9859SOL    HW131018   1.882   5.231   9.444
 9859SOL    HW231019   1.899   5.342   9.545
 9860SOL     OW31020   3.560   4.645   9.961
 9860SOL    HW131021   3.592   4.573   9.907
 9860SOL    HW231022   3.536   4.713   9.899
 9861SOL     OW31023   3.520   4.829   9.763
 9861SOL    HW131024   3.581   4.805   9.693
 9861SOL    HW231025   3.551   4.914   9.794
 9862SOL     OW31026   1.984   4.467  10.893
 9862SOL    HW131027   2.072   4.503  10.892
 9862SOL    HW231028   1.927   4.543  10.881
 9863SOL     OW31029   2.467   5.117  10.046
 9863SOL    HW131030   2.428   5.030  10.051
 9863SOL    HW231031   2.459   5.143   9.955
 9864SOL     OW31032   3.141   4.952  10.737
 9864SOL    HW131033   3.171   4.888  10.672
 9864SOL    HW231034   3.208   4.950  10.805
 9865SOL     OW31035   2.680   3.754   9.883
 9865SOL    HW131036   2.725   3.821   9.830
 9865SOL    HW231037   2.590   3.756   9.851
 9866SOL     OW31038   2.046   4.683  10.599
 9866SOL    HW131039   2.133   4.645  10.584
 9866SOL    HW231040   1.991   4.640  10.533
 9867SOL     OW31041   3.349   4.691   9.503
 9867SOL    HW131042   3.336   4.613   9.450
 9867SOL    HW231043   3.442   4.713   9.490
 9868SOL     OW31044   3.045   5.537  10.944
 9868SOL    HW131045   3.044   5.600  10.872
 9868SOL    HW231046   3.060   5.452  10.902
 9869SOL     OW31047   2.208   3.969  11.165
 9869SOL    HW131048   2.247   4.055  11.178
 9869SOL    HW231049   2.114   3.984  11.172
 9870SOL     OW31050   3.348   5.121  10.301
 9870SOL    HW131051   3.264   5.145  10.341
 9870SOL    HW231052   3.325   5.058  10.233
 9871SOL     OW31053   2.461   4.439   9.578
 9871SOL    HW131054   2.469   4.518   9.525
 9871SOL    HW231055   2.396   4.461   9.645
 9872SOL     OW31056   3.150   4.072  10.281
 9872SOL    HW131057   3.060   4.042  10.270
 9872SOL    HW231058   3.188   4.008  10.342
 9873SOL     OW31059   3.425   5.425   9.612
 9873SOL    HW131060   3.519   5.436   9.623
 9873SOL    HW231061   3.414   5.407   9.518
 9874SOL     OW31062   2.650   4.339  10.756
 9874SOL    HW131063   2.624   4.310  10.843
 9874SOL    HW231064   2.622   4.269  10.698
 9875SOL     OW31065   3.252   4.204  10.987
 9875SOL    HW131066   3.259   4.245  11.073
 9875SOL    HW231067   3.305   4.124  10.993
 9876SOL     OW31068   2.809   4.605  10.900
 9876SOL    HW131069   2.863   4.537  10.858
 9876SOL    HW231070   2.759   4.643  10.828
 9877SOL     OW31071   2.859   4.133  10.533
 9877SOL    HW131072   2.766   4.141  10.555
 9877SOL    HW231073   2.859   4.098  10.444
 9878SOL     OW31074   2.887   4.455   9.746
 9878SOL    HW131075   2.922   4.424   9.829
 9878SOL    HW231076   2.831   4.384   9.715
 9879SOL     OW31077   1.951   4.543  10.087
 9879SOL    HW131078   2.032   4.536  10.137
 9879SOL    HW231079   1.907   4.620  10.124
 9880SOL     OW31080   1.982   5.601  10.894
 9880SOL    HW131081   1.985   5.580  10.987
 9880SOL    HW231082   1.902   5.560  10.862
 9881SOL     OW31083   2.776   4.074   9.510
 9881SOL    HW131084   2.804   4.153   9.464
 9881SOL    HW231085   2.819   4.002   9.463
 9882SOL     OW31086   3.571   4.300  11.143
 9882SOL    HW131087   3.537   4.373  11.091
 9882SOL    HW231088   3.591   4.232  11.078
 9883SOL     OW31089   3.253   4.851   9.821
 9883SOL    HW131090   3.341   4.825   9.793
 9883SOL    HW231091   3.211   4.882   9.740
 9884SOL     OW31092   2.402   3.882  10.212
 9884SOL    HW131093   2.408   3.929  10.295
 9884SOL    HW231094   2.414   3.949  10.145
 9885SOL     OW31095   2.851   5.178   9.790
 9885SOL    HW131096   2.824   5.246   9.728
 9885SOL    HW231097   2.837   5.217   9.876
 9886SOL     OW31098   2.212   5.540  10.168
 9886SOL    HW131099   2.260   5.458  10.183
 9886SOL    HW231100   2.275   5.609  10.189
 9887SOL     OW31101   3.666   4.769  10.199
 9887SOL    HW131102   3.627   4.750  10.113
 9887SOL    HW231103   3.591   4.774  10.258
 9888SOL     OW31104   3.084   5.267  10.826
 9888SOL    HW131105   3.074   5.194  10.887
 9888SOL    HW231106   3.029   5.244  10.751
 9889SOL     OW31107   2.166   4.682   9.560
 9889SOL    HW131108   2.251   4.704   9.521
 9889SOL    HW231109   2.142   4.599   9.518
 9890SOL     OW31110   3.352   4.500  10.082
 9890SOL    HW131111   3.345   4.417  10.035
 9890SOL    HW231112   3.426   4.544  10.042
 9891SOL     OW31113   2.331   5.002  11.055
 9891SOL    HW131114   2.306   5.006  10.963
 9891SOL    HW231115   2.248   4.991  11.101
 9892SOL     OW31116   2.979   5.515   9.526
 9892SOL    HW131117   2.914   5.468   9.578
 9892SOL    HW231118   3.008   5.453   9.460
 9893SOL     OW31119   2.064   3.986  10.814
 9893SOL    HW131120   1.981   4.033  10.811
 9893SOL    HW231121   2.040   3.898  10.845
 9894SOL     OW31122   3.489   5.096   9.378
 9894SOL    HW131123   3.487   5.176   9.325
 9894SOL    HW231124   3.485   5.025   9.313
 9895SOL     OW31125   2.330   5.453   9.643
 9895SOL    HW131126   2.384   5.513   9.694
 9895SOL    HW231127   2.389   5.419   9.575
 9896SOL     OW31128   2.122   5.514  10.532
 9896SOL    HW131129   2.168   5.440  10.570
 9896SOL    HW231130   2.104   5.487  10.442
 9897SOL     OW31131   2.816   5.427  10.202
 9897SOL    HW131132   2.902   5.385  10.206
 9897SOL    HW231133   2.770   5.381  10.132
 9898SOL     OW31134   2.254   4.422   9.787
 9898SOL    HW131135   2.275   4.329   9.795
 9898SOL    HW231136   2.159   4.427   9.793
 9899SOL     OW31137   3.380   3.953  11.032
 9899SOL    HW131138   3.386   3.972  11.125
 9899SOL    HW231139   3.321   3.878  11.027
 9900SOL     OW31140   2.504   3.828   9.433
 9900SOL    HW131141   2.582   3.773   9.439
 9900SOL    HW231142   2.458   3.797   9.355
 9901SOL     OW31143   2.625   4.001  11.068
 9901SOL    HW131144   2.707   3.952  11.063
 9901SOL    HW231145   2.577   3.960  11.141
 9902SOL     OW31146   2.735   5.244  10.511
 9902SOL    HW131147   2.729   5.213  10.421
 9902SOL    HW231148   2.806   5.192  10.550
 9903SOL     OW31149   3.195   4.319  10.742
 9903SOL    HW131150   3.229   4.288  10.827
 9903SOL    HW231151   3.235   4.405  10.731
 9904SOL     OW31152   2.684   5.114  10.234
 9904SOL    HW131153   2.753   5.143  10.174
 9904SOL    HW231154   2.605   5.114  10.181
 9905SOL     OW31155   2.784   4.240  10.203
 9905SOL    HW131156   2.762   4.231  10.110
 9905SOL    HW231157   2.821   4.155  10.227
 9906SOL     OW31158   2.416   3.786   9.807
 9906SOL    HW131159   2.331   3.785   9.852
 9906SOL    HW231160   2.411   3.862   9.749
 9907SOL     OW31161   3.196   4.910   9.382
 9907SOL    HW131162   3.289   4.898   9.397
 9907SOL    HW231163   3.159   4.822   9.384
 9908SOL     OW31164   2.153   3.771   9.495
 9908SOL    HW131165   2.200   3.834   9.440
 9908SOL    HW231166   2.222   3.714   9.530
 9909SOL     OW31167   2.810   3.977   9.775
 9909SOL    HW131168   2.793   4.009   9.686
 9909SOL    HW231169   2.904   3.990   9.788
 9910SOL     OW31170   2.938   4.410  10.762
 9910SOL    HW131171   2.876   4.337  10.760
 9910SOL    HW231172   3.024   4.369  10.753
 9911SOL     OW31173   3.069   5.290  10.085
 9911SOL    HW131174   3.077   5.357  10.017
 9911SOL    HW231175   3.157   5.280  10.120
 9912SOL     OW31176   2.335   4.879  10.032
 9912SOL    HW131177   2.270   4.854  10.098
 9912SOL    HW231178   2.291   4.863   9.948
 9913SOL     OW31179   3.107   5.522   9.921
 9913SOL    HW131180   3.165   5.576   9.868
 9913SOL    HW231181   3.057   5.585   9.974
 9914SOL     OW31182   2.853   4.302   9.383
 9914SOL    HW131183   2.800   4.362   9.331
 9914SOL    HW231184   2.940   4.341   9.385
 9915SOL     OW31185   1.954   4.274  10.702
 9915SOL    HW131186   2.045   4.275  10.675
 9915SOL    HW231187   1.947   4.343  10.769
 9916SOL     OW31188   2.418   3.959  10.481
 9916SOL    HW131189   2.460   3.882  10.520
 9916SOL    HW231190   2.327   3.954  10.508
 9917SOL     OW31191   2.722   4.185   9.943
 9917SOL    HW131192   2.692   4.238   9.870
 9917SOL    HW231193   2.753   4.104   9.903
 9918SOL     OW31194   2.838   3.774  10.099
 9918SOL    HW131195   2.776   3.775  10.026
 9918SOL    HW231196   2.920   3.741  10.061
 9919SOL     OW31197   3.283   4.904  10.128
 9919SOL    HW131198   3.259   4.814  10.109
 9919SOL    HW231199   3.370   4.915  10.088
 9920SOL     OW31200   3.706   4.544   9.705
 9920SOL    HW131201   3.762   4.482   9.752
 9920SOL    HW231202   3.677   4.496   9.628
 9921SOL     OW31203   2.348   5.163   9.476
 9921SOL    HW131204   2.271   5.123   9.517
 9921SOL    HW231205   2.369   5.105   9.403
 9922SOL     OW31206   3.520   4.979  10.020
 9922SOL    HW131207   3.614   4.979   9.999
 9922SOL    HW231208   3.490   5.067   9.997
 9923SOL     OW31209   2.384   3.986   9.627
 9923SOL    HW131210   2.433   3.936   9.561
 9923SOL    HW231211   2.358   4.066   9.581
 9924SOL     OW31212   3.612   4.966  10.897
 9924SOL    HW131213   3.696   4.933  10.864
 9924SOL    HW231214   3.628   5.059  10.913
 9925SOL     OW31215   2.911   5.080  10.657
 9925SOL    HW131216   2.834   5.044  10.702
 9925SOL    HW231217   2.985   5.032  10.695
 9926SOL     OW31218   3.472   5.358  10.974
 9926SOL    HW131219   3.460   5.393  10.886
 9926SOL    HW231220   3.552   5.305  10.967
 9927SOL     OW31221   2.992   4.941  10.427
 9927SOL    HW131222   2.935   4.976  10.495
 9927SOL    HW231223   2.932   4.910  10.359
 9928SOL     OW31224   3.468   4.812  10.392
 9928SOL    HW131225   3.460   4.872  10.466
 9928SOL    HW231226   3.391   4.830  10.338
 9929SOL     OW31227   2.783   3.816  10.696
 9929SOL    HW131228   2.804   3.795  10.605
 9929SOL    HW231229   2.863   3.857  10.730
 9930SOL     OW31230   2.846   4.836  11.036
 9930SOL    HW131231   2.754   4.852  11.059
 9930SOL    HW231232   2.843   4.758  10.981
 9931SOL     OW31233   2.567   4.783   9.683
 9931SOL    HW131234   2.560   4.756   9.774
 9931SOL    HW231235   2.647   4.740   9.651
 9932SOL     OW31236   2.283   4.548  10.566
 9932SOL    HW131237   2.353   4.557  10.631
 9932SOL    HW231238   2.252   4.458  10.576
 9933SOL     OW31239   3.118   4.091  10.613
 9933SOL    HW131240   3.152   4.174  10.646
 9933SOL    HW231241   3.032   4.113  10.576
 9934SOL     OW31242   1.938   5.297  10.672
 9934SOL    HW131243   1.905   5.364  10.611
 9934SOL    HW231244   2.032   5.297  10.659
 9935SOL     OW31245   2.187   4.848   9.797
 9935SOL    HW131246   2.201   4.913   9.728
 9935SOL    HW231247   2.189   4.764   9.750
 9936SOL     OW31248   2.401   4.263  10.179
 9936SOL    HW131249   2.411   4.321  10.104
 9936SOL    HW231250   2.481   4.275  10.230
 9937SOL     OW31251   3.109   5.083   9.750
 9937SOL    HW131252   3.160   5.162   9.732
 9937SOL    HW231253   3.023   5.101   9.714
 9938SOL     OW31254   3.136   5.190  10.462
 9938SOL    HW131255   3.198   5.186  10.536
 9938SOL    HW231256   3.092   5.105  10.464
 9939SOL     OW31257   3.429   4.425   9.795
 9939SOL    HW131258   3.350   4.454   9.749
 9939SOL    HW231259   3.487   4.395   9.725
 9940SOL     OW31260   2.207   5.258  10.615
 9940SOL    HW131261   2.197   5.208  10.534
 9940SOL    HW231262   2.302   5.269  10.624
 9941SOL     OW31263   2.278   4.472  10.915
 9941SOL    HW131264   2.344   4.512  10.858
 9941SOL    HW231265   2.307   4.382  10.926
 9942SOL     OW31266   3.483   4.516  11.002
 9942SOL    HW131267   3.395   4.553  10.991
 9942SOL    HW231268   3.533   4.550  10.927
 9943SOL     OW31269   2.857   3.860  11.068
 9943SOL    HW131270   2.915   3.934  11.048
 9943SOL    HW231271   2.906   3.783  11.040
 9944SOL     OW31272   2.356   3.756  11.069
 9944SOL    HW131273   2.309   3.706  11.003
 9944SOL    HW231274   2.299   3.832  11.086
 9945SOL     OW31275   2.458   4.595  10.351
 9945SOL    HW131276   2.480   4.688  10.350
 9945SOL    HW231277   2.391   4.586  10.419
 9946SOL     OW31278   3.217   4.594  10.315
 9946SOL    HW131279   3.132   4.569  10.277
 9946SOL    HW231280   3.282   4.556  10.256
 9947SOL     OW31281   3.077   4.219   9.620
 9947SOL    HW131282   3.119   4.150   9.569
 9947SOL    HW231283   3.087   4.298   9.567
 9948SOL     OW31284   2.159   3.923  10.556
 9948SOL    HW131285   2.120   3.947  10.640
 9948SOL    HW231286   2.149   3.828  10.550
 9949SOL     OW31287   1.917   5.036  10.577
 9949SOL    HW131288   1.944   4.978  10.649
 9949SOL    HW231289   1.915   5.123  10.616
 9950SOL     OW31290   2.593   4.353  10.370
 9950SOL    HW131291   2.661   4.336  10.306
 9950SOL    HW231292   2.559   4.440  10.348
 9951SOL     OW31293   3.612   4.687  11.178
 9951SOL    HW131294   3.579   4.619  11.120
 9951SOL    HW231295   3.535   4.719  11.225
 9952SOL     OW31296   2.169   3.780   9.933
 9952SOL    HW131297   2.146   3.871   9.953
 9952SOL    HW231298   2.178   3.738  10.018
 9953SOL     OW31299   3.488   4.120   9.784
 9953SOL    HW131300   3.431   4.057   9.739
 9953SOL    HW231301   3.512   4.183   9.717
 9954SOL     OW31302   2.876   4.493  10.259
 9954SOL    HW131303   2.870   4.504  10.354
 9954SOL    HW231304   2.855   4.401  10.244
 9955SOL     OW31305   2.841   5.288  11.037
 9955SOL    HW131306   2.822   5.333  10.955
 9955SOL    HW231307   2.886   5.208  11.011
 9956SOL     OW31308   3.710   5.228  10.912
 9956SOL    HW131309   3.732   5.250  10.822
 9956SOL    HW231310   3.792   5.238  10.960
 9957SOL     OW31311   2.212   4.641  11.122
 9957SOL    HW131312   2.294   4.657  11.170
 9957SOL    HW231313   2.236   4.579  11.053
 9958SOL     OW31314   2.174   4.534  10.249
 9958SOL    HW131315   2.265   4.540  10.219
 9958SOL    HW231316   2.168   4.446  10.287
 9959SOL     OW31317   2.180   4.260  10.328
 9959SOL    HW131318   2.146   4.172  10.314
 9959SOL    HW231319   2.259   4.263  10.274
 9960SOL     OW31320   2.998   4.093  11.002
 9960SOL    HW131321   2.950   4.148  11.064
 9960SOL    HW231322   3.082   4.137  10.990
 9961SOL     OW31323   3.021   3.914  10.792
 9961SOL    HW131324   3.009   3.977  10.863
 9961SOL    HW231325   3.063   3.965  10.722
 9962SOL     OW31326   1.879   5.034   9.501
 9962SOL    HW131327   1.791   5.053   9.471
 9962SOL    HW231328   1.874   4.944   9.535
 9963SOL     OW31329   1.952   5.495  10.252
 9963SOL    HW131330   1.922   5.420  10.200
 9963SOL    HW231331   2.039   5.514  10.217
 9964SOL     OW31332   2.347   5.302  10.210
 9964SOL    HW131333   2.419   5.361  10.235
 9964SOL    HW231334   2.388   5.237  10.153
 9965SOL     OW31335   2.823   4.516  10.531
 9965SOL    HW131336   2.881   4.494  10.604
 9965SOL    HW231337   2.746   4.460  10.544
 9966SOL     OW31338   1.898   4.282  10.428
 9966SOL    HW131339   1.977   4.273  10.375
 9966SOL    HW231340   1.929   4.277  10.518
 9967SOL     OW31341   2.056   4.246  11.044
 9967SOL    HW131342   2.099   4.194  10.977
 9967SOL    HW231343   2.022   4.323  10.997
 9968SOL     OW31344   3.247   4.655  10.966
 9968SOL    HW131345   3.268   4.748  10.959
 9968SOL    HW231346   3.241   4.625  10.875
 9969SOL     OW31347   2.672   4.281   9.685
 9969SOL    HW131348   2.694   4.213   9.621
 9969SOL    HW231349   2.604   4.333   9.641
 9970SOL     OW31350   3.460   4.259  10.408
 9970SOL    HW131351   3.443   4.230  10.498
 9970SOL    HW231352   3.556   4.268  10.404
 9971SOL     OW31353   2.096   5.268  11.034
 9971SOL    HW131354   2.074   5.324  11.109
 9971SOL    HW231355   2.105   5.180  11.072
 9972SOL     OW31356   2.583   4.164  10.561
 9972SOL    HW131357   2.523   4.095  10.534
 9972SOL    HW231358   2.577   4.230  10.492
 9973SOL     OW31359   2.765   5.407  10.795
 9973SOL    HW131360   2.755   5.358  10.713
 9973SOL    HW231361   2.764   5.499  10.769
 9974SOL     OW31362   2.314   4.217   9.503
 9974SOL    HW131363   2.383   4.282   9.518
 9974SOL    HW231364   2.236   4.268   9.486
 9975SOL     OW31365   1.999   4.870  10.788
 9975SOL    HW131366   2.004   4.827  10.873
 9975SOL    HW231367   2.016   4.800  10.725
 9976SOL     OW31368   3.172   4.759  10.529
 9976SOL    HW131369   3.195   4.699  10.458
 9976SOL    HW231370   3.112   4.822  10.489
 9977SOL     OW31371   3.160   4.526   9.689
 9977SOL    HW131372   3.068   4.498   9.684
 9977SOL    HW231373   3.183   4.545   9.598
 9978SOL     OW31374   3.659   5.462  10.491
 9978SOL    HW131375   3.717   5.482  10.418
 9978SOL    HW231376   3.617   5.379  10.466
 9979SOL     OW31377   3.101   5.463  10.426
 9979SOL    HW131378   3.183   5.487  10.383
 9979SOL    HW231379   3.107   5.369  10.438
 9980SOL     OW31380   1.950   4.999  10.309
 9980SOL    HW131381   1.930   5.009  10.403
 9980SOL    HW231382   1.884   4.936  10.278
 9981SOL     OW31383   2.548   5.401  11.054
 9981SOL    HW131384   2.486   5.473  11.040
 9981SOL    HW231385   2.618   5.416  10.991
 9982SOL     OW31386   3.606   3.800   9.872
 9982SOL    HW131387   3.564   3.834   9.792
 9982SOL    HW231388   3.577   3.708   9.877
 9983SOL     OW31389   3.244   5.315   9.776
 9983SOL    HW131390   3.310   5.350   9.716
 9983SOL    HW231391   3.200   5.393   9.812
 9984SOL     OW31392   1.997   5.528  11.153
 9984SOL    HW131393   1.952   5.454  11.195
 9984SOL    HW231394   2.046   5.569  11.223
 9985SOL     OW31395   3.154   4.665   9.998
 9985SOL    HW131396   3.221   4.601  10.022
 9985SOL    HW231397   3.180   4.696   9.912
 9986SOL     OW31398   2.655   5.001  10.731
 9986SOL    HW131399   2.627   5.045  10.811
 9986SOL    HW231400   2.584   5.017  10.669
 9987SOL     OW31401   2.524   5.375   9.463
 9987SOL    HW131402   2.548   5.389   9.372
 9987SOL    HW231403   2.483   5.288   9.465
 9988SOL     OW31404   3.484   5.459  10.712
 9988SOL    HW131405   3.540   5.454  10.635
 9988SOL    HW231406   3.479   5.553  10.732
 9989SOL     OW31407   3.696   3.907  10.283
 9989SOL    HW131408   3.716   3.819  10.252
 9989SOL    HW231409   3.616   3.933  10.236
 9990SOL     OW31410   2.114   4.030  10.026
 9990SOL    HW131411   2.029   4.067  10.003
 9990SOL    HW231412   2.115   4.030  10.122
 9991SOL     OW31413   3.058   5.328   9.346
 9991SOL    HW131414   3.042   5.241   9.383
 9991SOL    HW231415   3.015   5.326   9.261
 9992SOL     OW31416   2.683   4.729  10.692
 9992SOL    HW131417   2.724   4.713  10.608
 9992SOL    HW231418   2.679   4.825  10.699
 9993SOL     OW31419   2.790   4.666   9.601
 9993SOL    HW131420   2.852   4.675   9.528
 9993SOL    HW231421   2.824   4.593   9.652
 9994SOL     OW31422   3.331   5.418   9.341
 9994SOL    HW131423   3.249   5.371   9.333
 9994SOL    HW231424   3.378   5.400   9.259
 9995SOL     OW31425   2.226   5.035  10.808
 9995SOL    HW131426   2.216   5.108  10.747
 9995SOL    HW231427   2.151   4.979  10.790
 9996SOL     OW31428   3.451   4.982  10.606
 9996SOL    HW131429   3.543   5.004  10.621
 9996SOL    HW231430   3.404   5.061  10.629
 9997SOL     OW31431   2.964   4.862  10.038
 9997SOL    HW131432   2.877   4.829  10.061
 9997SOL    HW231433   3.015   4.782  10.021
 9998SOL     OW31434   2.878   3.975  10.290
 9998SOL    HW131435   2.861   3.930  10.207
 9998SOL    HW231436   2.879   3.905  10.355
 9999SOL     OW31437   2.466   5.206   9.788
 9999SOL    HW131438   2.531   5.151   9.745
 9999SOL    HW231439   2.407   5.233   9.718
10000SOL     OW31440   3.602   4.102  10.701
10000SOL    HW131441   3.665   4.173  10.688
10000SOL    HW231442   3.627   4.035  10.638
10001SOL     OW31443   2.121   5.091   9.632
10001SOL    HW131444   2.045   5.066   9.579
10001SOL    HW231445   2.084   5.125   9.713
10002SOL     OW31446   1.982   4.774  11.049
10002SOL    HW131447   1.904   4.742  11.094
10002SOL    HW231448   2.054   4.720  11.083
10003SOL     OW31449   2.540   3.911  10.809
10003SOL    HW131450   2.624   3.894  10.766
10003SOL    HW231451   2.563   3.947  10.894
10004SOL     OW31452   1.913   4.096   9.351
10004SOL    HW131453   1.853   4.060   9.287
10004SOL    HW231454   1.975   4.149   9.300
10005SOL     OW31455   3.288   4.581  10.705
10005SOL    HW131456   3.235   4.639  10.651
10005SOL    HW231457   3.374   4.580  10.662
10006SOL     OW31458   1.922   3.880   9.592
10006SOL    HW131459   1.913   3.952   9.529
10006SOL    HW231460   2.009   3.844   9.575
10007SOL     OW31461   2.998   5.084   9.464
10007SOL    HW131462   2.950   5.030   9.401
10007SOL    HW231463   3.085   5.044   9.469
10008SOL     OW31464   2.482   4.554  10.750
10008SOL    HW131465   2.541   4.628  10.734
10008SOL    HW231466   2.540   4.477  10.752
10009SOL     OW31467   3.343   5.522  10.321
10009SOL    HW131468   3.369   5.528  10.229
10009SOL    HW231469   3.415   5.474  10.363
10010SOL     OW31470   2.581   4.274  11.009
10010SOL    HW131471   2.630   4.330  11.071
10010SOL    HW231472   2.597   4.185  11.040
10011SOL     OW31473   3.338   4.915  10.941
10011SOL    HW131474   3.332   4.935  11.034
10011SOL    HW231475   3.429   4.935  10.917
10012SOL     OW31476   2.226   5.468  10.883
10012SOL    HW131477   2.145   5.514  10.865
10012SOL    HW231478   2.198   5.384  10.920
10013SOL     OW31479   3.524   4.596  10.559
10013SOL    HW131480   3.539   4.521  10.501
10013SOL    HW231481   3.508   4.670  10.499
10014SOL     OW31482   3.084   4.039   9.852
10014SOL    HW131483   3.111   3.961   9.803
10014SOL    HW231484   3.097   4.112   9.790
10015SOL     OW31485   2.423   4.473  10.001
10015SOL    HW131486   2.482   4.544   9.975
10015SOL    HW231487   2.370   4.456   9.923
10016SOL     OW31488   3.612   4.088  10.974
10016SOL    HW131489   3.610   4.101  10.879
10016SOL    HW231490   3.536   4.033  10.992
10017SOL     OW31491   3.625   4.653  10.812
10017SOL    HW131492   3.604   4.746  10.823
10017SOL    HW231493   3.602   4.633  10.722
10018SOL     OW31494   2.667   5.122   9.341
10018SOL    HW131495   2.709   5.122   9.427
10018SOL    HW231496   2.727   5.172   9.286
10019SOL     OW31497   2.528   5.502  10.245
10019SOL    HW131498   2.508   5.594  10.226
10019SOL    HW231499   2.623   5.496  10.238
10020SOL     OW31500   2.744   4.723  10.162
10020SOL    HW131501   2.785   4.640  10.188
10020SOL    HW231502   2.702   4.755  10.242
10021SOL     OW31503   2.959   4.671   9.387
10021SOL    HW131504   2.956   4.708   9.299
10021SOL    HW231505   3.012   4.592   9.379
10022SOL     OW31506   3.714   5.304  10.149
10022SOL    HW131507   3.645   5.357  10.108
10022SOL    HW231508   3.693   5.214  10.123
10023SOL     OW31509   2.073   5.014  11.153
10023SOL    HW131510   2.040   4.936  11.109
10023SOL    HW231511   2.014   5.027  11.227
10024SOL     OW31512   1.987   4.963   9.958
10024SOL    HW131513   1.991   4.916  10.042
10024SOL    HW231514   2.041   4.910   9.899
10025SOL     OW31515   2.550   5.135  10.946
10025SOL    HW131516   2.469   5.096  10.982
10025SOL    HW231517   2.550   5.224  10.981
10026SOL     OW31518   3.674   3.890  10.553
10026SOL    HW131519   3.673   3.794  10.556
10026SOL    HW231520   3.681   3.911  10.460
10027SOL     OW31521   2.282   4.159   9.835
10027SOL    HW131522   2.323   4.097   9.774
10027SOL    HW231523   2.239   4.104   9.900
10028SOL     OW31524   3.552   5.226  10.441
10028SOL    HW131525   3.481   5.195  10.385
10028SOL    HW231526   3.600   5.147  10.465
10029SOL     OW31527   2.205   4.288  10.605
10029SOL    HW131528   2.257   4.226  10.657
10029SOL    HW231529   2.217   4.259  10.515
10030SOL     OW31530   2.691   5.316   9.989
10030SOL    HW131531   2.684   5.383   9.920
10030SOL    HW231532   2.619   5.256   9.971
10031SOL     OW31533   3.283   3.928  10.462
10031SOL    HW131534   3.306   3.845  10.504
10031SOL    HW231535   3.235   3.977  10.530
10032SOL     OW31536   2.872   3.735  10.440
10032SOL    HW131537   2.829   3.689  10.368
10032SOL    HW231538   2.960   3.697  10.444
10033SOL     OW31539   2.637   5.049   9.654
10033SOL    HW131540   2.614   4.956   9.651
10033SOL    HW231541   2.728   5.051   9.685
10034SOL     OW31542   2.480   5.285  10.599
10034SOL    HW131543   2.480   5.369  10.646
10034SOL    HW231544   2.570   5.276  10.566
10035SOL     OW31545   3.183   4.236  10.041
10035SOL    HW131546   3.120   4.304  10.020
10035SOL    HW231547   3.154   4.159   9.993
10036SOL     OW31548   3.444   3.964  10.170
10036SOL    HW131549   3.388   3.890  10.196
10036SOL    HW231550   3.456   3.952  10.076
10037SOL     OW31551   1.905   4.779   9.623
10037SOL    HW131552   1.996   4.765   9.596
10037SOL    HW231553   1.871   4.692   9.640
10038SOL     OW31554   2.746   5.390   9.651
10038SOL    HW131555   2.675   5.378   9.588
10038SOL    HW231556   2.720   5.467   9.702
10039SOL     OW31557   2.080   4.349  11.305
10039SOL    HW131558   1.990   4.341  11.337
10039SOL    HW231559   2.074   4.327  11.212
10040SOL     OW31560   2.085   4.012  12.167
10040SOL    HW131561   2.118   3.970  12.247
10040SOL    HW231562   1.998   3.975  12.154
10041SOL     OW31563   1.858   4.109  11.813
10041SOL    HW131564   1.777   4.137  11.856
10041SOL    HW231565   1.832   4.033  11.760
10042SOL     OW31566   2.405   4.971  12.339
10042SOL    HW131567   2.326   5.011  12.301
10042SOL    HW231568   2.424   5.023  12.416
10043SOL     OW31569   3.431   5.245  11.882
10043SOL    HW131570   3.388   5.220  11.964
10043SOL    HW231571   3.359   5.252  11.819
10044SOL     OW31572   2.993   4.421  11.871
10044SOL    HW131573   3.040   4.503  11.856
10044SOL    HW231574   2.943   4.436  11.951
10045SOL     OW31575   3.640   4.316  11.400
10045SOL    HW131576   3.615   4.314  11.307
10045SOL    HW231577   3.600   4.237  11.436
10046SOL     OW31578   2.619   4.853  12.231
10046SOL    HW131579   2.536   4.883  12.269
10046SOL    HW231580   2.653   4.929  12.185
10047SOL     OW31581   2.548   4.716  11.814
10047SOL    HW131582   2.615   4.713  11.883
10047SOL    HW231583   2.480   4.773  11.850
10048SOL     OW31584   2.197   5.130  12.237
10048SOL    HW131585   2.118   5.092  12.197
10048SOL    HW231586   2.240   5.176  12.165
10049SOL     OW31587   3.465   4.161  11.922
10049SOL    HW131588   3.401   4.179  11.853
10049SOL    HW231589   3.447   4.227  11.989
10050SOL     OW31590   2.080   5.445  11.634
10050SOL    HW131591   2.106   5.518  11.690
10050SOL    HW231592   2.153   5.434  11.573
10051SOL     OW31593   2.098   5.175  11.714
10051SOL    HW131594   2.070   5.266  11.713
10051SOL    HW231595   2.039   5.132  11.776
10052SOL     OW31596   2.136   4.815  12.064
10052SOL    HW131597   2.136   4.727  12.100
10052SOL    HW231598   2.079   4.865  12.123
10053SOL     OW31599   2.435   4.710  11.317
10053SOL    HW131600   2.484   4.754  11.248
10053SOL    HW231601   2.475   4.741  11.398
10054SOL     OW31602   1.984   4.380  11.736
10054SOL    HW131603   1.952   4.292  11.756
10054SOL    HW231604   1.975   4.429  11.818
10055SOL     OW31605   3.709   5.474  11.501
10055SOL    HW131606   3.780   5.452  11.561
10055SOL    HW231607   3.723   5.566  11.480
10056SOL     OW31608   1.913   5.311  11.289
10056SOL    HW131609   1.892   5.219  11.306
10056SOL    HW231610   1.880   5.358  11.365
10057SOL     OW31611   3.581   4.616  11.816
10057SOL    HW131612   3.664   4.596  11.858
10057SOL    HW231613   3.598   4.608  11.723
10058SOL     OW31614   2.034   4.476   0.221
10058SOL    HW131615   2.006   4.430   0.300
10058SOL    HW231616   1.955   4.518   0.188
10059SOL     OW31617   2.479   5.111  11.892
10059SOL    HW131618   2.434   5.027  11.899
10059SOL    HW231619   2.461   5.141  11.803
10060SOL     OW31620   2.688   3.737  11.692
10060SOL    HW131621   2.728   3.819  11.663
10060SOL    HW231622   2.594   3.755  11.691
10061SOL     OW31623   2.053   4.726  12.421
10061SOL    HW131624   2.132   4.673  12.415
10061SOL    HW231625   1.982   4.662  12.423
10062SOL     OW31626   3.396   4.719  11.378
10062SOL    HW131627   3.315   4.677  11.408
10062SOL    HW231628   3.466   4.665  11.416
10063SOL     OW31629   3.317   5.138  12.106
10063SOL    HW131630   3.254   5.153  12.177
10063SOL    HW231631   3.303   5.047  12.081
10064SOL     OW31632   3.510   5.491  11.745
10064SOL    HW131633   3.491   5.450  11.661
10064SOL    HW231634   3.498   5.422  11.810
10065SOL     OW31635   2.457   4.439  11.447
10065SOL    HW131636   2.455   4.523  11.401
10065SOL    HW231637   2.390   4.449  11.515
10066SOL     OW31638   3.140   4.096  12.109
10066SOL    HW131639   3.053   4.058  12.121
10066SOL    HW231640   3.198   4.042  12.163
10067SOL     OW31641   3.442   5.396  11.486
10067SOL    HW131642   3.534   5.421  11.477
10067SOL    HW231643   3.411   5.384  11.396
10068SOL     OW31644   2.750   4.089  12.383
10068SOL    HW131645   2.815   4.144  12.428
10068SOL    HW231646   2.796   4.053  12.308
10069SOL     OW31647   2.919   4.423  11.598
10069SOL    HW131648   2.936   4.415  11.691
10069SOL    HW231649   2.834   4.379  11.585
10070SOL     OW31650   1.951   4.543  11.956
10070SOL    HW131651   2.032   4.539  12.006
10070SOL    HW231652   1.905   4.620  11.990
10071SOL     OW31653   2.758   4.077  11.372
10071SOL    HW131654   2.803   4.137  11.312
10071SOL    HW231655   2.743   3.998  11.321
10072SOL     OW31656   3.230   4.857  11.699
10072SOL    HW131657   3.263   4.814  11.621
10072SOL    HW231658   3.182   4.933  11.666
10073SOL     OW31659   2.413   3.900  12.059
10073SOL    HW131660   2.403   3.964  12.130
10073SOL    HW231661   2.414   3.952  11.979
10074SOL     OW31662   2.860   5.171  11.639
10074SOL    HW131663   2.830   5.247  11.589
10074SOL    HW231664   2.837   5.192  11.730
10075SOL     OW31665   2.228   5.521  12.036
10075SOL    HW131666   2.243   5.427  12.029
10075SOL    HW231667   2.307   5.555  12.078
10076SOL     OW31668   3.642   4.803  12.034
10076SOL    HW131669   3.589   4.758  11.968
10076SOL    HW231670   3.590   4.799  12.114
10077SOL     OW31671   2.169   4.683  11.429
10077SOL    HW131672   2.251   4.704  11.384
10077SOL    HW231673   2.141   4.601  11.389
10078SOL     OW31674   3.349   4.479  11.885
10078SOL    HW131675   3.348   4.434  11.969
10078SOL    HW231676   3.432   4.527  11.884
10079SOL     OW31677   2.990   5.500  11.400
10079SOL    HW131678   2.912   5.462  11.441
10079SOL    HW231679   3.014   5.437  11.332
10080SOL     OW31680   3.486   5.124  11.272
10080SOL    HW131681   3.442   5.206  11.249
10080SOL    HW231682   3.423   5.056  11.247
10081SOL     OW31683   2.327   5.471  11.488
10081SOL    HW131684   2.380   5.516  11.554
10081SOL    HW231685   2.391   5.427  11.431
10082SOL     OW31686   3.261   3.830  11.618
10082SOL    HW131687   3.255   3.804  11.526
10082SOL    HW231688   3.355   3.824  11.638
10083SOL     OW31689   2.108   5.509  12.393
10083SOL    HW131690   2.130   5.431  12.444
10083SOL    HW231691   2.058   5.475  12.318
10084SOL     OW31692   2.803   5.410  12.067
10084SOL    HW131693   2.886   5.365  12.081
10084SOL    HW231694   2.762   5.363  11.995
10085SOL     OW31695   2.261   4.414  11.647
10085SOL    HW131696   2.277   4.320  11.660
10085SOL    HW231697   2.166   4.424  11.660
10086SOL     OW31698   2.517   3.835  11.274
10086SOL    HW131699   2.571   3.759  11.291
10086SOL    HW231700   2.457   3.807  11.204
10087SOL     OW31701   2.666   5.089  12.104
10087SOL    HW131702   2.756   5.093  12.071
10087SOL    HW231703   2.612   5.099  12.026
10088SOL     OW31704   2.773   4.230  12.079
10088SOL    HW131705   2.752   4.224  11.986
10088SOL    HW231706   2.810   4.144  12.100
10089SOL     OW31707   2.421   3.791  11.667
10089SOL    HW131708   2.337   3.788  11.714
10089SOL    HW231709   2.411   3.864  11.607
10090SOL     OW31710   3.297   4.932  11.218
10090SOL    HW131711   3.320   4.855  11.270
10090SOL    HW231712   3.207   4.953  11.244
10091SOL     OW31713   2.145   3.773  11.359
10091SOL    HW131714   2.196   3.836  11.307
10091SOL    HW231715   2.211   3.715  11.397
10092SOL     OW31716   2.810   3.979  11.627
10092SOL    HW131717   2.785   4.013  11.542
10092SOL    HW231718   2.904   3.993  11.632
10093SOL     OW31719   3.072   5.303  11.967
10093SOL    HW131720   3.091   5.367  11.899
10093SOL    HW231721   3.146   5.310  12.028
10094SOL     OW31722   2.336   4.877  11.889
10094SOL    HW131723   2.271   4.857  11.957
10094SOL    HW231724   2.288   4.866  11.807
10095SOL     OW31725   3.124   5.516  11.785
10095SOL    HW131726   3.174   5.578  11.733
10095SOL    HW231727   3.055   5.569  11.825
10096SOL     OW31728   2.888   4.252  11.203
10096SOL    HW131729   2.845   4.335  11.181
10096SOL    HW231730   2.953   4.276  11.268
10097SOL     OW31731   2.421   3.979  12.341
10097SOL    HW131732   2.463   3.894  12.327
10097SOL    HW231733   2.332   3.958  12.366
10098SOL     OW31734   2.725   4.181  11.812
10098SOL    HW131735   2.686   4.238  11.746
10098SOL    HW231736   2.754   4.104  11.763
10099SOL     OW31737   2.866   3.787  11.925
10099SOL    HW131738   2.814   3.780  11.845
10099SOL    HW231739   2.852   3.705  11.971
10100SOL     OW31740   3.292   4.876  12.022
10100SOL    HW131741   3.249   4.793  12.044
10100SOL    HW231742   3.285   4.880  11.926
10101SOL     OW31743   3.331   4.331  12.125
10101SOL    HW131744   3.269   4.259  12.135
10101SOL    HW231745   3.391   4.323  12.199
10102SOL     OW31746   3.678   4.529  11.561
10102SOL    HW131747   3.738   4.484  11.621
10102SOL    HW231748   3.662   4.465  11.491
10103SOL     OW31749   2.351   5.148  11.321
10103SOL    HW131750   2.278   5.114  11.372
10103SOL    HW231751   2.351   5.097  11.241
10104SOL     OW31752   3.570   5.021  11.798
10104SOL    HW131753   3.596   4.981  11.880
10104SOL    HW231754   3.516   5.096  11.823
10105SOL     OW31755   3.258   4.294  11.247
10105SOL    HW131756   3.193   4.274  11.314
10105SOL    HW231757   3.334   4.241  11.271
10106SOL     OW31758   2.391   3.985  11.479
10106SOL    HW131759   2.440   3.940  11.410
10106SOL    HW231760   2.361   4.066  11.438
10107SOL     OW31761   2.947   4.982  12.302
10107SOL    HW131762   2.863   5.009  12.341
10107SOL    HW231763   2.937   5.003  12.209
10108SOL     OW31764   3.480   4.822  12.256
10108SOL    HW131765   3.485   4.875  12.335
10108SOL    HW231766   3.402   4.854  12.210
10109SOL     OW31767   2.575   4.787  11.544
10109SOL    HW131768   2.560   4.762  11.635
10109SOL    HW231769   2.651   4.736  11.518
10110SOL     OW31770   2.288   4.556  12.449
10110SOL    HW131771   2.338   4.592  12.521
10110SOL    HW231772   2.255   4.472  12.482
10111SOL     OW31773   3.125   4.106  12.431
10111SOL    HW131774   3.192   4.157  12.476
10111SOL    HW231775   3.046   4.160  12.436
10112SOL     OW31776   2.188   4.849  11.659
10112SOL    HW131777   2.188   4.921  11.596
10112SOL    HW231778   2.188   4.770  11.604
10113SOL     OW31779   2.404   4.256  12.038
10113SOL    HW131780   2.414   4.314  11.963
10113SOL    HW231781   2.479   4.276  12.094
10114SOL     OW31782   3.107   5.075  11.567
10114SOL    HW131783   3.163   5.147  11.597
10114SOL    HW231784   3.019   5.099  11.597
10115SOL     OW31785   3.147   5.176  12.311
10115SOL    HW131786   3.200   5.186  12.390
10115SOL    HW231787   3.091   5.101  12.330
10116SOL     OW31788   3.433   4.330  11.665
10116SOL    HW131789   3.385   4.379  11.732
10116SOL    HW231790   3.477   4.398  11.613
10117SOL     OW31791   2.234   5.268  12.466
10117SOL    HW131792   2.203   5.211  12.396
10117SOL    HW231793   2.313   5.309  12.430
10118SOL     OW31794   2.459   4.571  12.229
10118SOL    HW131795   2.484   4.662  12.215
10118SOL    HW231796   2.393   4.575  12.298
10119SOL     OW31797   3.215   4.593  12.142
10119SOL    HW131798   3.129   4.568  12.107
10119SOL    HW231799   3.263   4.510  12.148
10120SOL     OW31800   3.061   4.252  11.434
10120SOL    HW131801   3.069   4.172  11.487
10120SOL    HW231802   3.018   4.315  11.491
10121SOL     OW31803   2.168   3.905  12.410
10121SOL    HW131804   2.126   3.929  12.493
10121SOL    HW231805   2.152   3.811  12.401
10122SOL     OW31806   1.926   5.048  12.433
10122SOL    HW131807   1.961   4.970  12.475
10122SOL    HW231808   1.926   5.114  12.501
10123SOL     OW31809   2.575   4.324  12.262
10123SOL    HW131810   2.649   4.313  12.204
10123SOL    HW231811   2.545   4.413  12.246
10124SOL     OW31812   2.177   3.784  11.794
10124SOL    HW131813   2.148   3.873  11.814
10124SOL    HW231814   2.183   3.741  11.879
10125SOL     OW31815   3.493   4.103  11.525
10125SOL    HW131816   3.522   4.035  11.586
10125SOL    HW231817   3.462   4.174  11.582
10126SOL     OW31818   2.879   4.477  12.133
10126SOL    HW131819   2.878   4.489  12.228
10126SOL    HW231820   2.847   4.388  12.119
10127SOL     OW31821   3.374   4.006  11.297
10127SOL    HW131822   3.319   3.932  11.325
10127SOL    HW231823   3.417   4.035  11.377
10128SOL     OW31824   3.159   4.551  11.204
10128SOL    HW131825   3.198   4.464  11.208
10128SOL    HW231826   3.187   4.587  11.120
10129SOL     OW31827   2.925   5.072  12.030
10129SOL    HW131828   2.938   4.997  11.972
10129SOL    HW231829   2.985   5.138  11.996
10130SOL     OW31830   2.176   4.538  12.116
10130SOL    HW131831   2.270   4.545  12.098
10130SOL    HW231832   2.164   4.449  12.149
10131SOL     OW31833   2.172   4.266  12.174
10131SOL    HW131834   2.144   4.174  12.170
10131SOL    HW231835   2.254   4.267  12.125
10132SOL     OW31836   3.001   3.974   0.144
10132SOL    HW131837   3.056   3.981   0.222
10132SOL    HW231838   3.057   4.003   0.072
10133SOL     OW31839   1.881   5.035  11.358
10133SOL    HW131840   1.792   5.054  11.329
10133SOL    HW231841   1.875   4.948  11.397
10134SOL     OW31842   1.959   5.505  12.116
10134SOL    HW131843   1.924   5.429  12.070
10134SOL    HW231844   2.049   5.513  12.084
10135SOL     OW31845   2.357   5.283  12.069
10135SOL    HW131846   2.428   5.343  12.092
10135SOL    HW231847   2.398   5.219  12.010
10136SOL     OW31848   2.847   4.513  12.413
10136SOL    HW131849   2.919   4.570  12.440
10136SOL    HW231850   2.768   4.562  12.435
10137SOL     OW31851   1.933   4.301  12.312
10137SOL    HW131852   2.005   4.293  12.249
10137SOL    HW231853   1.910   4.211  12.334
10138SOL     OW31854   2.681   4.296  11.545
10138SOL    HW131855   2.688   4.222  11.484
10138SOL    HW231856   2.606   4.346  11.512
10139SOL     OW31857   3.515   4.316  12.327
10139SOL    HW131858   3.512   4.270  12.411
10139SOL    HW231859   3.605   4.308  12.298
10140SOL     OW31860   2.737   5.373   0.043
10140SOL    HW131861   2.773   5.408  -0.039
10140SOL    HW231862   2.795   5.406   0.111
10141SOL     OW31863   2.316   4.215  11.355
10141SOL    HW131864   2.377   4.285  11.377
10141SOL    HW231865   2.232   4.260  11.345
10142SOL     OW31866   3.130   4.702  12.375
10142SOL    HW131867   3.168   4.682  12.289
10142SOL    HW231868   3.171   4.784  12.400
10143SOL     OW31869   3.173   4.595  11.480
10143SOL    HW131870   3.104   4.553  11.531
10143SOL    HW231871   3.151   4.575  11.389
10144SOL     OW31872   3.596   5.467  12.287
10144SOL    HW131873   3.676   5.485  12.238
10144SOL    HW231874   3.588   5.372  12.286
10145SOL     OW31875   3.105   5.447  12.263
10145SOL    HW131876   3.189   5.480  12.231
10145SOL    HW231877   3.120   5.354  12.278
10146SOL     OW31878   1.950   5.004  12.167
10146SOL    HW131879   1.934   5.019  12.260
10146SOL    HW231880   1.886   4.937  12.142
10147SOL     OW31881   3.595   3.891  11.675
10147SOL    HW131882   3.660   3.871  11.608
10147SOL    HW231883   3.572   3.807  11.714
10148SOL     OW31884   3.253   5.293  11.665
10148SOL    HW131885   3.312   5.327  11.597
10148SOL    HW231886   3.203   5.369  11.693
10149SOL     OW31887   3.137   4.648  11.843
10149SOL    HW131888   3.214   4.592  11.854
10149SOL    HW231889   3.169   4.720  11.788
10150SOL     OW31890   2.529   5.354  11.329
10150SOL    HW131891   2.544   5.369  11.235
10150SOL    HW231892   2.474   5.276  11.332
10151SOL     OW31893   3.506   5.553   0.053
10151SOL    HW131894   3.535   5.493  -0.015
10151SOL    HW231895   3.551   5.635   0.033
10152SOL     OW31896   3.706   3.892  12.144
10152SOL    HW131897   3.738   3.804  12.123
10152SOL    HW231898   3.620   3.896  12.102
10153SOL     OW31899   2.114   4.033  11.883
10153SOL    HW131900   2.028   4.067  11.858
10153SOL    HW231901   2.114   4.036  11.979
10154SOL     OW31902   3.071   5.321  11.207
10154SOL    HW131903   3.060   5.229  11.231
10154SOL    HW231904   3.006   5.336  11.138
10155SOL     OW31905   2.665   4.727  12.479
10155SOL    HW131906   2.658   4.776  12.397
10155SOL    HW231907   2.738   4.769  12.525
10156SOL     OW31908   2.787   4.641  11.468
10156SOL    HW131909   2.845   4.672  11.398
10156SOL    HW231910   2.835   4.570  11.510
10157SOL     OW31911   3.347   5.366  11.219
10157SOL    HW131912   3.255   5.350  11.202
10157SOL    HW231913   3.387   5.370  11.132
10158SOL     OW31914   2.930   4.838  11.891
10158SOL    HW131915   2.855   4.789  11.924
10158SOL    HW231916   2.993   4.770  11.865
10159SOL     OW31917   2.881   3.962  12.149
10159SOL    HW131918   2.877   3.922  12.062
10159SOL    HW231919   2.885   3.888  12.210
10160SOL     OW31920   2.466   5.217  11.643
10160SOL    HW131921   2.522   5.165  11.585
10160SOL    HW231922   2.385   5.230  11.593
10161SOL     OW31923   3.632   4.154   0.048
10161SOL    HW131924   3.722   4.183   0.034
10161SOL    HW231925   3.630   4.066   0.010
10162SOL     OW31926   2.138   5.061  11.476
10162SOL    HW131927   2.051   5.057  11.438
10162SOL    HW231928   2.127   5.106  11.560
10163SOL     OW31929   1.940   4.049  11.200
10163SOL    HW131930   1.862   4.026  11.149
10163SOL    HW231931   1.973   4.129  11.158
10164SOL     OW31932   1.916   3.879  11.461
10164SOL    HW131933   1.902   3.951  11.400
10164SOL    HW231934   2.002   3.844  11.438
10165SOL     OW31935   3.041   5.052  11.290
10165SOL    HW131936   2.949   5.024  11.288
10165SOL    HW231937   3.063   5.053  11.383
10166SOL     OW31938   3.351   5.519  12.158
10166SOL    HW131939   3.380   5.587  12.098
10166SOL    HW231940   3.430   5.495  12.208
10167SOL     OW31941   3.536   4.591  12.417
10167SOL    HW131942   3.521   4.508  12.372
10167SOL    HW231943   3.518   4.658  12.352
10168SOL     OW31944   3.081   4.045  11.629
10168SOL    HW131945   3.142   3.971  11.623
10168SOL    HW231946   3.112   4.095  11.705
10169SOL     OW31947   2.438   4.460  11.855
10169SOL    HW131948   2.483   4.542  11.835
10169SOL    HW231949   2.378   4.447  11.781
10170SOL     OW31950   3.660   4.599   0.158
10170SOL    HW131951   3.672   4.691   0.181
10170SOL    HW231952   3.613   4.600   0.075
10171SOL     OW31953   2.734   5.089  11.223
10171SOL    HW131954   2.691   5.121  11.303
10171SOL    HW231955   2.748   5.167  11.170
10172SOL     OW31956   2.525   5.515  12.118
10172SOL    HW131957   2.542   5.587  12.179
10172SOL    HW231958   2.612   5.481  12.096
10173SOL     OW31959   2.733   4.697  12.025
10173SOL    HW131960   2.779   4.621  12.061
10173SOL    HW231961   2.698   4.742  12.102
10174SOL     OW31962   2.946   4.715  11.263
10174SOL    HW131963   2.920   4.763  11.184
10174SOL    HW231964   3.019   4.660  11.234
10175SOL     OW31965   3.711   5.268  12.014
10175SOL    HW131966   3.622   5.266  11.980
10175SOL    HW231967   3.710   5.211  12.091
10176SOL     OW31968   1.958   4.953  11.835
10176SOL    HW131969   1.973   4.910  11.919
10176SOL    HW231970   2.021   4.912  11.776
10177SOL     OW31971   3.666   3.905  12.419
10177SOL    HW131972   3.715   3.825  12.434
10177SOL    HW231973   3.672   3.920  12.325
10178SOL     OW31974   2.295   4.152  11.700
10178SOL    HW131975   2.322   4.086  11.637
10178SOL    HW231976   2.238   4.106  11.761
10179SOL     OW31977   3.559   5.201  12.254
10179SOL    HW131978   3.473   5.175  12.223
10179SOL    HW231979   3.562   5.173  12.346
10180SOL     OW31980   2.686   5.309  11.845
10180SOL    HW131981   2.665   5.368  11.773
10180SOL    HW231982   2.616   5.243  11.844
10181SOL     OW31983   3.304   3.960  12.283
10181SOL    HW131984   3.361   3.904  12.336
10181SOL    HW231985   3.245   4.001  12.347
10182SOL     OW31986   2.872   3.713  12.297
10182SOL    HW131987   2.835   3.661  12.226
10182SOL    HW231988   2.962   3.681  12.307
10183SOL     OW31989   2.636   5.058  11.501
10183SOL    HW131990   2.611   4.966  11.505
10183SOL    HW231991   2.721   5.062  11.545
10184SOL     OW31992   3.229   3.770  11.350
10184SOL    HW131993   3.267   3.698  11.300
10184SOL    HW231994   3.138   3.744  11.366
10185SOL     OW31995   3.158   4.191  11.850
10185SOL    HW131996   3.103   4.269  11.854
10185SOL    HW231997   3.153   4.154  11.939
10186SOL     OW31998   3.448   3.910  12.051
10186SOL    HW131999   3.393   3.936  12.125
10186SOL    HW232000   3.450   3.987  11.995
10187SOL     OW32001   1.904   4.785  11.485
10187SOL    HW132002   1.996   4.775  11.462
10187SOL    HW232003   1.874   4.697  11.506
10188SOL     OW32004   2.750   5.389  11.510
10188SOL    HW132005   2.675   5.374  11.453
10188SOL    HW232006   2.725   5.464  11.565
10189SOL     OW32007   2.125   6.171   0.033
10189SOL    HW132008   2.091   6.225   0.104
10189SOL    HW232009   2.072   6.195  -0.043
10190SOL     OW32010   2.086   5.870   0.994
10190SOL    HW132011   2.113   5.839   1.081
10190SOL    HW232012   1.997   5.836   0.984
10191SOL     OW32013   1.857   5.969   0.638
10191SOL    HW132014   1.780   6.000   0.687
10191SOL    HW232015   1.827   5.890   0.595
10192SOL     OW32016   2.432   6.888   1.192
10192SOL    HW132017   2.348   6.892   1.145
10192SOL    HW232018   2.448   6.978   1.220
10193SOL     OW32019   3.442   7.107   0.714
10193SOL    HW132020   3.397   7.079   0.794
10193SOL    HW232021   3.373   7.107   0.647
10194SOL     OW32022   2.991   6.293   0.693
10194SOL    HW132023   3.042   6.373   0.683
10194SOL    HW232024   2.946   6.302   0.777
10195SOL     OW32025   3.587   6.200   0.270
10195SOL    HW132026   3.585   6.204   0.175
10195SOL    HW232027   3.563   6.110   0.291
10196SOL     OW32028   2.596   6.717   1.048
10196SOL    HW132029   2.536   6.757   1.111
10196SOL    HW232030   2.639   6.792   1.006
10197SOL     OW32031   2.739   6.336   1.830
10197SOL    HW132032   2.720   6.400   1.899
10197SOL    HW232033   2.761   6.389   1.753
10198SOL     OW32034   2.545   6.578   0.644
10198SOL    HW132035   2.614   6.572   0.711
10198SOL    HW232036   2.479   6.635   0.682
10199SOL     OW32037   2.583   6.736   1.809
10199SOL    HW132038   2.625   6.814   1.846
10199SOL    HW232039   2.498   6.767   1.777
10200SOL     OW32040   2.183   7.005   1.072
10200SOL    HW132041   2.116   6.963   1.019
10200SOL    HW232042   2.235   7.055   1.010
10201SOL     OW32043   3.319   7.090   1.366
10201SOL    HW132044   3.374   7.168   1.376
10201SOL    HW232045   3.251   7.101   1.433
10202SOL     OW32046   2.320   5.970   1.458
10202SOL    HW132047   2.394   5.913   1.480
10202SOL    HW232048   2.244   5.924   1.493
10203SOL     OW32049   3.469   6.026   0.749
10203SOL    HW132050   3.432   6.064   0.670
10203SOL    HW232051   3.455   6.092   0.817
10204SOL     OW32052   2.076   7.309   0.475
10204SOL    HW132053   2.097   7.385   0.529
10204SOL    HW232054   2.153   7.295   0.421
10205SOL     OW32055   2.998   6.932   1.699
10205SOL    HW132056   3.040   6.923   1.785
10205SOL    HW232057   2.947   6.851   1.689
10206SOL     OW32058   2.085   7.040   0.541
10206SOL    HW132059   2.068   7.134   0.541
10206SOL    HW232060   2.031   7.006   0.612
10207SOL     OW32061   2.129   6.676   0.895
10207SOL    HW132062   2.137   6.584   0.921
10207SOL    HW232063   2.073   6.715   0.962
10208SOL     OW32064   2.429   7.390   1.405
10208SOL    HW132065   2.365   7.364   1.471
10208SOL    HW232066   2.470   7.469   1.441
10209SOL     OW32067   2.442   6.549   0.150
10209SOL    HW132068   2.511   6.564   0.085
10209SOL    HW232069   2.472   6.596   0.228
10210SOL     OW32070   3.451   5.709   1.462
10210SOL    HW132071   3.501   5.773   1.411
10210SOL    HW232072   3.433   5.754   1.545
10211SOL     OW32073   1.979   6.233   0.563
10211SOL    HW132074   1.949   6.145   0.586
10211SOL    HW232075   1.973   6.283   0.645
10212SOL     OW32076   3.716   7.324   0.313
10212SOL    HW132077   3.786   7.302   0.375
10212SOL    HW232078   3.730   7.417   0.294
10213SOL     OW32079   1.898   7.100   0.139
10213SOL    HW132080   1.810   7.066   0.126
10213SOL    HW232081   1.886   7.182   0.187
10214SOL     OW32082   3.548   6.521   0.658
10214SOL    HW132083   3.618   6.470   0.617
10214SOL    HW232084   3.516   6.578   0.588
10215SOL     OW32085   3.508   6.698   0.436
10215SOL    HW132086   3.593   6.695   0.393
10215SOL    HW232087   3.519   6.762   0.506
10216SOL     OW32088   1.998   6.337   1.577
10216SOL    HW132089   2.091   6.359   1.589
10216SOL    HW232090   1.951   6.417   1.600
10217SOL     OW32091   2.476   6.981   0.735
10217SOL    HW132092   2.434   6.895   0.744
10217SOL    HW232093   2.463   7.004   0.644
10218SOL     OW32094   3.143   6.821   1.418
10218SOL    HW132095   3.172   6.751   1.359
10218SOL    HW232096   3.202   6.815   1.493
10219SOL     OW32097   2.690   5.612   0.531
10219SOL    HW132098   2.727   5.695   0.501
10219SOL    HW232099   2.595   5.625   0.529
10220SOL     OW32100   2.048   6.554   1.257
10220SOL    HW132101   2.135   6.514   1.252
10220SOL    HW232102   1.988   6.484   1.231
10221SOL     OW32103   3.350   6.604   0.229
10221SOL    HW132104   3.288   6.544   0.270
10221SOL    HW232105   3.410   6.628   0.299
10222SOL     OW32106   3.041   7.400   1.631
10222SOL    HW132107   3.047   7.461   1.558
10222SOL    HW232108   3.060   7.314   1.593
10223SOL     OW32109   2.216   5.840   1.813
10223SOL    HW132110   2.257   5.914   1.858
10223SOL    HW232111   2.124   5.844   1.838
10224SOL     OW32112   3.327   7.007   0.940
10224SOL    HW132113   3.264   7.022   1.011
10224SOL    HW232114   3.315   6.915   0.917
10225SOL     OW32115   3.509   7.353   0.583
10225SOL    HW132116   3.491   7.315   0.498
10225SOL    HW232117   3.500   7.280   0.645
10226SOL     OW32118   2.439   6.295   0.276
10226SOL    HW132119   2.450   6.383   0.240
10226SOL    HW232120   2.376   6.305   0.347
10227SOL     OW32121   3.143   5.965   0.936
10227SOL    HW132122   3.055   5.929   0.944
10227SOL    HW232123   3.197   5.910   0.994
10228SOL     OW32124   3.452   7.260   0.330
10228SOL    HW132125   3.547   7.271   0.322
10228SOL    HW232126   3.421   7.260   0.239
10229SOL     OW32127   2.649   6.206   1.439
10229SOL    HW132128   2.627   6.179   1.528
10229SOL    HW232129   2.621   6.132   1.384
10230SOL     OW32130   3.253   6.061   1.679
10230SOL    HW132131   3.258   6.106   1.764
10230SOL    HW232132   3.310   5.984   1.690
10231SOL     OW32133   2.810   6.468   1.592
10231SOL    HW132134   2.866   6.402   1.551
10231SOL    HW232135   2.759   6.504   1.520
10232SOL     OW32136   2.861   5.991   1.224
10232SOL    HW132137   2.770   6.006   1.250
10232SOL    HW232138   2.855   5.951   1.138
10233SOL     OW32139   2.915   6.292   0.427
10233SOL    HW132140   2.934   6.288   0.521
10233SOL    HW232141   2.829   6.250   0.418
10234SOL     OW32142   1.957   6.401   0.777
10234SOL    HW132143   2.037   6.398   0.830
10234SOL    HW232144   1.909   6.477   0.812
10235SOL     OW32145   1.959   7.385   1.550
10235SOL    HW132146   1.969   7.392   1.645
10235SOL    HW232147   1.925   7.471   1.524
10236SOL     OW32148   2.740   5.949   0.220
10236SOL    HW132149   2.788   6.010   0.163
10236SOL    HW232150   2.745   5.865   0.174
10237SOL     OW32151   3.558   6.150   1.832
10237SOL    HW132152   3.528   6.226   1.783
10237SOL    HW232153   3.591   6.090   1.765
10238SOL     OW32154   3.244   6.728   0.535
10238SOL    HW132155   3.326   6.720   0.486
10238SOL    HW232156   3.191   6.789   0.484
10239SOL     OW32157   2.405   5.748   0.911
10239SOL    HW132158   2.412   5.779   1.001
10239SOL    HW232159   2.413   5.828   0.858
10240SOL     OW32160   2.855   7.021   0.474
10240SOL    HW132161   2.821   7.098   0.429
10240SOL    HW232162   2.835   7.036   0.566
10241SOL     OW32163   2.218   7.405   0.878
10241SOL    HW132164   2.265   7.322   0.882
10241SOL    HW232165   2.285   7.472   0.894
10242SOL     OW32166   3.669   6.640   0.882
10242SOL    HW132167   3.620   6.616   0.803
10242SOL    HW232168   3.603   6.644   0.951
10243SOL     OW32169   3.083   7.128   1.516
10243SOL    HW132170   3.073   7.059   1.581
10243SOL    HW232171   3.022   7.104   1.446
10244SOL     OW32172   2.176   6.568   0.267
10244SOL    HW132173   2.254   6.578   0.212
10244SOL    HW232174   2.139   6.484   0.241
10245SOL     OW32175   3.342   6.348   0.725
10245SOL    HW132176   3.343   6.303   0.809
10245SOL    HW232177   3.420   6.403   0.725
10246SOL     OW32178   2.340   6.855   1.746
10246SOL    HW132179   2.310   6.858   1.655
10246SOL    HW232180   2.260   6.843   1.797
10247SOL     OW32181   2.955   7.368   0.238
10247SOL    HW132182   2.902   7.321   0.302
10247SOL    HW232183   2.995   7.299   0.185
10248SOL     OW32184   2.065   5.866   1.514
10248SOL    HW132185   1.989   5.921   1.535
10248SOL    HW232186   2.059   5.793   1.576
10249SOL     OW32187   3.512   6.998   0.093
10249SOL    HW132188   3.448   7.061   0.059
10249SOL    HW232189   3.468   6.914   0.090
10250SOL     OW32190   2.313   7.311   0.333
10250SOL    HW132191   2.360   7.372   0.390
10250SOL    HW232192   2.381   7.276   0.276
10251SOL     OW32193   3.266   5.682   0.449
10251SOL    HW132194   3.262   5.655   0.357
10251SOL    HW232195   3.358   5.674   0.473
10252SOL     OW32196   2.097   7.354   1.238
10252SOL    HW132197   2.183   7.316   1.257
10252SOL    HW232198   2.093   7.358   1.142
10253SOL     OW32199   2.803   7.285   0.896
10253SOL    HW132200   2.886   7.241   0.913
10253SOL    HW232201   2.763   7.233   0.826
10254SOL     OW32202   2.250   6.278   0.478
10254SOL    HW132203   2.267   6.184   0.487
10254SOL    HW232204   2.160   6.288   0.508
10255SOL     OW32205   3.387   5.815   1.721
10255SOL    HW132206   3.398   5.835   1.814
10255SOL    HW232207   3.322   5.744   1.720
10256SOL     OW32208   2.491   5.679   0.126
10256SOL    HW132209   2.586   5.691   0.116
10256SOL    HW232210   2.474   5.593   0.087
10257SOL     OW32211   2.618   5.862   1.751
10257SOL    HW132212   2.702   5.816   1.749
10257SOL    HW232213   2.577   5.833   1.832
10258SOL     OW32214   2.729   7.108   1.200
10258SOL    HW132215   2.714   7.069   1.114
10258SOL    HW232216   2.799   7.055   1.238
10259SOL     OW32217   3.198   6.177   1.436
10259SOL    HW132218   3.230   6.145   1.520
10259SOL    HW232219   3.239   6.263   1.426
10260SOL     OW32220   2.678   6.969   0.952
10260SOL    HW132221   2.765   6.960   0.912
10260SOL    HW232222   2.619   6.982   0.878
10261SOL     OW32223   2.791   6.097   0.897
10261SOL    HW132224   2.764   6.087   0.806
10261SOL    HW232225   2.822   6.010   0.923
10262SOL     OW32226   2.417   5.647   0.499
10262SOL    HW132227   2.336   5.647   0.550
10262SOL    HW232228   2.409   5.723   0.441
10263SOL     OW32229   3.322   6.805   0.047
10263SOL    HW132230   3.336   6.727   0.101
10263SOL    HW232231   3.231   6.829   0.062
10264SOL     OW32232   2.172   5.675   0.209
10264SOL    HW132233   2.247   5.731   0.228
10264SOL    HW232234   2.202   5.587   0.230
10265SOL     OW32235   2.812   5.845   0.462
10265SOL    HW132236   2.784   5.880   0.378
10265SOL    HW232237   2.907   5.853   0.461
10266SOL     OW32238   2.944   6.275   1.452
10266SOL    HW132239   2.884   6.201   1.462
10266SOL    HW232240   3.031   6.235   1.450
10267SOL     OW32241   3.071   7.163   0.799
10267SOL    HW132242   3.088   7.226   0.730
10267SOL    HW232243   3.147   7.170   0.857
10268SOL     OW32244   2.337   6.743   0.728
10268SOL    HW132245   2.271   6.720   0.794
10268SOL    HW232246   2.290   6.735   0.644
10269SOL     OW32247   3.120   7.374   0.616
10269SOL    HW132248   3.173   7.438   0.568
10269SOL    HW232249   3.049   7.426   0.655
10270SOL     OW32250   2.876   6.138   0.071
10270SOL    HW132251   2.873   6.221   0.023
10270SOL    HW232252   2.948   6.148   0.132
10271SOL     OW32253   1.946   6.147   1.387
10271SOL    HW132254   2.039   6.141   1.365
10271SOL    HW232255   1.941   6.214   1.455
10272SOL     OW32256   2.415   5.811   1.180
10272SOL    HW132257   2.459   5.754   1.244
10272SOL    HW232258   2.324   5.813   1.208
10273SOL     OW32259   2.725   6.045   0.638
10273SOL    HW132260   2.687   6.102   0.571
10273SOL    HW232261   2.754   5.967   0.591
10274SOL     OW32262   2.876   5.642   0.747
10274SOL    HW132263   2.816   5.638   0.673
10274SOL    HW232264   2.850   5.569   0.803
10275SOL     OW32265   3.303   6.746   0.859
10275SOL    HW132266   3.235   6.678   0.857
10275SOL    HW232267   3.333   6.751   0.768
10276SOL     OW32268   3.328   6.198   0.961
10276SOL    HW132269   3.268   6.124   0.966
10276SOL    HW232270   3.384   6.190   1.038
10277SOL     OW32271   3.685   6.410   0.429
10277SOL    HW132272   3.739   6.347   0.476
10277SOL    HW232273   3.644   6.359   0.360
10278SOL     OW32274   2.353   6.984   0.165
10278SOL    HW132275   2.289   6.940   0.221
10278SOL    HW232276   2.299   7.031   0.101
10279SOL     OW32277   3.543   6.854   0.649
10279SOL    HW132278   3.638   6.849   0.662
10279SOL    HW232279   3.522   6.945   0.668
10280SOL     OW32280   3.253   6.133   0.081
10280SOL    HW132281   3.199   6.134   0.160
10280SOL    HW232282   3.306   6.054   0.088
10281SOL     OW32283   2.384   5.843   0.310
10281SOL    HW132284   2.437   5.791   0.250
10281SOL    HW232285   2.372   5.927   0.266
10282SOL     OW32286   3.604   6.831   1.550
10282SOL    HW132287   3.691   6.791   1.547
10282SOL    HW232288   3.619   6.919   1.584
10283SOL     OW32289   2.912   6.943   1.335
10283SOL    HW132290   2.837   6.908   1.382
10283SOL    HW232291   2.987   6.898   1.374
10284SOL     OW32292   3.467   7.221   1.662
10284SOL    HW132293   3.461   7.253   1.572
10284SOL    HW232294   3.547   7.167   1.663
10285SOL     OW32295   3.002   6.808   1.103
10285SOL    HW132296   2.940   6.845   1.166
10285SOL    HW232297   2.972   6.841   1.018
10286SOL     OW32298   3.481   6.680   1.077
10286SOL    HW132299   3.474   6.743   1.149
10286SOL    HW232300   3.408   6.701   1.019
10287SOL     OW32301   2.786   5.668   1.389
10287SOL    HW132302   2.808   5.655   1.296
10287SOL    HW232303   2.862   5.712   1.425
10288SOL     OW32304   2.846   6.703   1.719
10288SOL    HW132305   2.755   6.718   1.745
10288SOL    HW232306   2.844   6.622   1.669
10289SOL     OW32307   2.573   6.648   0.374
10289SOL    HW132308   2.559   6.625   0.466
10289SOL    HW232309   2.651   6.598   0.349
10290SOL     OW32310   2.282   6.410   1.255
10290SOL    HW132311   2.349   6.421   1.322
10290SOL    HW232312   2.250   6.321   1.268
10291SOL     OW32313   3.126   5.959   1.286
10291SOL    HW132314   3.157   6.037   1.332
10291SOL    HW232315   3.035   5.980   1.263
10292SOL     OW32316   2.191   6.719   0.498
10292SOL    HW132317   2.183   6.794   0.439
10292SOL    HW232318   2.196   6.643   0.439
10293SOL     OW32319   2.400   6.112   0.856
10293SOL    HW132320   2.416   6.172   0.782
10293SOL    HW232321   2.467   6.135   0.920
10294SOL     OW32322   3.106   6.935   0.395
10294SOL    HW132323   3.161   7.004   0.430
10294SOL    HW232324   3.018   6.955   0.429
10295SOL     OW32325   3.159   7.049   1.150
10295SOL    HW132326   3.213   7.056   1.228
10295SOL    HW232327   3.107   6.969   1.163
10296SOL     OW32328   3.420   6.180   0.514
10296SOL    HW132329   3.376   6.246   0.567
10296SOL    HW232330   3.461   6.230   0.443
10297SOL     OW32331   2.203   7.104   1.322
10297SOL    HW132332   2.197   7.068   1.234
10297SOL    HW232333   2.296   7.120   1.335
10298SOL     OW32334   2.287   6.329   1.613
10298SOL    HW132335   2.346   6.372   1.552
10298SOL    HW232336   2.335   6.253   1.645
10299SOL     OW32337   3.476   6.367   1.692
10299SOL    HW132338   3.390   6.408   1.687
10299SOL    HW232339   3.527   6.409   1.623
10300SOL     OW32340   2.855   5.725   1.749
10300SOL    HW132341   2.913   5.800   1.734
10300SOL    HW232342   2.908   5.649   1.727
10301SOL     OW32343   2.361   5.615   1.748
10301SOL    HW132344   2.308   5.566   1.684
10301SOL    HW232345   2.310   5.694   1.765
10302SOL     OW32346   2.447   6.462   1.034
10302SOL    HW132347   2.488   6.549   1.040
10302SOL    HW232348   2.393   6.456   1.113
10303SOL     OW32349   3.197   6.444   1.014
10303SOL    HW132350   3.110   6.421   0.981
10303SOL    HW232351   3.248   6.364   1.003
10304SOL     OW32352   3.064   6.116   0.279
10304SOL    HW132353   3.083   6.043   0.338
10304SOL    HW232354   3.019   6.180   0.335
10305SOL     OW32355   2.149   5.788   1.252
10305SOL    HW132356   2.115   5.819   1.336
10305SOL    HW232357   2.133   5.693   1.253
10306SOL     OW32358   1.950   6.958   1.303
10306SOL    HW132359   1.938   6.887   1.366
10306SOL    HW232360   2.021   6.928   1.247
10307SOL     OW32361   2.574   6.210   1.043
10307SOL    HW132362   2.654   6.199   0.992
10307SOL    HW232363   2.549   6.301   1.030
10308SOL     OW32364   3.604   6.549   1.862
10308SOL    HW132365   3.563   6.478   1.814
10308SOL    HW232366   3.545   6.567   1.934
10309SOL     OW32367   2.171   5.647   0.625
10309SOL    HW132368   2.146   5.737   0.645
10309SOL    HW232369   2.181   5.605   0.710
10310SOL     OW32370   3.488   5.957   0.368
10310SOL    HW132371   3.519   5.885   0.423
10310SOL    HW232372   3.453   6.021   0.430
10311SOL     OW32373   2.890   6.344   0.958
10311SOL    HW132374   2.877   6.360   1.051
10311SOL    HW232375   2.863   6.253   0.945
10312SOL     OW32376   2.842   7.156   1.728
10312SOL    HW132377   2.825   7.197   1.643
10312SOL    HW232378   2.882   7.072   1.707
10313SOL     OW32379   3.705   7.087   1.607
10313SOL    HW132380   3.733   7.114   1.519
10313SOL    HW232381   3.783   7.096   1.661
10314SOL     OW32382   2.223   6.524   1.803
10314SOL    HW132383   2.299   6.536   1.861
10314SOL    HW232384   2.248   6.452   1.746
10315SOL     OW32385   3.350   5.883   0.144
10315SOL    HW132386   3.325   5.791   0.158
10315SOL    HW232387   3.406   5.904   0.219
10316SOL     OW32388   3.150   6.389   0.057
10316SOL    HW132389   3.200   6.307   0.048
10316SOL    HW232390   3.197   6.451   0.001
10317SOL     OW32391   2.929   6.929   0.861
10317SOL    HW132392   2.937   6.857   0.798
10317SOL    HW232393   2.985   6.998   0.825
10318SOL     OW32394   2.178   6.399   0.942
10318SOL    HW132395   2.272   6.417   0.946
10318SOL    HW232396   2.170   6.310   0.975
10319SOL     OW32397   2.179   6.121   1.009
10319SOL    HW132398   2.145   6.032   1.000
10319SOL    HW232399   2.257   6.122   0.953
10320SOL     OW32400   2.998   5.957   1.687
10320SOL    HW132401   2.951   6.010   1.752
10320SOL    HW232402   3.085   5.996   1.682
10321SOL     OW32403   3.023   5.781   1.474
10321SOL    HW132404   3.011   5.844   1.545
10321SOL    HW232405   3.068   5.831   1.405
10322SOL     OW32406   1.955   7.361   0.948
10322SOL    HW132407   1.924   7.285   0.899
10322SOL    HW232408   2.043   7.378   0.913
10323SOL     OW32409   2.351   7.158   0.910
10323SOL    HW132410   2.420   7.220   0.931
10323SOL    HW232411   2.390   7.097   0.849
10324SOL     OW32412   2.823   6.370   1.223
10324SOL    HW132413   2.888   6.354   1.291
10324SOL    HW232414   2.743   6.329   1.255
10325SOL     OW32415   1.904   6.148   1.114
10325SOL    HW132416   1.988   6.144   1.068
10325SOL    HW232417   1.926   6.145   1.207
10326SOL     OW32418   2.040   6.109   1.725
10326SOL    HW132419   2.119   6.083   1.676
10326SOL    HW232420   2.009   6.188   1.680
10327SOL     OW32421   3.246   6.514   1.655
10327SOL    HW132422   3.267   6.607   1.651
10327SOL    HW232423   3.243   6.486   1.563
10328SOL     OW32424   2.673   6.166   0.382
10328SOL    HW132425   2.682   6.089   0.326
10328SOL    HW232426   2.596   6.211   0.348
10329SOL     OW32427   3.502   6.187   1.173
10329SOL    HW132428   3.495   6.131   1.251
10329SOL    HW232429   3.591   6.173   1.141
10330SOL     OW32430   2.104   7.119   1.737
10330SOL    HW132431   2.077   7.170   1.813
10330SOL    HW232432   2.117   7.030   1.771
10331SOL     OW32433   2.585   6.026   1.243
10331SOL    HW132434   2.521   5.958   1.225
10331SOL    HW232435   2.572   6.091   1.174
10332SOL     OW32436   2.765   7.265   1.482
10332SOL    HW132437   2.750   7.220   1.400
10332SOL    HW232438   2.770   7.358   1.458
10333SOL     OW32439   2.348   6.065   0.158
10333SOL    HW132440   2.382   6.143   0.200
10333SOL    HW232441   2.267   6.093   0.115
10334SOL     OW32442   2.007   6.731   1.458
10334SOL    HW132443   2.004   6.684   1.541
10334SOL    HW232444   2.020   6.664   1.392
10335SOL     OW32445   3.177   6.628   1.215
10335SOL    HW132446   3.196   6.564   1.146
10335SOL    HW232447   3.115   6.689   1.175
10336SOL     OW32448   3.159   6.431   0.330
10336SOL    HW132449   3.083   6.392   0.373
10336SOL    HW232450   3.152   6.403   0.238
10337SOL     OW32451   3.653   7.319   1.167
10337SOL    HW132452   3.710   7.342   1.093
10337SOL    HW232453   3.616   7.234   1.144
10338SOL     OW32454   3.100   7.317   1.101
10338SOL    HW132455   3.183   7.344   1.062
10338SOL    HW232456   3.113   7.224   1.123
10339SOL     OW32457   1.932   6.859   1.010
10339SOL    HW132458   1.882   6.873   1.090
10339SOL    HW232459   1.884   6.790   0.964
10340SOL     OW32460   2.550   7.264   1.743
10340SOL    HW132461   2.498   7.342   1.725
10340SOL    HW232462   2.629   7.275   1.690
10341SOL     OW32463   2.760   5.698   0.100
10341SOL    HW132464   2.812   5.719   0.022
10341SOL    HW232465   2.818   5.645   0.154
10342SOL     OW32466   3.592   5.745   0.509
10342SOL    HW132467   3.658   5.720   0.443
10342SOL    HW232468   3.566   5.662   0.548
10343SOL     OW32469   3.256   7.151   0.501
10343SOL    HW132470   3.317   7.184   0.435
10343SOL    HW232471   3.206   7.228   0.528
10344SOL     OW32472   2.000   7.401   1.817
10344SOL    HW132473   1.955   7.331   1.865
10344SOL    HW232474   2.050   7.448   1.884
10345SOL     OW32475   3.138   6.521   0.674
10345SOL    HW132476   3.212   6.462   0.687
10345SOL    HW232477   3.173   6.589   0.615
10346SOL     OW32478   2.658   6.864   1.417
10346SOL    HW132479   2.631   6.908   1.497
10346SOL    HW232480   2.584   6.874   1.357
10347SOL     OW32481   2.521   7.196   0.195
10347SOL    HW132482   2.583   7.202   0.122
10347SOL    HW232483   2.477   7.112   0.182
10348SOL     OW32484   3.477   7.317   1.394
10348SOL    HW132485   3.536   7.318   1.319
10348SOL    HW232486   3.462   7.409   1.415
10349SOL     OW32487   3.691   5.752   0.965
10349SOL    HW132488   3.727   5.666   0.943
10349SOL    HW232489   3.606   5.754   0.921
10350SOL     OW32490   2.114   5.896   0.714
10350SOL    HW132491   2.028   5.931   0.693
10350SOL    HW232492   2.117   5.895   0.810
10351SOL     OW32493   3.054   7.189   0.066
10351SOL    HW132494   3.054   7.095   0.081
10351SOL    HW232495   3.037   7.199  -0.028
10352SOL     OW32496   2.686   6.592   1.380
10352SOL    HW132497   2.734   6.582   1.298
10352SOL    HW232498   2.682   6.687   1.395
10353SOL     OW32499   2.789   6.510   0.293
10353SOL    HW132500   2.849   6.536   0.224
10353SOL    HW232501   2.836   6.441   0.340
10354SOL     OW32502   3.321   7.167   0.011
10354SOL    HW132503   3.235   7.195   0.041
10354SOL    HW232504   3.374   7.246   0.012
10355SOL     OW32505   2.229   6.885   1.503
10355SOL    HW132506   2.216   6.959   1.443
10355SOL    HW232507   2.154   6.828   1.486
10356SOL     OW32508   3.467   6.871   1.284
10356SOL    HW132509   3.521   6.848   1.359
10356SOL    HW232510   3.407   6.938   1.316
10357SOL     OW32511   2.927   6.701   0.716
10357SOL    HW132512   2.855   6.649   0.751
10357SOL    HW232513   2.994   6.637   0.692
10358SOL     OW32514   2.889   5.833   0.965
10358SOL    HW132515   2.886   5.788   0.881
10358SOL    HW232516   2.885   5.764   1.030
10359SOL     OW32517   2.468   7.063   0.477
10359SOL    HW132518   2.515   7.015   0.409
10359SOL    HW232519   2.394   7.103   0.432
10360SOL     OW32520   3.590   5.990   1.378
10360SOL    HW132521   3.667   6.047   1.380
10360SOL    HW232522   3.614   5.919   1.319
10361SOL     OW32523   2.128   6.916   0.310
10361SOL    HW132524   2.052   6.938   0.256
10361SOL    HW232525   2.115   6.965   0.391
10362SOL     OW32526   1.980   6.614   1.701
10362SOL    HW132527   1.903   6.595   1.756
10362SOL    HW232528   2.054   6.584   1.753
10363SOL     OW32529   2.542   5.770   1.494
10363SOL    HW132530   2.628   5.749   1.459
10363SOL    HW232531   2.559   5.804   1.582
10364SOL     OW32532   3.283   6.442   1.394
10364SOL    HW132533   3.234   6.504   1.339
10364SOL    HW232534   3.372   6.445   1.358
10365SOL     OW32535   1.924   5.732   0.307
10365SOL    HW132536   1.923   5.827   0.304
10365SOL    HW232537   2.011   5.708   0.273
10366SOL     OW32538   3.054   6.919   0.117
10366SOL    HW132539   2.959   6.909   0.109
10366SOL    HW232540   3.071   6.911   0.211
10367SOL     OW32541   2.481   6.419   1.437
10367SOL    HW132542   2.540   6.494   1.426
10367SOL    HW232543   2.539   6.343   1.441
10368SOL     OW32544   3.345   7.379   0.989
10368SOL    HW132545   3.372   7.446   0.926
10368SOL    HW232546   3.426   7.333   1.012
10369SOL     OW32547   2.579   6.143   1.693
10369SOL    HW132548   2.624   6.199   1.756
10369SOL    HW232549   2.591   6.054   1.727
10370SOL     OW32550   3.332   6.778   1.625
10370SOL    HW132551   3.322   6.791   1.719
10370SOL    HW232552   3.424   6.797   1.609
10371SOL     OW32553   2.228   7.316   1.579
10371SOL    HW132554   2.140   7.351   1.562
10371SOL    HW232555   2.213   7.236   1.628
10372SOL     OW32556   3.521   6.463   1.253
10372SOL    HW132557   3.521   6.377   1.210
10372SOL    HW232558   3.513   6.526   1.181
10373SOL     OW32559   3.089   5.897   0.444
10373SOL    HW132560   3.151   5.824   0.447
10373SOL    HW232561   3.106   5.946   0.525
10374SOL     OW32562   2.443   6.317   0.674
10374SOL    HW132563   2.485   6.402   0.662
10374SOL    HW232564   2.379   6.311   0.604
10375SOL     OW32565   3.618   5.948   1.649
10375SOL    HW132566   3.602   5.971   1.558
10375SOL    HW232567   3.543   5.896   1.675
10376SOL     OW32568   3.604   6.518   1.508
10376SOL    HW132569   3.597   6.613   1.518
10376SOL    HW232570   3.587   6.502   1.416
10377SOL     OW32571   2.779   6.950   0.064
10377SOL    HW132572   2.721   6.933   0.139
10377SOL    HW232573   2.761   7.041   0.040
10378SOL     OW32574   2.526   7.365   0.932
10378SOL    HW132575   2.511   7.459   0.916
10378SOL    HW232576   2.621   7.355   0.928
10379SOL     OW32577   2.732   6.558   0.852
10379SOL    HW132578   2.783   6.485   0.889
10379SOL    HW232579   2.690   6.598   0.928
10380SOL     OW32580   2.951   6.576   0.077
10380SOL    HW132581   2.993   6.645   0.026
10380SOL    HW232582   3.020   6.510   0.089
10381SOL     OW32583   3.712   7.134   0.840
10381SOL    HW132584   3.628   7.120   0.797
10381SOL    HW232585   3.724   7.056   0.894
10382SOL     OW32586   2.096   6.874   1.867
10382SOL    HW132587   2.035   6.800   1.859
10382SOL    HW232588   2.091   6.900   1.959
10383SOL     OW32589   1.954   6.817   0.673
10383SOL    HW132590   1.980   6.766   0.750
10383SOL    HW232591   2.011   6.786   0.603
10384SOL     OW32592   2.540   7.004   1.620
10384SOL    HW132593   2.472   6.956   1.667
10384SOL    HW232594   2.547   7.088   1.667
10385SOL     OW32595   3.660   5.773   1.237
10385SOL    HW132596   3.748   5.741   1.260
10385SOL    HW232597   3.659   5.773   1.142
10386SOL     OW32598   2.278   6.015   0.516
10386SOL    HW132599   2.319   5.944   0.467
10386SOL    HW232600   2.236   5.971   0.590
10387SOL     OW32601   3.546   7.079   1.101
10387SOL    HW132602   3.474   7.055   1.042
10387SOL    HW232603   3.553   7.007   1.162
10388SOL     OW32604   2.202   6.150   1.291
10388SOL    HW132605   2.253   6.090   1.346
10388SOL    HW232606   2.216   6.119   1.202
10389SOL     OW32607   2.693   7.165   0.678
10389SOL    HW132608   2.672   7.235   0.616
10389SOL    HW232609   2.617   7.107   0.676
10390SOL     OW32610   3.294   5.824   1.117
10390SOL    HW132611   3.336   5.753   1.166
10390SOL    HW232612   3.241   5.869   1.183
10391SOL     OW32613   2.872   5.601   1.125
10391SOL    HW132614   2.820   5.540   1.073
10391SOL    HW232615   2.960   5.563   1.127
10392SOL     OW32616   2.649   6.909   0.311
10392SOL    HW132617   2.616   6.821   0.329
10392SOL    HW232618   2.723   6.920   0.371
10393SOL     OW32619   2.472   7.148   1.283
10393SOL    HW132620   2.469   7.234   1.325
10393SOL    HW232621   2.563   7.139   1.254
10394SOL     OW32622   3.236   5.626   0.186
10394SOL    HW132623   3.268   5.579   0.109
10394SOL    HW232624   3.149   5.657   0.160
10395SOL     OW32625   3.127   6.044   0.669
10395SOL    HW132626   3.086   6.130   0.678
10395SOL    HW232627   3.142   6.015   0.759
10396SOL     OW32628   3.432   5.772   0.879
10396SOL    HW132629   3.383   5.802   0.955
10396SOL    HW232630   3.438   5.849   0.822
10397SOL     OW32631   1.899   6.662   0.345
10397SOL    HW132632   1.991   6.666   0.317
10397SOL    HW232633   1.888   6.573   0.379
10398SOL     OW32634   2.740   7.242   0.361
10398SOL    HW132635   2.659   7.221   0.314
10398SOL    HW232636   2.717   7.316   0.417
10399SOL     OW32637   2.082   6.181   1.990
10399SOL    HW132638   1.998   6.174   2.034
10399SOL    HW232639   2.061   6.170   1.897
10400SOL     OW32640   2.083   5.872   2.853
10400SOL    HW132641   2.113   5.839   2.937
10400SOL    HW232642   1.994   5.838   2.845
10401SOL     OW32643   1.856   5.972   2.504
10401SOL    HW132644   1.779   6.003   2.552
10401SOL    HW232645   1.825   5.895   2.455
10402SOL     OW32646   2.433   6.888   3.055
10402SOL    HW132647   2.347   6.891   3.013
10402SOL    HW232648   2.449   6.978   3.084
10403SOL     OW32649   3.440   7.110   2.568
10403SOL    HW132650   3.393   7.085   2.648
10403SOL    HW232651   3.374   7.106   2.499
10404SOL     OW32652   2.995   6.285   2.551
10404SOL    HW132653   3.042   6.368   2.543
10404SOL    HW232654   2.947   6.292   2.633
10405SOL     OW32655   3.656   6.175   2.082
10405SOL    HW132656   3.621   6.171   1.993
10405SOL    HW232657   3.611   6.105   2.129
10406SOL     OW32658   2.598   6.719   2.913
10406SOL    HW132659   2.535   6.758   2.973
10406SOL    HW232660   2.644   6.794   2.874
10407SOL     OW32661   2.745   6.338   3.693
10407SOL    HW132662   2.731   6.406   3.759
10407SOL    HW232663   2.763   6.386   3.613
10408SOL     OW32664   2.551   6.583   2.500
10408SOL    HW132665   2.616   6.576   2.570
10408SOL    HW232666   2.482   6.637   2.538
10409SOL     OW32667   2.576   6.733   3.684
10409SOL    HW132668   2.623   6.809   3.717
10409SOL    HW232669   2.497   6.770   3.644
10410SOL     OW32670   2.196   6.997   2.928
10410SOL    HW132671   2.120   6.955   2.887
10410SOL    HW232672   2.236   7.048   2.858
10411SOL     OW32673   3.318   7.085   3.232
10411SOL    HW132674   3.370   7.165   3.244
10411SOL    HW232675   3.247   7.094   3.295
10412SOL     OW32676   2.316   5.969   3.330
10412SOL    HW132677   2.395   5.917   3.343
10412SOL    HW232678   2.245   5.913   3.362
10413SOL     OW32679   3.457   6.023   2.612
10413SOL    HW132680   3.382   6.036   2.554
10413SOL    HW232681   3.446   6.089   2.681
10414SOL     OW32682   2.073   7.313   2.329
10414SOL    HW132683   2.099   7.385   2.387
10414SOL    HW232684   2.150   7.299   2.273
10415SOL     OW32685   2.997   6.928   3.559
10415SOL    HW132686   3.038   6.920   3.645
10415SOL    HW232687   2.945   6.848   3.549
10416SOL     OW32688   2.105   7.031   2.391
10416SOL    HW132689   2.070   7.119   2.406
10416SOL    HW232690   2.056   6.976   2.452
10417SOL     OW32691   2.142   6.679   2.754
10417SOL    HW132692   2.136   6.589   2.786
10417SOL    HW232693   2.078   6.728   2.807
10418SOL     OW32694   2.452   7.381   3.281
10418SOL    HW132695   2.374   7.360   3.333
10418SOL    HW232696   2.480   7.466   3.313
10419SOL     OW32697   2.447   6.567   1.985
10419SOL    HW132698   2.503   6.613   1.923
10419SOL    HW232699   2.475   6.598   2.071
10420SOL     OW32700   3.455   5.722   3.318
10420SOL    HW132701   3.461   5.812   3.288
10420SOL    HW232702   3.437   5.728   3.411
10421SOL     OW32703   1.988   6.234   2.426
10421SOL    HW132704   1.957   6.148   2.453
10421SOL    HW232705   1.979   6.288   2.505
10422SOL     OW32706   3.702   7.332   2.189
10422SOL    HW132707   3.770   7.307   2.251
10422SOL    HW232708   3.719   7.424   2.170
10423SOL     OW32709   1.909   7.193   1.960
10423SOL    HW132710   1.892   7.100   1.979
10423SOL    HW232711   1.882   7.239   2.039
10424SOL     OW32712   3.547   6.500   2.502
10424SOL    HW132713   3.634   6.461   2.488
10424SOL    HW232714   3.532   6.554   2.425
10425SOL     OW32715   3.517   6.690   2.291
10425SOL    HW132716   3.604   6.687   2.250
10425SOL    HW232717   3.526   6.756   2.361
10426SOL     OW32718   1.989   6.331   3.445
10426SOL    HW132719   2.079   6.364   3.447
10426SOL    HW232720   1.934   6.410   3.439
10427SOL     OW32721   2.488   6.978   2.597
10427SOL    HW132722   2.443   6.894   2.605
10427SOL    HW232723   2.472   7.006   2.507
10428SOL     OW32724   3.142   6.818   3.280
10428SOL    HW132725   3.171   6.749   3.220
10428SOL    HW232726   3.201   6.813   3.354
10429SOL     OW32727   2.684   5.594   2.365
10429SOL    HW132728   2.725   5.679   2.349
10429SOL    HW232729   2.591   5.613   2.374
10430SOL     OW32730   2.049   6.542   3.153
10430SOL    HW132731   2.134   6.504   3.135
10430SOL    HW232732   1.990   6.500   3.090
10431SOL     OW32733   3.395   6.592   2.062
10431SOL    HW132734   3.326   6.534   2.095
10431SOL    HW232735   3.439   6.623   2.141
10432SOL     OW32736   3.050   7.399   3.495
10432SOL    HW132737   3.053   7.461   3.422
10432SOL    HW232738   3.066   7.314   3.455
10433SOL     OW32739   2.208   5.856   3.680
10433SOL    HW132740   2.256   5.922   3.732
10433SOL    HW232741   2.122   5.850   3.722
10434SOL     OW32742   3.291   7.018   2.779
10434SOL    HW132743   3.248   7.031   2.864
10434SOL    HW232744   3.296   6.923   2.769
10435SOL     OW32745   3.491   7.362   2.432
10435SOL    HW132746   3.483   7.314   2.350
10435SOL    HW232747   3.491   7.294   2.500
10436SOL     OW32748   2.451   6.296   2.137
10436SOL    HW132749   2.448   6.381   2.093
10436SOL    HW232750   2.386   6.303   2.207
10437SOL     OW32751   3.142   5.959   2.796
10437SOL    HW132752   3.053   5.925   2.806
10437SOL    HW232753   3.196   5.905   2.853
10438SOL     OW32754   3.435   7.265   2.171
10438SOL    HW132755   3.529   7.280   2.167
10438SOL    HW232756   3.409   7.246   2.081
10439SOL     OW32757   2.649   6.204   3.305
10439SOL    HW132758   2.628   6.175   3.394
10439SOL    HW232759   2.622   6.131   3.249
10440SOL     OW32760   3.266   6.053   3.543
10440SOL    HW132761   3.267   6.092   3.630
10440SOL    HW232762   3.309   5.969   3.553
10441SOL     OW32763   2.811   6.467   3.453
10441SOL    HW132764   2.865   6.399   3.413
10441SOL    HW232765   2.760   6.503   3.381
10442SOL     OW32766   2.863   5.999   3.084
10442SOL    HW132767   2.773   6.011   3.115
10442SOL    HW232768   2.855   5.939   3.010
10443SOL     OW32769   2.917   6.286   2.282
10443SOL    HW132770   2.937   6.282   2.376
10443SOL    HW232771   2.832   6.242   2.274
10444SOL     OW32772   1.953   6.402   2.642
10444SOL    HW132773   2.032   6.399   2.695
10444SOL    HW232774   1.906   6.479   2.672
10445SOL     OW32775   1.984   7.458   3.443
10445SOL    HW132776   1.989   7.439   3.537
10445SOL    HW232777   1.902   7.418   3.416
10446SOL     OW32778   2.762   5.933   2.057
10446SOL    HW132779   2.801   5.997   1.998
10446SOL    HW232780   2.781   5.848   2.016
10447SOL     OW32781   3.609   6.167   3.679
10447SOL    HW132782   3.555   6.237   3.644
10447SOL    HW232783   3.602   6.097   3.614
10448SOL     OW32784   3.250   6.728   2.402
10448SOL    HW132785   3.332   6.718   2.353
10448SOL    HW232786   3.198   6.789   2.350
10449SOL     OW32787   2.415   5.768   2.769
10449SOL    HW132788   2.419   5.789   2.863
10449SOL    HW232789   2.414   5.853   2.726
10450SOL     OW32790   2.861   7.030   2.329
10450SOL    HW132791   2.835   7.108   2.280
10450SOL    HW232792   2.838   7.049   2.419
10451SOL     OW32793   2.212   7.397   2.732
10451SOL    HW132794   2.254   7.311   2.737
10451SOL    HW232795   2.279   7.458   2.762
10452SOL     OW32796   3.667   6.623   2.727
10452SOL    HW132797   3.601   6.607   2.659
10452SOL    HW232798   3.616   6.646   2.804
10453SOL     OW32799   3.084   7.125   3.378
10453SOL    HW132800   3.071   7.055   3.442
10453SOL    HW232801   3.018   7.110   3.311
10454SOL     OW32802   2.206   6.527   2.147
10454SOL    HW132803   2.255   6.532   2.065
10454SOL    HW232804   2.115   6.539   2.122
10455SOL     OW32805   3.339   6.337   2.578
10455SOL    HW132806   3.342   6.296   2.664
10455SOL    HW232807   3.419   6.391   2.575
10456SOL     OW32808   2.337   6.859   3.599
10456SOL    HW132809   2.311   6.864   3.507
10456SOL    HW232810   2.255   6.853   3.647
10457SOL     OW32811   2.986   7.374   2.080
10457SOL    HW132812   2.914   7.334   2.128
10457SOL    HW232813   3.013   7.308   2.016
10458SOL     OW32814   2.061   5.842   3.364
10458SOL    HW132815   1.991   5.897   3.400
10458SOL    HW232816   2.043   5.755   3.399
10459SOL     OW32817   3.485   6.973   1.950
10459SOL    HW132818   3.441   7.056   1.936
10459SOL    HW232819   3.419   6.907   1.929
10460SOL     OW32820   2.311   7.329   2.170
10460SOL    HW132821   2.358   7.370   2.243
10460SOL    HW232822   2.378   7.279   2.124
10461SOL     OW32823   3.265   5.698   2.311
10461SOL    HW132824   3.263   5.671   2.220
10461SOL    HW232825   3.358   5.705   2.332
10462SOL     OW32826   2.120   7.375   3.087
10462SOL    HW132827   2.166   7.303   3.129
10462SOL    HW232828   2.106   7.345   2.997
10463SOL     OW32829   2.807   7.285   2.755
10463SOL    HW132830   2.889   7.240   2.775
10463SOL    HW232831   2.767   7.231   2.687
10464SOL     OW32832   2.269   6.269   2.344
10464SOL    HW132833   2.277   6.175   2.358
10464SOL    HW232834   2.175   6.286   2.351
10465SOL     OW32835   3.396   5.799   3.594
10465SOL    HW132836   3.398   5.829   3.685
10465SOL    HW232837   3.356   5.712   3.599
10466SOL     OW32838   2.511   5.701   1.962
10466SOL    HW132839   2.563   5.627   1.992
10466SOL    HW232840   2.457   5.666   1.891
10467SOL     OW32841   2.620   5.865   3.622
10467SOL    HW132842   2.703   5.818   3.612
10467SOL    HW232843   2.577   5.823   3.696
10468SOL     OW32844   2.739   7.116   3.060
10468SOL    HW132845   2.719   7.074   2.976
10468SOL    HW232846   2.805   7.060   3.099
10469SOL     OW32847   3.200   6.176   3.303
10469SOL    HW132848   3.234   6.141   3.386
10469SOL    HW232849   3.240   6.262   3.295
10470SOL     OW32850   2.680   6.973   2.819
10470SOL    HW132851   2.765   6.960   2.777
10470SOL    HW232852   2.617   6.973   2.747
10471SOL     OW32853   2.795   6.099   2.759
10471SOL    HW132854   2.769   6.085   2.668
10471SOL    HW232855   2.822   6.012   2.790
10472SOL     OW32856   2.414   5.647   2.352
10472SOL    HW132857   2.340   5.648   2.413
10472SOL    HW232858   2.400   5.724   2.296
10473SOL     OW32859   3.289   6.786   1.898
10473SOL    HW132860   3.323   6.713   1.950
10473SOL    HW232861   3.204   6.807   1.937
10474SOL     OW32862   2.155   5.635   2.053
10474SOL    HW132863   2.214   5.711   2.053
10474SOL    HW232864   2.206   5.566   2.095
10475SOL     OW32865   2.806   5.839   2.316
10475SOL    HW132866   2.783   5.878   2.231
10475SOL    HW232867   2.900   5.854   2.325
10476SOL     OW32868   2.942   6.271   3.316
10476SOL    HW132869   2.880   6.199   3.327
10476SOL    HW232870   3.028   6.229   3.315
10477SOL     OW32871   3.071   7.153   2.655
10477SOL    HW132872   3.100   7.221   2.595
10477SOL    HW232873   3.151   7.126   2.701
10478SOL     OW32874   2.342   6.747   2.584
10478SOL    HW132875   2.278   6.724   2.652
10478SOL    HW232876   2.296   6.733   2.502
10479SOL     OW32877   3.125   7.374   2.471
10479SOL    HW132878   3.173   7.441   2.423
10479SOL    HW232879   3.054   7.422   2.514
10480SOL     OW32880   2.890   6.111   1.889
10480SOL    HW132881   2.845   6.194   1.873
10480SOL    HW232882   2.952   6.130   1.960
10481SOL     OW32883   1.949   6.145   3.251
10481SOL    HW132884   2.042   6.139   3.226
10481SOL    HW232885   1.947   6.212   3.319
10482SOL     OW32886   2.421   5.807   3.044
10482SOL    HW132887   2.460   5.738   3.097
10482SOL    HW232888   2.329   5.807   3.070
10483SOL     OW32889   2.729   6.043   2.500
10483SOL    HW132890   2.683   6.100   2.438
10483SOL    HW232891   2.751   5.965   2.449
10484SOL     OW32892   2.889   5.634   2.604
10484SOL    HW132893   2.825   5.627   2.533
10484SOL    HW232894   2.865   5.565   2.665
10485SOL     OW32895   3.302   6.744   2.723
10485SOL    HW132896   3.239   6.673   2.734
10485SOL    HW232897   3.317   6.747   2.628
10486SOL     OW32898   3.326   6.194   2.820
10486SOL    HW132899   3.264   6.122   2.829
10486SOL    HW232900   3.382   6.188   2.898
10487SOL     OW32901   3.700   6.392   2.244
10487SOL    HW132902   3.758   6.346   2.304
10487SOL    HW232903   3.680   6.327   2.176
10488SOL     OW32904   2.354   7.014   2.017
10488SOL    HW132905   2.277   6.982   2.064
10488SOL    HW232906   2.365   6.951   1.945
10489SOL     OW32907   3.551   6.859   2.494
10489SOL    HW132908   3.644   6.852   2.516
10489SOL    HW232909   3.525   6.945   2.528
10490SOL     OW32910   3.253   6.161   1.933
10490SOL    HW132911   3.192   6.137   2.003
10490SOL    HW232912   3.339   6.135   1.966
10491SOL     OW32913   2.369   5.837   2.159
10491SOL    HW132914   2.432   5.801   2.097
10491SOL    HW232915   2.350   5.925   2.125
10492SOL     OW32916   3.608   6.826   3.414
10492SOL    HW132917   3.695   6.788   3.400
10492SOL    HW232918   3.625   6.914   3.446
10493SOL     OW32919   2.911   6.940   3.194
10493SOL    HW132920   2.834   6.907   3.240
10493SOL    HW232921   2.985   6.896   3.235
10494SOL     OW32922   3.474   7.206   3.535
10494SOL    HW132923   3.460   7.245   3.449
10494SOL    HW232924   3.556   7.157   3.526
10495SOL     OW32925   3.001   6.805   2.964
10495SOL    HW132926   2.941   6.842   3.028
10495SOL    HW232927   2.971   6.839   2.880
10496SOL     OW32928   3.487   6.678   2.936
10496SOL    HW132929   3.482   6.742   3.006
10496SOL    HW232930   3.419   6.704   2.874
10497SOL     OW32931   2.780   5.684   3.250
10497SOL    HW132932   2.808   5.664   3.161
10497SOL    HW232933   2.858   5.719   3.292
10498SOL     OW32934   2.845   6.700   3.584
10498SOL    HW132935   2.754   6.716   3.612
10498SOL    HW232936   2.841   6.620   3.532
10499SOL     OW32937   2.577   6.653   2.225
10499SOL    HW132938   2.558   6.629   2.315
10499SOL    HW232939   2.649   6.595   2.199
10500SOL     OW32940   2.285   6.405   3.115
10500SOL    HW132941   2.352   6.415   3.183
10500SOL    HW232942   2.252   6.316   3.127
10501SOL     OW32943   3.130   5.971   3.137
10501SOL    HW132944   3.159   6.046   3.190
10501SOL    HW232945   3.039   5.990   3.117
10502SOL     OW32946   1.937   7.159   3.225
10502SOL    HW132947   1.907   7.230   3.167
10502SOL    HW232948   2.032   7.158   3.213
10503SOL     OW32949   2.204   6.705   2.354
10503SOL    HW132950   2.179   6.768   2.286
10503SOL    HW232951   2.214   6.622   2.307
10504SOL     OW32952   2.404   6.107   2.718
10504SOL    HW132953   2.420   6.166   2.644
10504SOL    HW232954   2.469   6.132   2.783
10505SOL     OW32955   3.111   6.936   2.252
10505SOL    HW132956   3.166   7.006   2.287
10505SOL    HW232957   3.024   6.955   2.287
10506SOL     OW32958   3.158   7.050   3.014
10506SOL    HW132959   3.214   7.058   3.091
10506SOL    HW232960   3.106   6.971   3.030
10507SOL     OW32961   3.434   6.208   2.344
10507SOL    HW132962   3.384   6.244   2.417
10507SOL    HW232963   3.484   6.283   2.310
10508SOL     OW32964   2.206   7.118   3.168
10508SOL    HW132965   2.195   7.069   3.086
10508SOL    HW232966   2.300   7.129   3.177
10509SOL     OW32967   2.284   6.328   3.471
10509SOL    HW132968   2.346   6.371   3.411
10509SOL    HW232969   2.325   6.244   3.491
10510SOL     OW32970   3.479   6.373   3.558
10510SOL    HW132971   3.390   6.407   3.551
10510SOL    HW232972   3.526   6.410   3.483
10511SOL     OW32973   2.852   5.728   3.600
10511SOL    HW132974   2.920   5.794   3.587
10511SOL    HW232975   2.895   5.645   3.580
10512SOL     OW32976   2.368   5.637   3.608
10512SOL    HW132977   2.321   5.575   3.552
10512SOL    HW232978   2.308   5.710   3.619
10513SOL     OW32979   2.448   6.460   2.896
10513SOL    HW132980   2.485   6.548   2.903
10513SOL    HW232981   2.392   6.452   2.973
10514SOL     OW32982   3.194   6.443   2.871
10514SOL    HW132983   3.104   6.418   2.847
10514SOL    HW232984   3.244   6.362   2.860
10515SOL     OW32985   3.055   6.111   2.120
10515SOL    HW132986   3.067   6.035   2.177
10515SOL    HW232987   3.015   6.177   2.177
10516SOL     OW32988   2.152   5.787   3.106
10516SOL    HW132989   2.123   5.815   3.192
10516SOL    HW232990   2.133   5.693   3.103
10517SOL     OW32991   1.932   6.899   3.127
10517SOL    HW132992   1.952   6.840   3.200
10517SOL    HW232993   1.920   6.984   3.168
10518SOL     OW32994   2.575   6.208   2.906
10518SOL    HW132995   2.655   6.198   2.855
10518SOL    HW232996   2.549   6.299   2.892
10519SOL     OW32997   3.601   6.552   3.728
10519SOL    HW132998   3.557   6.485   3.675
10519SOL    HW232999   3.540   6.570   3.800
10520SOL     OW33000   2.174   5.643   2.491
10520SOL    HW133001   2.148   5.732   2.511
10520SOL    HW233002   2.185   5.600   2.576
10521SOL     OW33003   3.492   5.974   2.214
10521SOL    HW133004   3.513   5.905   2.276
10521SOL    HW233005   3.464   6.048   2.268
10522SOL     OW33006   2.895   6.345   2.823
10522SOL    HW133007   2.879   6.361   2.916
10522SOL    HW233008   2.867   6.255   2.809
10523SOL     OW33009   2.842   7.154   3.588
10523SOL    HW133010   2.824   7.196   3.504
10523SOL    HW233011   2.881   7.070   3.565
10524SOL     OW33012   3.714   7.077   3.474
10524SOL    HW133013   3.729   7.105   3.384
10524SOL    HW233014   3.796   7.095   3.519
10525SOL     OW33015   2.215   6.506   3.669
10525SOL    HW133016   2.292   6.521   3.725
10525SOL    HW233017   2.244   6.441   3.606
10526SOL     OW33018   3.388   5.860   1.985
10526SOL    HW133019   3.328   5.793   2.018
10526SOL    HW233020   3.426   5.900   2.063
10527SOL     OW33021   3.139   6.408   1.885
10527SOL    HW133022   3.182   6.323   1.894
10527SOL    HW233023   3.176   6.445   1.805
10528SOL     OW33024   2.925   6.925   2.720
10528SOL    HW133025   2.935   6.852   2.659
10528SOL    HW233026   2.980   6.994   2.685
10529SOL     OW33027   2.173   6.399   2.808
10529SOL    HW133028   2.267   6.417   2.806
10529SOL    HW233029   2.167   6.308   2.838
10530SOL     OW33030   2.181   6.121   2.870
10530SOL    HW133031   2.145   6.033   2.861
10530SOL    HW233032   2.259   6.121   2.815
10531SOL     OW33033   2.999   5.968   3.535
10531SOL    HW133034   2.953   6.014   3.605
10531SOL    HW233035   3.089   6.003   3.539
10532SOL     OW33036   3.022   5.792   3.324
10532SOL    HW133037   3.011   5.851   3.398
10532SOL    HW233038   3.069   5.845   3.258
10533SOL     OW33039   1.843   6.939   2.025
10533SOL    HW133040   1.760   6.941   1.979
10533SOL    HW233041   1.851   6.849   2.057
10534SOL     OW33042   1.947   7.362   2.804
10534SOL    HW133043   1.916   7.285   2.758
10534SOL    HW233044   2.037   7.375   2.772
10535SOL     OW33045   2.351   7.160   2.760
10535SOL    HW133046   2.419   7.223   2.782
10535SOL    HW233047   2.395   7.095   2.706
10536SOL     OW33048   2.823   6.370   3.086
10536SOL    HW133049   2.886   6.351   3.156
10536SOL    HW233050   2.743   6.325   3.113
10537SOL     OW33051   1.900   6.141   2.978
10537SOL    HW133052   1.982   6.139   2.929
10537SOL    HW233053   1.927   6.142   3.069
10538SOL     OW33054   2.047   6.115   3.608
10538SOL    HW133055   2.114   6.069   3.558
10538SOL    HW233056   2.020   6.187   3.550
10539SOL     OW33057   3.245   6.512   3.519
10539SOL    HW133058   3.263   6.606   3.514
10539SOL    HW233059   3.240   6.484   3.428
10540SOL     OW33060   2.679   6.158   2.229
10540SOL    HW133061   2.681   6.083   2.170
10540SOL    HW233062   2.602   6.208   2.202
10541SOL     OW33063   3.498   6.188   3.033
10541SOL    HW133064   3.490   6.127   3.106
10541SOL    HW233065   3.586   6.170   2.998
10542SOL     OW33066   2.099   7.130   3.585
10542SOL    HW133067   2.079   7.190   3.657
10542SOL    HW233068   2.109   7.045   3.627
10543SOL     OW33069   2.585   6.026   3.110
10543SOL    HW133070   2.526   5.953   3.093
10543SOL    HW233071   2.569   6.087   3.037
10544SOL     OW33072   2.776   7.263   3.340
10544SOL    HW133073   2.754   7.220   3.257
10544SOL    HW233074   2.772   7.356   3.320
10545SOL     OW33075   2.324   6.072   2.031
10545SOL    HW133076   2.379   6.144   2.063
10545SOL    HW233077   2.236   6.111   2.024
10546SOL     OW33078   2.001   6.731   3.340
10546SOL    HW133079   2.005   6.689   3.426
10546SOL    HW233080   2.019   6.660   3.278
10547SOL     OW33081   3.176   6.624   3.077
10547SOL    HW133082   3.195   6.562   3.006
10547SOL    HW233083   3.114   6.686   3.038
10548SOL     OW33084   3.182   6.447   2.160
10548SOL    HW133085   3.115   6.412   2.218
10548SOL    HW233086   3.149   6.429   2.072
10549SOL     OW33087   3.110   7.321   2.957
10549SOL    HW133088   3.197   7.346   2.928
10549SOL    HW233089   3.118   7.228   2.980
10550SOL     OW33090   1.953   6.854   2.862
10550SOL    HW133091   1.939   6.869   2.956
10550SOL    HW233092   1.882   6.796   2.836
10551SOL     OW33093   2.544   7.262   3.606
10551SOL    HW133094   2.484   7.335   3.596
10551SOL    HW233095   2.617   7.282   3.547
10552SOL     OW33096   3.570   5.742   2.357
10552SOL    HW133097   3.644   5.728   2.298
10552SOL    HW233098   3.560   5.658   2.403
10553SOL     OW33099   3.255   7.152   2.353
10553SOL    HW133100   3.312   7.189   2.286
10553SOL    HW233101   3.205   7.227   2.386
10554SOL     OW33102   2.004   7.387   3.703
10554SOL    HW133103   1.956   7.317   3.748
10554SOL    HW233104   2.052   7.432   3.772
10555SOL     OW33105   3.139   6.516   2.530
10555SOL    HW133106   3.211   6.456   2.544
10555SOL    HW233107   3.177   6.587   2.478
10556SOL     OW33108   2.656   6.865   3.277
10556SOL    HW133109   2.631   6.909   3.357
10556SOL    HW233110   2.580   6.874   3.219
10557SOL     OW33111   2.529   7.222   2.018
10557SOL    HW133112   2.545   7.232   1.924
10557SOL    HW233113   2.477   7.142   2.025
10558SOL     OW33114   3.460   7.316   3.283
10558SOL    HW133115   3.517   7.313   3.206
10558SOL    HW233116   3.444   7.410   3.297
10559SOL     OW33117   3.709   5.748   2.823
10559SOL    HW133118   3.739   5.660   2.801
10559SOL    HW233119   3.620   5.752   2.790
10560SOL     OW33120   2.113   5.893   2.575
10560SOL    HW133121   2.027   5.930   2.554
10560SOL    HW233122   2.117   5.891   2.670
10561SOL     OW33123   3.067   7.183   1.899
10561SOL    HW133124   3.056   7.092   1.929
10561SOL    HW233125   2.999   7.194   1.833
10562SOL     OW33126   2.685   6.592   3.244
10562SOL    HW133127   2.730   6.580   3.160
10562SOL    HW233128   2.680   6.687   3.254
10563SOL     OW33129   2.779   6.494   2.140
10563SOL    HW133130   2.845   6.533   2.082
10563SOL    HW233131   2.829   6.430   2.191
10564SOL     OW33132   3.342   7.232   1.909
10564SOL    HW133133   3.250   7.212   1.892
10564SOL    HW233134   3.383   7.232   1.822
10565SOL     OW33135   2.228   6.894   3.355
10565SOL    HW133136   2.214   6.970   3.298
10565SOL    HW233137   2.152   6.839   3.341
10566SOL     OW33138   3.469   6.868   3.145
10566SOL    HW133139   3.522   6.848   3.222
10566SOL    HW233140   3.409   6.937   3.174
10567SOL     OW33141   2.929   6.698   2.574
10567SOL    HW133142   2.857   6.648   2.612
10567SOL    HW233143   2.995   6.632   2.553
10568SOL     OW33144   2.891   5.827   2.826
10568SOL    HW133145   2.890   5.781   2.742
10568SOL    HW233146   2.886   5.758   2.892
10569SOL     OW33147   2.472   7.076   2.337
10569SOL    HW133148   2.523   7.025   2.274
10569SOL    HW233149   2.381   7.068   2.306
10570SOL     OW33150   3.585   5.987   3.236
10570SOL    HW133151   3.659   6.047   3.234
10570SOL    HW233152   3.613   5.913   3.181
10571SOL     OW33153   2.123   6.921   2.146
10571SOL    HW133154   2.042   6.870   2.144
10571SOL    HW233155   2.119   6.969   2.229
10572SOL     OW33156   1.985   6.635   3.600
10572SOL    HW133157   1.909   6.598   3.646
10572SOL    HW233158   2.059   6.585   3.633
10573SOL     OW33159   2.541   5.787   3.359
10573SOL    HW133160   2.626   5.760   3.323
10573SOL    HW233161   2.561   5.811   3.450
10574SOL     OW33162   1.953   5.894   1.876
10574SOL    HW133163   1.863   5.903   1.905
10574SOL    HW233164   1.971   5.975   1.828
10575SOL     OW33165   3.286   6.443   3.257
10575SOL    HW133166   3.234   6.502   3.203
10575SOL    HW233167   3.373   6.445   3.218
10576SOL     OW33168   1.917   5.733   2.162
10576SOL    HW133169   1.912   5.823   2.129
10576SOL    HW233170   2.001   5.701   2.129
10577SOL     OW33171   3.041   6.914   1.984
10577SOL    HW133172   2.963   6.859   1.989
10577SOL    HW233173   3.072   6.921   2.075
10578SOL     OW33174   2.482   6.417   3.299
10578SOL    HW133175   2.541   6.492   3.287
10578SOL    HW233176   2.539   6.341   3.304
10579SOL     OW33177   3.371   7.380   2.877
10579SOL    HW133178   3.404   7.427   2.800
10579SOL    HW233179   3.450   7.355   2.925
10580SOL     OW33180   2.582   6.138   3.559
10580SOL    HW133181   2.630   6.191   3.623
10580SOL    HW233182   2.594   6.048   3.589
10581SOL     OW33183   3.333   6.775   3.488
10581SOL    HW133184   3.323   6.792   3.581
10581SOL    HW233185   3.425   6.796   3.469
10582SOL     OW33186   2.226   7.325   3.428
10582SOL    HW133187   2.144   7.373   3.414
10582SOL    HW233188   2.200   7.243   3.469
10583SOL     OW33189   3.523   6.461   3.111
10583SOL    HW133190   3.517   6.377   3.067
10583SOL    HW233191   3.514   6.526   3.041
10584SOL     OW33192   3.079   5.908   2.316
10584SOL    HW133193   3.139   5.833   2.314
10584SOL    HW233194   3.106   5.959   2.393
10585SOL     OW33195   2.457   6.315   2.538
10585SOL    HW133196   2.494   6.402   2.522
10585SOL    HW233197   2.391   6.304   2.469
10586SOL     OW33198   3.619   5.960   3.506
10586SOL    HW133199   3.597   5.969   3.414
10586SOL    HW233200   3.563   5.890   3.538
10587SOL     OW33201   3.609   6.509   3.364
10587SOL    HW133202   3.600   6.603   3.375
10587SOL    HW233203   3.590   6.493   3.272
10588SOL     OW33204   2.703   6.956   1.906
10588SOL    HW133205   2.685   6.967   2.000
10588SOL    HW233206   2.736   7.042   1.879
10589SOL     OW33207   2.524   7.372   2.782
10589SOL    HW133208   2.511   7.467   2.774
10589SOL    HW233209   2.619   7.362   2.790
10590SOL     OW33210   2.734   6.560   2.715
10590SOL    HW133211   2.783   6.487   2.752
10590SOL    HW233212   2.689   6.599   2.790
10591SOL     OW33213   2.949   6.593   1.951
10591SOL    HW133214   2.921   6.632   1.868
10591SOL    HW233215   3.016   6.529   1.925
10592SOL     OW33216   3.709   7.147   2.702
10592SOL    HW133217   3.629   7.139   2.651
10592SOL    HW233218   3.689   7.106   2.786
10593SOL     OW33219   2.085   6.876   3.707
10593SOL    HW133220   2.044   6.800   3.665
10593SOL    HW233221   2.037   6.889   3.788
10594SOL     OW33222   1.964   6.822   2.524
10594SOL    HW133223   1.972   6.786   2.612
10594SOL    HW233224   2.008   6.759   2.467
10595SOL     OW33225   2.550   7.001   3.489
10595SOL    HW133226   2.475   6.956   3.528
10595SOL    HW233227   2.550   7.088   3.530
10596SOL     OW33228   3.681   5.781   3.095
10596SOL    HW133229   3.673   5.690   3.124
10596SOL    HW233230   3.692   5.775   3.001
10597SOL     OW33231   2.288   6.006   2.388
10597SOL    HW133232   2.312   5.933   2.331
10597SOL    HW233233   2.237   5.966   2.458
10598SOL     OW33234   3.581   6.991   2.898
10598SOL    HW133235   3.498   7.038   2.889
10598SOL    HW233236   3.584   6.966   2.990
10599SOL     OW33237   2.203   6.145   3.155
10599SOL    HW133238   2.253   6.085   3.211
10599SOL    HW233239   2.218   6.113   3.066
10600SOL     OW33240   2.692   7.156   2.538
10600SOL    HW133241   2.648   7.199   2.465
10600SOL    HW233242   2.630   7.090   2.568
10601SOL     OW33243   3.291   5.818   2.977
10601SOL    HW133244   3.304   5.732   3.018
10601SOL    HW233245   3.242   5.869   3.042
10602SOL     OW33246   2.876   5.606   2.996
10602SOL    HW133247   2.814   5.536   2.975
10602SOL    HW233248   2.962   5.564   2.990
10603SOL     OW33249   2.645   6.921   2.181
10603SOL    HW133250   2.617   6.830   2.191
10603SOL    HW233251   2.723   6.928   2.235
10604SOL     OW33252   2.480   7.146   3.146
10604SOL    HW133253   2.477   7.228   3.194
10604SOL    HW233254   2.571   7.140   3.115
10605SOL     OW33255   3.228   5.637   2.041
10605SOL    HW133256   3.264   5.562   1.994
10605SOL    HW233257   3.137   5.613   2.058
10606SOL     OW33258   3.159   6.052   2.537
10606SOL    HW133259   3.107   6.132   2.540
10606SOL    HW233260   3.152   6.016   2.626
10607SOL     OW33261   3.447   5.774   2.751
10607SOL    HW133262   3.394   5.799   2.826
10607SOL    HW233263   3.446   5.851   2.694
10608SOL     OW33264   2.757   7.251   2.194
10608SOL    HW133265   2.680   7.232   2.141
10608SOL    HW233266   2.726   7.314   2.260
10609SOL     OW33267   2.080   6.228   3.859
10609SOL    HW133268   1.992   6.217   3.894
10609SOL    HW233269   2.073   6.202   3.767
10610SOL     OW33270   2.073   5.875   4.717
10610SOL    HW133271   2.107   5.835   4.798
10610SOL    HW233272   1.986   5.837   4.707
10611SOL     OW33273   1.868   5.987   4.355
10611SOL    HW133274   1.786   6.003   4.403
10611SOL    HW233275   1.856   5.900   4.317
10612SOL     OW33276   2.433   6.889   4.915
10612SOL    HW133277   2.347   6.895   4.875
10612SOL    HW233278   2.452   6.978   4.946
10613SOL     OW33279   3.394   7.115   4.444
10613SOL    HW133280   3.392   7.084   4.535
10613SOL    HW233281   3.302   7.126   4.421
10614SOL     OW33282   2.995   6.284   4.413
10614SOL    HW133283   3.040   6.368   4.409
10614SOL    HW233284   2.946   6.286   4.494
10615SOL     OW33285   3.655   6.183   3.946
10615SOL    HW133286   3.623   6.177   3.856
10615SOL    HW233287   3.610   6.113   3.992
10616SOL     OW33288   2.596   6.720   4.771
10616SOL    HW133289   2.536   6.759   4.834
10616SOL    HW233290   2.641   6.795   4.731
10617SOL     OW33291   2.743   6.339   5.553
10617SOL    HW133292   2.723   6.411   5.613
10617SOL    HW233293   2.763   6.383   5.470
10618SOL     OW33294   2.547   6.583   4.367
10618SOL    HW133295   2.614   6.574   4.435
10618SOL    HW233296   2.479   6.637   4.406
10619SOL     OW33297   2.594   6.730   5.551
10619SOL    HW133298   2.635   6.807   5.591
10619SOL    HW233299   2.515   6.764   5.510
10620SOL     OW33300   2.196   6.998   4.792
10620SOL    HW133301   2.119   6.960   4.748
10620SOL    HW233302   2.238   7.051   4.724
10621SOL     OW33303   3.320   7.091   5.088
10621SOL    HW133304   3.374   7.168   5.102
10621SOL    HW233305   3.249   7.099   5.150
10622SOL     OW33306   2.312   5.973   5.200
10622SOL    HW133307   2.391   5.920   5.209
10622SOL    HW233308   2.240   5.915   5.224
10623SOL     OW33309   3.454   6.036   4.471
10623SOL    HW133310   3.373   6.039   4.421
10623SOL    HW233311   3.437   6.090   4.548
10624SOL     OW33312   2.083   7.308   4.193
10624SOL    HW133313   2.105   7.382   4.250
10624SOL    HW233314   2.158   7.299   4.135
10625SOL     OW33315   2.998   6.928   5.417
10625SOL    HW133316   3.037   6.923   5.504
10625SOL    HW233317   2.947   6.848   5.409
10626SOL     OW33318   2.081   7.037   4.261
10626SOL    HW133319   2.072   7.133   4.260
10626SOL    HW233320   2.031   7.009   4.338
10627SOL     OW33321   2.124   6.672   4.604
10627SOL    HW133322   2.136   6.584   4.641
10627SOL    HW233323   2.079   6.721   4.674
10628SOL     OW33324   2.449   7.380   5.135
10628SOL    HW133325   2.374   7.360   5.191
10628SOL    HW233326   2.480   7.464   5.166
10629SOL     OW33327   2.431   6.575   3.870
10629SOL    HW133328   2.484   6.615   3.801
10629SOL    HW233329   2.472   6.604   3.951
10630SOL     OW33330   3.444   5.723   5.180
10630SOL    HW133331   3.479   5.804   5.143
10630SOL    HW233332   3.423   5.745   5.271
10631SOL     OW33333   1.966   6.253   4.282
10631SOL    HW133334   1.953   6.161   4.303
10631SOL    HW233335   1.971   6.297   4.367
10632SOL     OW33336   3.703   7.329   4.108
10632SOL    HW133337   3.787   7.310   4.151
10632SOL    HW233338   3.714   7.416   4.071
10633SOL     OW33339   1.909   7.175   3.839
10633SOL    HW133340   1.893   7.083   3.859
10633SOL    HW233341   1.882   7.222   3.918
10634SOL     OW33342   3.562   6.513   4.383
10634SOL    HW133343   3.645   6.465   4.376
10634SOL    HW233344   3.547   6.547   4.294
10635SOL     OW33345   3.520   6.695   4.152
10635SOL    HW133346   3.606   6.682   4.112
10635SOL    HW233347   3.532   6.773   4.207
10636SOL     OW33348   2.011   6.331   5.303
10636SOL    HW133349   2.106   6.338   5.306
10636SOL    HW233350   1.979   6.417   5.331
10637SOL     OW33351   2.482   6.980   4.457
10637SOL    HW133352   2.437   6.895   4.466
10637SOL    HW233353   2.466   7.006   4.366
10638SOL     OW33354   3.144   6.820   5.135
10638SOL    HW133355   3.178   6.750   5.079
10638SOL    HW233356   3.200   6.817   5.213
10639SOL     OW33357   2.694   5.608   4.230
10639SOL    HW133358   2.725   5.697   4.214
10639SOL    HW233359   2.599   5.617   4.241
10640SOL     OW33360   2.051   6.544   4.991
10640SOL    HW133361   2.140   6.509   4.985
10640SOL    HW233362   1.995   6.474   4.958
10641SOL     OW33363   3.397   6.592   3.925
10641SOL    HW133364   3.326   6.535   3.954
10641SOL    HW233365   3.439   6.622   4.006
10642SOL     OW33366   3.170   7.402   5.322
10642SOL    HW133367   3.093   7.456   5.305
10642SOL    HW233368   3.141   7.312   5.302
10643SOL     OW33369   2.215   5.860   5.554
10643SOL    HW133370   2.259   5.929   5.604
10643SOL    HW233371   2.128   5.854   5.593
10644SOL     OW33372   3.346   6.989   4.678
10644SOL    HW133373   3.277   7.010   4.741
10644SOL    HW233374   3.322   6.904   4.643
10645SOL     OW33375   2.452   6.292   3.990
10645SOL    HW133376   2.457   6.380   3.952
10645SOL    HW233377   2.389   6.301   4.062
10646SOL     OW33378   3.137   5.961   4.657
10646SOL    HW133379   3.049   5.923   4.665
10646SOL    HW233380   3.192   5.906   4.711
10647SOL     OW33381   3.450   7.241   4.017
10647SOL    HW133382   3.525   7.299   4.007
10647SOL    HW233383   3.412   7.236   3.930
10648SOL     OW33384   2.647   6.205   5.167
10648SOL    HW133385   2.626   6.175   5.255
10648SOL    HW233386   2.621   6.133   5.110
10649SOL     OW33387   3.277   6.051   5.408
10649SOL    HW133388   3.340   6.092   5.468
10649SOL    HW233389   3.302   5.959   5.406
10650SOL     OW33390   2.812   6.465   5.315
10650SOL    HW133391   2.864   6.397   5.273
10650SOL    HW233392   2.758   6.501   5.244
10651SOL     OW33393   2.861   6.000   4.943
10651SOL    HW133394   2.771   6.008   4.976
10651SOL    HW233395   2.857   5.933   4.876
10652SOL     OW33396   2.914   6.291   4.147
10652SOL    HW133397   2.936   6.282   4.240
10652SOL    HW233398   2.832   6.243   4.137
10653SOL     OW33399   1.947   6.424   4.506
10653SOL    HW133400   2.030   6.401   4.548
10653SOL    HW233401   1.918   6.503   4.551
10654SOL     OW33402   1.986   7.462   5.309
10654SOL    HW133403   1.993   7.443   5.402
10654SOL    HW233404   1.901   7.426   5.283
10655SOL     OW33405   2.756   5.936   3.921
10655SOL    HW133406   2.801   5.988   3.854
10655SOL    HW233407   2.751   5.848   3.884
10656SOL     OW33408   3.512   6.149   5.558
10656SOL    HW133409   3.510   6.229   5.506
10656SOL    HW233410   3.563   6.087   5.504
10657SOL     OW33411   3.256   6.737   4.274
10657SOL    HW133412   3.326   6.711   4.214
10657SOL    HW233413   3.196   6.789   4.220
10658SOL     OW33414   2.414   5.772   4.625
10658SOL    HW133415   2.420   5.788   4.719
10658SOL    HW233416   2.418   5.858   4.585
10659SOL     OW33417   2.860   7.034   4.189
10659SOL    HW133418   2.832   7.108   4.136
10659SOL    HW233419   2.829   7.055   4.278
10660SOL     OW33420   2.213   7.403   4.601
10660SOL    HW133421   2.259   7.319   4.604
10660SOL    HW233422   2.280   7.468   4.622
10661SOL     OW33423   3.656   6.668   4.595
10661SOL    HW133424   3.609   6.622   4.525
10661SOL    HW233425   3.597   6.667   4.669
10662SOL     OW33426   3.091   7.125   5.237
10662SOL    HW133427   3.076   7.052   5.298
10662SOL    HW233428   3.008   7.133   5.189
10663SOL     OW33429   2.163   6.544   3.980
10663SOL    HW133430   2.247   6.566   3.940
10663SOL    HW233431   2.144   6.456   3.947
10664SOL     OW33432   3.343   6.345   4.445
10664SOL    HW133433   3.339   6.291   4.525
10664SOL    HW233434   3.425   6.392   4.452
10665SOL     OW33435   2.367   6.844   5.454
10665SOL    HW133436   2.303   6.852   5.384
10665SOL    HW233437   2.324   6.881   5.531
10666SOL     OW33438   2.999   7.354   3.957
10666SOL    HW133439   2.916   7.325   3.995
10666SOL    HW233440   3.015   7.292   3.885
10667SOL     OW33441   2.062   5.843   5.222
10667SOL    HW133442   1.983   5.888   5.251
10667SOL    HW233443   2.049   5.752   5.248
10668SOL     OW33444   3.485   6.972   3.822
10668SOL    HW133445   3.445   7.056   3.797
10668SOL    HW233446   3.420   6.907   3.798
10669SOL     OW33447   2.322   7.321   4.042
10669SOL    HW133448   2.368   7.375   4.107
10669SOL    HW233449   2.392   7.285   3.987
10670SOL     OW33450   3.267   5.698   4.160
10670SOL    HW133451   3.263   5.666   4.070
10670SOL    HW233452   3.348   5.661   4.194
10671SOL     OW33453   2.109   7.372   4.956
10671SOL    HW133454   2.163   7.311   5.007
10671SOL    HW233455   2.124   7.348   4.865
10672SOL     OW33456   2.793   7.287   4.618
10672SOL    HW133457   2.850   7.230   4.670
10672SOL    HW233458   2.762   7.232   4.546
10673SOL     OW33459   2.257   6.282   4.190
10673SOL    HW133460   2.269   6.188   4.204
10673SOL    HW233461   2.164   6.296   4.208
10674SOL     OW33462   3.385   5.793   5.460
10674SOL    HW133463   3.385   5.822   5.552
10674SOL    HW233464   3.353   5.703   5.464
10675SOL     OW33465   2.512   5.698   3.829
10675SOL    HW133466   2.555   5.619   3.863
10675SOL    HW233467   2.462   5.667   3.754
10676SOL     OW33468   2.623   5.868   5.487
10676SOL    HW133469   2.706   5.821   5.476
10676SOL    HW233470   2.576   5.819   5.555
10677SOL     OW33471   2.741   7.113   4.911
10677SOL    HW133472   2.717   7.065   4.832
10677SOL    HW233473   2.804   7.056   4.955
10678SOL     OW33474   3.200   6.176   5.166
10678SOL    HW133475   3.237   6.140   5.246
10678SOL    HW233476   3.241   6.262   5.157
10679SOL     OW33477   2.685   6.971   4.672
10679SOL    HW133478   2.769   6.960   4.628
10679SOL    HW233479   2.622   6.978   4.600
10680SOL     OW33480   2.793   6.100   4.621
10680SOL    HW133481   2.768   6.086   4.530
10680SOL    HW233482   2.821   6.014   4.652
10681SOL     OW33483   2.419   5.653   4.217
10681SOL    HW133484   2.343   5.650   4.276
10681SOL    HW233485   2.401   5.727   4.159
10682SOL     OW33486   3.291   6.789   3.762
10682SOL    HW133487   3.320   6.713   3.813
10682SOL    HW233488   3.203   6.808   3.795
10683SOL     OW33489   2.158   5.636   3.916
10683SOL    HW133490   2.227   5.701   3.906
10683SOL    HW233491   2.200   5.562   3.961
10684SOL     OW33492   2.811   5.856   4.181
10684SOL    HW133493   2.792   5.884   4.091
10684SOL    HW233494   2.907   5.859   4.187
10685SOL     OW33495   2.942   6.270   5.175
10685SOL    HW133496   2.881   6.197   5.186
10685SOL    HW233497   3.029   6.229   5.175
10686SOL     OW33498   3.112   7.150   4.504
10686SOL    HW133499   3.103   7.230   4.452
10686SOL    HW233500   3.129   7.181   4.593
10687SOL     OW33501   2.332   6.745   4.443
10687SOL    HW133502   2.269   6.720   4.510
10687SOL    HW233503   2.285   6.734   4.360
10688SOL     OW33504   3.123   7.379   4.339
10688SOL    HW133505   3.171   7.445   4.289
10688SOL    HW233506   3.051   7.427   4.379
10689SOL     OW33507   2.893   6.110   3.749
10689SOL    HW133508   2.848   6.193   3.735
10689SOL    HW233509   2.950   6.125   3.824
10690SOL     OW33510   1.948   6.154   5.104
10690SOL    HW133511   2.040   6.139   5.083
10690SOL    HW233512   1.949   6.219   5.174
10691SOL     OW33513   2.424   5.808   4.900
10691SOL    HW133514   2.465   5.732   4.942
10691SOL    HW233515   2.332   5.803   4.926
10692SOL     OW33516   2.728   6.052   4.361
10692SOL    HW133517   2.687   6.104   4.292
10692SOL    HW233518   2.756   5.972   4.317
10693SOL     OW33519   2.870   5.642   4.462
10693SOL    HW133520   2.815   5.622   4.386
10693SOL    HW233521   2.855   5.569   4.522
10694SOL     OW33522   3.283   6.750   4.558
10694SOL    HW133523   3.233   6.675   4.589
10694SOL    HW233524   3.272   6.749   4.463
10695SOL     OW33525   3.329   6.191   4.684
10695SOL    HW133526   3.266   6.120   4.695
10695SOL    HW233527   3.387   6.183   4.760
10696SOL     OW33528   3.703   6.394   4.109
10696SOL    HW133529   3.756   6.346   4.173
10696SOL    HW233530   3.676   6.327   4.046
10697SOL     OW33531   2.352   7.009   3.875
10697SOL    HW133532   2.277   6.979   3.926
10697SOL    HW233533   2.352   6.953   3.797
10698SOL     OW33534   3.568   6.917   4.314
10698SOL    HW133535   3.655   6.886   4.340
10698SOL    HW233536   3.515   6.907   4.393
10699SOL     OW33537   3.256   6.139   3.803
10699SOL    HW133538   3.185   6.136   3.868
10699SOL    HW233539   3.313   6.066   3.827
10700SOL     OW33540   2.376   5.846   4.023
10700SOL    HW133541   2.438   5.803   3.964
10700SOL    HW233542   2.354   5.928   3.980
10701SOL     OW33543   3.604   6.827   5.281
10701SOL    HW133544   3.680   6.778   5.311
10701SOL    HW233545   3.623   6.918   5.304
10702SOL     OW33546   2.909   6.933   5.045
10702SOL    HW133547   2.834   6.904   5.096
10702SOL    HW233548   2.985   6.898   5.092
10703SOL     OW33549   3.476   7.217   5.392
10703SOL    HW133550   3.460   7.252   5.305
10703SOL    HW233551   3.554   7.163   5.382
10704SOL     OW33552   3.005   6.803   4.820
10704SOL    HW133553   2.948   6.838   4.888
10704SOL    HW233554   2.970   6.839   4.739
10705SOL     OW33555   3.489   6.686   4.810
10705SOL    HW133556   3.494   6.747   4.883
10705SOL    HW233557   3.396   6.686   4.785
10706SOL     OW33558   2.774   5.696   5.104
10706SOL    HW133559   2.798   5.662   5.018
10706SOL    HW233560   2.857   5.726   5.142
10707SOL     OW33561   2.849   6.700   5.443
10707SOL    HW133562   2.759   6.714   5.473
10707SOL    HW233563   2.845   6.619   5.393
10708SOL     OW33564   2.574   6.650   4.096
10708SOL    HW133565   2.561   6.628   4.188
10708SOL    HW233566   2.649   6.596   4.069
10709SOL     OW33567   2.286   6.403   4.976
10709SOL    HW133568   2.352   6.414   5.045
10709SOL    HW233569   2.255   6.313   4.987
10710SOL     OW33570   3.130   5.967   4.999
10710SOL    HW133571   3.159   6.042   5.051
10710SOL    HW233572   3.039   5.987   4.977
10711SOL     OW33573   1.944   7.158   5.085
10711SOL    HW133574   1.929   7.238   5.035
10711SOL    HW233575   2.039   7.146   5.083
10712SOL     OW33576   2.181   6.712   4.211
10712SOL    HW133577   2.186   6.784   4.148
10712SOL    HW233578   2.184   6.633   4.157
10713SOL     OW33579   2.400   6.113   4.578
10713SOL    HW133580   2.418   6.173   4.506
10713SOL    HW233581   2.466   6.133   4.643
10714SOL     OW33582   3.108   6.937   4.120
10714SOL    HW133583   3.159   7.011   4.153
10714SOL    HW233584   3.019   6.953   4.150
10715SOL     OW33585   3.161   7.046   4.870
10715SOL    HW133586   3.213   7.056   4.950
10715SOL    HW233587   3.106   6.970   4.887
10716SOL     OW33588   3.428   6.213   4.202
10716SOL    HW133589   3.379   6.239   4.280
10716SOL    HW233590   3.470   6.295   4.172
10717SOL     OW33591   2.209   7.111   5.036
10717SOL    HW133592   2.200   7.067   4.952
10717SOL    HW233593   2.303   7.124   5.047
10718SOL     OW33594   2.286   6.321   5.333
10718SOL    HW133595   2.349   6.365   5.276
10718SOL    HW233596   2.327   6.237   5.352
10719SOL     OW33597   3.474   6.377   5.415
10719SOL    HW133598   3.389   6.420   5.405
10719SOL    HW233599   3.528   6.415   5.346
10720SOL     OW33600   2.853   5.731   5.463
10720SOL    HW133601   2.923   5.794   5.443
10720SOL    HW233602   2.891   5.646   5.440
10721SOL     OW33603   2.365   5.634   5.473
10721SOL    HW133604   2.316   5.574   5.417
10721SOL    HW233605   2.307   5.709   5.486
10722SOL     OW33606   2.440   6.466   4.753
10722SOL    HW133607   2.484   6.550   4.766
10722SOL    HW233608   2.392   6.451   4.834
10723SOL     OW33609   3.196   6.441   4.731
10723SOL    HW133610   3.107   6.414   4.708
10723SOL    HW233611   3.248   6.360   4.724
10724SOL     OW33612   3.050   6.118   3.981
10724SOL    HW133613   3.066   6.041   4.035
10724SOL    HW233614   3.008   6.181   4.041
10725SOL     OW33615   2.157   5.783   4.962
10725SOL    HW133616   2.123   5.807   5.048
10725SOL    HW233617   2.151   5.687   4.960
10726SOL     OW33618   1.900   6.902   4.992
10726SOL    HW133619   1.930   6.841   5.060
10726SOL    HW233620   1.910   6.989   5.031
10727SOL     OW33621   2.576   6.207   4.764
10727SOL    HW133622   2.657   6.189   4.716
10727SOL    HW233623   2.557   6.299   4.746
10728SOL     OW33624   3.603   6.557   5.584
10728SOL    HW133625   3.563   6.485   5.535
10728SOL    HW233626   3.543   6.571   5.658
10729SOL     OW33627   2.175   5.654   4.350
10729SOL    HW133628   2.156   5.743   4.379
10729SOL    HW233629   2.189   5.605   4.432
10730SOL     OW33630   3.509   5.980   4.076
10730SOL    HW133631   3.529   5.908   4.136
10730SOL    HW233632   3.471   6.048   4.132
10731SOL     OW33633   2.893   6.346   4.686
10731SOL    HW133634   2.878   6.361   4.779
10731SOL    HW233635   2.867   6.255   4.672
10732SOL     OW33636   2.847   7.157   5.446
10732SOL    HW133637   2.831   7.196   5.360
10732SOL    HW233638   2.885   7.071   5.427
10733SOL     OW33639   3.709   7.080   5.328
10733SOL    HW133640   3.734   7.111   5.241
10733SOL    HW233641   3.787   7.092   5.382
10734SOL     OW33642   2.216   6.508   5.530
10734SOL    HW133643   2.292   6.531   5.583
10734SOL    HW233644   2.247   6.440   5.471
10735SOL     OW33645   3.376   5.887   3.852
10735SOL    HW133646   3.324   5.809   3.873
10735SOL    HW233647   3.423   5.907   3.933
10736SOL     OW33648   3.151   6.401   3.754
10736SOL    HW133649   3.192   6.315   3.761
10736SOL    HW233650   3.182   6.437   3.671
10737SOL     OW33651   2.934   6.933   4.572
10737SOL    HW133652   2.939   6.855   4.516
10737SOL    HW233653   3.000   6.992   4.536
10738SOL     OW33654   2.175   6.396   4.660
10738SOL    HW133655   2.269   6.416   4.668
10738SOL    HW233656   2.167   6.306   4.692
10739SOL     OW33657   2.173   6.122   4.723
10739SOL    HW133658   2.140   6.032   4.721
10739SOL    HW233659   2.253   6.120   4.671
10740SOL     OW33660   3.005   5.974   5.394
10740SOL    HW133661   2.955   6.018   5.464
10740SOL    HW233662   3.094   6.008   5.404
10741SOL     OW33663   3.020   5.792   5.186
10741SOL    HW133664   3.011   5.855   5.257
10741SOL    HW233665   3.070   5.838   5.119
10742SOL     OW33666   1.880   6.899   3.910
10742SOL    HW133667   1.791   6.922   3.882
10742SOL    HW233668   1.871   6.812   3.948
10743SOL     OW33669   1.945   7.365   4.658
10743SOL    HW133670   1.921   7.284   4.612
10743SOL    HW233671   2.037   7.379   4.634
10744SOL     OW33672   2.349   7.160   4.623
10744SOL    HW133673   2.417   7.223   4.646
10744SOL    HW233674   2.393   7.096   4.567
10745SOL     OW33675   2.822   6.372   4.949
10745SOL    HW133676   2.884   6.351   5.019
10745SOL    HW233677   2.743   6.324   4.973
10746SOL     OW33678   1.904   6.159   4.831
10746SOL    HW133679   1.986   6.143   4.786
10746SOL    HW233680   1.926   6.152   4.924
10747SOL     OW33681   2.042   6.106   5.463
10747SOL    HW133682   2.108   6.053   5.417
10747SOL    HW233683   2.024   6.179   5.403
10748SOL     OW33684   3.243   6.521   5.376
10748SOL    HW133685   3.263   6.615   5.370
10748SOL    HW233686   3.239   6.492   5.285
10749SOL     OW33687   2.682   6.158   4.088
10749SOL    HW133688   2.692   6.080   4.033
10749SOL    HW233689   2.604   6.202   4.054
10750SOL     OW33690   3.512   6.188   4.893
10750SOL    HW133691   3.504   6.124   4.964
10750SOL    HW233692   3.601   6.174   4.859
10751SOL     OW33693   2.093   7.138   5.437
10751SOL    HW133694   2.095   7.190   5.517
10751SOL    HW233695   2.100   7.047   5.466
10752SOL     OW33696   2.582   6.028   4.973
10752SOL    HW133697   2.527   5.951   4.956
10752SOL    HW233698   2.567   6.085   4.898
10753SOL     OW33699   2.799   7.260   5.192
10753SOL    HW133700   2.759   7.221   5.114
10753SOL    HW233701   2.787   7.354   5.181
10754SOL     OW33702   2.311   6.074   3.883
10754SOL    HW133703   2.378   6.136   3.910
10754SOL    HW233704   2.229   6.124   3.886
10755SOL     OW33705   1.990   6.724   5.185
10755SOL    HW133706   2.002   6.678   5.268
10755SOL    HW233707   2.017   6.661   5.119
10756SOL     OW33708   3.189   6.629   4.927
10756SOL    HW133709   3.195   6.559   4.861
10756SOL    HW233710   3.122   6.688   4.893
10757SOL     OW33711   3.180   6.457   4.027
10757SOL    HW133712   3.118   6.413   4.085
10757SOL    HW233713   3.153   6.431   3.939
10758SOL     OW33714   3.629   7.330   4.872
10758SOL    HW133715   3.693   7.349   4.804
10758SOL    HW233716   3.606   7.238   4.860
10759SOL     OW33717   3.097   7.304   4.791
10759SOL    HW133718   3.184   7.337   4.770
10759SOL    HW233719   3.114   7.219   4.832
10760SOL     OW33720   1.951   6.859   4.729
10760SOL    HW133721   1.930   6.871   4.821
10760SOL    HW233722   1.888   6.794   4.698
10761SOL     OW33723   2.548   7.261   5.472
10761SOL    HW133724   2.492   7.338   5.460
10761SOL    HW233725   2.630   7.286   5.430
10762SOL     OW33726   3.598   5.762   4.231
10762SOL    HW133727   3.662   5.730   4.167
10762SOL    HW233728   3.564   5.682   4.272
10763SOL     OW33729   3.244   7.173   4.199
10763SOL    HW133730   3.253   7.214   4.113
10763SOL    HW233731   3.191   7.234   4.249
10764SOL     OW33732   1.994   7.393   5.567
10764SOL    HW133733   1.949   7.319   5.608
10764SOL    HW233734   2.045   7.432   5.637
10765SOL     OW33735   3.138   6.516   4.394
10765SOL    HW133736   3.210   6.455   4.411
10765SOL    HW233737   3.178   6.585   4.340
10766SOL     OW33738   2.658   6.864   5.138
10766SOL    HW133739   2.637   6.910   5.219
10766SOL    HW233740   2.579   6.870   5.085
10767SOL     OW33741   2.528   7.216   3.880
10767SOL    HW133742   2.542   7.231   3.786
10767SOL    HW233743   2.473   7.137   3.884
10768SOL     OW33744   3.482   7.313   5.118
10768SOL    HW133745   3.532   7.320   5.037
10768SOL    HW233746   3.464   7.404   5.144
10769SOL     OW33747   3.707   5.758   4.692
10769SOL    HW133748   3.737   5.668   4.678
10769SOL    HW233749   3.620   5.760   4.651
10770SOL     OW33750   2.123   5.905   4.444
10770SOL    HW133751   2.037   5.943   4.426
10770SOL    HW233752   2.125   5.892   4.539
10771SOL     OW33753   3.066   7.178   3.758
10771SOL    HW133754   3.053   7.087   3.786
10771SOL    HW233755   2.998   7.192   3.692
10772SOL     OW33756   2.684   6.591   5.107
10772SOL    HW133757   2.733   6.576   5.027
10772SOL    HW233758   2.682   6.686   5.117
10773SOL     OW33759   2.781   6.500   4.008
10773SOL    HW133760   2.845   6.534   3.946
10773SOL    HW233761   2.828   6.433   4.057
10774SOL     OW33762   3.339   7.224   3.769
10774SOL    HW133763   3.246   7.207   3.751
10774SOL    HW233764   3.380   7.223   3.683
10775SOL     OW33765   2.213   6.894   5.231
10775SOL    HW133766   2.205   6.969   5.172
10775SOL    HW233767   2.136   6.840   5.212
10776SOL     OW33768   3.479   6.874   5.017
10776SOL    HW133769   3.525   6.851   5.098
10776SOL    HW233770   3.415   6.940   5.044
10777SOL     OW33771   2.930   6.697   4.439
10777SOL    HW133772   2.856   6.649   4.476
10777SOL    HW233773   2.994   6.629   4.418
10778SOL     OW33774   2.886   5.827   4.685
10778SOL    HW133775   2.879   5.782   4.601
10778SOL    HW233776   2.882   5.757   4.750
10779SOL     OW33777   2.467   7.069   4.200
10779SOL    HW133778   2.520   7.020   4.137
10779SOL    HW233779   2.391   7.098   4.149
10780SOL     OW33780   3.588   5.982   5.103
10780SOL    HW133781   3.663   6.042   5.103
10780SOL    HW233782   3.617   5.909   5.048
10781SOL     OW33783   2.132   6.927   4.024
10781SOL    HW133784   2.043   6.924   3.990
10781SOL    HW233785   2.123   6.970   4.109
10782SOL     OW33786   1.982   6.590   5.419
10782SOL    HW133787   1.911   6.588   5.484
10782SOL    HW233788   2.061   6.570   5.470
10783SOL     OW33789   2.539   5.793   5.223
10783SOL    HW133790   2.621   5.766   5.182
10783SOL    HW233791   2.563   5.814   5.313
10784SOL     OW33792   1.932   5.923   3.771
10784SOL    HW133793   1.869   5.887   3.709
10784SOL    HW233794   1.972   5.997   3.726
10785SOL     OW33795   3.285   6.446   5.117
10785SOL    HW133796   3.238   6.506   5.059
10785SOL    HW233797   3.374   6.443   5.081
10786SOL     OW33798   1.917   5.743   4.012
10786SOL    HW133799   1.916   5.808   3.942
10786SOL    HW233800   2.004   5.704   4.007
10787SOL     OW33801   3.040   6.912   3.845
10787SOL    HW133802   2.953   6.871   3.845
10787SOL    HW233803   3.065   6.914   3.938
10788SOL     OW33804   2.480   6.418   5.163
10788SOL    HW133805   2.539   6.492   5.152
10788SOL    HW233806   2.537   6.341   5.167
10789SOL     OW33807   3.354   7.377   4.712
10789SOL    HW133808   3.374   7.456   4.663
10789SOL    HW233809   3.435   7.358   4.761
10790SOL     OW33810   2.581   6.138   5.420
10790SOL    HW133811   2.628   6.190   5.486
10790SOL    HW233812   2.592   6.047   5.449
10791SOL     OW33813   3.330   6.783   5.349
10791SOL    HW133814   3.318   6.797   5.442
10791SOL    HW233815   3.423   6.801   5.333
10792SOL     OW33816   2.226   7.327   5.285
10792SOL    HW133817   2.144   7.376   5.278
10792SOL    HW233818   2.202   7.245   5.328
10793SOL     OW33819   3.526   6.456   4.981
10793SOL    HW133820   3.527   6.369   4.942
10793SOL    HW233821   3.524   6.516   4.907
10794SOL     OW33822   3.092   5.917   4.173
10794SOL    HW133823   3.149   5.840   4.165
10794SOL    HW233824   3.123   5.961   4.252
10795SOL     OW33825   2.445   6.318   4.395
10795SOL    HW133826   2.487   6.404   4.383
10795SOL    HW233827   2.383   6.312   4.323
10796SOL     OW33828   3.603   5.960   5.380
10796SOL    HW133829   3.593   5.968   5.285
10796SOL    HW233830   3.547   5.885   5.403
10797SOL     OW33831   3.612   6.526   5.232
10797SOL    HW133832   3.592   6.619   5.234
10797SOL    HW233833   3.593   6.499   5.142
10798SOL     OW33834   2.720   6.948   3.774
10798SOL    HW133835   2.689   6.966   3.862
10798SOL    HW233836   2.736   7.035   3.736
10799SOL     OW33837   2.521   7.368   4.646
10799SOL    HW133838   2.505   7.463   4.639
10799SOL    HW233839   2.616   7.360   4.649
10800SOL     OW33840   2.733   6.560   4.577
10800SOL    HW133841   2.782   6.486   4.613
10800SOL    HW233842   2.689   6.598   4.653
10801SOL     OW33843   2.950   6.584   3.812
10801SOL    HW133844   2.924   6.626   3.731
10801SOL    HW233845   3.018   6.521   3.787
10802SOL     OW33846   3.716   7.116   4.561
10802SOL    HW133847   3.621   7.116   4.573
10802SOL    HW233848   3.748   7.045   4.616
10803SOL     OW33849   2.083   6.897   5.559
10803SOL    HW133850   2.047   6.817   5.597
10803SOL    HW233851   2.145   6.929   5.625
10804SOL     OW33852   1.941   6.796   4.384
10804SOL    HW133853   1.971   6.764   4.469
10804SOL    HW233854   2.011   6.773   4.323
10805SOL     OW33855   2.559   7.004   5.349
10805SOL    HW133856   2.490   6.949   5.384
10805SOL    HW233857   2.548   7.088   5.394
10806SOL     OW33858   3.672   5.772   4.962
10806SOL    HW133859   3.683   5.680   4.985
10806SOL    HW233860   3.687   5.776   4.868
10807SOL     OW33861   2.275   6.019   4.237
10807SOL    HW133862   2.316   5.948   4.188
10807SOL    HW233863   2.239   5.977   4.315
10808SOL     OW33864   3.560   7.074   4.824
10808SOL    HW133865   3.483   7.046   4.775
10808SOL    HW233866   3.570   7.008   4.893
10809SOL     OW33867   2.205   6.142   5.017
10809SOL    HW133868   2.251   6.086   5.079
10809SOL    HW233869   2.222   6.102   4.931
10810SOL     OW33870   2.700   7.164   4.392
10810SOL    HW133871   2.672   7.238   4.339
10810SOL    HW233872   2.622   7.108   4.398
10811SOL     OW33873   3.291   5.814   4.823
10811SOL    HW133874   3.306   5.722   4.846
10811SOL    HW233875   3.248   5.851   4.900
10812SOL     OW33876   2.869   5.604   4.852
10812SOL    HW133877   2.818   5.539   4.804
10812SOL    HW233878   2.956   5.564   4.861
10813SOL     OW33879   2.642   6.918   4.045
10813SOL    HW133880   2.615   6.827   4.057
10813SOL    HW233881   2.721   6.927   4.099
10814SOL     OW33882   2.483   7.145   5.003
10814SOL    HW133883   2.478   7.229   5.050
10814SOL    HW233884   2.573   7.141   4.972
10815SOL     OW33885   3.235   5.651   3.884
10815SOL    HW133886   3.277   5.574   3.846
10815SOL    HW233887   3.145   5.624   3.900
10816SOL     OW33888   3.171   6.058   4.403
10816SOL    HW133889   3.111   6.132   4.402
10816SOL    HW233890   3.156   6.016   4.488
10817SOL     OW33891   3.454   5.780   4.597
10817SOL    HW133892   3.394   5.795   4.670
10817SOL    HW233893   3.448   5.860   4.544
10818SOL     OW33894   1.893   6.647   4.031
10818SOL    HW133895   1.987   6.639   4.013
10818SOL    HW233896   1.866   6.558   4.054
10819SOL     OW33897   2.756   7.249   4.049
10819SOL    HW133898   2.678   7.232   3.995
10819SOL    HW233899   2.726   7.311   4.115
10820SOL     OW33900   2.079   6.218   5.718
10820SOL    HW133901   2.000   6.190   5.763
10820SOL    HW233902   2.067   6.190   5.627
10821SOL     OW33903   2.040   5.927   6.652
10821SOL    HW133904   2.084   5.865   6.710
10821SOL    HW233905   1.998   5.873   6.586
10822SOL     OW33906   1.841   6.005   6.217
10822SOL    HW133907   1.798   5.920   6.216
10822SOL    HW233908   1.930   5.987   6.248
10823SOL     OW33909   2.440   6.889   6.733
10823SOL    HW133910   2.376   6.861   6.668
10823SOL    HW233911   2.505   6.939   6.682
10824SOL     OW33912   3.443   7.105   6.296
10824SOL    HW133913   3.397   7.078   6.376
10824SOL    HW233914   3.375   7.107   6.229
10825SOL     OW33915   2.999   6.290   6.271
10825SOL    HW133916   3.047   6.373   6.271
10825SOL    HW233917   2.948   6.292   6.353
10826SOL     OW33918   3.618   6.180   5.813
10826SOL    HW133919   3.586   6.170   5.724
10826SOL    HW233920   3.632   6.091   5.845
10827SOL     OW33921   2.663   6.697   6.631
10827SOL    HW133922   2.586   6.711   6.686
10827SOL    HW233923   2.677   6.782   6.588
10828SOL     OW33924   2.709   6.376   7.413
10828SOL    HW133925   2.764   6.423   7.476
10828SOL    HW233926   2.739   6.408   7.328
10829SOL     OW33927   2.555   6.606   6.225
10829SOL    HW133928   2.614   6.612   6.299
10829SOL    HW233929   2.477   6.654   6.252
10830SOL     OW33930   2.576   6.734   7.404
10830SOL    HW133931   2.620   6.814   7.436
10830SOL    HW233932   2.493   6.765   7.369
10831SOL     OW33933   2.183   7.015   6.659
10831SOL    HW133934   2.109   6.972   6.615
10831SOL    HW233935   2.226   7.065   6.590
10832SOL     OW33936   3.322   7.091   6.954
10832SOL    HW133937   3.378   7.168   6.962
10832SOL    HW233938   3.255   7.103   7.022
10833SOL     OW33939   2.303   5.987   7.083
10833SOL    HW133940   2.385   5.937   7.080
10833SOL    HW233941   2.235   5.922   7.096
10834SOL     OW33942   3.456   6.057   6.279
10834SOL    HW133943   3.362   6.064   6.268
10834SOL    HW233944   3.467   6.001   6.355
10835SOL     OW33945   2.083   7.302   6.046
10835SOL    HW133946   2.107   7.375   6.104
10835SOL    HW233947   2.157   7.294   5.986
10836SOL     OW33948   2.997   6.928   7.281
10836SOL    HW133949   3.047   6.914   7.361
10836SOL    HW233950   2.945   6.848   7.270
10837SOL     OW33951   2.105   7.075   6.215
10837SOL    HW133952   2.095   7.148   6.153
10837SOL    HW233953   2.067   7.000   6.170
10838SOL     OW33954   2.164   6.677   6.510
10838SOL    HW133955   2.143   6.584   6.522
10838SOL    HW233956   2.087   6.723   6.543
10839SOL     OW33957   2.431   7.404   6.982
10839SOL    HW133958   2.366   7.375   7.047
10839SOL    HW233959   2.471   7.481   7.022
10840SOL     OW33960   2.433   6.570   5.725
10840SOL    HW133961   2.485   6.614   5.657
10840SOL    HW233962   2.469   6.604   5.807
10841SOL     OW33963   3.470   5.711   7.048
10841SOL    HW133964   3.453   5.795   7.005
10841SOL    HW233965   3.435   5.721   7.136
10842SOL     OW33966   1.985   6.257   6.139
10842SOL    HW133967   1.965   6.164   6.155
10842SOL    HW233968   1.978   6.298   6.225
10843SOL     OW33969   3.707   7.331   5.906
10843SOL    HW133970   3.775   7.307   5.970
10843SOL    HW233971   3.720   7.425   5.891
10844SOL     OW33972   1.885   7.181   5.696
10844SOL    HW133973   1.891   7.088   5.717
10844SOL    HW233974   1.869   7.224   5.780
10845SOL     OW33975   3.562   6.503   6.243
10845SOL    HW133976   3.644   6.454   6.235
10845SOL    HW233977   3.547   6.538   6.155
10846SOL     OW33978   3.514   6.686   6.015
10846SOL    HW133979   3.602   6.683   5.975
10846SOL    HW233980   3.523   6.748   6.087
10847SOL     OW33981   1.987   6.350   7.176
10847SOL    HW133982   2.081   6.352   7.158
10847SOL    HW233983   1.950   6.414   7.116
10848SOL     OW33984   2.465   6.978   6.326
10848SOL    HW133985   2.418   6.894   6.324
10848SOL    HW233986   2.459   7.011   6.236
10849SOL     OW33987   3.148   6.820   7.002
10849SOL    HW133988   3.173   6.749   6.943
10849SOL    HW233989   3.208   6.813   7.075
10850SOL     OW33990   2.686   5.613   6.102
10850SOL    HW133991   2.706   5.705   6.083
10850SOL    HW233992   2.590   5.611   6.109
10851SOL     OW33993   2.047   6.536   6.873
10851SOL    HW133994   2.132   6.497   6.856
10851SOL    HW233995   1.988   6.497   6.809
10852SOL     OW33996   3.391   6.591   5.786
10852SOL    HW133997   3.319   6.536   5.818
10852SOL    HW233998   3.436   6.620   5.865
10853SOL     OW33999   3.037   7.398   7.221
10853SOL    HW134000   3.043   7.463   7.151
10853SOL    HW234001   3.058   7.315   7.178
10854SOL     OW34002   2.206   5.846   7.424
10854SOL    HW134003   2.257   5.918   7.461
10854SOL    HW234004   2.120   5.855   7.463
10855SOL     OW34005   3.323   7.008   6.524
10855SOL    HW134006   3.262   7.020   6.596
10855SOL    HW234007   3.313   6.916   6.499
10856SOL     OW34008   3.508   7.349   6.158
10856SOL    HW134009   3.487   7.311   6.073
10856SOL    HW234010   3.500   7.277   6.220
10857SOL     OW34011   2.452   6.298   5.854
10857SOL    HW134012   2.450   6.382   5.809
10857SOL    HW234013   2.387   6.306   5.923
10858SOL     OW34014   3.134   5.954   6.520
10858SOL    HW134015   3.048   5.913   6.530
10858SOL    HW234016   3.192   5.899   6.573
10859SOL     OW34017   3.437   7.262   5.900
10859SOL    HW134018   3.531   7.278   5.888
10859SOL    HW234019   3.404   7.247   5.812
10860SOL     OW34020   2.631   6.219   7.032
10860SOL    HW134021   2.614   6.188   7.121
10860SOL    HW234022   2.604   6.147   6.975
10861SOL     OW34023   3.258   6.056   7.258
10861SOL    HW134024   3.265   6.093   7.346
10861SOL    HW234025   3.298   5.969   7.265
10862SOL     OW34026   2.812   6.466   7.169
10862SOL    HW134027   2.872   6.398   7.137
10862SOL    HW234028   2.739   6.465   7.107
10863SOL     OW34029   2.857   6.001   6.799
10863SOL    HW134030   2.797   5.966   6.865
10863SOL    HW234031   2.857   5.935   6.729
10864SOL     OW34032   2.921   6.285   6.004
10864SOL    HW134033   2.941   6.277   6.097
10864SOL    HW234034   2.838   6.240   5.993
10865SOL     OW34035   1.943   6.422   6.362
10865SOL    HW134036   2.019   6.394   6.413
10865SOL    HW234037   1.905   6.494   6.413
10866SOL     OW34038   1.987   7.453   7.164
10866SOL    HW134039   1.989   7.425   7.256
10866SOL    HW234040   1.896   7.446   7.139
10867SOL     OW34041   2.759   5.936   5.784
10867SOL    HW134042   2.802   5.983   5.712
10867SOL    HW234043   2.733   5.852   5.745
10868SOL     OW34044   3.585   6.170   7.426
10868SOL    HW134045   3.545   6.239   7.374
10868SOL    HW234046   3.593   6.096   7.366
10869SOL     OW34047   3.243   6.728   6.120
10869SOL    HW134048   3.323   6.710   6.071
10869SOL    HW234049   3.194   6.790   6.066
10870SOL     OW34050   2.389   5.767   6.474
10870SOL    HW134051   2.400   5.797   6.565
10870SOL    HW234052   2.323   5.825   6.437
10871SOL     OW34053   2.864   7.036   6.060
10871SOL    HW134054   2.834   7.103   5.999
10871SOL    HW234055   2.831   7.064   6.146
10872SOL     OW34056   2.219   7.406   6.464
10872SOL    HW134057   2.265   7.322   6.466
10872SOL    HW234058   2.287   7.472   6.476
10873SOL     OW34059   3.668   6.651   6.460
10873SOL    HW134060   3.620   6.618   6.384
10873SOL    HW234061   3.604   6.649   6.532
10874SOL     OW34062   3.083   7.128   7.102
10874SOL    HW134063   3.073   7.056   7.164
10874SOL    HW234064   3.029   7.103   7.027
10875SOL     OW34065   2.167   6.543   5.843
10875SOL    HW134066   2.248   6.566   5.797
10875SOL    HW234067   2.146   6.455   5.811
10876SOL     OW34068   3.337   6.353   6.320
10876SOL    HW134069   3.346   6.288   6.389
10876SOL    HW234070   3.424   6.392   6.311
10877SOL     OW34071   2.332   6.848   7.325
10877SOL    HW134072   2.311   6.836   7.232
10877SOL    HW234073   2.246   6.853   7.368
10878SOL     OW34074   3.000   7.352   5.832
10878SOL    HW134075   2.916   7.320   5.864
10878SOL    HW234076   3.020   7.295   5.757
10879SOL     OW34077   2.062   5.845   7.100
10879SOL    HW134078   1.978   5.869   7.060
10879SOL    HW234079   2.047   5.757   7.136
10880SOL     OW34080   3.494   6.971   5.679
10880SOL    HW134081   3.451   7.055   5.665
10880SOL    HW234082   3.428   6.906   5.657
10881SOL     OW34083   2.318   7.332   5.900
10881SOL    HW134084   2.377   7.372   5.963
10881SOL    HW234085   2.374   7.273   5.849
10882SOL     OW34086   3.282   5.684   6.020
10882SOL    HW134087   3.268   5.638   5.938
10882SOL    HW234088   3.351   5.635   6.064
10883SOL     OW34089   2.140   7.320   6.816
10883SOL    HW134090   2.228   7.356   6.824
10883SOL    HW234091   2.120   7.325   6.722
10884SOL     OW34092   2.807   7.278   6.475
10884SOL    HW134093   2.895   7.239   6.476
10884SOL    HW234094   2.761   7.232   6.405
10885SOL     OW34095   2.260   6.287   6.058
10885SOL    HW134096   2.285   6.195   6.067
10885SOL    HW234097   2.166   6.288   6.075
10886SOL     OW34098   3.368   5.797   7.304
10886SOL    HW134099   3.374   5.816   7.398
10886SOL    HW234100   3.313   5.718   7.300
10887SOL     OW34101   2.519   5.694   5.688
10887SOL    HW134102   2.560   5.614   5.723
10887SOL    HW234103   2.465   5.664   5.616
10888SOL     OW34104   2.589   5.892   7.346
10888SOL    HW134105   2.683   5.877   7.358
10888SOL    HW234106   2.547   5.838   7.413
10889SOL     OW34107   2.728   7.103   6.788
10889SOL    HW134108   2.721   7.077   6.696
10889SOL    HW234109   2.804   7.056   6.820
10890SOL     OW34110   3.206   6.183   7.020
10890SOL    HW134111   3.234   6.141   7.102
10890SOL    HW234112   3.255   6.265   7.018
10891SOL     OW34113   2.659   6.965   6.534
10891SOL    HW134114   2.747   6.959   6.498
10891SOL    HW234115   2.602   6.980   6.459
10892SOL     OW34116   2.795   6.085   6.483
10892SOL    HW134117   2.767   6.075   6.392
10892SOL    HW234118   2.823   5.997   6.510
10893SOL     OW34119   2.410   5.653   6.081
10893SOL    HW134120   2.334   5.653   6.138
10893SOL    HW234121   2.394   5.726   6.020
10894SOL     OW34122   3.290   6.791   5.622
10894SOL    HW134123   3.319   6.717   5.674
10894SOL    HW234124   3.204   6.813   5.658
10895SOL     OW34125   2.152   5.635   5.773
10895SOL    HW134126   2.222   5.700   5.760
10895SOL    HW234127   2.195   5.562   5.817
10896SOL     OW34128   2.808   5.860   6.046
10896SOL    HW134129   2.793   5.883   5.954
10896SOL    HW234130   2.890   5.812   6.046
10897SOL     OW34131   2.948   6.267   7.040
10897SOL    HW134132   2.907   6.192   7.083
10897SOL    HW234133   3.040   6.242   7.029
10898SOL     OW34134   3.060   7.169   6.392
10898SOL    HW134135   3.080   7.229   6.320
10898SOL    HW234136   3.140   7.167   6.444
10899SOL     OW34137   2.333   6.739   6.308
10899SOL    HW134138   2.272   6.719   6.380
10899SOL    HW234139   2.282   6.724   6.229
10900SOL     OW34140   3.117   7.376   6.205
10900SOL    HW134141   3.165   7.435   6.146
10900SOL    HW234142   3.048   7.430   6.243
10901SOL     OW34143   2.896   6.115   5.610
10901SOL    HW134144   2.847   6.196   5.594
10901SOL    HW234145   2.958   6.137   5.680
10902SOL     OW34146   1.949   6.144   6.984
10902SOL    HW134147   2.040   6.137   6.954
10902SOL    HW234148   1.950   6.215   7.048
10903SOL     OW34149   2.424   5.810   6.753
10903SOL    HW134150   2.470   5.731   6.782
10903SOL    HW234151   2.335   5.799   6.787
10904SOL     OW34152   2.720   6.057   6.221
10904SOL    HW134153   2.681   6.106   6.149
10904SOL    HW234154   2.751   5.976   6.182
10905SOL     OW34155   2.861   5.649   6.330
10905SOL    HW134156   2.808   5.626   6.253
10905SOL    HW234157   2.855   5.573   6.387
10906SOL     OW34158   3.303   6.747   6.438
10906SOL    HW134159   3.240   6.676   6.435
10906SOL    HW234160   3.337   6.753   6.349
10907SOL     OW34161   3.317   6.192   6.560
10907SOL    HW134162   3.269   6.110   6.557
10907SOL    HW234163   3.382   6.179   6.629
10908SOL     OW34164   3.691   6.393   5.969
10908SOL    HW134165   3.749   6.345   6.027
10908SOL    HW234166   3.665   6.329   5.903
10909SOL     OW34167   3.548   6.854   6.222
10909SOL    HW134168   3.642   6.850   6.237
10909SOL    HW234169   3.523   6.943   6.244
10910SOL     OW34170   2.382   5.844   5.880
10910SOL    HW134171   2.440   5.798   5.819
10910SOL    HW234172   2.359   5.925   5.834
10911SOL     OW34173   3.605   6.831   7.142
10911SOL    HW134174   3.689   6.786   7.147
10911SOL    HW234175   3.624   6.921   7.168
10912SOL     OW34176   2.922   6.944   6.917
10912SOL    HW134177   2.847   6.911   6.965
10912SOL    HW234178   2.997   6.898   6.954
10913SOL     OW34179   3.471   7.220   7.251
10913SOL    HW134180   3.461   7.254   7.163
10913SOL    HW234181   3.551   7.166   7.247
10914SOL     OW34182   2.992   6.793   6.688
10914SOL    HW134183   2.936   6.836   6.752
10914SOL    HW234184   2.962   6.827   6.603
10915SOL     OW34185   3.483   6.679   6.660
10915SOL    HW134186   3.475   6.740   6.733
10915SOL    HW234187   3.407   6.696   6.605
10916SOL     OW34188   2.758   5.742   6.938
10916SOL    HW134189   2.779   5.684   6.865
10916SOL    HW234190   2.839   5.748   6.989
10917SOL     OW34191   2.842   6.700   7.303
10917SOL    HW134192   2.751   6.708   7.332
10917SOL    HW234193   2.842   6.622   7.247
10918SOL     OW34194   2.572   6.651   5.951
10918SOL    HW134195   2.558   6.634   6.044
10918SOL    HW234196   2.650   6.600   5.929
10919SOL     OW34197   2.281   6.402   6.834
10919SOL    HW134198   2.347   6.412   6.902
10919SOL    HW234199   2.253   6.311   6.840
10920SOL     OW34200   3.125   5.959   6.877
10920SOL    HW134201   3.158   6.038   6.920
10920SOL    HW234202   3.038   5.982   6.848
10921SOL     OW34203   1.936   7.173   6.932
10921SOL    HW134204   1.864   7.209   6.880
10921SOL    HW234205   2.013   7.223   6.905
10922SOL     OW34206   2.183   6.693   6.086
10922SOL    HW134207   2.165   6.771   6.032
10922SOL    HW234208   2.191   6.622   6.023
10923SOL     OW34209   2.446   6.152   6.449
10923SOL    HW134210   2.440   6.218   6.380
10923SOL    HW234211   2.464   6.070   6.402
10924SOL     OW34212   3.108   6.939   5.977
10924SOL    HW134213   3.166   7.007   6.009
10924SOL    HW234214   3.022   6.963   6.011
10925SOL     OW34215   3.160   7.047   6.739
10925SOL    HW134216   3.219   7.056   6.814
10925SOL    HW234217   3.104   6.973   6.762
10926SOL     OW34218   3.379   6.234   6.022
10926SOL    HW134219   3.367   6.258   6.114
10926SOL    HW234220   3.465   6.270   5.999
10927SOL     OW34221   2.267   6.327   7.182
10927SOL    HW134222   2.338   6.368   7.131
10927SOL    HW234223   2.296   6.237   7.195
10928SOL     OW34224   3.481   6.379   7.281
10928SOL    HW134225   3.392   6.411   7.268
10928SOL    HW234226   3.530   6.413   7.206
10929SOL     OW34227   2.359   5.627   7.346
10929SOL    HW134228   2.319   5.567   7.283
10929SOL    HW234229   2.302   5.704   7.346
10930SOL     OW34230   2.450   6.498   6.635
10930SOL    HW134231   2.388   6.541   6.577
10930SOL    HW234232   2.396   6.451   6.699
10931SOL     OW34233   3.206   6.440   6.607
10931SOL    HW134234   3.150   6.434   6.529
10931SOL    HW234235   3.256   6.358   6.607
10932SOL     OW34236   3.074   6.123   5.844
10932SOL    HW134237   3.060   6.040   5.890
10932SOL    HW234238   3.025   6.187   5.896
10933SOL     OW34239   2.167   5.773   6.844
10933SOL    HW134240   2.141   5.790   6.935
10933SOL    HW234241   2.153   5.679   6.833
10934SOL     OW34242   1.933   6.902   6.853
10934SOL    HW134243   1.947   6.849   6.931
10934SOL    HW234244   1.930   6.992   6.885
10935SOL     OW34245   2.620   6.230   6.639
10935SOL    HW134246   2.687   6.171   6.605
10935SOL    HW234247   2.543   6.212   6.585
10936SOL     OW34248   3.606   6.559   7.449
10936SOL    HW134249   3.572   6.486   7.396
10936SOL    HW234250   3.542   6.569   7.519
10937SOL     OW34251   2.168   5.651   6.219
10937SOL    HW134252   2.147   5.742   6.241
10937SOL    HW234253   2.179   5.608   6.303
10938SOL     OW34254   3.492   5.960   6.005
10938SOL    HW134255   3.526   5.874   6.028
10938SOL    HW234256   3.497   6.011   6.086
10939SOL     OW34257   2.885   6.334   6.544
10939SOL    HW134258   2.936   6.326   6.624
10939SOL    HW234259   2.858   6.245   6.523
10940SOL     OW34260   2.838   7.147   7.316
10940SOL    HW134261   2.821   7.193   7.234
10940SOL    HW234262   2.886   7.068   7.289
10941SOL     OW34263   3.708   7.087   7.191
10941SOL    HW134264   3.732   7.113   7.102
10941SOL    HW234265   3.789   7.096   7.242
10942SOL     OW34266   2.166   6.491   7.378
10942SOL    HW134267   2.237   6.527   7.432
10942SOL    HW234268   2.211   6.435   7.315
10943SOL     OW34269   3.361   5.873   5.744
10943SOL    HW134270   3.302   5.798   5.740
10943SOL    HW234271   3.439   5.842   5.789
10944SOL     OW34272   3.145   6.414   5.606
10944SOL    HW134273   3.191   6.330   5.607
10944SOL    HW234274   3.174   6.457   5.526
10945SOL     OW34275   2.915   6.920   6.449
10945SOL    HW134276   2.921   6.846   6.389
10945SOL    HW234277   2.973   6.986   6.412
10946SOL     OW34278   2.172   6.394   6.515
10946SOL    HW134279   2.244   6.379   6.453
10946SOL    HW234280   2.167   6.313   6.565
10947SOL     OW34281   2.215   6.137   6.606
10947SOL    HW134282   2.156   6.064   6.589
10947SOL    HW234283   2.287   6.124   6.544
10948SOL     OW34284   2.979   6.052   7.225
10948SOL    HW134285   2.942   5.985   7.282
10948SOL    HW234286   3.074   6.046   7.239
10949SOL     OW34287   3.000   5.774   7.056
10949SOL    HW134288   3.005   5.809   7.144
10949SOL    HW234289   3.060   5.828   7.005
10950SOL     OW34290   1.859   6.914   5.795
10950SOL    HW134291   1.774   6.929   5.753
10950SOL    HW234292   1.859   6.821   5.817
10951SOL     OW34293   1.959   7.365   6.543
10951SOL    HW134294   1.924   7.289   6.496
10951SOL    HW234295   2.045   7.380   6.504
10952SOL     OW34296   2.356   7.162   6.502
10952SOL    HW134297   2.427   7.225   6.515
10952SOL    HW234298   2.387   7.104   6.433
10953SOL     OW34299   2.805   6.375   6.831
10953SOL    HW134300   2.876   6.354   6.892
10953SOL    HW234301   2.744   6.302   6.838
10954SOL     OW34302   1.892   6.151   6.705
10954SOL    HW134303   1.935   6.078   6.660
10954SOL    HW234304   1.929   6.150   6.793
10955SOL     OW34305   2.055   6.087   7.316
10955SOL    HW134306   2.110   6.020   7.274
10955SOL    HW234307   2.005   6.126   7.244
10956SOL     OW34308   3.241   6.521   7.245
10956SOL    HW134309   3.265   6.614   7.238
10956SOL    HW234310   3.240   6.489   7.155
10957SOL     OW34311   2.683   6.162   5.948
10957SOL    HW134312   2.691   6.082   5.896
10957SOL    HW234313   2.604   6.204   5.915
10958SOL     OW34314   3.502   6.191   6.767
10958SOL    HW134315   3.495   6.125   6.836
10958SOL    HW234316   3.588   6.176   6.728
10959SOL     OW34317   2.104   7.121   7.299
10959SOL    HW134318   2.084   7.199   7.350
10959SOL    HW234319   2.108   7.051   7.363
10960SOL     OW34320   2.541   6.044   6.849
10960SOL    HW134321   2.505   5.959   6.825
10960SOL    HW234322   2.561   6.086   6.765
10961SOL     OW34323   2.758   7.267   7.075
10961SOL    HW134324   2.750   7.221   6.991
10961SOL    HW234325   2.767   7.359   7.050
10962SOL     OW34326   2.315   6.074   5.742
10962SOL    HW134327   2.380   6.137   5.772
10962SOL    HW234328   2.233   6.122   5.743
10963SOL     OW34329   2.021   6.725   7.067
10963SOL    HW134330   2.042   6.669   7.142
10963SOL    HW234331   2.026   6.666   6.992
10964SOL     OW34332   3.173   6.624   6.803
10964SOL    HW134333   3.193   6.557   6.737
10964SOL    HW234334   3.108   6.680   6.760
10965SOL     OW34335   3.169   6.457   5.882
10965SOL    HW134336   3.106   6.409   5.936
10965SOL    HW234337   3.140   6.440   5.792
10966SOL     OW34338   3.654   7.318   6.754
10966SOL    HW134339   3.710   7.340   6.680
10966SOL    HW234340   3.616   7.233   6.730
10967SOL     OW34341   3.104   7.317   6.695
10967SOL    HW134342   3.185   7.344   6.653
10967SOL    HW234343   3.117   7.223   6.713
10968SOL     OW34344   1.953   6.859   6.584
10968SOL    HW134345   1.934   6.871   6.677
10968SOL    HW234346   1.888   6.796   6.553
10969SOL     OW34347   2.548   7.264   7.326
10969SOL    HW134348   2.490   7.340   7.315
10969SOL    HW234349   2.622   7.282   7.268
10970SOL     OW34350   3.607   5.738   6.108
10970SOL    HW134351   3.673   5.713   6.044
10970SOL    HW234352   3.572   5.655   6.141
10971SOL     OW34353   3.258   7.154   6.086
10971SOL    HW134354   3.311   7.188   6.014
10971SOL    HW234355   3.202   7.227   6.111
10972SOL     OW34356   2.018   7.360   7.420
10972SOL    HW134357   1.965   7.299   7.470
10972SOL    HW234358   2.059   7.417   7.485
10973SOL     OW34359   3.140   6.532   6.280
10973SOL    HW134360   3.212   6.469   6.289
10973SOL    HW234361   3.172   6.595   6.215
10974SOL     OW34362   2.676   6.870   7.011
10974SOL    HW134363   2.640   6.912   7.089
10974SOL    HW234364   2.611   6.889   6.943
10975SOL     OW34365   2.533   7.204   5.744
10975SOL    HW134366   2.541   7.223   5.651
10975SOL    HW234367   2.470   7.132   5.748
10976SOL     OW34368   3.479   7.316   6.983
10976SOL    HW134369   3.537   7.318   6.906
10976SOL    HW234370   3.463   7.409   7.002
10977SOL     OW34371   3.709   5.757   6.550
10977SOL    HW134372   3.734   5.667   6.527
10977SOL    HW234373   3.625   5.770   6.506
10978SOL     OW34374   3.069   7.187   5.621
10978SOL    HW134375   3.059   7.096   5.648
10978SOL    HW234376   2.999   7.201   5.557
10979SOL     OW34377   2.666   6.598   6.948
10979SOL    HW134378   2.746   6.560   6.912
10979SOL    HW234379   2.691   6.686   6.976
10980SOL     OW34380   2.795   6.514   5.899
10980SOL    HW134381   2.846   6.539   5.822
10980SOL    HW234382   2.839   6.434   5.931
10981SOL     OW34383   3.349   7.217   5.637
10981SOL    HW134384   3.255   7.208   5.620
10981SOL    HW234385   3.388   7.225   5.550
10982SOL     OW34386   2.184   6.950   7.064
10982SOL    HW134387   2.153   7.003   7.138
10982SOL    HW234388   2.127   6.873   7.065
10983SOL     OW34389   3.466   6.869   6.866
10983SOL    HW134390   3.526   6.849   6.937
10983SOL    HW234391   3.407   6.936   6.902
10984SOL     OW34392   2.907   6.686   6.300
10984SOL    HW134393   2.863   6.661   6.218
10984SOL    HW234394   2.985   6.630   6.303
10985SOL     OW34395   2.882   5.823   6.551
10985SOL    HW134396   2.873   5.777   6.467
10985SOL    HW234397   2.879   5.753   6.616
10986SOL     OW34398   2.474   7.071   6.067
10986SOL    HW134399   2.530   7.024   6.006
10986SOL    HW234400   2.390   7.080   6.021
10987SOL     OW34401   3.591   5.989   6.963
10987SOL    HW134402   3.669   6.045   6.961
10987SOL    HW234403   3.616   5.911   6.913
10988SOL     OW34404   2.094   6.904   5.944
10988SOL    HW134405   2.014   6.922   5.895
10988SOL    HW234406   2.165   6.937   5.887
10989SOL     OW34407   2.526   5.803   7.084
10989SOL    HW134408   2.607   5.786   7.035
10989SOL    HW234409   2.556   5.826   7.172
10990SOL     OW34410   1.940   5.919   5.638
10990SOL    HW134411   1.879   5.865   5.588
10990SOL    HW234412   1.965   5.989   5.578
10991SOL     OW34413   3.291   6.454   6.988
10991SOL    HW134414   3.239   6.508   6.928
10991SOL    HW234415   3.377   6.449   6.945
10992SOL     OW34416   1.915   5.738   5.879
10992SOL    HW134417   1.913   5.817   5.825
10992SOL    HW234418   2.000   5.699   5.862
10993SOL     OW34419   3.035   6.921   5.701
10993SOL    HW134420   2.941   6.904   5.699
10993SOL    HW234421   3.058   6.919   5.794
10994SOL     OW34422   2.468   6.430   7.026
10994SOL    HW134423   2.529   6.500   7.000
10994SOL    HW234424   2.523   6.351   7.030
10995SOL     OW34425   3.344   7.379   6.576
10995SOL    HW134426   3.367   7.446   6.511
10995SOL    HW234427   3.426   7.333   6.593
10996SOL     OW34428   2.557   6.161   7.286
10996SOL    HW134429   2.603   6.210   7.354
10996SOL    HW234430   2.568   6.069   7.311
10997SOL     OW34431   3.335   6.783   7.211
10997SOL    HW134432   3.329   6.795   7.306
10997SOL    HW234433   3.427   6.799   7.190
10998SOL     OW34434   2.231   7.322   7.150
10998SOL    HW134435   2.148   7.366   7.133
10998SOL    HW234436   2.207   7.240   7.194
10999SOL     OW34437   3.525   6.459   6.843
10999SOL    HW134438   3.522   6.370   6.807
10999SOL    HW234439   3.518   6.516   6.766
11000SOL     OW34440   3.151   5.925   6.023
11000SOL    HW134441   3.186   5.836   6.026
11000SOL    HW234442   3.149   5.953   6.115
11001SOL     OW34443   2.426   6.356   6.268
11001SOL    HW134444   2.480   6.427   6.233
11001SOL    HW234445   2.371   6.328   6.195
11002SOL     OW34446   3.594   5.962   7.245
11002SOL    HW134447   3.592   5.972   7.150
11002SOL    HW234448   3.534   5.890   7.263
11003SOL     OW34449   3.622   6.520   7.091
11003SOL    HW134450   3.598   6.612   7.097
11003SOL    HW234451   3.600   6.495   7.001
11004SOL     OW34452   2.742   6.953   5.647
11004SOL    HW134453   2.690   6.973   5.724
11004SOL    HW234454   2.739   7.034   5.595
11005SOL     OW34455   2.531   7.367   6.520
11005SOL    HW134456   2.511   7.459   6.503
11005SOL    HW234457   2.626   7.361   6.510
11006SOL     OW34458   2.934   6.574   5.675
11006SOL    HW134459   2.912   6.628   5.599
11006SOL    HW234460   3.006   6.519   5.646
11007SOL     OW34461   3.712   7.133   6.426
11007SOL    HW134462   3.628   7.119   6.382
11007SOL    HW234463   3.727   7.054   6.477
11008SOL     OW34464   2.091   6.889   7.451
11008SOL    HW134465   1.997   6.870   7.454
11008SOL    HW234466   2.117   6.897   7.542
11009SOL     OW34467   1.939   6.806   6.227
11009SOL    HW134468   1.970   6.777   6.313
11009SOL    HW234469   2.006   6.775   6.166
11010SOL     OW34470   2.527   7.006   7.200
11010SOL    HW134471   2.469   6.960   7.260
11010SOL    HW234472   2.544   7.090   7.242
11011SOL     OW34473   3.685   5.777   6.825
11011SOL    HW134474   3.671   5.686   6.853
11011SOL    HW234475   3.696   5.771   6.730
11012SOL     OW34476   2.329   6.033   6.092
11012SOL    HW134477   2.348   5.955   6.040
11012SOL    HW234478   2.272   6.002   6.162
11013SOL     OW34479   3.542   7.081   6.686
11013SOL    HW134480   3.472   7.056   6.626
11013SOL    HW234481   3.551   7.006   6.745
11014SOL     OW34482   2.199   6.147   6.884
11014SOL    HW134483   2.252   6.088   6.937
11014SOL    HW234484   2.212   6.117   6.794
11015SOL     OW34485   2.691   7.182   6.245
11015SOL    HW134486   2.690   7.266   6.199
11015SOL    HW234487   2.615   7.135   6.211
11016SOL     OW34488   3.288   5.800   6.683
11016SOL    HW134489   3.300   5.705   6.687
11016SOL    HW234490   3.245   5.823   6.765
11017SOL     OW34491   2.866   5.601   6.718
11017SOL    HW134492   2.819   5.533   6.670
11017SOL    HW234493   2.955   5.566   6.729
11018SOL     OW34494   2.642   6.919   5.913
11018SOL    HW134495   2.607   6.830   5.913
11018SOL    HW234496   2.725   6.913   5.959
11019SOL     OW34497   2.473   7.162   6.869
11019SOL    HW134498   2.473   7.250   6.906
11019SOL    HW234499   2.563   7.148   6.839
11020SOL     OW34500   3.227   5.645   5.730
11020SOL    HW134501   3.271   5.567   5.697
11020SOL    HW234502   3.138   5.616   5.752
11021SOL     OW34503   3.172   6.056   6.268
11021SOL    HW134504   3.113   6.131   6.269
11021SOL    HW234505   3.158   6.014   6.353
11022SOL     OW34506   3.448   5.844   6.457
11022SOL    HW134507   3.406   5.828   6.542
11022SOL    HW234508   3.419   5.772   6.402
11023SOL     OW34509   1.892   6.646   5.885
11023SOL    HW134510   1.987   6.649   5.874
11023SOL    HW234511   1.873   6.556   5.910
11024SOL     OW34512   2.753   7.244   5.915
11024SOL    HW134513   2.678   7.226   5.859
11024SOL    HW234514   2.721   7.311   5.977
11025SOL     OW34515   2.050   6.229   7.554
11025SOL    HW134516   1.985   6.185   7.609
11025SOL    HW234517   2.067   6.167   7.483
11026SOL     OW34518   2.078   5.882   8.448
11026SOL    HW134519   2.113   5.838   8.525
11026SOL    HW234520   1.994   5.840   8.432
11027SOL     OW34521   1.858   5.974   8.086
11027SOL    HW134522   1.776   5.997   8.129
11027SOL    HW234523   1.838   5.897   8.033
11028SOL     OW34524   2.429   6.888   8.642
11028SOL    HW134525   2.346   6.894   8.594
11028SOL    HW234526   2.446   6.977   8.671
11029SOL     OW34527   3.443   7.107   8.154
11029SOL    HW134528   3.397   7.078   8.233
11029SOL    HW234529   3.375   7.110   8.086
11030SOL     OW34530   2.991   6.293   8.231
11030SOL    HW134531   3.034   6.373   8.200
11030SOL    HW234532   2.917   6.282   8.172
11031SOL     OW34533   3.597   6.186   7.696
11031SOL    HW134534   3.593   6.189   7.601
11031SOL    HW234535   3.578   6.095   7.718
11032SOL     OW34536   2.609   6.734   8.505
11032SOL    HW134537   2.540   6.768   8.561
11032SOL    HW234538   2.645   6.811   8.461
11033SOL     OW34539   2.746   6.352   9.270
11033SOL    HW134540   2.730   6.425   9.329
11033SOL    HW234541   2.761   6.393   9.185
11034SOL     OW34542   2.546   6.582   8.088
11034SOL    HW134543   2.612   6.579   8.157
11034SOL    HW234544   2.477   6.639   8.123
11035SOL     OW34545   2.579   6.737   9.275
11035SOL    HW134546   2.629   6.813   9.306
11035SOL    HW234547   2.502   6.775   9.233
11036SOL     OW34548   2.197   6.995   8.514
11036SOL    HW134549   2.122   6.953   8.471
11036SOL    HW234550   2.237   7.049   8.445
11037SOL     OW34551   3.318   7.084   8.820
11037SOL    HW134552   3.372   7.163   8.828
11037SOL    HW234553   3.245   7.098   8.880
11038SOL     OW34554   2.315   5.988   8.950
11038SOL    HW134555   2.389   5.928   8.947
11038SOL    HW234556   2.238   5.931   8.954
11039SOL     OW34557   3.432   6.087   8.211
11039SOL    HW134558   3.360   6.074   8.148
11039SOL    HW234559   3.508   6.106   8.156
11040SOL     OW34560   2.082   7.304   7.913
11040SOL    HW134561   2.104   7.377   7.971
11040SOL    HW234562   2.157   7.298   7.853
11041SOL     OW34563   3.000   6.926   9.143
11041SOL    HW134564   3.039   6.918   9.229
11041SOL    HW234565   2.949   6.846   9.131
11042SOL     OW34566   2.098   7.030   7.971
11042SOL    HW134567   2.078   7.123   7.976
11042SOL    HW234568   2.044   6.990   8.039
11043SOL     OW34569   2.147   6.676   8.351
11043SOL    HW134570   2.135   6.586   8.382
11043SOL    HW234571   2.082   6.727   8.398
11044SOL     OW34572   2.460   7.372   8.884
11044SOL    HW134573   2.376   7.359   8.927
11044SOL    HW234574   2.484   7.462   8.906
11045SOL     OW34575   2.426   6.576   7.598
11045SOL    HW134576   2.483   6.596   7.524
11045SOL    HW234577   2.474   6.608   7.674
11046SOL     OW34578   3.432   5.730   8.896
11046SOL    HW134579   3.487   5.792   8.847
11046SOL    HW234580   3.426   5.768   8.984
11047SOL     OW34581   1.985   6.240   8.011
11047SOL    HW134582   1.951   6.152   8.028
11047SOL    HW234583   1.972   6.287   8.093
11048SOL     OW34584   3.704   7.340   7.772
11048SOL    HW134585   3.777   7.318   7.830
11048SOL    HW234586   3.719   7.431   7.748
11049SOL     OW34587   1.903   7.166   7.564
11049SOL    HW134588   1.879   7.076   7.587
11049SOL    HW234589   1.876   7.217   7.640
11050SOL     OW34590   3.556   6.505   8.098
11050SOL    HW134591   3.622   6.442   8.071
11050SOL    HW234592   3.531   6.550   8.018
11051SOL     OW34593   3.510   6.685   7.882
11051SOL    HW134594   3.597   6.683   7.841
11051SOL    HW234595   3.519   6.749   7.952
11052SOL     OW34596   1.979   6.329   9.031
11052SOL    HW134597   2.064   6.372   9.031
11052SOL    HW234598   1.916   6.400   9.017
11053SOL     OW34599   2.475   6.978   8.190
11053SOL    HW134600   2.432   6.893   8.193
11053SOL    HW234601   2.465   7.006   8.099
11054SOL     OW34602   3.141   6.814   8.865
11054SOL    HW134603   3.166   6.744   8.805
11054SOL    HW234604   3.204   6.808   8.937
11055SOL     OW34605   2.688   5.612   7.977
11055SOL    HW134606   2.725   5.694   7.944
11055SOL    HW234607   2.593   5.626   7.973
11056SOL     OW34608   2.048   6.541   8.741
11056SOL    HW134609   2.135   6.505   8.721
11056SOL    HW234610   1.992   6.505   8.673
11057SOL     OW34611   3.392   6.592   7.648
11057SOL    HW134612   3.326   6.528   7.674
11057SOL    HW234613   3.435   6.617   7.729
11058SOL     OW34614   3.052   7.402   9.084
11058SOL    HW134615   3.048   7.465   9.012
11058SOL    HW234616   3.062   7.317   9.041
11059SOL     OW34617   2.186   5.835   9.319
11059SOL    HW134618   2.226   5.922   9.328
11059SOL    HW234619   2.091   5.852   9.318
11060SOL     OW34620   3.326   7.013   8.384
11060SOL    HW134621   3.262   7.025   8.455
11060SOL    HW234622   3.317   6.921   8.358
11061SOL     OW34623   3.518   7.349   8.025
11061SOL    HW134624   3.492   7.322   7.937
11061SOL    HW234625   3.501   7.273   8.079
11062SOL     OW34626   2.447   6.299   7.711
11062SOL    HW134627   2.458   6.384   7.668
11062SOL    HW234628   2.386   6.316   7.784
11063SOL     OW34629   3.093   5.964   8.396
11063SOL    HW134630   3.021   5.901   8.394
11063SOL    HW234631   3.164   5.918   8.441
11064SOL     OW34632   3.438   7.263   7.763
11064SOL    HW134633   3.531   7.283   7.753
11064SOL    HW234634   3.408   7.247   7.673
11065SOL     OW34635   2.636   6.181   8.921
11065SOL    HW134636   2.630   6.123   8.997
11065SOL    HW234637   2.616   6.125   8.846
11066SOL     OW34638   3.256   6.055   9.122
11066SOL    HW134639   3.267   6.096   9.207
11066SOL    HW234640   3.309   5.975   9.126
11067SOL     OW34641   2.808   6.472   9.024
11067SOL    HW134642   2.861   6.405   8.982
11067SOL    HW234643   2.760   6.514   8.953
11068SOL     OW34644   2.873   6.005   8.635
11068SOL    HW134645   2.786   6.009   8.676
11068SOL    HW234646   2.867   5.932   8.573
11069SOL     OW34647   2.894   6.287   7.890
11069SOL    HW134648   2.949   6.211   7.910
11069SOL    HW234649   2.810   6.249   7.864
11070SOL     OW34650   1.950   6.403   8.228
11070SOL    HW134651   2.028   6.397   8.282
11070SOL    HW234652   1.903   6.480   8.262
11071SOL     OW34653   1.983   7.462   9.031
11071SOL    HW134654   1.985   7.440   9.124
11071SOL    HW234655   1.901   7.425   8.999
11072SOL     OW34656   2.747   5.968   7.674
11072SOL    HW134657   2.785   6.045   7.631
11072SOL    HW234658   2.768   5.896   7.615
11073SOL     OW34659   3.571   6.170   9.295
11073SOL    HW134660   3.538   6.244   9.243
11073SOL    HW234661   3.590   6.102   9.231
11074SOL     OW34662   3.239   6.723   7.985
11074SOL    HW134663   3.317   6.704   7.932
11074SOL    HW234664   3.188   6.785   7.932
11075SOL     OW34665   2.399   5.758   8.332
11075SOL    HW134666   2.410   5.809   8.413
11075SOL    HW234667   2.401   5.823   8.262
11076SOL     OW34668   2.861   7.037   7.917
11076SOL    HW134669   2.834   7.109   7.860
11076SOL    HW234670   2.828   7.062   8.004
11077SOL     OW34671   2.217   7.405   8.323
11077SOL    HW134672   2.264   7.322   8.330
11077SOL    HW234673   2.284   7.471   8.340
11078SOL     OW34674   3.670   6.643   8.320
11078SOL    HW134675   3.625   6.611   8.242
11078SOL    HW234676   3.604   6.641   8.388
11079SOL     OW34677   3.084   7.127   8.963
11079SOL    HW134678   3.073   7.054   9.023
11079SOL    HW234679   3.018   7.113   8.895
11080SOL     OW34680   2.170   6.546   7.706
11080SOL    HW134681   2.256   6.561   7.666
11080SOL    HW234682   2.158   6.451   7.700
11081SOL     OW34683   3.343   6.370   8.217
11081SOL    HW134684   3.366   6.277   8.225
11081SOL    HW234685   3.419   6.410   8.177
11082SOL     OW34686   2.330   6.861   9.192
11082SOL    HW134687   2.306   6.866   9.100
11082SOL    HW234688   2.247   6.852   9.239
11083SOL     OW34689   2.993   7.360   7.674
11083SOL    HW134690   2.913   7.327   7.714
11083SOL    HW234691   3.016   7.295   7.608
11084SOL     OW34692   2.069   5.855   8.953
11084SOL    HW134693   1.986   5.898   8.931
11084SOL    HW234694   2.043   5.768   8.985
11085SOL     OW34695   3.495   6.976   7.552
11085SOL    HW134696   3.453   7.058   7.530
11085SOL    HW234697   3.433   6.908   7.526
11086SOL     OW34698   2.322   7.325   7.763
11086SOL    HW134699   2.368   7.379   7.827
11086SOL    HW234700   2.391   7.289   7.707
11087SOL     OW34701   3.260   5.687   7.880
11087SOL    HW134702   3.246   5.664   7.788
11087SOL    HW234703   3.345   5.648   7.902
11088SOL     OW34704   2.118   7.373   8.668
11088SOL    HW134705   2.165   7.295   8.698
11088SOL    HW234706   2.097   7.354   8.576
11089SOL     OW34707   2.808   7.286   8.336
11089SOL    HW134708   2.894   7.243   8.342
11089SOL    HW234709   2.761   7.237   8.269
11090SOL     OW34710   2.253   6.280   7.918
11090SOL    HW134711   2.276   6.188   7.929
11090SOL    HW234712   2.160   6.284   7.944
11091SOL     OW34713   3.393   5.809   9.177
11091SOL    HW134714   3.388   5.832   9.270
11091SOL    HW234715   3.372   5.715   9.174
11092SOL     OW34716   2.511   5.709   7.554
11092SOL    HW134717   2.595   5.663   7.557
11092SOL    HW234718   2.461   5.665   7.486
11093SOL     OW34719   2.736   7.112   8.646
11093SOL    HW134720   2.720   7.078   8.558
11093SOL    HW234721   2.805   7.057   8.682
11094SOL     OW34722   3.186   6.183   8.886
11094SOL    HW134723   3.225   6.144   8.964
11094SOL    HW234724   3.236   6.265   8.873
11095SOL     OW34725   2.680   6.979   8.397
11095SOL    HW134726   2.766   6.968   8.356
11095SOL    HW234727   2.619   6.988   8.324
11096SOL     OW34728   2.799   6.086   8.344
11096SOL    HW134729   2.781   6.085   8.250
11096SOL    HW234730   2.801   5.994   8.369
11097SOL     OW34731   2.421   5.661   7.951
11097SOL    HW134732   2.335   5.652   7.991
11097SOL    HW234733   2.408   5.729   7.884
11098SOL     OW34734   3.299   6.793   7.485
11098SOL    HW134735   3.329   6.716   7.533
11098SOL    HW234736   3.212   6.811   7.520
11099SOL     OW34737   2.159   5.635   7.630
11099SOL    HW134738   2.220   5.677   7.569
11099SOL    HW234739   2.211   5.570   7.676
11100SOL     OW34740   2.811   5.852   7.912
11100SOL    HW134741   2.783   5.882   7.826
11100SOL    HW234742   2.906   5.852   7.908
11101SOL     OW34743   2.930   6.276   8.879
11101SOL    HW134744   2.873   6.201   8.895
11101SOL    HW234745   3.019   6.240   8.884
11102SOL     OW34746   3.066   7.173   8.251
11102SOL    HW134747   3.082   7.234   8.179
11102SOL    HW234748   3.148   7.171   8.300
11103SOL     OW34749   2.337   6.741   8.171
11103SOL    HW134750   2.275   6.720   8.240
11103SOL    HW234751   2.287   6.730   8.090
11104SOL     OW34752   3.121   7.378   8.068
11104SOL    HW134753   3.170   7.435   8.008
11104SOL    HW234754   3.052   7.434   8.103
11105SOL     OW34755   2.897   6.155   7.537
11105SOL    HW134756   2.854   6.198   7.463
11105SOL    HW234757   2.928   6.072   7.501
11106SOL     OW34758   1.958   6.132   8.841
11106SOL    HW134759   2.049   6.138   8.813
11106SOL    HW234760   1.948   6.203   8.906
11107SOL     OW34761   2.431   5.819   8.611
11107SOL    HW134762   2.469   5.731   8.607
11107SOL    HW234763   2.342   5.805   8.642
11108SOL     OW34764   2.755   6.068   8.079
11108SOL    HW134765   2.702   6.114   8.012
11108SOL    HW234766   2.775   5.984   8.039
11109SOL     OW34767   2.844   5.656   8.205
11109SOL    HW134768   2.795   5.641   8.123
11109SOL    HW234769   2.845   5.571   8.248
11110SOL     OW34770   3.312   6.753   8.295
11110SOL    HW134771   3.232   6.707   8.270
11110SOL    HW234772   3.363   6.757   8.215
11111SOL     OW34773   3.282   6.176   8.480
11111SOL    HW134774   3.309   6.114   8.412
11111SOL    HW234775   3.357   6.180   8.539
11112SOL     OW34776   3.701   6.398   7.835
11112SOL    HW134777   3.760   6.345   7.889
11112SOL    HW234778   3.664   6.337   7.773
11113SOL     OW34779   2.357   7.013   7.602
11113SOL    HW134780   2.280   6.983   7.650
11113SOL    HW234781   2.373   6.943   7.538
11114SOL     OW34782   3.539   6.849   8.096
11114SOL    HW134783   3.635   6.846   8.103
11114SOL    HW234784   3.517   6.942   8.106
11115SOL     OW34785   3.265   6.149   7.523
11115SOL    HW134786   3.207   6.141   7.598
11115SOL    HW234787   3.327   6.077   7.532
11116SOL     OW34788   2.390   5.854   7.758
11116SOL    HW134789   2.439   5.802   7.694
11116SOL    HW234790   2.357   5.929   7.708
11117SOL     OW34791   3.608   6.829   9.003
11117SOL    HW134792   3.696   6.791   8.992
11117SOL    HW234793   3.625   6.919   9.034
11118SOL     OW34794   2.911   6.944   8.786
11118SOL    HW134795   2.835   6.908   8.832
11118SOL    HW234796   2.986   6.897   8.822
11119SOL     OW34797   3.477   7.219   9.118
11119SOL    HW134798   3.462   7.249   9.028
11119SOL    HW234799   3.555   7.164   9.111
11120SOL     OW34800   3.007   6.813   8.551
11120SOL    HW134801   2.938   6.843   8.611
11120SOL    HW234802   2.977   6.842   8.465
11121SOL     OW34803   3.480   6.676   8.519
11121SOL    HW134804   3.469   6.739   8.590
11121SOL    HW234805   3.409   6.695   8.458
11122SOL     OW34806   2.775   5.731   8.812
11122SOL    HW134807   2.793   5.679   8.734
11122SOL    HW234808   2.860   5.744   8.853
11123SOL     OW34809   2.847   6.696   9.173
11123SOL    HW134810   2.756   6.713   9.197
11123SOL    HW234811   2.843   6.620   9.115
11124SOL     OW34812   2.575   6.651   7.818
11124SOL    HW134813   2.559   6.627   7.910
11124SOL    HW234814   2.653   6.602   7.794
11125SOL     OW34815   2.288   6.410   8.701
11125SOL    HW134816   2.357   6.418   8.767
11125SOL    HW234817   2.255   6.321   8.711
11126SOL     OW34818   3.127   5.958   8.736
11126SOL    HW134819   3.157   6.039   8.777
11126SOL    HW234820   3.041   5.979   8.700
11127SOL     OW34821   1.938   7.159   8.808
11127SOL    HW134822   1.904   7.226   8.748
11127SOL    HW234823   2.033   7.161   8.794
11128SOL     OW34824   2.186   6.710   7.942
11128SOL    HW134825   2.191   6.782   7.879
11128SOL    HW234826   2.185   6.631   7.887
11129SOL     OW34827   2.408   6.123   8.316
11129SOL    HW134828   2.418   6.180   8.239
11129SOL    HW234829   2.487   6.139   8.368
11130SOL     OW34830   3.109   6.939   7.842
11130SOL    HW134831   3.166   7.008   7.876
11130SOL    HW234832   3.021   6.962   7.874
11131SOL     OW34833   3.160   7.048   8.596
11131SOL    HW134834   3.210   7.048   8.677
11131SOL    HW234835   3.107   6.968   8.600
11132SOL     OW34836   3.448   6.214   7.941
11132SOL    HW134837   3.370   6.258   7.907
11132SOL    HW234838   3.510   6.215   7.867
11133SOL     OW34839   2.208   7.118   8.751
11133SOL    HW134840   2.197   7.069   8.670
11133SOL    HW234841   2.302   7.130   8.760
11134SOL     OW34842   2.277   6.332   9.049
11134SOL    HW134843   2.346   6.372   8.996
11134SOL    HW234844   2.283   6.239   9.031
11135SOL     OW34845   3.489   6.389   9.151
11135SOL    HW134846   3.400   6.421   9.137
11135SOL    HW234847   3.538   6.418   9.075
11136SOL     OW34848   2.841   5.742   9.196
11136SOL    HW134849   2.908   5.807   9.173
11136SOL    HW234850   2.879   5.659   9.167
11137SOL     OW34851   2.357   5.661   9.194
11137SOL    HW134852   2.322   5.593   9.136
11137SOL    HW234853   2.281   5.715   9.216
11138SOL     OW34854   2.464   6.454   8.487
11138SOL    HW134855   2.474   6.548   8.475
11138SOL    HW234856   2.395   6.445   8.553
11139SOL     OW34857   3.196   6.430   8.463
11139SOL    HW134858   3.222   6.448   8.373
11139SOL    HW234859   3.232   6.343   8.482
11140SOL     OW34860   3.097   6.127   7.745
11140SOL    HW134861   3.092   6.038   7.779
11140SOL    HW234862   3.016   6.140   7.695
11141SOL     OW34863   2.170   5.780   8.693
11141SOL    HW134864   2.129   5.803   8.776
11141SOL    HW234865   2.155   5.685   8.685
11142SOL     OW34866   1.913   6.897   8.719
11142SOL    HW134867   1.943   6.842   8.791
11142SOL    HW234868   1.915   6.986   8.755
11143SOL     OW34869   2.605   6.218   8.505
11143SOL    HW134870   2.669   6.204   8.435
11143SOL    HW234871   2.563   6.301   8.484
11144SOL     OW34872   3.615   6.544   9.346
11144SOL    HW134873   3.586   6.480   9.281
11144SOL    HW234874   3.536   6.565   9.396
11145SOL     OW34875   2.174   5.647   8.073
11145SOL    HW134876   2.148   5.737   8.096
11145SOL    HW234877   2.183   5.603   8.157
11146SOL     OW34878   3.492   5.955   7.809
11146SOL    HW134879   3.528   5.879   7.854
11146SOL    HW234880   3.452   6.007   7.878
11147SOL     OW34881   2.845   7.150   9.174
11147SOL    HW134882   2.823   7.194   9.091
11147SOL    HW234883   2.887   7.069   9.148
11148SOL     OW34884   3.714   7.087   9.054
11148SOL    HW134885   3.738   7.111   8.965
11148SOL    HW234886   3.795   7.095   9.104
11149SOL     OW34887   2.211   6.497   9.262
11149SOL    HW134888   2.294   6.517   9.307
11149SOL    HW234889   2.236   6.436   9.192
11150SOL     OW34890   3.365   5.882   7.571
11150SOL    HW134891   3.313   5.804   7.589
11150SOL    HW234892   3.415   5.897   7.651
11151SOL     OW34893   3.160   6.409   7.482
11151SOL    HW134894   3.195   6.320   7.484
11151SOL    HW234895   3.189   6.445   7.398
11152SOL     OW34896   2.933   6.932   8.311
11152SOL    HW134897   2.936   6.859   8.249
11152SOL    HW234898   2.983   7.002   8.270
11153SOL     OW34899   2.169   6.393   8.392
11153SOL    HW134900   2.259   6.400   8.359
11153SOL    HW234901   2.164   6.304   8.429
11154SOL     OW34902   2.191   6.122   8.469
11154SOL    HW134903   2.151   6.036   8.455
11154SOL    HW234904   2.268   6.122   8.412
11155SOL     OW34905   2.995   5.971   9.136
11155SOL    HW134906   2.959   6.028   9.204
11155SOL    HW234907   3.086   6.000   9.126
11156SOL     OW34908   3.018   5.790   8.923
11156SOL    HW134909   3.013   5.856   8.992
11156SOL    HW234910   3.072   5.829   8.855
11157SOL     OW34911   1.864   6.893   7.632
11157SOL    HW134912   1.775   6.912   7.603
11157SOL    HW234913   1.858   6.806   7.671
11158SOL     OW34914   1.957   7.360   8.399
11158SOL    HW134915   1.923   7.286   8.347
11158SOL    HW234916   2.043   7.378   8.361
11159SOL     OW34917   2.353   7.163   8.354
11159SOL    HW134918   2.423   7.225   8.376
11159SOL    HW234919   2.394   7.100   8.296
11160SOL     OW34920   2.873   6.311   8.604
11160SOL    HW134921   2.903   6.321   8.694
11160SOL    HW234922   2.780   6.288   8.612
11161SOL     OW34923   1.891   6.140   8.567
11161SOL    HW134924   1.961   6.113   8.508
11161SOL    HW234925   1.930   6.135   8.654
11162SOL     OW34926   2.051   6.107   9.181
11162SOL    HW134927   2.081   6.048   9.111
11162SOL    HW234928   2.018   6.183   9.134
11163SOL     OW34929   3.246   6.515   9.104
11163SOL    HW134930   3.264   6.608   9.098
11163SOL    HW234931   3.242   6.485   9.014
11164SOL     OW34932   2.656   6.165   7.835
11164SOL    HW134933   2.672   6.087   7.782
11164SOL    HW234934   2.585   6.210   7.789
11165SOL     OW34935   3.505   6.190   8.641
11165SOL    HW134936   3.503   6.120   8.707
11165SOL    HW234937   3.589   6.178   8.596
11166SOL     OW34938   2.099   7.130   9.172
11166SOL    HW134939   2.074   7.189   9.244
11166SOL    HW234940   2.104   7.044   9.213
11167SOL     OW34941   2.588   6.030   8.702
11167SOL    HW134942   2.536   5.954   8.674
11167SOL    HW234943   2.581   6.092   8.629
11168SOL     OW34944   2.778   7.260   8.925
11168SOL    HW134945   2.757   7.216   8.843
11168SOL    HW234946   2.773   7.353   8.904
11169SOL     OW34947   2.302   6.076   7.618
11169SOL    HW134948   2.374   6.136   7.635
11169SOL    HW234949   2.223   6.131   7.624
11170SOL     OW34950   2.000   6.731   8.928
11170SOL    HW134951   2.003   6.689   9.013
11170SOL    HW234952   2.017   6.661   8.865
11171SOL     OW34953   3.166   6.617   8.661
11171SOL    HW134954   3.177   6.550   8.593
11171SOL    HW234955   3.110   6.683   8.620
11172SOL     OW34956   3.177   6.439   7.755
11172SOL    HW134957   3.112   6.384   7.799
11172SOL    HW234958   3.163   6.423   7.662
11173SOL     OW34959   3.657   7.311   8.622
11173SOL    HW134960   3.711   7.336   8.547
11173SOL    HW234961   3.612   7.231   8.594
11174SOL     OW34962   3.108   7.320   8.566
11174SOL    HW134963   3.187   7.344   8.518
11174SOL    HW234964   3.115   7.226   8.579
11175SOL     OW34965   1.957   6.846   8.456
11175SOL    HW134966   1.934   6.863   8.548
11175SOL    HW234967   1.885   6.793   8.423
11176SOL     OW34968   2.543   7.264   9.190
11176SOL    HW134969   2.477   7.332   9.179
11176SOL    HW234970   2.607   7.281   9.121
11177SOL     OW34971   3.608   5.756   7.953
11177SOL    HW134972   3.671   5.731   7.886
11177SOL    HW234973   3.574   5.672   7.986
11178SOL     OW34974   3.260   7.156   7.948
11178SOL    HW134975   3.314   7.189   7.876
11178SOL    HW234976   3.205   7.230   7.972
11179SOL     OW34977   1.999   7.387   9.289
11179SOL    HW134978   1.953   7.315   9.333
11179SOL    HW234979   2.046   7.431   9.360
11180SOL     OW34980   3.132   6.519   8.134
11180SOL    HW134981   3.207   6.462   8.150
11180SOL    HW234982   3.162   6.581   8.067
11181SOL     OW34983   2.657   6.865   8.872
11181SOL    HW134984   2.630   6.908   8.953
11181SOL    HW234985   2.586   6.884   8.810
11182SOL     OW34986   2.530   7.221   7.602
11182SOL    HW134987   2.547   7.233   7.509
11182SOL    HW234988   2.476   7.142   7.607
11183SOL     OW34989   3.482   7.309   8.850
11183SOL    HW134990   3.533   7.307   8.769
11183SOL    HW234991   3.466   7.402   8.866
11184SOL     OW34992   3.710   5.756   8.415
11184SOL    HW134993   3.735   5.666   8.394
11184SOL    HW234994   3.624   5.768   8.374
11185SOL     OW34995   2.116   5.900   8.163
11185SOL    HW134996   2.030   5.931   8.137
11185SOL    HW234997   2.112   5.897   8.259
11186SOL     OW34998   3.071   7.178   7.484
11186SOL    HW134999   3.058   7.086   7.508
11186SOL    HW235000   3.005   7.194   7.416
11187SOL     OW35001   2.682   6.598   8.815
11187SOL    HW135002   2.698   6.601   8.721
11187SOL    HW235003   2.674   6.689   8.841
11188SOL     OW35004   2.793   6.513   7.754
11188SOL    HW135005   2.848   6.531   7.678
11188SOL    HW235006   2.836   6.439   7.797
11189SOL     OW35007   3.346   7.229   7.498
11189SOL    HW135008   3.255   7.208   7.481
11189SOL    HW235009   3.387   7.231   7.412
11190SOL     OW35010   2.228   6.896   8.945
11190SOL    HW135011   2.218   6.969   8.884
11190SOL    HW235012   2.152   6.840   8.928
11191SOL     OW35013   3.463   6.867   8.727
11191SOL    HW135014   3.521   6.846   8.800
11191SOL    HW235015   3.403   6.932   8.763
11192SOL     OW35016   2.922   6.703   8.171
11192SOL    HW135017   2.848   6.652   8.204
11192SOL    HW235018   2.985   6.637   8.141
11193SOL     OW35019   2.864   5.815   8.423
11193SOL    HW135020   2.856   5.773   8.337
11193SOL    HW235021   2.864   5.743   8.485
11194SOL     OW35022   2.476   7.074   7.934
11194SOL    HW135023   2.526   7.024   7.870
11194SOL    HW235024   2.399   7.105   7.885
11195SOL     OW35025   3.600   5.976   8.829
11195SOL    HW135026   3.676   6.035   8.825
11195SOL    HW235027   3.624   5.903   8.772
11196SOL     OW35028   2.122   6.926   7.727
11196SOL    HW135029   2.029   6.918   7.706
11196SOL    HW235030   2.124   6.968   7.813
11197SOL     OW35031   1.983   6.635   9.188
11197SOL    HW135032   1.904   6.604   9.232
11197SOL    HW235033   2.053   6.580   9.223
11198SOL     OW35034   2.561   5.792   8.974
11198SOL    HW135035   2.635   5.788   8.913
11198SOL    HW235036   2.512   5.712   8.957
11199SOL     OW35037   1.937   5.918   7.503
11199SOL    HW135038   1.876   5.858   7.460
11199SOL    HW235039   1.961   5.980   7.434
11200SOL     OW35040   3.286   6.446   8.844
11200SOL    HW135041   3.233   6.501   8.786
11200SOL    HW235042   3.373   6.446   8.804
11201SOL     OW35043   1.929   5.741   7.739
11201SOL    HW135044   1.919   5.814   7.679
11201SOL    HW235045   2.014   5.703   7.717
11202SOL     OW35046   3.046   6.909   7.570
11202SOL    HW135047   2.967   6.854   7.574
11202SOL    HW235048   3.073   6.917   7.662
11203SOL     OW35049   2.488   6.411   8.888
11203SOL    HW135050   2.548   6.483   8.867
11203SOL    HW235051   2.545   6.335   8.899
11204SOL     OW35052   3.343   7.381   8.436
11204SOL    HW135053   3.362   7.444   8.366
11204SOL    HW235054   3.416   7.319   8.433
11205SOL     OW35055   2.638   6.062   9.194
11205SOL    HW135056   2.580   6.135   9.213
11205SOL    HW235057   2.725   6.093   9.221
11206SOL     OW35058   3.335   6.776   9.073
11206SOL    HW135059   3.325   6.795   9.167
11206SOL    HW235060   3.427   6.798   9.054
11207SOL     OW35061   2.226   7.329   9.019
11207SOL    HW135062   2.145   7.376   8.999
11207SOL    HW235063   2.197   7.246   9.057
11208SOL     OW35064   3.525   6.462   8.706
11208SOL    HW135065   3.525   6.373   8.671
11208SOL    HW235066   3.516   6.519   8.630
11209SOL     OW35067   3.085   5.901   7.911
11209SOL    HW135068   3.142   5.826   7.894
11209SOL    HW235069   3.124   5.945   7.987
11210SOL     OW35070   2.433   6.328   8.132
11210SOL    HW135071   2.480   6.408   8.108
11210SOL    HW235072   2.376   6.310   8.057
11211SOL     OW35073   3.604   5.973   9.109
11211SOL    HW135074   3.603   5.977   9.013
11211SOL    HW235075   3.542   5.903   9.130
11212SOL     OW35076   3.626   6.521   8.954
11212SOL    HW135077   3.600   6.613   8.961
11212SOL    HW235078   3.602   6.496   8.865
11213SOL     OW35079   2.690   6.965   7.483
11213SOL    HW135080   2.683   6.990   7.575
11213SOL    HW235081   2.735   7.039   7.442
11214SOL     OW35082   2.529   7.369   8.382
11214SOL    HW135083   2.509   7.461   8.364
11214SOL    HW235084   2.624   7.363   8.374
11215SOL     OW35085   2.719   6.570   8.309
11215SOL    HW135086   2.746   6.489   8.353
11215SOL    HW235087   2.681   6.624   8.378
11216SOL     OW35088   2.934   6.562   7.527
11216SOL    HW135089   2.920   6.611   7.446
11216SOL    HW235090   3.012   6.509   7.510
11217SOL     OW35091   3.711   7.138   8.297
11217SOL    HW135092   3.635   7.123   8.241
11217SOL    HW235093   3.730   7.052   8.335
11218SOL     OW35094   2.073   6.876   9.291
11218SOL    HW135095   2.039   6.798   9.247
11218SOL    HW235096   2.014   6.890   9.365
11219SOL     OW35097   1.961   6.817   8.112
11219SOL    HW135098   1.958   6.766   8.193
11219SOL    HW235099   2.027   6.773   8.059
11220SOL     OW35100   2.552   6.996   9.090
11220SOL    HW135101   2.469   6.957   9.120
11220SOL    HW235102   2.549   7.086   9.121
11221SOL     OW35103   3.667   5.758   8.687
11221SOL    HW135104   3.671   5.664   8.700
11221SOL    HW235105   3.682   5.770   8.593
11222SOL     OW35106   2.294   6.020   7.971
11222SOL    HW135107   2.330   5.954   7.912
11222SOL    HW235108   2.242   5.970   8.034
11223SOL     OW35109   3.535   7.082   8.556
11223SOL    HW135110   3.470   7.060   8.489
11223SOL    HW235111   3.537   7.005   8.613
11224SOL     OW35112   2.209   6.151   8.743
11224SOL    HW135113   2.263   6.088   8.791
11224SOL    HW235114   2.216   6.125   8.652
11225SOL     OW35115   2.695   7.180   8.111
11225SOL    HW135116   2.685   7.261   8.061
11225SOL    HW235117   2.617   7.129   8.090
11226SOL     OW35118   3.277   5.809   8.529
11226SOL    HW135119   3.297   5.715   8.529
11226SOL    HW235120   3.251   5.829   8.619
11227SOL     OW35121   2.863   5.592   8.584
11227SOL    HW135122   2.816   5.527   8.532
11227SOL    HW235123   2.952   5.558   8.592
11228SOL     OW35124   2.640   6.921   7.775
11228SOL    HW135125   2.616   6.829   7.780
11228SOL    HW235126   2.724   6.926   7.822
11229SOL     OW35127   2.482   7.142   8.740
11229SOL    HW135128   2.481   7.223   8.790
11229SOL    HW235129   2.569   7.138   8.702
11230SOL     OW35130   3.229   5.643   7.609
11230SOL    HW135131   3.270   5.567   7.567
11230SOL    HW235132   3.136   5.625   7.607
11231SOL     OW35133   3.159   6.057   8.140
11231SOL    HW135134   3.106   6.137   8.149
11231SOL    HW235135   3.141   6.007   8.219
11232SOL     OW35136   3.467   5.829   8.323
11232SOL    HW135137   3.399   5.815   8.388
11232SOL    HW235138   3.445   5.913   8.282
11233SOL     OW35139   1.904   6.645   7.751
11233SOL    HW135140   1.997   6.636   7.732
11233SOL    HW235141   1.876   6.557   7.777
11234SOL     OW35142   2.754   7.249   7.774
11234SOL    HW135143   2.678   7.235   7.718
11234SOL    HW235144   2.724   7.312   7.840
11235SOL     OW35145   2.079   6.201   9.443
11235SOL    HW135146   1.989   6.201   9.476
11235SOL    HW235147   2.071   6.185   9.349
11236SOL     OW35148   2.089   5.868  10.296
11236SOL    HW135149   2.117   5.834  10.381
11236SOL    HW235150   2.000   5.836  10.286
11237SOL     OW35151   1.856   5.970   9.953
11237SOL    HW135152   1.778   6.003   9.997
11237SOL    HW235153   1.825   5.895   9.902
11238SOL     OW35154   2.433   6.889  10.505
11238SOL    HW135155   2.350   6.893  10.456
11238SOL    HW235156   2.449   6.979  10.531
11239SOL     OW35157   3.444   7.102  10.018
11239SOL    HW135158   3.398   7.075  10.098
11239SOL    HW235159   3.376   7.105   9.951
11240SOL     OW35160   2.995   6.287  10.000
11240SOL    HW135161   3.041   6.370   9.989
11240SOL    HW235162   2.947   6.297  10.083
11241SOL     OW35163   3.632   6.166   9.558
11241SOL    HW135164   3.611   6.173   9.465
11241SOL    HW235165   3.582   6.090   9.588
11242SOL     OW35166   2.602   6.722  10.364
11242SOL    HW135167   2.538   6.761  10.424
11242SOL    HW235168   2.641   6.796  10.318
11243SOL     OW35169   2.745   6.340  11.136
11243SOL    HW135170   2.734   6.412  11.199
11243SOL    HW235171   2.764   6.384  11.053
11244SOL     OW35172   2.548   6.578   9.952
11244SOL    HW135173   2.614   6.574  10.021
11244SOL    HW235174   2.480   6.635   9.987
11245SOL     OW35175   2.576   6.735  11.136
11245SOL    HW135176   2.625   6.811  11.167
11245SOL    HW235177   2.499   6.773  11.093
11246SOL     OW35178   2.196   6.995  10.376
11246SOL    HW135179   2.121   6.954  10.332
11246SOL    HW235180   2.237   7.048  10.307
11247SOL     OW35181   3.318   7.090  10.677
11247SOL    HW135182   3.372   7.168  10.686
11247SOL    HW235183   3.248   7.102  10.742
11248SOL     OW35184   2.314   5.973  10.785
11248SOL    HW135185   2.389   5.915  10.792
11248SOL    HW235186   2.238   5.918  10.803
11249SOL     OW35187   3.435   6.041  10.018
11249SOL    HW135188   3.341   6.040  10.002
11249SOL    HW235189   3.468   6.109   9.960
11250SOL     OW35190   2.081   7.308   9.774
11250SOL    HW135191   2.106   7.381   9.830
11250SOL    HW235192   2.154   7.299   9.712
11251SOL     OW35193   3.000   6.928  11.007
11251SOL    HW135194   3.043   6.918  11.092
11251SOL    HW235195   2.948   6.848  10.996
11252SOL     OW35196   2.098   7.040   9.851
11252SOL    HW135197   2.075   7.132   9.848
11252SOL    HW235198   2.038   7.002   9.915
11253SOL     OW35199   2.140   6.678  10.204
11253SOL    HW135200   2.134   6.589  10.237
11253SOL    HW235201   2.077   6.728  10.257
11254SOL     OW35202   2.453   7.385  10.732
11254SOL    HW135203   2.375   7.364  10.782
11254SOL    HW235204   2.478   7.473  10.762
11255SOL     OW35205   2.437   6.572   9.454
11255SOL    HW135206   2.486   6.617   9.385
11255SOL    HW235207   2.477   6.603   9.536
11256SOL     OW35208   3.465   5.728  10.778
11256SOL    HW135209   3.408   5.770  10.713
11256SOL    HW235210   3.428   5.753  10.862
11257SOL     OW35211   1.985   6.239   9.874
11257SOL    HW135212   1.952   6.152   9.894
11257SOL    HW235213   1.975   6.289   9.955
11258SOL     OW35214   3.706   7.336   9.628
11258SOL    HW135215   3.774   7.314   9.691
11258SOL    HW235216   3.719   7.429   9.610
11259SOL     OW35217   1.914   7.172   9.427
11259SOL    HW135218   1.890   7.081   9.445
11259SOL    HW235219   1.881   7.220   9.503
11260SOL     OW35220   3.556   6.509   9.973
11260SOL    HW135221   3.633   6.456   9.955
11260SOL    HW235222   3.538   6.554   9.891
11261SOL     OW35223   3.522   6.675   9.745
11261SOL    HW135224   3.605   6.675   9.698
11261SOL    HW235225   3.532   6.743   9.811
11262SOL     OW35226   1.983   6.330  10.893
11262SOL    HW135227   2.071   6.368  10.892
11262SOL    HW235228   1.924   6.404  10.880
11263SOL     OW35229   2.475   6.978  10.051
11263SOL    HW135230   2.432   6.893  10.054
11263SOL    HW235231   2.463   7.008   9.960
11264SOL     OW35232   3.142   6.818  10.731
11264SOL    HW135233   3.169   6.750  10.670
11264SOL    HW235234   3.204   6.812  10.804
11265SOL     OW35235   2.688   5.598   9.833
11265SOL    HW135236   2.731   5.679   9.803
11265SOL    HW235237   2.595   5.619   9.833
11266SOL     OW35238   2.047   6.543  10.602
11266SOL    HW135239   2.134   6.506  10.585
11266SOL    HW235240   1.992   6.507  10.531
11267SOL     OW35241   3.392   6.594   9.515
11267SOL    HW135242   3.324   6.532   9.543
11267SOL    HW235243   3.434   6.621   9.596
11268SOL     OW35244   3.039   7.396  10.939
11268SOL    HW135245   3.048   7.458  10.867
11268SOL    HW235246   3.059   7.311  10.900
11269SOL     OW35247   2.206   5.831  11.162
11269SOL    HW135248   2.245   5.918  11.172
11269SOL    HW235249   2.112   5.845  11.170
11270SOL     OW35250   3.330   7.005  10.248
11270SOL    HW135251   3.265   7.022  10.317
11270SOL    HW235252   3.315   6.914  10.223
11271SOL     OW35253   3.515   7.347   9.882
11271SOL    HW135254   3.489   7.313   9.797
11271SOL    HW235255   3.501   7.274   9.942
11272SOL     OW35256   2.455   6.301   9.584
11272SOL    HW135257   2.456   6.385   9.540
11272SOL    HW235258   2.390   6.310   9.654
11273SOL     OW35259   3.156   5.962  10.249
11273SOL    HW135260   3.070   5.922  10.263
11273SOL    HW235261   3.216   5.911  10.303
11274SOL     OW35262   3.439   7.263   9.624
11274SOL    HW135263   3.532   7.281   9.613
11274SOL    HW235264   3.406   7.247   9.535
11275SOL     OW35265   2.653   6.201  10.753
11275SOL    HW135266   2.628   6.173  10.841
11275SOL    HW235267   2.623   6.130  10.696
11276SOL     OW35268   3.254   6.060  10.987
11276SOL    HW135269   3.259   6.105  11.071
11276SOL    HW235270   3.303   5.979  11.000
11277SOL     OW35271   2.811   6.468  10.899
11277SOL    HW135272   2.865   6.401  10.858
11277SOL    HW235273   2.761   6.506  10.826
11278SOL     OW35274   2.854   5.995  10.532
11278SOL    HW135275   2.762   6.005  10.553
11278SOL    HW235276   2.855   5.953  10.446
11279SOL     OW35277   2.916   6.282   9.732
11279SOL    HW135278   2.935   6.276   9.825
11279SOL    HW235279   2.832   6.237   9.722
11280SOL     OW35280   1.952   6.400  10.092
11280SOL    HW135281   2.032   6.398  10.145
11280SOL    HW235282   1.904   6.477  10.124
11281SOL     OW35283   1.986   7.464  10.895
11281SOL    HW135284   1.987   7.442  10.989
11281SOL    HW235285   1.909   7.420  10.861
11282SOL     OW35286   2.774   5.924   9.498
11282SOL    HW135287   2.810   5.994   9.443
11282SOL    HW235288   2.814   5.844   9.465
11283SOL     OW35289   3.554   6.156  11.149
11283SOL    HW135290   3.527   6.230  11.095
11283SOL    HW235291   3.581   6.089  11.087
11284SOL     OW35292   3.248   6.732   9.853
11284SOL    HW135293   3.326   6.718   9.799
11284SOL    HW235294   3.194   6.792   9.802
11285SOL     OW35295   2.407   5.755  10.209
11285SOL    HW135296   2.412   5.786  10.299
11285SOL    HW235297   2.412   5.835  10.156
11286SOL     OW35298   2.862   7.036   9.777
11286SOL    HW135299   2.833   7.108   9.721
11286SOL    HW235300   2.830   7.059   9.864
11287SOL     OW35301   2.218   7.404  10.186
11287SOL    HW135302   2.263   7.320  10.192
11287SOL    HW235303   2.287   7.469  10.201
11288SOL     OW35304   3.664   6.643  10.196
11288SOL    HW135305   3.616   6.619  10.116
11288SOL    HW235306   3.597   6.648  10.264
11289SOL     OW35307   3.082   7.127  10.824
11289SOL    HW135308   3.074   7.056  10.888
11289SOL    HW235309   3.022   7.103  10.754
11290SOL     OW35310   2.171   6.547   9.568
11290SOL    HW135311   2.253   6.569   9.524
11290SOL    HW235312   2.141   6.467   9.525
11291SOL     OW35313   3.335   6.353  10.031
11291SOL    HW135314   3.336   6.299  10.110
11291SOL    HW235315   3.418   6.400  10.033
11292SOL     OW35316   2.332   6.861  11.053
11292SOL    HW135317   2.307   6.867  10.961
11292SOL    HW235318   2.250   6.852  11.100
11293SOL     OW35319   2.993   7.360   9.538
11293SOL    HW135320   2.912   7.326   9.577
11293SOL    HW235321   3.015   7.296   9.470
11294SOL     OW35322   2.066   5.850  10.812
11294SOL    HW135323   1.983   5.899  10.808
11294SOL    HW235324   2.041   5.764  10.845
11295SOL     OW35325   3.495   6.976   9.408
11295SOL    HW135326   3.451   7.059   9.393
11295SOL    HW235327   3.430   6.910   9.386
11296SOL     OW35328   2.322   7.327   9.622
11296SOL    HW135329   2.371   7.376   9.688
11296SOL    HW235330   2.389   7.285   9.568
11297SOL     OW35331   3.260   5.685   9.753
11297SOL    HW135332   3.257   5.657   9.662
11297SOL    HW235333   3.352   5.674   9.779
11298SOL     OW35334   2.122   7.375  10.529
11298SOL    HW135335   2.167   7.298  10.561
11298SOL    HW235336   2.099   7.354  10.438
11299SOL     OW35337   2.804   7.284  10.201
11299SOL    HW135338   2.889   7.241  10.212
11299SOL    HW235339   2.762   7.234  10.131
11300SOL     OW35340   2.261   6.274   9.785
11300SOL    HW135341   2.276   6.180   9.798
11300SOL    HW235342   2.167   6.286   9.799
11301SOL     OW35343   3.373   5.806  11.033
11301SOL    HW135344   3.386   5.827  11.125
11301SOL    HW235345   3.311   5.733  11.033
11302SOL     OW35346   2.533   5.693   9.390
11302SOL    HW135347   2.575   5.610   9.414
11302SOL    HW235348   2.465   5.668   9.327
11303SOL     OW35349   2.625   5.863  11.069
11303SOL    HW135350   2.707   5.814  11.064
11303SOL    HW235351   2.578   5.824  11.143
11304SOL     OW35352   2.735   7.112  10.508
11304SOL    HW135353   2.719   7.074  10.422
11304SOL    HW235354   2.805   7.059  10.545
11305SOL     OW35355   3.200   6.177  10.742
11305SOL    HW135356   3.230   6.147  10.828
11305SOL    HW235357   3.235   6.265  10.733
11306SOL     OW35358   2.679   6.972  10.261
11306SOL    HW135359   2.765   6.963  10.219
11306SOL    HW235360   2.618   6.982  10.187
11307SOL     OW35361   2.791   6.099  10.205
11307SOL    HW135362   2.766   6.087  10.114
11307SOL    HW235363   2.824   6.013  10.232
11308SOL     OW35364   2.421   5.656   9.804
11308SOL    HW135365   2.340   5.659   9.856
11308SOL    HW235366   2.414   5.729   9.743
11309SOL     OW35367   3.295   6.795   9.349
11309SOL    HW135368   3.320   6.719   9.401
11309SOL    HW235369   3.207   6.816   9.380
11310SOL     OW35370   2.149   5.635   9.504
11310SOL    HW135371   2.178   5.705   9.446
11310SOL    HW235372   2.229   5.585   9.523
11311SOL     OW35373   2.808   5.840   9.764
11311SOL    HW135374   2.785   5.871   9.676
11311SOL    HW235375   2.903   5.852   9.769
11312SOL     OW35376   2.941   6.271  10.763
11312SOL    HW135377   2.876   6.201  10.763
11312SOL    HW235378   3.025   6.226  10.756
11313SOL     OW35379   3.069   7.170  10.112
11313SOL    HW135380   3.085   7.231  10.040
11313SOL    HW235381   3.146   7.179  10.168
11314SOL     OW35382   2.338   6.741  10.029
11314SOL    HW135383   2.273   6.719  10.097
11314SOL    HW235384   2.290   6.732   9.947
11315SOL     OW35385   3.120   7.376   9.927
11315SOL    HW135386   3.168   7.435   9.869
11315SOL    HW235387   3.050   7.429   9.963
11316SOL     OW35388   2.883   6.126   9.339
11316SOL    HW135389   2.848   6.214   9.325
11316SOL    HW235390   2.949   6.137   9.407
11317SOL     OW35391   1.955   6.136  10.703
11317SOL    HW135392   2.047   6.139  10.675
11317SOL    HW235393   1.948   6.205  10.769
11318SOL     OW35394   2.420   5.812  10.482
11318SOL    HW135395   2.461   5.738  10.527
11318SOL    HW235396   2.329   5.809  10.508
11319SOL     OW35397   2.727   6.043   9.945
11319SOL    HW135398   2.685   6.098   9.879
11319SOL    HW235399   2.755   5.964   9.898
11320SOL     OW35400   2.865   5.663  10.069
11320SOL    HW135401   2.818   5.650   9.987
11320SOL    HW235402   2.852   5.580  10.117
11321SOL     OW35403   3.299   6.744  10.165
11321SOL    HW135404   3.231   6.677  10.171
11321SOL    HW235405   3.319   6.749  10.071
11322SOL     OW35406   3.311   6.211  10.271
11322SOL    HW135407   3.269   6.126  10.262
11322SOL    HW235408   3.383   6.196  10.332
11323SOL     OW35409   2.352   7.008   9.457
11323SOL    HW135410   2.279   6.976   9.511
11323SOL    HW235411   2.346   6.958   9.376
11324SOL     OW35412   3.555   6.851   9.944
11324SOL    HW135413   3.649   6.849   9.965
11324SOL    HW235414   3.528   6.939   9.969
11325SOL     OW35415   3.255   6.145   9.384
11325SOL    HW135416   3.187   6.129   9.450
11325SOL    HW235417   3.323   6.081   9.403
11326SOL     OW35418   2.398   5.844   9.610
11326SOL    HW135419   2.453   5.805   9.542
11326SOL    HW235420   2.365   5.925   9.570
11327SOL     OW35421   3.606   6.830  10.861
11327SOL    HW135422   3.693   6.793  10.848
11327SOL    HW235423   3.621   6.918  10.894
11328SOL     OW35424   2.913   6.948  10.650
11328SOL    HW135425   2.836   6.911  10.694
11328SOL    HW235426   2.987   6.899  10.686
11329SOL     OW35427   3.471   7.218  10.973
11329SOL    HW135428   3.461   7.252  10.884
11329SOL    HW235429   3.551   7.165  10.970
11330SOL     OW35430   3.006   6.813  10.414
11330SOL    HW135431   2.936   6.842  10.472
11330SOL    HW235432   2.978   6.843  10.327
11331SOL     OW35433   3.474   6.679  10.388
11331SOL    HW135434   3.466   6.745  10.457
11331SOL    HW235435   3.402   6.698  10.328
11332SOL     OW35436   2.777   5.675  10.698
11332SOL    HW135437   2.800   5.656  10.607
11332SOL    HW235438   2.857   5.711  10.735
11333SOL     OW35439   2.845   6.701  11.033
11333SOL    HW135440   2.754   6.717  11.057
11333SOL    HW235441   2.842   6.622  10.979
11334SOL     OW35442   2.575   6.648   9.682
11334SOL    HW135443   2.560   6.625   9.774
11334SOL    HW235444   2.651   6.596   9.656
11335SOL     OW35445   2.285   6.411  10.566
11335SOL    HW135446   2.354   6.419  10.632
11335SOL    HW235447   2.253   6.321  10.576
11336SOL     OW35448   3.108   5.951  10.614
11336SOL    HW135449   3.146   6.033  10.646
11336SOL    HW235450   3.022   5.976  10.581
11337SOL     OW35451   1.938   7.159  10.672
11337SOL    HW135452   1.904   7.223  10.610
11337SOL    HW235453   2.033   7.159  10.657
11338SOL     OW35454   2.189   6.712   9.798
11338SOL    HW135455   2.188   6.785   9.736
11338SOL    HW235456   2.189   6.634   9.743
11339SOL     OW35457   2.404   6.114  10.172
11339SOL    HW135458   2.417   6.172  10.098
11339SOL    HW235459   2.474   6.137  10.233
11340SOL     OW35460   3.109   6.936   9.705
11340SOL    HW135461   3.164   7.007   9.737
11340SOL    HW235462   3.021   6.959   9.736
11341SOL     OW35463   3.159   7.049  10.456
11341SOL    HW135464   3.211   7.052  10.537
11341SOL    HW235465   3.107   6.969  10.463
11342SOL     OW35466   3.438   6.215   9.805
11342SOL    HW135467   3.381   6.270   9.858
11342SOL    HW235468   3.439   6.258   9.719
11343SOL     OW35469   2.207   7.119  10.613
11343SOL    HW135470   2.197   7.070  10.531
11343SOL    HW235471   2.302   7.131  10.622
11344SOL     OW35472   2.280   6.335  10.915
11344SOL    HW135473   2.345   6.376  10.859
11344SOL    HW235474   2.310   6.245  10.927
11345SOL     OW35475   3.477   6.369  10.999
11345SOL    HW135476   3.391   6.409  10.993
11345SOL    HW235477   3.529   6.410  10.930
11346SOL     OW35478   2.857   5.722  11.071
11346SOL    HW135479   2.916   5.794  11.051
11346SOL    HW235480   2.906   5.643  11.045
11347SOL     OW35481   2.357   5.619  11.068
11347SOL    HW135482   2.308   5.567  11.004
11347SOL    HW235483   2.300   5.695  11.085
11348SOL     OW35484   2.453   6.459  10.346
11348SOL    HW135485   2.485   6.549  10.347
11348SOL    HW235486   2.392   6.455  10.420
11349SOL     OW35487   3.187   6.451  10.323
11349SOL    HW135488   3.101   6.431  10.287
11349SOL    HW235489   3.238   6.370  10.309
11350SOL     OW35490   3.051   6.107   9.566
11350SOL    HW135491   3.066   6.030   9.620
11350SOL    HW235492   3.012   6.171   9.626
11351SOL     OW35493   2.158   5.782  10.553
11351SOL    HW135494   2.121   5.811  10.636
11351SOL    HW235495   2.142   5.687  10.551
11352SOL     OW35496   1.911   6.897  10.581
11352SOL    HW135497   1.942   6.841  10.653
11352SOL    HW235498   1.913   6.986  10.618
11353SOL     OW35499   2.582   6.212  10.360
11353SOL    HW135500   2.658   6.201  10.303
11353SOL    HW235501   2.552   6.302  10.344
11354SOL     OW35502   3.607   6.546  11.173
11354SOL    HW135503   3.565   6.477  11.122
11354SOL    HW235504   3.544   6.565  11.243
11355SOL     OW35505   2.154   5.603   9.909
11355SOL    HW135506   2.125   5.694   9.918
11355SOL    HW235507   2.172   5.575   9.999
11356SOL     OW35508   3.491   5.960   9.676
11356SOL    HW135509   3.518   5.884   9.727
11356SOL    HW235510   3.468   6.026   9.742
11357SOL     OW35511   2.890   6.347  10.266
11357SOL    HW135512   2.878   6.362  10.360
11357SOL    HW235513   2.864   6.256  10.252
11358SOL     OW35514   2.840   7.148  11.037
11358SOL    HW135515   2.822   7.193  10.953
11358SOL    HW235516   2.886   7.068  11.012
11359SOL     OW35517   3.708   7.085  10.914
11359SOL    HW135518   3.732   7.113  10.825
11359SOL    HW235519   3.788   7.096  10.965
11360SOL     OW35520   2.211   6.501  11.124
11360SOL    HW135521   2.293   6.520  11.170
11360SOL    HW235522   2.236   6.440  11.054
11361SOL     OW35523   3.363   5.879   9.442
11361SOL    HW135524   3.314   5.798   9.461
11361SOL    HW235525   3.411   5.897   9.522
11362SOL     OW35526   3.156   6.403   9.339
11362SOL    HW135527   3.198   6.317   9.343
11362SOL    HW235528   3.186   6.441   9.256
11363SOL     OW35529   2.932   6.931  10.172
11363SOL    HW135530   2.937   6.859  10.109
11363SOL    HW235531   2.985   7.001  10.134
11364SOL     OW35532   2.172   6.397  10.258
11364SOL    HW135533   2.266   6.413  10.245
11364SOL    HW235534   2.167   6.307  10.288
11365SOL     OW35535   2.183   6.118  10.324
11365SOL    HW135536   2.147   6.030  10.309
11365SOL    HW235537   2.261   6.121  10.268
11366SOL     OW35538   2.997   5.954  11.002
11366SOL    HW135539   2.950   6.009  11.065
11366SOL    HW235540   3.082   5.997  10.992
11367SOL     OW35541   3.016   5.773  10.794
11367SOL    HW135542   3.005   5.835  10.866
11367SOL    HW235543   3.054   5.825  10.723
11368SOL     OW35544   1.883   6.895   9.496
11368SOL    HW135545   1.794   6.915   9.467
11368SOL    HW235546   1.877   6.808   9.536
11369SOL     OW35547   1.958   7.360  10.262
11369SOL    HW135548   1.922   7.287  10.211
11369SOL    HW235549   2.044   7.376  10.224
11370SOL     OW35550   2.352   7.163  10.216
11370SOL    HW135551   2.423   7.223  10.240
11370SOL    HW235552   2.393   7.100  10.157
11371SOL     OW35553   2.825   6.372  10.531
11371SOL    HW135554   2.886   6.355  10.603
11371SOL    HW235555   2.746   6.323  10.554
11372SOL     OW35556   1.899   6.140  10.429
11372SOL    HW135557   1.978   6.136  10.375
11372SOL    HW235558   1.930   6.137  10.519
11373SOL     OW35559   2.056   6.109  11.044
11373SOL    HW135560   2.098   6.058  10.975
11373SOL    HW235561   2.021   6.186  10.998
11374SOL     OW35562   3.247   6.515  10.966
11374SOL    HW135563   3.267   6.608  10.961
11374SOL    HW235564   3.241   6.487  10.874
11375SOL     OW35565   2.679   6.153   9.676
11375SOL    HW135566   2.682   6.080   9.615
11375SOL    HW235567   2.605   6.206   9.646
11376SOL     OW35568   3.506   6.198  10.474
11376SOL    HW135569   3.463   6.132  10.528
11376SOL    HW235570   3.593   6.162  10.457
11377SOL     OW35571   2.097   7.129  11.033
11377SOL    HW135572   2.080   7.186  11.108
11377SOL    HW235573   2.106   7.042  11.071
11378SOL     OW35574   2.580   6.027  10.557
11378SOL    HW135575   2.521   5.955  10.533
11378SOL    HW235576   2.570   6.091  10.487
11379SOL     OW35577   2.766   7.265  10.792
11379SOL    HW135578   2.753   7.218  10.709
11379SOL    HW235579   2.764   7.357  10.768
11380SOL     OW35580   2.319   6.077   9.491
11380SOL    HW135581   2.376   6.148   9.518
11380SOL    HW235582   2.233   6.117   9.482
11381SOL     OW35583   1.998   6.732  10.789
11381SOL    HW135584   2.003   6.689  10.875
11381SOL    HW235585   2.016   6.662  10.727
11382SOL     OW35586   3.174   6.628  10.527
11382SOL    HW135587   3.190   6.564  10.458
11382SOL    HW235588   3.115   6.692  10.488
11383SOL     OW35589   3.187   6.435   9.613
11383SOL    HW135590   3.110   6.407   9.663
11383SOL    HW235591   3.163   6.420   9.522
11384SOL     OW35592   3.650   7.316  10.475
11384SOL    HW135593   3.708   7.341  10.403
11384SOL    HW235594   3.617   7.230  10.450
11385SOL     OW35595   3.103   7.319  10.418
11385SOL    HW135596   3.185   7.346  10.376
11385SOL    HW235597   3.114   7.225  10.435
11386SOL     OW35598   1.952   6.850  10.316
11386SOL    HW135599   1.930   6.865  10.409
11386SOL    HW235600   1.882   6.792  10.285
11387SOL     OW35601   2.546   7.261  11.053
11387SOL    HW135602   2.486   7.334  11.038
11387SOL    HW235603   2.618   7.276  10.991
11388SOL     OW35604   3.563   5.733   9.822
11388SOL    HW135605   3.637   5.704   9.768
11388SOL    HW235606   3.551   5.662   9.886
11389SOL     OW35607   3.259   7.153   9.809
11389SOL    HW135608   3.313   7.188   9.738
11389SOL    HW235609   3.204   7.227   9.836
11390SOL     OW35610   1.996   7.387  11.155
11390SOL    HW135611   1.953   7.313  11.198
11390SOL    HW235612   2.045   7.430  11.225
11391SOL     OW35613   3.133   6.523   9.982
11391SOL    HW135614   3.206   6.463   9.998
11391SOL    HW235615   3.170   6.593   9.928
11392SOL     OW35616   2.658   6.865  10.726
11392SOL    HW135617   2.630   6.908  10.807
11392SOL    HW235618   2.585   6.879  10.665
11393SOL     OW35619   2.529   7.214   9.464
11393SOL    HW135620   2.542   7.229   9.371
11393SOL    HW235621   2.473   7.136   9.468
11394SOL     OW35622   3.477   7.316  10.705
11394SOL    HW135623   3.534   7.318  10.628
11394SOL    HW235624   3.461   7.408  10.726
11395SOL     OW35625   3.712   5.748  10.260
11395SOL    HW135626   3.720   5.662  10.218
11395SOL    HW235627   3.626   5.780  10.233
11396SOL     OW35628   2.111   5.865  10.005
11396SOL    HW135629   2.028   5.910   9.987
11396SOL    HW235630   2.121   5.870  10.100
11397SOL     OW35631   3.072   7.182   9.344
11397SOL    HW135632   3.060   7.090   9.370
11397SOL    HW235633   3.007   7.197   9.276
11398SOL     OW35634   2.685   6.593  10.690
11398SOL    HW135635   2.724   6.581  10.603
11398SOL    HW235636   2.679   6.688  10.701
11399SOL     OW35637   2.785   6.500   9.606
11399SOL    HW135638   2.844   6.531   9.536
11399SOL    HW235639   2.834   6.429   9.648
11400SOL     OW35640   3.348   7.224   9.361
11400SOL    HW135641   3.255   7.207   9.344
11400SOL    HW235642   3.388   7.228   9.275
11401SOL     OW35643   2.225   6.898  10.808
11401SOL    HW135644   2.217   6.969  10.745
11401SOL    HW235645   2.150   6.841  10.790
11402SOL     OW35646   3.464   6.873  10.588
11402SOL    HW135647   3.524   6.854  10.661
11402SOL    HW235648   3.405   6.940  10.623
11403SOL     OW35649   2.926   6.703  10.029
11403SOL    HW135650   2.852   6.652  10.062
11403SOL    HW235651   2.990   6.637  10.003
11404SOL     OW35652   2.891   5.837  10.287
11404SOL    HW135653   2.884   5.795  10.201
11404SOL    HW235654   2.886   5.765  10.350
11405SOL     OW35655   2.471   7.075   9.795
11405SOL    HW135656   2.523   7.025   9.733
11405SOL    HW235657   2.390   7.094   9.749
11406SOL     OW35658   2.140   6.922   9.615
11406SOL    HW135659   2.052   6.919   9.576
11406SOL    HW235660   2.127   6.969   9.697
11407SOL     OW35661   1.982   6.636  11.050
11407SOL    HW135662   1.904   6.604  11.094
11407SOL    HW235663   2.053   6.582  11.084
11408SOL     OW35664   2.538   5.780  10.810
11408SOL    HW135665   2.621   5.756  10.768
11408SOL    HW235666   2.563   5.814  10.896
11409SOL     OW35667   1.924   5.912   9.337
11409SOL    HW135668   1.849   5.889   9.282
11409SOL    HW235669   1.956   5.994   9.300
11410SOL     OW35670   3.283   6.443  10.704
11410SOL    HW135671   3.231   6.503  10.650
11410SOL    HW235672   3.371   6.447  10.667
11411SOL     OW35673   1.913   5.734   9.604
11411SOL    HW135674   1.887   5.804   9.544
11411SOL    HW235675   2.001   5.709   9.575
11412SOL     OW35676   3.039   6.915   9.427
11412SOL    HW135677   2.946   6.893   9.424
11412SOL    HW235678   3.061   6.914   9.520
11413SOL     OW35679   2.485   6.416  10.749
11413SOL    HW135680   2.543   6.491  10.734
11413SOL    HW235681   2.543   6.340  10.752
11414SOL     OW35682   3.344   7.380  10.299
11414SOL    HW135683   3.365   7.446  10.233
11414SOL    HW235684   3.428   7.339  10.320
11415SOL     OW35685   2.583   6.139  11.007
11415SOL    HW135686   2.630   6.195  11.068
11415SOL    HW235687   2.599   6.050  11.040
11416SOL     OW35688   3.336   6.776  10.935
11416SOL    HW135689   3.326   6.793  11.029
11416SOL    HW235690   3.427   6.797  10.916
11417SOL     OW35691   2.229   7.329  10.881
11417SOL    HW135692   2.147   7.375  10.863
11417SOL    HW235693   2.202   7.244  10.917
11418SOL     OW35694   3.521   6.466  10.565
11418SOL    HW135695   3.519   6.381  10.520
11418SOL    HW235696   3.508   6.530  10.496
11419SOL     OW35697   3.082   5.903   9.763
11419SOL    HW135698   3.141   5.829   9.754
11419SOL    HW235699   3.114   5.951   9.840
11420SOL     OW35700   2.443   6.319   9.990
11420SOL    HW135701   2.485   6.403   9.973
11420SOL    HW235702   2.381   6.308   9.918
11421SOL     OW35703   3.613   5.943  10.983
11421SOL    HW135704   3.619   5.952  10.888
11421SOL    HW235705   3.540   5.884  10.997
11422SOL     OW35706   3.616   6.519  10.819
11422SOL    HW135707   3.600   6.613  10.832
11422SOL    HW235708   3.594   6.503  10.727
11423SOL     OW35709   2.739   6.951   9.364
11423SOL    HW135710   2.692   6.980   9.442
11423SOL    HW235711   2.747   7.029   9.310
11424SOL     OW35712   2.530   7.368  10.250
11424SOL    HW135713   2.514   7.459  10.225
11424SOL    HW235714   2.624   7.356  10.237
11425SOL     OW35715   2.730   6.561  10.164
11425SOL    HW135716   2.780   6.487  10.199
11425SOL    HW235717   2.690   6.600  10.242
11426SOL     OW35718   2.945   6.572   9.400
11426SOL    HW135719   2.922   6.622   9.322
11426SOL    HW235720   3.018   6.516   9.372
11427SOL     OW35721   3.702   7.139  10.147
11427SOL    HW135722   3.622   7.128  10.096
11427SOL    HW235723   3.696   7.073  10.216
11428SOL     OW35724   2.076   6.875  11.153
11428SOL    HW135725   2.041   6.798  11.109
11428SOL    HW235726   2.021   6.886  11.231
11429SOL     OW35727   1.956   6.818   9.974
11429SOL    HW135728   1.968   6.768  10.055
11429SOL    HW235729   2.020   6.781   9.913
11430SOL     OW35730   2.550   6.996  10.942
11430SOL    HW135731   2.471   6.956  10.978
11430SOL    HW235732   2.551   7.085  10.979
11431SOL     OW35733   3.695   5.742  10.529
11431SOL    HW135734   3.676   5.651  10.551
11431SOL    HW235735   3.688   5.746  10.434
11432SOL     OW35736   2.289   6.010   9.833
11432SOL    HW135737   2.324   5.946   9.771
11432SOL    HW235738   2.235   5.958   9.893
11433SOL     OW35739   3.554   7.072  10.400
11433SOL    HW135740   3.477   7.052  10.346
11433SOL    HW235741   3.556   7.002  10.465
11434SOL     OW35742   2.206   6.150  10.603
11434SOL    HW135743   2.258   6.089  10.656
11434SOL    HW235744   2.218   6.120  10.513
11435SOL     OW35745   2.695   7.177   9.975
11435SOL    HW135746   2.683   7.256   9.921
11435SOL    HW235747   2.618   7.124   9.957
11436SOL     OW35748   3.281   5.816  10.448
11436SOL    HW135749   3.276   5.721  10.438
11436SOL    HW235750   3.213   5.837  10.512
11437SOL     OW35751   2.869   5.601  10.441
11437SOL    HW135752   2.820   5.539  10.387
11437SOL    HW235753   2.957   5.563  10.448
11438SOL     OW35754   2.635   6.920   9.640
11438SOL    HW135755   2.609   6.828   9.644
11438SOL    HW235756   2.720   6.923   9.683
11439SOL     OW35757   2.480   7.147  10.599
11439SOL    HW135758   2.479   7.231  10.645
11439SOL    HW235759   2.569   7.140  10.563
11440SOL     OW35760   3.228   5.638   9.480
11440SOL    HW135761   3.274   5.565   9.437
11440SOL    HW235762   3.139   5.606   9.492
11441SOL     OW35763   3.158   6.052   9.988
11441SOL    HW135764   3.104   6.131   9.989
11441SOL    HW235765   3.151   6.018  10.077
11442SOL     OW35766   3.472   5.840  10.197
11442SOL    HW135767   3.426   5.764  10.162
11442SOL    HW235768   3.454   5.910  10.134
11443SOL     OW35769   1.904   6.647   9.625
11443SOL    HW135770   1.997   6.637   9.603
11443SOL    HW235771   1.875   6.558   9.646
11444SOL     OW35772   2.753   7.248   9.637
11444SOL    HW135773   2.677   7.231   9.582
11444SOL    HW235774   2.723   7.313   9.701
11445SOL     OW35775   2.077   6.207  11.307
11445SOL    HW135776   1.987   6.202  11.338
11445SOL    HW235777   2.071   6.188  11.213
11446SOL     OW35778   2.098   5.872  12.166
11446SOL    HW135779   2.132   5.835  12.247
11446SOL    HW235780   2.009   5.837  12.158
11447SOL     OW35781   1.860   5.968  11.812
11447SOL    HW135782   1.782   6.000  11.857
11447SOL    HW235783   1.830   5.894  11.761
11448SOL     OW35784   2.405   6.834  12.337
11448SOL    HW135785   2.329   6.874  12.296
11448SOL    HW235786   2.418   6.883  12.418
11449SOL     OW35787   3.444   7.100  11.883
11449SOL    HW135788   3.401   7.078  11.965
11449SOL    HW235789   3.373   7.105  11.819
11450SOL     OW35790   2.991   6.289  11.866
11450SOL    HW135791   3.040   6.371  11.855
11450SOL    HW235792   2.943   6.302  11.948
11451SOL     OW35793   3.647   6.178  11.400
11451SOL    HW135794   3.614   6.177  11.310
11451SOL    HW235795   3.606   6.102  11.441
11452SOL     OW35796   2.621   6.716  12.232
11452SOL    HW135797   2.540   6.748  12.272
11452SOL    HW235798   2.654   6.791  12.182
11453SOL     OW35799   2.545   6.574  11.817
11453SOL    HW135800   2.613   6.572  11.885
11453SOL    HW235801   2.479   6.634  11.852
11454SOL     OW35802   2.200   6.995  12.230
11454SOL    HW135803   2.120   6.959  12.191
11454SOL    HW235804   2.239   7.047  12.161
11455SOL     OW35805   3.466   6.025  11.919
11455SOL    HW135806   3.404   6.046  11.849
11455SOL    HW235807   3.457   6.096  11.982
11456SOL     OW35808   2.079   7.315  11.634
11456SOL    HW135809   2.110   7.384  11.693
11456SOL    HW235810   2.155   7.296  11.578
11457SOL     OW35811   2.091   7.035  11.711
11457SOL    HW135812   2.064   7.125  11.726
11457SOL    HW235813   2.040   6.983  11.773
11458SOL     OW35814   2.134   6.682  12.064
11458SOL    HW135815   2.134   6.593  12.098
11458SOL    HW235816   2.078   6.731  12.125
11459SOL     OW35817   2.436   6.572  11.318
11459SOL    HW135818   2.486   6.615  11.248
11459SOL    HW235819   2.476   6.604  11.399
11460SOL     OW35820   1.992   6.235  11.738
11460SOL    HW135821   1.945   6.154  11.758
11460SOL    HW235822   1.979   6.290  11.815
11461SOL     OW35823   3.705   7.333  11.496
11461SOL    HW135824   3.775   7.311  11.557
11461SOL    HW235825   3.720   7.426  11.476
11462SOL     OW35826   1.909   7.173  11.294
11462SOL    HW135827   1.892   7.079  11.301
11462SOL    HW235828   1.873   7.210  11.375
11463SOL     OW35829   3.554   6.504  11.825
11463SOL    HW135830   3.639   6.462  11.813
11463SOL    HW235831   3.538   6.551  11.743
11464SOL     OW35832   3.515   6.687  11.604
11464SOL    HW135833   3.601   6.685  11.563
11464SOL    HW235834   3.524   6.750  11.676
11465SOL     OW35835   2.036   6.335   0.223
11465SOL    HW135836   2.015   6.308   0.313
11465SOL    HW235837   1.957   6.381   0.193
11466SOL     OW35838   2.470   6.981  11.901
11466SOL    HW135839   2.428   6.896  11.907
11466SOL    HW235840   2.457   7.008  11.810
11467SOL     OW35841   2.688   5.598  11.687
11467SOL    HW135842   2.730   5.680  11.661
11467SOL    HW235843   2.595   5.619  11.691
11468SOL     OW35844   2.055   6.586  12.410
11468SOL    HW135845   2.132   6.530  12.413
11468SOL    HW235846   1.983   6.529  12.436
11469SOL     OW35847   3.393   6.591  11.373
11469SOL    HW135848   3.325   6.533  11.406
11469SOL    HW235849   3.438   6.622  11.452
11470SOL     OW35850   3.331   7.002  12.115
11470SOL    HW135851   3.266   7.017  12.182
11470SOL    HW235852   3.317   6.912  12.087
11471SOL     OW35853   3.518   7.342  11.747
11471SOL    HW135854   3.491   7.307  11.662
11471SOL    HW235855   3.505   7.269  11.808
11472SOL     OW35856   2.458   6.301  11.447
11472SOL    HW135857   2.460   6.385  11.401
11472SOL    HW235858   2.392   6.313  11.515
11473SOL     OW35859   3.141   5.961  12.108
11473SOL    HW135860   3.054   5.921  12.111
11473SOL    HW235861   3.195   5.905  12.163
11474SOL     OW35862   3.439   7.256  11.486
11474SOL    HW135863   3.532   7.279  11.478
11474SOL    HW235864   3.410   7.242  11.396
11475SOL     OW35865   2.845   5.941  12.386
11475SOL    HW135866   2.836   6.012  12.450
11475SOL    HW235867   2.761   5.939  12.341
11476SOL     OW35868   2.918   6.284  11.595
11476SOL    HW135869   2.938   6.280  11.688
11476SOL    HW235870   2.834   6.239  11.586
11477SOL     OW35871   1.954   6.408  11.948
11477SOL    HW135872   2.034   6.407  12.000
11477SOL    HW235873   1.903   6.482  11.984
11478SOL     OW35874   2.760   5.940  11.371
11478SOL    HW135875   2.804   6.001  11.312
11478SOL    HW235876   2.755   5.858  11.322
11479SOL     OW35877   3.244   6.725  11.706
11479SOL    HW135878   3.326   6.714  11.656
11479SOL    HW235879   3.194   6.789  11.655
11480SOL     OW35880   2.860   7.033  11.640
11480SOL    HW135881   2.832   7.106  11.585
11480SOL    HW235882   2.834   7.057  11.728
11481SOL     OW35883   2.216   7.402  12.038
11481SOL    HW135884   2.260   7.317  12.048
11481SOL    HW235885   2.282   7.466  12.062
11482SOL     OW35886   3.663   6.644  12.054
11482SOL    HW135887   3.612   6.622  11.975
11482SOL    HW235888   3.598   6.648  12.124
11483SOL     OW35889   2.171   6.546  11.429
11483SOL    HW135890   2.254   6.567  11.386
11483SOL    HW235891   2.141   6.466  11.385
11484SOL     OW35892   3.342   6.342  11.890
11484SOL    HW135893   3.344   6.299  11.976
11484SOL    HW235894   3.422   6.395  11.888
11485SOL     OW35895   2.987   7.366  11.392
11485SOL    HW135896   2.911   7.328  11.435
11485SOL    HW235897   3.014   7.301  11.326
11486SOL     OW35898   3.492   6.971  11.269
11486SOL    HW135899   3.451   7.056  11.252
11486SOL    HW235900   3.426   6.907  11.244
11487SOL     OW35901   2.321   7.326  11.485
11487SOL    HW135902   2.370   7.376  11.550
11487SOL    HW235903   2.389   7.287  11.429
11488SOL     OW35904   3.263   5.694  11.619
11488SOL    HW135905   3.258   5.667  11.527
11488SOL    HW235906   3.357   5.698  11.637
11489SOL     OW35907   2.106   7.366  12.393
11489SOL    HW135908   2.124   7.292  12.450
11489SOL    HW235909   2.064   7.327  12.316
11490SOL     OW35910   2.808   7.279  12.067
11490SOL    HW135911   2.893   7.236  12.070
11490SOL    HW235912   2.760   7.233  11.998
11491SOL     OW35913   2.265   6.263  11.650
11491SOL    HW135914   2.284   6.171  11.668
11491SOL    HW235915   2.170   6.271  11.664
11492SOL     OW35916   2.514   5.697  11.276
11492SOL    HW135917   2.572   5.623  11.292
11492SOL    HW235918   2.456   5.668  11.205
11493SOL     OW35919   2.671   6.946  12.100
11493SOL    HW135920   2.759   6.956  12.065
11493SOL    HW235921   2.614   6.967  12.026
11494SOL     OW35922   2.787   6.089  12.068
11494SOL    HW135923   2.758   6.077  11.978
11494SOL    HW235924   2.826   6.004  12.092
11495SOL     OW35925   2.421   5.661  11.675
11495SOL    HW135926   2.335   5.651  11.715
11495SOL    HW235927   2.411   5.730  11.611
11496SOL     OW35928   3.293   6.790  11.208
11496SOL    HW135929   3.322   6.716  11.261
11496SOL    HW235930   3.207   6.812  11.245
11497SOL     OW35931   2.147   5.637  11.359
11497SOL    HW135932   2.197   5.698  11.305
11497SOL    HW235933   2.214   5.580  11.397
11498SOL     OW35934   2.808   5.841  11.626
11498SOL    HW135935   2.785   5.876  11.540
11498SOL    HW235936   2.902   5.854  11.633
11499SOL     OW35937   3.073   7.174  11.973
11499SOL    HW135938   3.087   7.234  11.900
11499SOL    HW235939   3.154   7.181  12.025
11500SOL     OW35940   2.336   6.740  11.891
11500SOL    HW135941   2.271   6.721  11.959
11500SOL    HW235942   2.288   6.729  11.809
11501SOL     OW35943   3.122   7.379  11.786
11501SOL    HW135944   3.175   7.436  11.730
11501SOL    HW235945   3.062   7.439  11.832
11502SOL     OW35946   2.889   6.115  11.202
11502SOL    HW135947   2.847   6.198  11.181
11502SOL    HW235948   2.955   6.137  11.267
11503SOL     OW35949   2.408   5.818  12.221
11503SOL    HW135950   2.468   5.868  12.276
11503SOL    HW235951   2.340   5.788  12.281
11504SOL     OW35952   2.701   6.027  11.811
11504SOL    HW135953   2.674   6.090  11.744
11504SOL    HW235954   2.742   5.956  11.762
11505SOL     OW35955   2.872   5.628  11.912
11505SOL    HW135956   2.815   5.619  11.835
11505SOL    HW235957   2.852   5.552  11.965
11506SOL     OW35958   3.301   6.743  12.024
11506SOL    HW135959   3.233   6.676  12.013
11506SOL    HW235960   3.338   6.754  11.936
11507SOL     OW35961   3.328   6.198  12.130
11507SOL    HW135962   3.270   6.121  12.137
11507SOL    HW235963   3.389   6.188  12.203
11508SOL     OW35964   3.696   6.393  11.559
11508SOL    HW135965   3.756   6.348  11.619
11508SOL    HW235966   3.676   6.329  11.491
11509SOL     OW35967   2.350   7.009  11.320
11509SOL    HW135968   2.276   6.976  11.371
11509SOL    HW235969   2.351   6.955  11.241
11510SOL     OW35970   3.546   6.847  11.818
11510SOL    HW135971   3.640   6.843  11.831
11510SOL    HW235972   3.523   6.938  11.836
11511SOL     OW35973   3.255   6.162  11.240
11511SOL    HW135974   3.197   6.136  11.312
11511SOL    HW235975   3.342   6.136  11.270
11512SOL     OW35976   2.389   5.849  11.482
11512SOL    HW135977   2.438   5.802  11.414
11512SOL    HW235978   2.359   5.929  11.438
11513SOL     OW35979   2.965   6.829  12.285
11513SOL    HW135980   2.883   6.849  12.330
11513SOL    HW235981   2.952   6.859  12.195
11514SOL     OW35982   3.466   6.679  12.245
11514SOL    HW135983   3.433   6.716  12.327
11514SOL    HW235984   3.399   6.701  12.181
11515SOL     OW35985   2.574   6.648  11.546
11515SOL    HW135986   2.559   6.624  11.638
11515SOL    HW235987   2.650   6.596  11.520
11516SOL     OW35988   2.291   6.420  12.451
11516SOL    HW135989   2.340   6.462  12.522
11516SOL    HW235990   2.279   6.329  12.480
11517SOL     OW35991   3.116   5.940  12.430
11517SOL    HW135992   3.142   6.027  12.463
11517SOL    HW235993   3.025   5.951  12.405
11518SOL     OW35994   2.187   6.711  11.659
11518SOL    HW135995   2.188   6.784  11.598
11518SOL    HW235996   2.187   6.633  11.604
11519SOL     OW35997   2.401   6.122  12.039
11519SOL    HW135998   2.411   6.186  11.968
11519SOL    HW235999   2.462   6.152  12.107
11520SOL     OW36000   3.109   6.937  11.564
11520SOL    HW136001   3.165   7.007  11.598
11520SOL    HW236002   3.022   6.959  11.597
11521SOL     OW36003   3.153   7.032  12.319
11521SOL    HW136004   3.211   7.026  12.395
11521SOL    HW236005   3.096   6.955  12.327
11522SOL     OW36006   3.436   6.200  11.663
11522SOL    HW136007   3.385   6.249  11.727
11522SOL    HW236008   3.486   6.267  11.616
11523SOL     OW36009   2.238   7.126  12.464
11523SOL    HW136010   2.207   7.071  12.392
11523SOL    HW236011   2.310   7.177  12.426
11524SOL     OW36012   2.438   6.460  12.216
11524SOL    HW136013   2.471   6.550  12.211
11524SOL    HW236014   2.387   6.459  12.297
11525SOL     OW36015   3.191   6.443  12.174
11525SOL    HW136016   3.111   6.418  12.128
11525SOL    HW236017   3.247   6.365  12.169
11526SOL     OW36018   3.061   6.111  11.432
11526SOL    HW136019   3.070   6.033  11.486
11526SOL    HW236020   3.020   6.175  11.489
11527SOL     OW36021   2.189   5.766  12.398
11527SOL    HW136022   2.182   5.795  12.489
11527SOL    HW236023   2.162   5.674  12.401
11528SOL     OW36024   1.929   6.915  12.430
11528SOL    HW136025   1.961   6.837  12.475
11528SOL    HW236026   1.927   6.983  12.498
11529SOL     OW36027   2.573   6.218  12.225
11529SOL    HW136028   2.654   6.212  12.174
11529SOL    HW236029   2.545   6.309  12.217
11530SOL     OW36030   2.177   5.645  11.798
11530SOL    HW136031   2.137   5.728  11.822
11530SOL    HW236032   2.185   5.597  11.880
11531SOL     OW36033   3.489   5.969  11.525
11531SOL    HW136034   3.517   5.901  11.586
11531SOL    HW236035   3.461   6.042  11.581
11532SOL     OW36036   2.882   6.337  12.135
11532SOL    HW136037   2.880   6.346  12.230
11532SOL    HW236038   2.859   6.245  12.119
11533SOL     OW36039   3.382   5.857  11.295
11533SOL    HW136040   3.325   5.788  11.328
11533SOL    HW236041   3.420   5.896  11.374
11534SOL     OW36042   3.145   6.410  11.197
11534SOL    HW136043   3.186   6.324  11.203
11534SOL    HW236044   3.179   6.448  11.116
11535SOL     OW36045   2.934   6.935  12.030
11535SOL    HW136046   2.942   6.861  11.970
11535SOL    HW236047   2.990   7.003  11.994
11536SOL     OW36048   2.173   6.408  12.116
11536SOL    HW136049   2.268   6.423  12.124
11536SOL    HW236050   2.160   6.320  12.151
11537SOL     OW36051   2.163   6.135  12.177
11537SOL    HW136052   2.142   6.041  12.177
11537SOL    HW236053   2.247   6.140  12.130
11538SOL     OW36054   3.029   5.804   0.152
11538SOL    HW136055   3.051   5.859   0.228
11538SOL    HW236056   3.066   5.852   0.078
11539SOL     OW36057   1.878   6.896  11.357
11539SOL    HW136058   1.789   6.916  11.329
11539SOL    HW236059   1.872   6.809  11.396
11540SOL     OW36060   1.948   7.370  12.102
11540SOL    HW136061   1.920   7.289  12.059
11540SOL    HW236062   2.039   7.380  12.076
11541SOL     OW36063   2.358   7.168  12.073
11541SOL    HW136064   2.430   7.225  12.099
11541SOL    HW236065   2.398   7.103  12.016
11542SOL     OW36066   2.838   6.372  12.413
11542SOL    HW136067   2.898   6.436  12.452
11542SOL    HW236068   2.751   6.407  12.431
11543SOL     OW36069   1.920   6.166  12.303
11543SOL    HW136070   1.997   6.160  12.247
11543SOL    HW236071   1.915   6.081  12.346
11544SOL     OW36072   2.678   6.154  11.549
11544SOL    HW136073   2.689   6.083  11.486
11544SOL    HW236074   2.607   6.207  11.513
11545SOL     OW36075   3.520   6.189  12.327
11545SOL    HW136076   3.516   6.133  12.405
11545SOL    HW236077   3.613   6.193  12.305
11546SOL     OW36078   2.544   5.995  12.383
11546SOL    HW136079   2.509   6.016  12.469
11546SOL    HW236080   2.553   6.080  12.339
11547SOL     OW36081   2.743   7.233   0.029
11547SOL    HW136082   2.760   7.290  -0.045
11547SOL    HW236083   2.785   7.276   0.103
11548SOL     OW36084   2.313   6.079  11.365
11548SOL    HW136085   2.374   6.150  11.381
11548SOL    HW236086   2.229   6.123  11.349
11549SOL     OW36087   3.137   6.625  12.369
11549SOL    HW136088   3.165   6.568  12.298
11549SOL    HW236089   3.088   6.695  12.326
11550SOL     OW36090   3.180   6.443  11.471
11550SOL    HW136091   3.107   6.408  11.522
11550SOL    HW236092   3.155   6.430  11.380
11551SOL     OW36093   3.626   7.340  12.311
11551SOL    HW136094   3.692   7.354  12.244
11551SOL    HW236095   3.606   7.247  12.306
11552SOL     OW36096   3.110   7.302  12.285
11552SOL    HW136097   3.186   7.342  12.242
11552SOL    HW236098   3.129   7.208  12.284
11553SOL     OW36099   1.946   6.873  12.164
11553SOL    HW136100   1.934   6.888  12.258
11553SOL    HW236101   1.884   6.804  12.142
11554SOL     OW36102   3.586   5.750  11.670
11554SOL    HW136103   3.655   5.732  11.606
11554SOL    HW236104   3.568   5.666  11.711
11555SOL     OW36105   3.257   7.153  11.670
11555SOL    HW136106   3.314   7.186  11.601
11555SOL    HW236107   3.206   7.230  11.697
11556SOL     OW36108   3.140   6.519  11.846
11556SOL    HW136109   3.213   6.458  11.856
11556SOL    HW236110   3.173   6.587  11.788
11557SOL     OW36111   2.527   7.214  11.327
11557SOL    HW136112   2.542   7.230  11.234
11557SOL    HW236113   2.472   7.136  11.329
11558SOL     OW36114   3.483   7.378   0.044
11558SOL    HW136115   3.539   7.362  -0.033
11558SOL    HW236116   3.505   7.468   0.071
11559SOL     OW36117   3.704   5.748  12.150
11559SOL    HW136118   3.736   5.662  12.126
11559SOL    HW236119   3.619   5.756  12.106
11560SOL     OW36120   2.113   5.895  11.896
11560SOL    HW136121   2.030   5.927  11.860
11560SOL    HW236122   2.098   5.891  11.990
11561SOL     OW36123   3.070   7.181  11.206
11561SOL    HW136124   3.060   7.090  11.233
11561SOL    HW236125   3.004   7.194  11.138
11562SOL     OW36126   2.659   6.591  12.482
11562SOL    HW136127   2.657   6.641  12.401
11562SOL    HW236128   2.735   6.624  12.529
11563SOL     OW36129   2.783   6.499  11.468
11563SOL    HW136130   2.839   6.532  11.398
11563SOL    HW236131   2.834   6.430  11.510
11564SOL     OW36132   3.348   7.223  11.221
11564SOL    HW136133   3.255   7.207  11.204
11564SOL    HW236134   3.388   7.227  11.134
11565SOL     OW36135   2.929   6.701  11.892
11565SOL    HW136136   2.855   6.649  11.924
11565SOL    HW236137   2.994   6.637  11.864
11566SOL     OW36138   2.890   5.827  12.109
11566SOL    HW136139   2.887   5.765  12.036
11566SOL    HW236140   2.884   5.771  12.187
11567SOL     OW36141   2.468   7.075  11.646
11567SOL    HW136142   2.523   7.024  11.588
11567SOL    HW236143   2.390   7.096  11.594
11568SOL     OW36144   3.625   6.014   0.027
11568SOL    HW136145   3.701   6.008   0.086
11568SOL    HW236146   3.614   5.924  -0.005
11569SOL     OW36147   2.134   6.924  11.473
11569SOL    HW136148   2.045   6.918  11.438
11569SOL    HW236149   2.124   6.970  11.556
11570SOL     OW36150   1.940   5.910  11.198
11570SOL    HW136151   1.860   5.889  11.150
11570SOL    HW236152   1.972   5.991  11.158
11571SOL     OW36153   1.918   5.741  11.463
11571SOL    HW136154   1.902   5.813  11.402
11571SOL    HW236155   2.004   5.707  11.437
11572SOL     OW36156   3.042   6.914  11.292
11572SOL    HW136157   2.952   6.881  11.293
11572SOL    HW236158   3.068   6.917  11.384
11573SOL     OW36159   3.345   7.375  12.155
11573SOL    HW136160   3.367   7.452  12.103
11573SOL    HW236161   3.427   7.349  12.196
11574SOL     OW36162   3.524   6.458  12.413
11574SOL    HW136163   3.513   6.372  12.372
11574SOL    HW236164   3.510   6.520  12.342
11575SOL     OW36165   3.079   5.905  11.628
11575SOL    HW136166   3.141   5.832  11.623
11575SOL    HW236167   3.107   5.956  11.704
11576SOL     OW36168   2.438   6.318  11.856
11576SOL    HW136169   2.483   6.401  11.842
11576SOL    HW236170   2.379   6.309  11.782
11577SOL     OW36171   3.686   6.472   0.128
11577SOL    HW136172   3.670   6.557   0.169
11577SOL    HW236173   3.621   6.468   0.057
11578SOL     OW36174   2.726   6.950  11.220
11578SOL    HW136175   2.690   6.981  11.304
11578SOL    HW236176   2.744   7.030  11.171
11579SOL     OW36177   2.528   7.383  12.125
11579SOL    HW136178   2.514   7.470  12.086
11579SOL    HW236179   2.622   7.366  12.112
11580SOL     OW36180   2.733   6.555  12.026
11580SOL    HW136181   2.781   6.481  12.063
11580SOL    HW236182   2.698   6.601  12.102
11581SOL     OW36183   2.936   6.575  11.260
11581SOL    HW136184   2.915   6.626  11.182
11581SOL    HW236185   3.010   6.520  11.234
11582SOL     OW36186   3.717   7.135  12.013
11582SOL    HW136187   3.631   7.124  11.972
11582SOL    HW236188   3.729   7.057  12.066
11583SOL     OW36189   1.962   6.816  11.836
11583SOL    HW136190   1.972   6.775  11.922
11583SOL    HW236191   2.024   6.770  11.779
11584SOL     OW36192   3.666   5.756  12.425
11584SOL    HW136193   3.732   5.691  12.447
11584SOL    HW236194   3.667   5.760  12.329
11585SOL     OW36195   2.320   5.986  11.732
11585SOL    HW136196   2.339   5.949  11.646
11585SOL    HW236197   2.230   5.960  11.750
11586SOL     OW36198   3.562   7.081  12.284
11586SOL    HW136199   3.490   7.039  12.236
11586SOL    HW236200   3.595   7.013  12.341
11587SOL     OW36201   2.689   7.180  11.843
11587SOL    HW136202   2.677   7.256  11.785
11587SOL    HW236203   2.613   7.125  11.826
11588SOL     OW36204   3.308   5.823  12.282
11588SOL    HW136205   3.356   5.757  12.333
11588SOL    HW236206   3.246   5.861  12.345
11589SOL     OW36207   2.862   5.578  12.284
11589SOL    HW136208   2.831   5.521  12.214
11589SOL    HW236209   2.953   5.550  12.299
11590SOL     OW36210   2.638   6.919  11.500
11590SOL    HW136211   2.613   6.827  11.507
11590SOL    HW236212   2.721   6.925  11.546
11591SOL     OW36213   3.228   5.630  11.352
11591SOL    HW136214   3.264   5.559  11.300
11591SOL    HW236215   3.137   5.604  11.368
11592SOL     OW36216   3.151   6.052  11.847
11592SOL    HW136217   3.101   6.134  11.852
11592SOL    HW236218   3.150   6.018  11.937
11593SOL     OW36219   3.450   5.775  12.052
11593SOL    HW136220   3.395   5.801  12.125
11593SOL    HW236221   3.450   5.852  11.994
11594SOL     OW36222   1.904   6.647  11.483
11594SOL    HW136223   1.997   6.637  11.462
11594SOL    HW236224   1.876   6.558  11.506
11595SOL     OW36225   2.753   7.246  11.498
11595SOL    HW136226   2.677   7.230  11.443
11595SOL    HW236227   2.723   7.309  11.563
11596SOL     OW36228   2.093   7.718   0.998
11596SOL    HW136229   2.117   7.688   1.086
11596SOL    HW236230   2.002   7.690   0.986
11597SOL     OW36231   1.849   7.826   0.649
11597SOL    HW136232   1.766   7.866   0.675
11597SOL    HW236233   1.823   7.746   0.602
11598SOL     OW36234   3.483   8.018   0.198
11598SOL    HW136235   3.530   7.966   0.133
11598SOL    HW236236   3.485   7.966   0.278
11599SOL     OW36237   2.316   7.857   1.512
11599SOL    HW136238   2.390   7.807   1.478
11599SOL    HW236239   2.240   7.801   1.496
11600SOL     OW36240   3.458   7.937   0.698
11600SOL    HW136241   3.368   7.920   0.671
11600SOL    HW236242   3.450   7.964   0.790
11601SOL     OW36243   3.450   7.581   1.460
11601SOL    HW136244   3.491   7.658   1.420
11601SOL    HW236245   3.423   7.611   1.547
11602SOL     OW36246   1.927   0.103   0.580
11602SOL    HW136247   1.921   0.009   0.596
11602SOL    HW236248   2.018   0.125   0.602
11603SOL     OW36249   2.678   7.444   0.532
11603SOL    HW136250   2.723   7.523   0.502
11603SOL    HW236251   2.585   7.466   0.530
11604SOL     OW36252   2.192   7.707   1.785
11604SOL    HW136253   2.242   7.788   1.794
11604SOL    HW236254   2.110   7.723   1.831
11605SOL     OW36255   3.124   7.805   0.932
11605SOL    HW136256   3.036   7.768   0.943
11605SOL    HW236257   3.180   7.750   0.986
11606SOL     OW36258   3.271   7.928   1.696
11606SOL    HW136259   3.279   7.959   1.786
11606SOL    HW236260   3.320   7.846   1.695
11607SOL     OW36261   2.769   0.352   1.576
11607SOL    HW136262   2.854   0.318   1.549
11607SOL    HW236263   2.722   0.366   1.494
11608SOL     OW36264   2.853   7.817   1.250
11608SOL    HW136265   2.770   7.847   1.288
11608SOL    HW236266   2.827   7.753   1.184
11609SOL     OW36267   2.741   7.782   0.216
11609SOL    HW136268   2.823   7.803   0.172
11609SOL    HW236269   2.722   7.691   0.191
11610SOL     OW36270   3.617   0.021   1.818
11610SOL    HW136271   3.554   0.085   1.785
11610SOL    HW236272   3.614  -0.052   1.757
11611SOL     OW36273   2.409   7.624   0.904
11611SOL    HW136274   2.410   7.646   0.997
11611SOL    HW236275   2.408   7.709   0.860
11612SOL     OW36276   2.064   7.704   1.526
11612SOL    HW136277   1.996   7.769   1.543
11612SOL    HW236278   2.103   7.687   1.611
11613SOL     OW36279   3.273   7.543   0.455
11613SOL    HW136280   3.263   7.509   0.366
11613SOL    HW236281   3.368   7.537   0.472
11614SOL     OW36282   3.380   7.670   1.732
11614SOL    HW136283   3.381   7.693   1.825
11614SOL    HW236284   3.327   7.590   1.728
11615SOL     OW36285   2.486   7.576   0.120
11615SOL    HW136286   2.573   7.538   0.125
11615SOL    HW236287   2.477   7.606   0.029
11616SOL     OW36288   2.622   7.710   1.750
11616SOL    HW136289   2.708   7.668   1.748
11616SOL    HW236290   2.579   7.670   1.826
11617SOL     OW36291   3.195   0.012   1.434
11617SOL    HW136292   3.231  -0.010   1.520
11617SOL    HW236293   3.132   0.082   1.452
11618SOL     OW36294   2.413   7.506   0.499
11618SOL    HW136295   2.333   7.511   0.551
11618SOL    HW236296   2.413   7.587   0.448
11619SOL     OW36297   2.177   7.526   0.209
11619SOL    HW136298   2.260   7.570   0.191
11619SOL    HW236299   2.202   7.439   0.240
11620SOL     OW36300   2.814   7.665   0.460
11620SOL    HW136301   2.780   7.722   0.391
11620SOL    HW236302   2.907   7.688   0.466
11621SOL     OW36303   1.955  -0.004   1.395
11621SOL    HW136304   2.007  -0.019   1.474
11621SOL    HW236305   1.927   0.088   1.402
11622SOL     OW36306   2.407   7.663   1.178
11622SOL    HW136307   2.454   7.602   1.235
11622SOL    HW236308   2.316   7.659   1.208
11623SOL     OW36309   2.887   7.495   0.740
11623SOL    HW136310   2.824   7.499   0.668
11623SOL    HW236311   2.858   7.422   0.794
11624SOL     OW36312   3.365   7.949   0.954
11624SOL    HW136313   3.273   7.922   0.965
11624SOL    HW236314   3.389   7.987   1.038
11625SOL     OW36315   2.411   7.725   0.337
11625SOL    HW136316   2.444   7.682   0.259
11625SOL    HW236317   2.451   7.811   0.337
11626SOL     OW36318   2.782   7.530   1.389
11626SOL    HW136319   2.805   7.509   1.299
11626SOL    HW236320   2.861   7.570   1.425
11627SOL     OW36321   3.123   7.803   1.279
11627SOL    HW136322   3.153   7.880   1.328
11627SOL    HW236323   3.029   7.816   1.270
11628SOL     OW36324   2.407   7.934   0.869
11628SOL    HW136325   2.407   7.997   0.797
11628SOL    HW236326   2.479   7.961   0.925
11629SOL     OW36327   2.866   7.591   1.756
11629SOL    HW136328   2.927   7.662   1.734
11629SOL    HW236329   2.912   7.511   1.732
11630SOL     OW36330   2.356   7.488   1.750
11630SOL    HW136331   2.309   7.425   1.694
11630SOL    HW236332   2.299   7.564   1.754
11631SOL     OW36333   2.145   7.630   1.263
11631SOL    HW136334   2.110   7.667   1.344
11631SOL    HW236335   2.121   7.538   1.266
11632SOL     OW36336   2.606   0.051   1.021
11632SOL    HW136337   2.669   0.083   0.957
11632SOL    HW236338   2.564   0.131   1.054
11633SOL     OW36339   2.171   7.516   0.632
11633SOL    HW136340   2.148   7.606   0.652
11633SOL    HW236341   2.182   7.474   0.717
11634SOL     OW36342   3.465   7.821   0.388
11634SOL    HW136343   3.513   7.747   0.425
11634SOL    HW236344   3.402   7.845   0.456
11635SOL     OW36345   3.370   7.674   0.100
11635SOL    HW136346   3.316   7.621   0.158
11635SOL    HW236347   3.403   7.744   0.155
11636SOL     OW36348   2.161   7.979   1.025
11636SOL    HW136349   2.154   7.885   1.011
11636SOL    HW236350   2.244   8.003   0.985
11637SOL     OW36351   3.018   7.813   1.676
11637SOL    HW136352   2.964   7.891   1.692
11637SOL    HW236353   3.108   7.846   1.678
11638SOL     OW36354   3.025   7.630   1.472
11638SOL    HW136355   3.017   7.695   1.542
11638SOL    HW236356   3.070   7.676   1.401
11639SOL     OW36357   1.900   7.948   1.128
11639SOL    HW136358   1.982   7.953   1.080
11639SOL    HW236359   1.925   7.958   1.220
11640SOL     OW36360   2.052   7.980   1.657
11640SOL    HW136361   2.143   7.976   1.689
11640SOL    HW236362   2.007   8.037   1.719
11641SOL     OW36363   2.652   8.027   0.274
11641SOL    HW136364   2.683   7.937   0.265
11641SOL    HW236365   2.613   8.029   0.362
11642SOL     OW36366   3.488   8.023   1.195
11642SOL    HW136367   3.476   7.994   1.286
11642SOL    HW236368   3.559   7.969   1.162
11643SOL     OW36369   2.582   7.874   1.232
11643SOL    HW136370   2.514   7.811   1.210
11643SOL    HW236371   2.580   7.937   1.159
11644SOL     OW36372   2.761   7.526   0.114
11644SOL    HW136373   2.806   7.560   0.037
11644SOL    HW236374   2.831   7.495   0.172
11645SOL     OW36375   3.592   7.604   0.508
11645SOL    HW136376   3.662   7.584   0.445
11645SOL    HW236377   3.573   7.519   0.549
11646SOL     OW36378   3.709   7.617   0.960
11646SOL    HW136379   3.733   7.527   0.937
11646SOL    HW236380   3.621   7.628   0.924
11647SOL     OW36381   2.112   7.772   0.720
11647SOL    HW136382   2.020   7.793   0.704
11647SOL    HW236383   2.117   7.757   0.815
11648SOL     OW36384   2.890   7.668   0.963
11648SOL    HW136385   2.887   7.623   0.878
11648SOL    HW236386   2.883   7.598   1.027
11649SOL     OW36387   3.609   7.813   1.393
11649SOL    HW136388   3.668   7.888   1.383
11649SOL    HW236389   3.638   7.750   1.328
11650SOL     OW36390   2.540   7.629   1.492
11650SOL    HW136391   2.626   7.609   1.455
11650SOL    HW236392   2.559   7.663   1.579
11651SOL     OW36393   1.928   7.594   0.307
11651SOL    HW136394   1.926   7.690   0.297
11651SOL    HW236395   2.016   7.569   0.278
11652SOL     OW36396   2.657   7.987   1.718
11652SOL    HW136397   2.572   8.029   1.713
11652SOL    HW236398   2.637   7.893   1.718
11653SOL     OW36399   3.084   7.741   0.451
11653SOL    HW136400   3.149   7.671   0.456
11653SOL    HW236401   3.111   7.804   0.518
11654SOL     OW36402   2.507   0.223   0.638
11654SOL    HW136403   2.540   0.312   0.647
11654SOL    HW236404   2.424   0.224   0.685
11655SOL     OW36405   3.616   7.801   1.665
11655SOL    HW136406   3.609   7.815   1.570
11655SOL    HW236407   3.545   7.741   1.686
11656SOL     OW36408   3.684   7.614   1.232
11656SOL    HW136409   3.679   7.519   1.238
11656SOL    HW236410   3.694   7.632   1.138
11657SOL     OW36411   2.172   7.829   0.444
11657SOL    HW136412   2.255   7.789   0.416
11657SOL    HW236413   2.170   7.816   0.539
11658SOL     OW36414   3.284   7.666   1.110
11658SOL    HW136415   3.297   7.579   1.147
11658SOL    HW236416   3.236   7.714   1.177
11659SOL     OW36417   2.867   7.452   1.135
11659SOL    HW136418   2.814   7.388   1.089
11659SOL    HW236419   2.955   7.415   1.136
11660SOL     OW36420   3.213   7.471   0.200
11660SOL    HW136421   3.228   7.446   0.108
11660SOL    HW236422   3.119   7.458   0.212
11661SOL     OW36423   3.183   7.891   0.672
11661SOL    HW136424   3.145   7.979   0.667
11661SOL    HW236425   3.160   7.860   0.759
11662SOL     OW36426   3.447   7.651   0.889
11662SOL    HW136427   3.395   7.665   0.968
11662SOL    HW236428   3.434   7.730   0.837
11663SOL     OW36429   2.096   7.715   2.853
11663SOL    HW136430   2.120   7.686   2.941
11663SOL    HW236431   2.005   7.686   2.843
11664SOL     OW36432   1.841   7.821   2.518
11664SOL    HW136433   1.758   7.863   2.541
11664SOL    HW236434   1.816   7.740   2.476
11665SOL     OW36435   3.629   0.040   2.093
11665SOL    HW136436   3.617   0.034   1.998
11665SOL    HW236437   3.580  -0.034   2.128
11666SOL     OW36438   2.290   7.852   3.401
11666SOL    HW136439   2.367   7.807   3.366
11666SOL    HW236440   2.217   7.794   3.382
11667SOL     OW36441   3.451   7.942   2.559
11667SOL    HW136442   3.360   7.920   2.539
11667SOL    HW236443   3.448   7.975   2.649
11668SOL     OW36444   3.439   7.587   3.325
11668SOL    HW136445   3.483   7.658   3.279
11668SOL    HW236446   3.419   7.623   3.411
11669SOL     OW36447   1.921   0.091   2.471
11669SOL    HW136448   1.911  -0.002   2.489
11669SOL    HW236449   1.972   0.125   2.545
11670SOL     OW36450   2.676   7.444   2.375
11670SOL    HW136451   2.695   7.533   2.345
11670SOL    HW236452   2.581   7.443   2.390
11671SOL     OW36453   2.205   7.692   3.694
11671SOL    HW136454   2.245   7.779   3.696
11671SOL    HW236455   2.113   7.708   3.713
11672SOL     OW36456   3.123   7.793   2.797
11672SOL    HW136457   3.035   7.756   2.805
11672SOL    HW236458   3.178   7.738   2.853
11673SOL     OW36459   3.270   7.944   3.564
11673SOL    HW136460   3.252   7.967   3.655
11673SOL    HW236461   3.326   7.867   3.569
11674SOL     OW36462   2.793   0.373   3.377
11674SOL    HW136463   2.795   0.289   3.332
11674SOL    HW236464   2.700   0.395   3.382
11675SOL     OW36465   2.861   7.819   3.118
11675SOL    HW136466   2.776   7.849   3.151
11675SOL    HW236467   2.839   7.743   3.063
11676SOL     OW36468   2.798   7.779   2.097
11676SOL    HW136469   2.802   7.832   2.018
11676SOL    HW236470   2.801   7.689   2.066
11677SOL     OW36471   3.595   0.014   3.668
11677SOL    HW136472   3.613   0.092   3.615
11677SOL    HW236473   3.616  -0.060   3.610
11678SOL     OW36474   2.429   7.640   2.769
11678SOL    HW136475   2.425   7.650   2.864
11678SOL    HW236476   2.421   7.729   2.735
11679SOL     OW36477   2.053   7.713   3.370
11679SOL    HW136478   1.999   7.764   3.430
11679SOL    HW236479   2.033   7.622   3.392
11680SOL     OW36480   3.260   7.560   2.303
11680SOL    HW136481   3.260   7.525   2.214
11680SOL    HW236482   3.349   7.545   2.334
11681SOL     OW36483   3.380   7.679   3.588
11681SOL    HW136484   3.385   7.699   3.682
11681SOL    HW236485   3.317   7.607   3.582
11682SOL     OW36486   2.506   7.558   1.963
11682SOL    HW136487   2.545   7.478   1.997
11682SOL    HW236488   2.452   7.530   1.890
11683SOL     OW36489   2.627   7.713   3.609
11683SOL    HW136490   2.710   7.666   3.609
11683SOL    HW236491   2.584   7.686   3.690
11684SOL     OW36492   3.221   0.009   3.298
11684SOL    HW136493   3.244  -0.015   3.387
11684SOL    HW236494   3.157   0.080   3.308
11685SOL     OW36495   2.412   7.496   2.362
11685SOL    HW136496   2.333   7.502   2.417
11685SOL    HW236497   2.411   7.576   2.310
11686SOL     OW36498   2.149   7.502   2.033
11686SOL    HW136499   2.218   7.562   2.004
11686SOL    HW236500   2.197   7.433   2.080
11687SOL     OW36501   1.959  -0.003   3.247
11687SOL    HW136502   2.012  -0.043   3.316
11687SOL    HW236503   1.942   0.086   3.278
11688SOL     OW36504   2.417   7.663   3.043
11688SOL    HW136505   2.457   7.601   3.105
11688SOL    HW236506   2.325   7.665   3.067
11689SOL     OW36507   2.861   7.491   2.587
11689SOL    HW136508   2.801   7.466   2.517
11689SOL    HW236509   2.851   7.423   2.654
11690SOL     OW36510   3.356   7.949   2.818
11690SOL    HW136511   3.269   7.913   2.833
11690SOL    HW236512   3.388   7.974   2.904
11691SOL     OW36513   2.425   7.707   2.190
11691SOL    HW136514   2.455   7.669   2.107
11691SOL    HW236515   2.420   7.802   2.172
11692SOL     OW36516   2.783   7.533   3.251
11692SOL    HW136517   2.810   7.509   3.162
11692SOL    HW236518   2.862   7.571   3.290
11693SOL     OW36519   3.132   7.802   3.145
11693SOL    HW136520   3.165   7.879   3.193
11693SOL    HW236521   3.037   7.818   3.138
11694SOL     OW36522   2.416   7.927   2.729
11694SOL    HW136523   2.381   7.989   2.664
11694SOL    HW236524   2.479   7.979   2.779
11695SOL     OW36525   2.869   7.589   3.614
11695SOL    HW136526   2.929   7.661   3.594
11695SOL    HW236527   2.918   7.510   3.591
11696SOL     OW36528   2.357   7.479   3.612
11696SOL    HW136529   2.308   7.426   3.549
11696SOL    HW236530   2.301   7.554   3.630
11697SOL     OW36531   2.154   7.643   3.114
11697SOL    HW136532   2.110   7.674   3.193
11697SOL    HW236533   2.138   7.548   3.113
11698SOL     OW36534   2.600   0.072   2.894
11698SOL    HW136535   2.629   0.132   2.826
11698SOL    HW236536   2.542   0.125   2.950
11699SOL     OW36537   2.172   7.517   2.492
11699SOL    HW136538   2.142   7.604   2.517
11699SOL    HW236539   2.180   7.470   2.574
11700SOL     OW36540   3.484   7.825   2.226
11700SOL    HW136541   3.521   7.748   2.269
11700SOL    HW236542   3.460   7.883   2.298
11701SOL     OW36543   3.344   7.741   1.997
11701SOL    HW136544   3.302   7.658   2.018
11701SOL    HW236545   3.397   7.762   2.074
11702SOL     OW36546   3.104   0.226   1.930
11702SOL    HW136547   3.182   0.266   1.969
11702SOL    HW236548   3.077   0.288   1.861
11703SOL     OW36549   2.163   7.973   2.886
11703SOL    HW136550   2.153   7.878   2.873
11703SOL    HW236551   2.245   7.994   2.842
11704SOL     OW36552   3.018   7.819   3.538
11704SOL    HW136553   2.963   7.896   3.551
11704SOL    HW236554   3.108   7.852   3.546
11705SOL     OW36555   3.026   7.631   3.337
11705SOL    HW136556   3.018   7.697   3.405
11705SOL    HW236557   3.076   7.674   3.268
11706SOL     OW36558   1.900   7.955   2.982
11706SOL    HW136559   1.984   7.953   2.937
11706SOL    HW236560   1.922   7.963   3.075
11707SOL     OW36561   2.054   7.972   3.529
11707SOL    HW136562   2.144   7.942   3.514
11707SOL    HW236563   2.063   8.048   3.586
11708SOL     OW36564   2.650   0.022   2.096
11708SOL    HW136565   2.656  -0.071   2.115
11708SOL    HW236566   2.599   0.058   2.168
11709SOL     OW36567   3.480   8.011   3.058
11709SOL    HW136568   3.469   7.955   3.135
11709SOL    HW236569   3.562   7.983   3.019
11710SOL     OW36570   2.591   7.876   3.093
11710SOL    HW136571   2.524   7.809   3.080
11710SOL    HW236572   2.578   7.938   3.021
11711SOL     OW36573   3.589   7.609   2.361
11711SOL    HW136574   3.662   7.587   2.304
11711SOL    HW236575   3.565   7.527   2.403
11712SOL     OW36576   3.705   7.632   2.804
11712SOL    HW136577   3.735   7.545   2.777
11712SOL    HW236578   3.614   7.636   2.776
11713SOL     OW36579   2.102   7.768   2.579
11713SOL    HW136580   2.009   7.788   2.569
11713SOL    HW236581   2.114   7.756   2.673
11714SOL     OW36582   2.884   7.665   2.814
11714SOL    HW136583   2.872   7.617   2.732
11714SOL    HW236584   2.879   7.597   2.882
11715SOL     OW36585   3.593   7.821   3.247
11715SOL    HW136586   3.658   7.891   3.248
11715SOL    HW236587   3.628   7.757   3.185
11716SOL     OW36588   2.540   7.633   3.354
11716SOL    HW136589   2.626   7.611   3.317
11716SOL    HW236590   2.559   7.665   3.442
11717SOL     OW36591   1.951   7.781   1.892
11717SOL    HW136592   1.874   7.759   1.839
11717SOL    HW236593   1.944   7.875   1.907
11718SOL     OW36594   1.923   7.597   2.160
11718SOL    HW136595   1.911   7.683   2.118
11718SOL    HW236596   2.006   7.565   2.123
11719SOL     OW36597   2.645   7.989   3.578
11719SOL    HW136598   2.552   8.015   3.581
11719SOL    HW236599   2.644   7.894   3.584
11720SOL     OW36600   3.078   7.769   2.340
11720SOL    HW136601   3.134   7.694   2.320
11720SOL    HW236602   3.122   7.813   2.413
11721SOL     OW36603   2.529   0.223   2.493
11721SOL    HW136604   2.525   0.317   2.507
11721SOL    HW236605   2.451   0.189   2.537
11722SOL     OW36606   3.625   7.785   3.517
11722SOL    HW136607   3.611   7.803   3.425
11722SOL    HW236608   3.546   7.740   3.546
11723SOL     OW36609   3.682   7.637   3.078
11723SOL    HW136610   3.671   7.542   3.088
11723SOL    HW236611   3.690   7.650   2.984
11724SOL     OW36612   2.229   7.849   2.349
11724SOL    HW136613   2.280   7.773   2.321
11724SOL    HW236614   2.181   7.817   2.426
11725SOL     OW36615   3.289   7.663   2.972
11725SOL    HW136616   3.316   7.578   3.008
11725SOL    HW236617   3.243   7.707   3.044
11726SOL     OW36618   2.874   7.456   2.998
11726SOL    HW136619   2.820   7.386   2.963
11726SOL    HW236620   2.963   7.420   2.995
11727SOL     OW36621   3.232   7.492   2.032
11727SOL    HW136622   3.273   7.414   1.994
11727SOL    HW236623   3.141   7.466   2.046
11728SOL     OW36624   3.171   7.907   2.553
11728SOL    HW136625   3.138   7.996   2.569
11728SOL    HW236626   3.158   7.862   2.637
11729SOL     OW36627   3.441   7.665   2.743
11729SOL    HW136628   3.391   7.659   2.825
11729SOL    HW236629   3.428   7.755   2.713
11730SOL     OW36630   2.090   7.718   4.719
11730SOL    HW136631   2.116   7.688   4.806
11730SOL    HW236632   2.000   7.687   4.709
11731SOL     OW36633   1.847   7.827   4.374
11731SOL    HW136634   1.762   7.864   4.398
11731SOL    HW236635   1.825   7.745   4.330
11732SOL     OW36636   3.518   0.024   3.929
11732SOL    HW136637   3.546   0.006   3.839
11732SOL    HW236638   3.597   0.054   3.973
11733SOL     OW36639   2.301   7.863   5.252
11733SOL    HW136640   2.382   7.821   5.222
11733SOL    HW236641   2.234   7.796   5.239
11734SOL     OW36642   3.462   7.917   4.431
11734SOL    HW136643   3.373   7.907   4.397
11734SOL    HW236644   3.449   7.948   4.521
11735SOL     OW36645   3.461   7.577   5.182
11735SOL    HW136646   3.492   7.662   5.153
11735SOL    HW236647   3.418   7.594   5.266
11736SOL     OW36648   1.937   0.096   4.333
11736SOL    HW136649   1.919   0.002   4.344
11736SOL    HW236650   2.030   0.100   4.315
11737SOL     OW36651   2.679   7.431   4.241
11737SOL    HW136652   2.724   7.511   4.214
11737SOL    HW236653   2.587   7.455   4.245
11738SOL     OW36654   2.209   7.701   5.543
11738SOL    HW136655   2.249   7.788   5.542
11738SOL    HW236656   2.118   7.717   5.571
11739SOL     OW36657   3.128   7.798   4.655
11739SOL    HW136658   3.038   7.765   4.664
11739SOL    HW236659   3.179   7.743   4.714
11740SOL     OW36660   3.260   7.935   5.432
11740SOL    HW136661   3.240   7.950   5.525
11740SOL    HW236662   3.301   7.849   5.430
11741SOL     OW36663   2.798   0.412   5.219
11741SOL    HW136664   2.852   0.334   5.214
11741SOL    HW236665   2.708   0.379   5.212
11742SOL     OW36666   2.848   7.825   4.981
11742SOL    HW136667   2.766   7.855   5.021
11742SOL    HW236668   2.825   7.743   4.936
11743SOL     OW36669   2.756   7.788   3.908
11743SOL    HW136670   2.808   7.800   3.828
11743SOL    HW236671   2.785   7.705   3.944
11744SOL     OW36672   3.682   0.039   5.510
11744SOL    HW136673   3.603   0.084   5.540
11744SOL    HW236674   3.650  -0.033   5.457
11745SOL     OW36675   2.412   7.628   4.633
11745SOL    HW136676   2.415   7.645   4.727
11745SOL    HW236677   2.408   7.715   4.593
11746SOL     OW36678   2.055   7.718   5.233
11746SOL    HW136679   2.015   7.773   5.300
11746SOL    HW236680   2.036   7.628   5.261
11747SOL     OW36681   3.267   7.550   4.163
11747SOL    HW136682   3.255   7.522   4.072
11747SOL    HW236683   3.330   7.621   4.159
11748SOL     OW36684   3.366   7.668   5.445
11748SOL    HW136685   3.373   7.683   5.540
11748SOL    HW236686   3.301   7.598   5.437
11749SOL     OW36687   2.505   7.568   3.824
11749SOL    HW136688   2.557   7.494   3.853
11749SOL    HW236689   2.453   7.534   3.752
11750SOL     OW36690   2.601   7.725   5.462
11750SOL    HW136691   2.694   7.704   5.470
11750SOL    HW236692   2.562   7.693   5.544
11751SOL     OW36693   3.205   0.010   5.164
11751SOL    HW136694   3.238  -0.013   5.251
11751SOL    HW236695   3.140   0.078   5.180
11752SOL     OW36696   2.417   7.505   4.219
11752SOL    HW136697   2.339   7.511   4.274
11752SOL    HW236698   2.416   7.587   4.169
11753SOL     OW36699   2.152   7.495   3.910
11753SOL    HW136700   2.209   7.560   3.869
11753SOL    HW236701   2.212   7.434   3.953
11754SOL     OW36702   2.806   7.665   4.178
11754SOL    HW136703   2.764   7.750   4.172
11754SOL    HW236704   2.899   7.685   4.188
11755SOL     OW36705   1.961  -0.001   5.112
11755SOL    HW136706   2.015  -0.053   5.172
11755SOL    HW236707   1.960   0.087   5.150
11756SOL     OW36708   2.413   7.665   4.906
11756SOL    HW136709   2.458   7.615   4.974
11756SOL    HW236710   2.321   7.664   4.932
11757SOL     OW36711   2.893   7.487   4.460
11757SOL    HW136712   2.828   7.492   4.390
11757SOL    HW236713   2.860   7.418   4.518
11758SOL     OW36714   3.369   7.941   4.685
11758SOL    HW136715   3.277   7.917   4.696
11758SOL    HW236716   3.393   7.982   4.767
11759SOL     OW36717   2.417   7.723   4.053
11759SOL    HW136718   2.454   7.688   3.972
11759SOL    HW236719   2.443   7.815   4.054
11760SOL     OW36720   2.775   7.531   5.108
11760SOL    HW136721   2.807   7.510   5.020
11760SOL    HW236722   2.851   7.568   5.153
11761SOL     OW36723   3.124   7.824   4.987
11761SOL    HW136724   3.154   7.892   5.048
11761SOL    HW236725   3.028   7.827   4.993
11762SOL     OW36726   2.405   7.934   4.591
11762SOL    HW136727   2.405   7.993   4.516
11762SOL    HW236728   2.476   7.966   4.646
11763SOL     OW36729   2.360   7.480   5.473
11763SOL    HW136730   2.311   7.426   5.411
11763SOL    HW236731   2.305   7.557   5.486
11764SOL     OW36732   2.149   7.642   4.978
11764SOL    HW136733   2.112   7.676   5.060
11764SOL    HW236734   2.131   7.548   4.981
11765SOL     OW36735   2.600   0.054   4.741
11765SOL    HW136736   2.674   0.086   4.689
11765SOL    HW236737   2.563   0.133   4.781
11766SOL     OW36738   2.174   7.513   4.353
11766SOL    HW136739   2.149   7.603   4.374
11766SOL    HW236740   2.183   7.471   4.439
11767SOL     OW36741   3.429   7.773   4.118
11767SOL    HW136742   3.501   7.737   4.169
11767SOL    HW236743   3.433   7.868   4.134
11768SOL     OW36744   3.362   7.727   3.853
11768SOL    HW136745   3.306   7.652   3.873
11768SOL    HW236746   3.399   7.752   3.938
11769SOL     OW36747   3.079   0.242   3.813
11769SOL    HW136748   3.152   0.181   3.807
11769SOL    HW236749   3.076   0.286   3.728
11770SOL     OW36750   2.162   7.975   4.742
11770SOL    HW136751   2.149   7.881   4.732
11770SOL    HW236752   2.249   7.990   4.705
11771SOL     OW36753   2.980   7.930   5.392
11771SOL    HW136754   2.945   7.848   5.425
11771SOL    HW236755   3.075   7.921   5.400
11772SOL     OW36756   3.005   7.628   5.211
11772SOL    HW136757   2.978   7.649   5.301
11772SOL    HW236758   3.053   7.705   5.182
11773SOL     OW36759   1.901   7.962   4.848
11773SOL    HW136760   1.983   7.958   4.799
11773SOL    HW236761   1.928   7.963   4.940
11774SOL     OW36762   2.045   7.971   5.391
11774SOL    HW136763   2.138   7.949   5.397
11774SOL    HW236764   2.036   8.048   5.447
11775SOL     OW36765   2.653   0.032   3.968
11775SOL    HW136766   2.692  -0.053   3.951
11775SOL    HW236767   2.634   0.032   4.062
11776SOL     OW36768   3.492   8.026   4.921
11776SOL    HW136769   3.479   7.993   5.010
11776SOL    HW236770   3.565   7.975   4.887
11777SOL     OW36771   2.577   7.884   4.958
11777SOL    HW136772   2.512   7.817   4.937
11777SOL    HW236773   2.579   7.940   4.880
11778SOL     OW36774   3.629   7.631   4.241
11778SOL    HW136775   3.685   7.610   4.167
11778SOL    HW236776   3.626   7.550   4.292
11779SOL     OW36777   3.705   7.617   4.685
11779SOL    HW136778   3.727   7.526   4.661
11779SOL    HW236779   3.616   7.629   4.654
11780SOL     OW36780   2.109   7.766   4.443
11780SOL    HW136781   2.018   7.791   4.428
11780SOL    HW236782   2.115   7.753   4.538
11781SOL     OW36783   2.892   7.667   4.676
11781SOL    HW136784   2.892   7.616   4.595
11781SOL    HW236785   2.882   7.602   4.746
11782SOL     OW36786   3.602   7.819   5.115
11782SOL    HW136787   3.665   7.891   5.112
11782SOL    HW236788   3.636   7.754   5.053
11783SOL     OW36789   2.535   7.631   5.209
11783SOL    HW136790   2.623   7.610   5.177
11783SOL    HW236791   2.549   7.665   5.297
11784SOL     OW36792   1.946   7.774   3.746
11784SOL    HW136793   1.877   7.759   3.682
11784SOL    HW236794   1.957   7.870   3.747
11785SOL     OW36795   1.919   7.595   4.015
11785SOL    HW136796   1.910   7.677   3.966
11785SOL    HW236797   2.007   7.563   3.993
11786SOL     OW36798   2.597   7.994   5.396
11786SOL    HW136799   2.599   8.024   5.487
11786SOL    HW236800   2.610   7.899   5.402
11787SOL     OW36801   3.068   7.741   4.201
11787SOL    HW136802   3.135   7.675   4.189
11787SOL    HW236803   3.106   7.803   4.263
11788SOL     OW36804   2.507   0.221   4.359
11788SOL    HW136805   2.549   0.307   4.358
11788SOL    HW236806   2.447   0.224   4.434
11789SOL     OW36807   3.602   7.809   5.386
11789SOL    HW136808   3.593   7.820   5.292
11789SOL    HW236809   3.528   7.754   5.411
11790SOL     OW36810   3.689   7.622   4.957
11790SOL    HW136811   3.670   7.528   4.965
11790SOL    HW236812   3.697   7.636   4.863
11791SOL     OW36813   2.178   7.831   4.171
11791SOL    HW136814   2.259   7.787   4.147
11791SOL    HW236815   2.171   7.818   4.265
11792SOL     OW36816   3.285   7.664   4.844
11792SOL    HW136817   3.302   7.588   4.900
11792SOL    HW236818   3.234   7.723   4.899
11793SOL     OW36819   2.873   7.458   4.859
11793SOL    HW136820   2.812   7.390   4.828
11793SOL    HW236821   2.959   7.417   4.851
11794SOL     OW36822   3.224   7.491   3.895
11794SOL    HW136823   3.258   7.421   3.838
11794SOL    HW236824   3.136   7.464   3.917
11795SOL     OW36825   3.182   7.896   4.403
11795SOL    HW136826   3.144   7.984   4.405
11795SOL    HW236827   3.163   7.860   4.489
11796SOL     OW36828   3.442   7.644   4.618
11796SOL    HW136829   3.392   7.663   4.697
11796SOL    HW236830   3.434   7.723   4.564
11797SOL     OW36831   2.093   7.718   6.581
11797SOL    HW136832   2.118   7.682   6.667
11797SOL    HW236833   2.002   7.691   6.570
11798SOL     OW36834   1.854   7.815   6.242
11798SOL    HW136835   1.772   7.857   6.268
11798SOL    HW236836   1.826   7.736   6.195
11799SOL     OW36837   3.522   0.005   5.774
11799SOL    HW136838   3.589   0.068   5.801
11799SOL    HW236839   3.521  -0.060   5.844
11800SOL     OW36840   2.302   7.858   7.122
11800SOL    HW136841   2.378   7.813   7.085
11800SOL    HW236842   2.228   7.800   7.102
11801SOL     OW36843   3.460   7.927   6.288
11801SOL    HW136844   3.369   7.916   6.262
11801SOL    HW236845   3.455   7.959   6.379
11802SOL     OW36846   3.451   7.579   7.048
11802SOL    HW136847   3.492   7.654   7.004
11802SOL    HW236848   3.425   7.613   7.134
11803SOL     OW36849   1.916   0.100   6.206
11803SOL    HW136850   1.928   0.006   6.201
11803SOL    HW236851   2.005   0.136   6.212
11804SOL     OW36852   2.684   7.433   6.115
11804SOL    HW136853   2.729   7.510   6.082
11804SOL    HW236854   2.591   7.457   6.115
11805SOL     OW36855   2.207   7.695   7.410
11805SOL    HW136856   2.248   7.780   7.390
11805SOL    HW236857   2.117   7.717   7.432
11806SOL     OW36858   3.125   7.805   6.520
11806SOL    HW136859   3.036   7.770   6.532
11806SOL    HW236860   3.180   7.749   6.574
11807SOL     OW36861   3.269   7.940   7.285
11807SOL    HW136862   3.267   7.963   7.378
11807SOL    HW236863   3.323   7.861   7.281
11808SOL     OW36864   2.772   0.352   7.163
11808SOL    HW136865   2.835   0.304   7.109
11808SOL    HW236866   2.710   0.389   7.100
11809SOL     OW36867   2.862   7.815   6.826
11809SOL    HW136868   2.776   7.840   6.859
11809SOL    HW236869   2.843   7.762   6.748
11810SOL     OW36870   2.780   7.772   5.780
11810SOL    HW136871   2.809   7.839   5.718
11810SOL    HW236872   2.806   7.689   5.739
11811SOL     OW36873   3.585   0.021   7.412
11811SOL    HW136874   3.552   0.089   7.354
11811SOL    HW236875   3.612  -0.050   7.354
11812SOL     OW36876   2.411   7.622   6.492
11812SOL    HW136877   2.411   7.645   6.585
11812SOL    HW236878   2.409   7.706   6.446
11813SOL     OW36879   2.058   7.727   7.092
11813SOL    HW136880   1.999   7.784   7.140
11813SOL    HW236881   2.044   7.640   7.130
11814SOL     OW36882   3.262   7.542   6.030
11814SOL    HW136883   3.249   7.521   5.938
11814SOL    HW236884   3.355   7.526   6.046
11815SOL     OW36885   3.377   7.675   7.313
11815SOL    HW136886   3.377   7.698   7.406
11815SOL    HW236887   3.317   7.601   7.306
11816SOL     OW36888   2.501   7.576   5.687
11816SOL    HW136889   2.575   7.517   5.702
11816SOL    HW236890   2.451   7.534   5.617
11817SOL     OW36891   2.619   7.706   7.335
11817SOL    HW136892   2.705   7.664   7.338
11817SOL    HW236893   2.576   7.677   7.415
11818SOL     OW36894   3.200   0.011   7.019
11818SOL    HW136895   3.235  -0.007   7.106
11818SOL    HW236896   3.137   0.082   7.033
11819SOL     OW36897   2.423   7.506   6.089
11819SOL    HW136898   2.340   7.506   6.136
11819SOL    HW236899   2.419   7.584   6.034
11820SOL     OW36900   2.151   7.501   5.767
11820SOL    HW136901   2.211   7.560   5.722
11820SOL    HW236902   2.209   7.438   5.812
11821SOL     OW36903   2.814   7.657   6.036
11821SOL    HW136904   2.788   7.705   5.957
11821SOL    HW236905   2.902   7.688   6.055
11822SOL     OW36906   1.959  -0.006   6.966
11822SOL    HW136907   2.034  -0.056   7.000
11822SOL    HW236908   1.962   0.077   7.014
11823SOL     OW36909   2.406   7.663   6.766
11823SOL    HW136910   2.453   7.604   6.825
11823SOL    HW236911   2.314   7.657   6.793
11824SOL     OW36912   2.884   7.503   6.332
11824SOL    HW136913   2.827   7.509   6.256
11824SOL    HW236914   2.854   7.425   6.379
11825SOL     OW36915   3.366   7.948   6.545
11825SOL    HW136916   3.274   7.922   6.551
11825SOL    HW236917   3.384   7.994   6.627
11826SOL     OW36918   2.408   7.716   5.913
11826SOL    HW136919   2.441   7.675   5.833
11826SOL    HW236920   2.449   7.803   5.913
11827SOL     OW36921   2.784   7.528   6.976
11827SOL    HW136922   2.805   7.509   6.885
11827SOL    HW236923   2.862   7.570   7.010
11828SOL     OW36924   3.129   7.796   6.873
11828SOL    HW136925   3.158   7.876   6.916
11828SOL    HW236926   3.036   7.810   6.856
11829SOL     OW36927   2.407   7.924   6.463
11829SOL    HW136928   2.385   7.986   6.393
11829SOL    HW236929   2.481   7.965   6.508
11830SOL     OW36930   2.866   7.593   7.352
11830SOL    HW136931   2.923   7.665   7.326
11830SOL    HW236932   2.913   7.514   7.322
11831SOL     OW36933   2.356   7.477   7.338
11831SOL    HW136934   2.309   7.426   7.272
11831SOL    HW236935   2.302   7.555   7.352
11832SOL     OW36936   2.142   7.624   6.844
11832SOL    HW136937   2.112   7.673   6.921
11832SOL    HW236938   2.093   7.542   6.848
11833SOL     OW36939   2.614   0.061   6.607
11833SOL    HW136940   2.653   0.092   6.526
11833SOL    HW236941   2.555   0.132   6.634
11834SOL     OW36942   2.173   7.508   6.212
11834SOL    HW136943   2.148   7.597   6.234
11834SOL    HW236944   2.181   7.463   6.296
11835SOL     OW36945   3.479   7.808   5.967
11835SOL    HW136946   3.522   7.736   6.012
11835SOL    HW236947   3.435   7.857   6.037
11836SOL     OW36948   3.366   7.728   5.715
11836SOL    HW136949   3.309   7.654   5.738
11836SOL    HW236950   3.411   7.750   5.796
11837SOL     OW36951   3.184   0.256   5.649
11837SOL    HW136952   3.167   0.164   5.667
11837SOL    HW236953   3.113   0.283   5.591
11838SOL     OW36954   2.160   7.976   6.623
11838SOL    HW136955   2.151   7.883   6.603
11838SOL    HW236956   2.240   8.003   6.578
11839SOL     OW36957   3.014   7.820   7.268
11839SOL    HW136958   2.960   7.897   7.286
11839SOL    HW236959   3.104   7.854   7.267
11840SOL     OW36960   3.024   7.631   7.067
11840SOL    HW136961   3.014   7.700   7.133
11840SOL    HW236962   3.071   7.674   6.995
11841SOL     OW36963   1.892   7.944   6.712
11841SOL    HW136964   1.973   7.952   6.661
11841SOL    HW236965   1.921   7.948   6.803
11842SOL     OW36966   2.050   7.970   7.275
11842SOL    HW136967   2.143   7.956   7.255
11842SOL    HW236968   2.034   8.061   7.247
11843SOL     OW36969   2.644   8.010   5.834
11843SOL    HW136970   2.694   7.929   5.842
11843SOL    HW236971   2.595   8.017   5.916
11844SOL     OW36972   3.491   8.027   6.788
11844SOL    HW136973   3.477   7.986   6.873
11844SOL    HW236974   3.558   7.973   6.746
11845SOL     OW36975   2.591   7.871   6.812
11845SOL    HW136976   2.519   7.811   6.793
11845SOL    HW236977   2.584   7.939   6.745
11846SOL     OW36978   3.603   7.601   6.103
11846SOL    HW136979   3.671   7.581   6.039
11846SOL    HW236980   3.575   7.516   6.136
11847SOL     OW36981   3.708   7.616   6.547
11847SOL    HW136982   3.731   7.526   6.524
11847SOL    HW236983   3.621   7.628   6.510
11848SOL     OW36984   2.114   7.763   6.304
11848SOL    HW136985   2.021   7.782   6.290
11848SOL    HW236986   2.121   7.751   6.399
11849SOL     OW36987   2.889   7.670   6.559
11849SOL    HW136988   2.885   7.630   6.472
11849SOL    HW236989   2.882   7.596   6.619
11850SOL     OW36990   3.605   7.814   6.980
11850SOL    HW136991   3.668   7.885   6.973
11850SOL    HW236992   3.636   7.748   6.917
11851SOL     OW36993   2.540   7.633   7.079
11851SOL    HW136994   2.626   7.616   7.040
11851SOL    HW236995   2.560   7.666   7.167
11852SOL     OW36996   1.948   7.777   5.616
11852SOL    HW136997   1.886   7.765   5.544
11852SOL    HW236998   1.957   7.872   5.623
11853SOL     OW36999   1.920   7.597   5.876
11853SOL    HW137000   1.907   7.674   5.821
11853SOL    HW237001   2.006   7.564   5.851
11854SOL     OW37002   2.663   7.982   7.314
11854SOL    HW137003   2.580   8.030   7.312
11854SOL    HW237004   2.636   7.890   7.307
11855SOL     OW37005   3.075   7.744   6.065
11855SOL    HW137006   3.139   7.675   6.050
11855SOL    HW237007   3.116   7.802   6.130
11856SOL     OW37008   2.506   0.227   6.210
11856SOL    HW137009   2.503   0.322   6.224
11856SOL    HW237010   2.429   0.193   6.255
11857SOL     OW37011   3.620   7.794   7.254
11857SOL    HW137012   3.613   7.813   7.160
11857SOL    HW237013   3.542   7.743   7.275
11858SOL     OW37014   3.678   7.612   6.819
11858SOL    HW137015   3.676   7.516   6.822
11858SOL    HW237016   3.689   7.632   6.726
11859SOL     OW37017   2.200   7.851   6.053
11859SOL    HW137018   2.261   7.791   6.010
11859SOL    HW237019   2.178   7.809   6.135
11860SOL     OW37020   3.286   7.665   6.695
11860SOL    HW137021   3.300   7.577   6.731
11860SOL    HW237022   3.239   7.711   6.765
11861SOL     OW37023   2.867   7.446   6.719
11861SOL    HW137024   2.818   7.384   6.665
11861SOL    HW237025   2.956   7.411   6.723
11862SOL     OW37026   3.221   7.500   5.760
11862SOL    HW137027   3.249   7.434   5.696
11862SOL    HW237028   3.131   7.476   5.782
11863SOL     OW37029   3.186   7.900   6.267
11863SOL    HW137030   3.139   7.983   6.261
11863SOL    HW237031   3.163   7.865   6.353
11864SOL     OW37032   3.448   7.651   6.473
11864SOL    HW137033   3.395   7.668   6.551
11864SOL    HW237034   3.436   7.729   6.418
11865SOL     OW37035   2.090   7.736   8.446
11865SOL    HW137036   2.120   7.699   8.529
11865SOL    HW237037   2.002   7.701   8.434
11866SOL     OW37038   1.851   7.806   8.103
11866SOL    HW137039   1.771   7.849   8.132
11866SOL    HW237040   1.821   7.727   8.058
11867SOL     OW37041   3.539   8.008   7.685
11867SOL    HW137042   3.551   8.038   7.595
11867SOL    HW237043   3.598   7.933   7.693
11868SOL     OW37044   2.289   7.844   8.998
11868SOL    HW137045   2.366   7.808   8.953
11868SOL    HW237046   2.217   7.787   8.971
11869SOL     OW37047   3.456   7.918   8.176
11869SOL    HW137048   3.369   7.917   8.137
11869SOL    HW237049   3.445   7.966   8.258
11870SOL     OW37050   3.466   7.575   8.909
11870SOL    HW137051   3.495   7.659   8.872
11870SOL    HW237052   3.430   7.598   8.995
11871SOL     OW37053   1.900   0.089   8.099
11871SOL    HW137054   1.924  -0.001   8.076
11871SOL    HW237055   1.982   0.137   8.093
11872SOL     OW37056   2.677   7.428   7.972
11872SOL    HW137057   2.724   7.506   7.944
11872SOL    HW237058   2.585   7.454   7.972
11873SOL     OW37059   2.201   7.695   9.288
11873SOL    HW137060   2.223   7.774   9.239
11873SOL    HW237061   2.108   7.705   9.309
11874SOL     OW37062   3.131   7.808   8.385
11874SOL    HW137063   3.042   7.775   8.394
11874SOL    HW237064   3.183   7.751   8.440
11875SOL     OW37065   3.261   7.933   9.147
11875SOL    HW137066   3.249   7.959   9.238
11875SOL    HW237067   3.317   7.855   9.152
11876SOL     OW37068   2.790   0.366   8.985
11876SOL    HW137069   2.800   0.289   8.929
11876SOL    HW237070   2.725   0.420   8.940
11877SOL     OW37071   2.862   7.816   8.682
11877SOL    HW137072   2.774   7.837   8.712
11877SOL    HW237073   2.848   7.761   8.605
11878SOL     OW37074   2.769   7.772   7.644
11878SOL    HW137075   2.765   7.832   7.569
11878SOL    HW237076   2.809   7.692   7.609
11879SOL     OW37077   3.605   0.021   9.275
11879SOL    HW137078   3.545   0.082   9.233
11879SOL    HW237079   3.613  -0.052   9.212
11880SOL     OW37080   2.416   7.625   8.351
11880SOL    HW137081   2.418   7.648   8.444
11880SOL    HW237082   2.412   7.709   8.306
11881SOL     OW37083   2.058   7.710   8.944
11881SOL    HW137084   1.975   7.757   8.939
11881SOL    HW237085   2.034   7.624   8.978
11882SOL     OW37086   3.257   7.539   7.888
11882SOL    HW137087   3.245   7.515   7.796
11882SOL    HW237088   3.344   7.579   7.891
11883SOL     OW37089   3.375   7.670   9.172
11883SOL    HW137090   3.379   7.690   9.266
11883SOL    HW237091   3.306   7.605   9.164
11884SOL     OW37092   2.502   7.559   7.552
11884SOL    HW137093   2.561   7.487   7.573
11884SOL    HW237094   2.449   7.527   7.479
11885SOL     OW37095   2.633   7.722   9.203
11885SOL    HW137096   2.714   7.672   9.200
11885SOL    HW237097   2.582   7.682   9.273
11886SOL     OW37098   3.224   0.011   8.881
11886SOL    HW137099   3.244  -0.014   8.971
11886SOL    HW237100   3.160   0.081   8.889
11887SOL     OW37101   2.418   7.507   7.942
11887SOL    HW137102   2.339   7.510   7.996
11887SOL    HW237103   2.415   7.587   7.890
11888SOL     OW37104   2.150   7.497   7.625
11888SOL    HW137105   2.205   7.563   7.582
11888SOL    HW237106   2.212   7.439   7.669
11889SOL     OW37107   2.810   7.655   7.906
11889SOL    HW137108   2.780   7.708   7.833
11889SOL    HW237109   2.899   7.685   7.922
11890SOL     OW37110   1.962  -0.007   8.847
11890SOL    HW137111   2.056   0.004   8.860
11890SOL    HW237112   1.924   0.078   8.870
11891SOL     OW37113   2.422   7.670   8.624
11891SOL    HW137114   2.460   7.597   8.673
11891SOL    HW237115   2.329   7.669   8.647
11892SOL     OW37116   2.890   7.508   8.194
11892SOL    HW137117   2.833   7.521   8.118
11892SOL    HW237118   2.856   7.431   8.237
11893SOL     OW37119   3.347   7.974   8.435
11893SOL    HW137120   3.269   7.921   8.418
11893SOL    HW237121   3.314   8.060   8.460
11894SOL     OW37122   2.406   7.716   7.764
11894SOL    HW137123   2.439   7.667   7.688
11894SOL    HW237124   2.442   7.804   7.753
11895SOL     OW37125   2.783   7.530   8.840
11895SOL    HW137126   2.803   7.509   8.748
11895SOL    HW237127   2.863   7.571   8.873
11896SOL     OW37128   3.131   7.797   8.737
11896SOL    HW137129   3.163   7.878   8.776
11896SOL    HW237130   3.039   7.816   8.715
11897SOL     OW37131   2.405   7.909   8.305
11897SOL    HW137132   2.361   7.960   8.237
11897SOL    HW237133   2.457   7.973   8.354
11898SOL     OW37134   2.870   7.590   9.213
11898SOL    HW137135   2.927   7.662   9.187
11898SOL    HW237136   2.917   7.511   9.185
11899SOL     OW37137   2.351   7.480   9.207
11899SOL    HW137138   2.304   7.429   9.141
11899SOL    HW237139   2.296   7.556   9.222
11900SOL     OW37140   2.162   7.638   8.696
11900SOL    HW137141   2.119   7.668   8.777
11900SOL    HW237142   2.143   7.545   8.692
11901SOL     OW37143   2.624   0.062   8.466
11901SOL    HW137144   2.668   0.067   8.381
11901SOL    HW237145   2.553   0.125   8.459
11902SOL     OW37146   2.175   7.507   8.074
11902SOL    HW137147   2.146   7.596   8.096
11902SOL    HW237148   2.185   7.463   8.158
11903SOL     OW37149   3.446   7.764   7.828
11903SOL    HW137150   3.511   7.722   7.885
11903SOL    HW237151   3.445   7.855   7.857
11904SOL     OW37152   3.339   7.740   7.578
11904SOL    HW137153   3.289   7.659   7.592
11904SOL    HW237154   3.388   7.752   7.659
11905SOL     OW37155   3.086   0.250   7.549
11905SOL    HW137156   3.153   0.184   7.531
11905SOL    HW237157   3.075   0.296   7.466
11906SOL     OW37158   2.163   7.995   8.494
11906SOL    HW137159   2.155   7.903   8.470
11906SOL    HW237160   2.232   8.029   8.437
11907SOL     OW37161   3.007   7.825   9.130
11907SOL    HW137162   2.955   7.902   9.151
11907SOL    HW237163   3.097   7.857   9.128
11908SOL     OW37164   3.024   7.634   8.930
11908SOL    HW137165   3.010   7.703   8.995
11908SOL    HW237166   3.068   7.677   8.857
11909SOL     OW37167   1.884   7.924   8.590
11909SOL    HW137168   1.956   7.934   8.528
11909SOL    HW237169   1.923   7.947   8.675
11910SOL     OW37170   2.067   7.945   9.180
11910SOL    HW137171   2.107   7.924   9.095
11910SOL    HW237172   2.024   8.030   9.166
11911SOL     OW37173   2.676   0.035   7.698
11911SOL    HW137174   2.722  -0.046   7.717
11911SOL    HW237175   2.621   0.050   7.776
11912SOL     OW37176   3.489   8.026   8.667
11912SOL    HW137177   3.471   7.953   8.726
11912SOL    HW237178   3.457   7.997   8.582
11913SOL     OW37179   2.594   7.882   8.678
11913SOL    HW137180   2.527   7.817   8.658
11913SOL    HW237181   2.588   7.945   8.607
11914SOL     OW37182   3.617   7.601   7.968
11914SOL    HW137183   3.676   7.586   7.895
11914SOL    HW237184   3.588   7.514   7.995
11915SOL     OW37185   3.705   7.617   8.411
11915SOL    HW137186   3.729   7.529   8.383
11915SOL    HW237187   3.619   7.632   8.372
11916SOL     OW37188   2.108   7.753   8.166
11916SOL    HW137189   2.016   7.774   8.151
11916SOL    HW237190   2.118   7.754   8.261
11917SOL     OW37191   2.897   7.670   8.424
11917SOL    HW137192   2.891   7.632   8.336
11917SOL    HW237193   2.886   7.595   8.483
11918SOL     OW37194   3.597   7.808   8.836
11918SOL    HW137195   3.648   7.889   8.841
11918SOL    HW237196   3.640   7.758   8.766
11919SOL     OW37197   2.542   7.629   8.947
11919SOL    HW137198   2.626   7.609   8.905
11919SOL    HW237199   2.566   7.670   9.030
11920SOL     OW37200   1.950   7.781   7.469
11920SOL    HW137201   1.881   7.766   7.404
11920SOL    HW237202   1.979   7.871   7.452
11921SOL     OW37203   1.920   7.598   7.737
11921SOL    HW137204   1.904   7.676   7.684
11921SOL    HW237205   2.005   7.566   7.708
11922SOL     OW37206   2.645   8.003   9.178
11922SOL    HW137207   2.554   8.025   9.161
11922SOL    HW237208   2.647   7.907   9.177
11923SOL     OW37209   3.070   7.738   7.934
11923SOL    HW137210   3.135   7.671   7.913
11923SOL    HW237211   3.116   7.800   7.991
11924SOL     OW37212   2.499   0.249   8.142
11924SOL    HW137213   2.493   0.336   8.102
11924SOL    HW237214   2.440   0.195   8.090
11925SOL     OW37215   3.620   7.791   9.119
11925SOL    HW137216   3.616   7.810   9.025
11925SOL    HW237217   3.541   7.740   9.136
11926SOL     OW37218   3.701   7.597   8.679
11926SOL    HW137219   3.639   7.524   8.681
11926SOL    HW237220   3.705   7.623   8.587
11927SOL     OW37221   2.246   7.866   7.954
11927SOL    HW137222   2.272   7.799   7.890
11927SOL    HW237223   2.203   7.816   8.024
11928SOL     OW37224   3.285   7.662   8.558
11928SOL    HW137225   3.279   7.569   8.578
11928SOL    HW237226   3.239   7.706   8.629
11929SOL     OW37227   2.868   7.448   8.585
11929SOL    HW137228   2.816   7.385   8.534
11929SOL    HW237229   2.955   7.410   8.588
11930SOL     OW37230   3.224   7.493   7.615
11930SOL    HW137231   3.265   7.418   7.572
11930SOL    HW237232   3.134   7.463   7.633
11931SOL     OW37233   3.186   7.905   8.129
11931SOL    HW137234   3.136   7.984   8.113
11931SOL    HW237235   3.155   7.873   8.214
11932SOL     OW37236   3.449   7.657   8.333
11932SOL    HW137237   3.393   7.674   8.408
11932SOL    HW237238   3.431   7.730   8.273
11933SOL     OW37239   2.070   7.762  10.329
11933SOL    HW137240   2.111   7.714  10.401
11933SOL    HW237241   1.998   7.707  10.301
11934SOL     OW37242   1.840   7.815   9.969
11934SOL    HW137243   1.755   7.853   9.993
11934SOL    HW237244   1.817   7.737   9.918
11935SOL     OW37245   3.559   0.025   9.560
11935SOL    HW137246   3.581   0.048   9.470
11935SOL    HW237247   3.560  -0.071   9.561
11936SOL     OW37248   2.300   7.841  10.868
11936SOL    HW137249   2.375   7.803  10.823
11936SOL    HW237250   2.225   7.788  10.840
11937SOL     OW37251   3.459   7.929  10.007
11937SOL    HW137252   3.368   7.917   9.978
11937SOL    HW237253   3.451   7.960  10.097
11938SOL     OW37254   3.448   7.579  10.771
11938SOL    HW137255   3.489   7.653  10.726
11938SOL    HW237256   3.424   7.614  10.857
11939SOL     OW37257   1.968   0.056   9.943
11939SOL    HW137258   1.927  -0.030   9.938
11939SOL    HW237259   1.928   0.098  10.019
11940SOL     OW37260   2.681   7.432   9.834
11940SOL    HW137261   2.726   7.511   9.804
11940SOL    HW237262   2.588   7.456   9.834
11941SOL     OW37263   2.194   7.691  11.152
11941SOL    HW137264   2.224   7.774  11.116
11941SOL    HW237265   2.102   7.705  11.173
11942SOL     OW37266   3.119   7.811  10.250
11942SOL    HW137267   3.033   7.771  10.257
11942SOL    HW237268   3.177   7.752  10.299
11943SOL     OW37269   3.261   7.942  11.021
11943SOL    HW137270   3.251   7.960  11.114
11943SOL    HW237271   3.317   7.864  11.017
11944SOL     OW37272   2.759   0.322  10.892
11944SOL    HW137273   2.846   0.362  10.894
11944SOL    HW237274   2.704   0.386  10.848
11945SOL     OW37275   2.852   7.822  10.547
11945SOL    HW137276   2.789   7.830  10.620
11945SOL    HW237277   2.820   7.747  10.497
11946SOL     OW37278   2.766   7.773   9.507
11946SOL    HW137279   2.771   7.830   9.430
11946SOL    HW237280   2.786   7.685   9.473
11947SOL     OW37281   3.613   0.020  11.117
11947SOL    HW137282   3.573   0.082  11.056
11947SOL    HW237283   3.632  -0.057  11.062
11948SOL     OW37284   2.412   7.625  10.210
11948SOL    HW137285   2.419   7.649  10.303
11948SOL    HW237286   2.413   7.708  10.163
11949SOL     OW37287   2.058   7.715  10.810
11949SOL    HW137288   1.971   7.748  10.789
11949SOL    HW237289   2.042   7.628  10.847
11950SOL     OW37290   3.260   7.541   9.752
11950SOL    HW137291   3.250   7.520   9.659
11950SOL    HW237292   3.354   7.548   9.765
11951SOL     OW37293   3.381   7.678  11.039
11951SOL    HW137294   3.389   7.699  11.132
11951SOL    HW237295   3.323   7.601  11.037
11952SOL     OW37296   2.513   7.558   9.408
11952SOL    HW137297   2.567   7.481   9.428
11952SOL    HW237298   2.454   7.529   9.338
11953SOL     OW37299   2.634   7.730  11.055
11953SOL    HW137300   2.713   7.676  11.056
11953SOL    HW237301   2.588   7.706  11.135
11954SOL     OW37302   3.192   0.003  10.747
11954SOL    HW137303   3.240  -0.008  10.829
11954SOL    HW237304   3.133   0.077  10.764
11955SOL     OW37305   2.420   7.506   9.806
11955SOL    HW137306   2.339   7.509   9.857
11955SOL    HW237307   2.416   7.582   9.749
11956SOL     OW37308   2.149   7.501   9.494
11956SOL    HW137309   2.200   7.562   9.441
11956SOL    HW237310   2.213   7.441   9.531
11957SOL     OW37311   2.811   7.659   9.763
11957SOL    HW137312   2.784   7.711   9.687
11957SOL    HW237313   2.901   7.687   9.781
11958SOL     OW37314   1.960  -0.006  10.691
11958SOL    HW137315   2.051   0.004  10.719
11958SOL    HW237316   1.920   0.079  10.707
11959SOL     OW37317   2.427   7.658  10.485
11959SOL    HW137318   2.464   7.580  10.525
11959SOL    HW237319   2.335   7.656  10.511
11960SOL     OW37320   2.886   7.500  10.050
11960SOL    HW137321   2.828   7.506   9.975
11960SOL    HW237322   2.855   7.423  10.099
11961SOL     OW37323   3.365   7.949  10.264
11961SOL    HW137324   3.273   7.923  10.276
11961SOL    HW237325   3.391   7.987  10.348
11962SOL     OW37326   2.406   7.706   9.620
11962SOL    HW137327   2.440   7.658   9.543
11962SOL    HW237328   2.444   7.794   9.611
11963SOL     OW37329   2.780   7.540  10.696
11963SOL    HW137330   2.805   7.509  10.609
11963SOL    HW237331   2.862   7.571  10.734
11964SOL     OW37332   3.125   7.798  10.589
11964SOL    HW137333   3.154   7.875  10.638
11964SOL    HW237334   3.033   7.816  10.569
11965SOL     OW37335   2.415   7.934  10.160
11965SOL    HW137336   2.366   7.979  10.091
11965SOL    HW237337   2.501   7.977  10.160
11966SOL     OW37338   2.865   7.586  11.063
11966SOL    HW137339   2.929   7.654  11.043
11966SOL    HW237340   2.909   7.504  11.039
11967SOL     OW37341   2.355   7.483  11.066
11967SOL    HW137342   2.309   7.431  11.002
11967SOL    HW237343   2.297   7.557  11.084
11968SOL     OW37344   2.165   7.640  10.559
11968SOL    HW137345   2.126   7.667  10.642
11968SOL    HW237346   2.146   7.546  10.553
11969SOL     OW37347   2.616   0.096  10.336
11969SOL    HW137348   2.705   0.068  10.314
11969SOL    HW237349   2.599   0.170  10.278
11970SOL     OW37350   2.177   7.509   9.936
11970SOL    HW137351   2.145   7.596   9.959
11970SOL    HW237352   2.186   7.464  10.020
11971SOL     OW37353   3.463   7.783   9.679
11971SOL    HW137354   3.514   7.725   9.736
11971SOL    HW237355   3.439   7.857   9.734
11972SOL     OW37356   3.348   7.733   9.438
11972SOL    HW137357   3.298   7.653   9.456
11972SOL    HW237358   3.397   7.749   9.519
11973SOL     OW37359   3.173   0.256   9.378
11973SOL    HW137360   3.150   0.163   9.384
11973SOL    HW237361   3.111   0.292   9.315
11974SOL     OW37362   2.225   7.991  10.344
11974SOL    HW137363   2.165   7.916  10.343
11974SOL    HW237364   2.286   7.974  10.273
11975SOL     OW37365   3.010   7.822  10.996
11975SOL    HW137366   2.951   7.891  11.027
11975SOL    HW237367   3.097   7.862  10.996
11976SOL     OW37368   3.022   7.636  10.787
11976SOL    HW137369   3.018   7.702  10.856
11976SOL    HW237370   3.071   7.678  10.716
11977SOL     OW37371   1.876   7.936  10.429
11977SOL    HW137372   1.936   7.875  10.385
11977SOL    HW237373   1.916   7.951  10.515
11978SOL     OW37374   2.052   7.944  11.038
11978SOL    HW137375   2.062   7.900  10.954
11978SOL    HW237376   1.994   8.018  11.019
11979SOL     OW37377   2.648   8.022   9.564
11979SOL    HW137378   2.700   7.942   9.578
11979SOL    HW237379   2.601   8.035   9.646
11980SOL     OW37380   3.489   8.025  10.506
11980SOL    HW137381   3.477   7.992  10.595
11980SOL    HW237382   3.562   7.973  10.471
11981SOL     OW37383   2.488   7.922  10.532
11981SOL    HW137384   2.470   7.829  10.519
11981SOL    HW237385   2.571   7.937  10.488
11982SOL     OW37386   3.605   7.600   9.824
11982SOL    HW137387   3.670   7.585   9.755
11982SOL    HW237388   3.582   7.513   9.855
11983SOL     OW37389   3.709   7.617  10.272
11983SOL    HW137390   3.733   7.528  10.247
11983SOL    HW237391   3.622   7.630  10.233
11984SOL     OW37392   2.101   7.753  10.031
11984SOL    HW137393   2.011   7.778  10.010
11984SOL    HW237394   2.110   7.769  10.125
11985SOL     OW37395   2.890   7.664  10.276
11985SOL    HW137396   2.887   7.622  10.189
11985SOL    HW237397   2.884   7.591  10.338
11986SOL     OW37398   3.601   7.817  10.699
11986SOL    HW137399   3.666   7.887  10.695
11986SOL    HW237400   3.632   7.750  10.638
11987SOL     OW37401   2.543   7.639  10.806
11987SOL    HW137402   2.626   7.611  10.768
11987SOL    HW237403   2.567   7.673  10.893
11988SOL     OW37404   1.936   7.769   9.349
11988SOL    HW137405   1.865   7.751   9.287
11988SOL    HW237406   1.975   7.850   9.318
11989SOL     OW37407   1.919   7.603   9.599
11989SOL    HW137408   1.902   7.675   9.538
11989SOL    HW237409   2.005   7.570   9.573
11990SOL     OW37410   2.602   0.036  11.001
11990SOL    HW137411   2.512   0.019  11.029
11990SOL    HW237412   2.642  -0.051  10.996
11991SOL     OW37413   3.072   7.741   9.791
11991SOL    HW137414   3.137   7.673   9.774
11991SOL    HW237415   3.114   7.800   9.854
11992SOL     OW37416   2.500   0.229  10.044
11992SOL    HW137417   2.530   0.307   9.999
11992SOL    HW237418   2.438   0.188   9.983
11993SOL     OW37419   3.626   7.787  10.969
11993SOL    HW137420   3.615   7.803  10.875
11993SOL    HW237421   3.545   7.741  10.995
11994SOL     OW37422   3.676   7.611  10.543
11994SOL    HW137423   3.676   7.516  10.546
11994SOL    HW237424   3.688   7.632  10.450
11995SOL     OW37425   2.264   7.855   9.823
11995SOL    HW137426   2.281   7.786   9.759
11995SOL    HW237427   2.208   7.814   9.889
11996SOL     OW37428   3.286   7.666  10.417
11996SOL    HW137429   3.302   7.579  10.453
11996SOL    HW237430   3.239   7.712  10.486
11997SOL     OW37431   2.866   7.448  10.449
11997SOL    HW137432   2.813   7.384  10.401
11997SOL    HW237433   2.954   7.411  10.449
11998SOL     OW37434   3.224   7.493   9.480
11998SOL    HW137435   3.261   7.419   9.432
11998SOL    HW237436   3.134   7.466   9.500
11999SOL     OW37437   3.184   7.898   9.991
11999SOL    HW137438   3.142   7.984   9.983
11999SOL    HW237439   3.160   7.868  10.079
12000SOL     OW37440   3.448   7.651  10.195
12000SOL    HW137441   3.396   7.669  10.273
12000SOL    HW237442   3.435   7.728  10.139
12001SOL     OW37443   2.097   7.716  12.166
12001SOL    HW137444   2.124   7.683  12.252
12001SOL    HW237445   2.005   7.690  12.158
12002SOL     OW37446   1.831   7.763  11.784
12002SOL    HW137447   1.756   7.802  11.830
12002SOL    HW237448   1.875   7.837  11.743
12003SOL     OW37449   3.502   0.042  11.372
12003SOL    HW137450   3.566   0.023  11.303
12003SOL    HW237451   3.554   0.055  11.451
12004SOL     OW37452   3.472   7.888  11.914
12004SOL    HW137453   3.483   7.954  11.846
12004SOL    HW237454   3.425   7.933  11.985
12005SOL     OW37455   1.951   0.041  11.781
12005SOL    HW137456   2.016   0.039  11.710
12005SOL    HW237457   1.970   0.121  11.829
12006SOL     OW37458   2.672   7.425  11.692
12006SOL    HW137459   2.721   7.503  11.668
12006SOL    HW237460   2.581   7.453  11.694
12007SOL     OW37461   3.126   7.799  12.118
12007SOL    HW137462   3.038   7.766  12.135
12007SOL    HW237463   3.183   7.747  12.176
12008SOL     OW37464   2.827   7.809  12.420
12008SOL    HW137465   2.741   7.851  12.430
12008SOL    HW237466   2.829   7.782  12.328
12009SOL     OW37467   2.764   7.780  11.367
12009SOL    HW137468   2.819   7.804  11.294
12009SOL    HW237469   2.790   7.690  11.389
12010SOL     OW37470   2.412   7.636  12.063
12010SOL    HW137471   2.416   7.672  12.152
12010SOL    HW237472   2.412   7.713  12.007
12011SOL     OW37473   3.264   7.547  11.619
12011SOL    HW137474   3.258   7.526  11.526
12011SOL    HW237475   3.354   7.578  11.631
12012SOL     OW37476   2.508   7.567  11.276
12012SOL    HW137477   2.571   7.497  11.290
12012SOL    HW237478   2.454   7.537  11.202
12013SOL     OW37479   2.413   7.509  11.670
12013SOL    HW137480   2.331   7.514  11.720
12013SOL    HW237481   2.414   7.588  11.616
12014SOL     OW37482   2.142   7.502  11.364
12014SOL    HW137483   2.192   7.562  11.309
12014SOL    HW237484   2.207   7.442  11.399
12015SOL     OW37485   2.802   7.656  11.635
12015SOL    HW137486   2.763   7.738  11.606
12015SOL    HW237487   2.896   7.675  11.641
12016SOL     OW37488   1.974   0.003   0.060
12016SOL    HW137489   2.061  -0.013   0.098
12016SOL    HW237490   1.937   0.073   0.115
12017SOL     OW37491   2.427   7.646  12.349
12017SOL    HW137492   2.443   7.557  12.316
12017SOL    HW237493   2.335   7.647  12.372
12018SOL     OW37494   2.879   7.513  11.933
12018SOL    HW137495   2.832   7.521  11.850
12018SOL    HW237496   2.852   7.429  11.968
12019SOL     OW37497   3.324   7.997  12.112
12019SOL    HW137498   3.248   7.941  12.129
12019SOL    HW237499   3.352   8.026  12.199
12020SOL     OW37500   2.415   7.719  11.493
12020SOL    HW137501   2.443   7.670  11.416
12020SOL    HW237502   2.458   7.804  11.486
12021SOL     OW37503   3.105   7.830  12.437
12021SOL    HW137504   3.134   7.891  12.505
12021SOL    HW237505   3.010   7.826  12.447
12022SOL     OW37506   2.408   7.934  12.036
12022SOL    HW137507   2.400   7.994  11.962
12022SOL    HW237508   2.484   7.965  12.085
12023SOL     OW37509   2.165   7.626  12.417
12023SOL    HW137510   2.127   7.654  12.500
12023SOL    HW237511   2.144   7.533  12.412
12024SOL     OW37512   2.615   0.038  12.179
12024SOL    HW137513   2.696   0.037  12.127
12024SOL    HW237514   2.608   0.128  12.211
12025SOL     OW37515   2.165   7.516  11.798
12025SOL    HW137516   2.144   7.606  11.824
12025SOL    HW237517   2.178   7.469  11.880
12026SOL     OW37518   3.451   7.803  11.557
12026SOL    HW137519   3.504   7.744  11.611
12026SOL    HW237520   3.469   7.890  11.593
12027SOL     OW37521   3.372   7.728  11.304
12027SOL    HW137522   3.316   7.653  11.328
12027SOL    HW237523   3.407   7.759  11.388
12028SOL     OW37524   3.121   0.234  11.195
12028SOL    HW137525   3.168   0.164  11.240
12028SOL    HW237526   3.167   0.314  11.220
12029SOL     OW37527   2.165   7.976  12.191
12029SOL    HW137528   2.156   7.882  12.178
12029SOL    HW237529   2.248   7.999  12.150
12030SOL     OW37530   3.011   7.699   0.177
12030SOL    HW137531   3.043   7.723   0.264
12030SOL    HW237532   3.082   7.726   0.118
12031SOL     OW37533   1.910   7.964  12.294
12031SOL    HW137534   1.995   7.967  12.249
12031SOL    HW237535   1.932   7.969  12.387
12032SOL     OW37536   2.617   8.002  11.413
12032SOL    HW137537   2.675   7.927  11.405
12032SOL    HW237538   2.603   8.011  11.507
12033SOL     OW37539   3.500   8.020  12.353
12033SOL    HW137540   3.503   7.950  12.417
12033SOL    HW237541   3.574   8.003  12.294
12034SOL     OW37542   2.542   7.899  12.407
12034SOL    HW137543   2.502   7.816  12.381
12034SOL    HW237544   2.562   7.943  12.324
12035SOL     OW37545   3.591   7.597  11.676
12035SOL    HW137546   3.658   7.582  11.609
12035SOL    HW237547   3.572   7.509  11.710
12036SOL     OW37548   3.707   7.617  12.139
12036SOL    HW137549   3.735   7.529  12.113
12036SOL    HW237550   3.619   7.626  12.102
12037SOL     OW37551   2.111   7.766  11.894
12037SOL    HW137552   2.018   7.787  11.884
12037SOL    HW237553   2.123   7.752  11.988
12038SOL     OW37554   2.882   7.669  12.170
12038SOL    HW137555   2.879   7.634  12.081
12038SOL    HW237556   2.878   7.591  12.226
12039SOL     OW37557   3.613   7.841   0.044
12039SOL    HW137558   3.699   7.882   0.043
12039SOL    HW237559   3.627   7.756   0.002
12040SOL     OW37560   1.932   7.770  11.223
12040SOL    HW137561   1.864   7.758  11.156
12040SOL    HW237562   1.971   7.855  11.202
12041SOL     OW37563   1.925   7.627  11.481
12041SOL    HW137564   1.907   7.695  11.416
12041SOL    HW237565   2.012   7.593  11.457
12042SOL     OW37566   3.059   7.739  11.644
12042SOL    HW137567   3.137   7.685  11.637
12042SOL    HW237568   3.080   7.803  11.713
12043SOL     OW37569   2.498   0.239  11.868
12043SOL    HW137570   2.519   0.321  11.824
12043SOL    HW237571   2.432   0.198  11.813
12044SOL     OW37572   3.686   7.608  12.414
12044SOL    HW137573   3.681   7.513  12.405
12044SOL    HW237574   3.693   7.641  12.325
12045SOL     OW37575   2.195   7.845  11.630
12045SOL    HW137576   2.266   7.791  11.594
12045SOL    HW237577   2.184   7.814  11.720
12046SOL     OW37578   3.299   7.691  12.307
12046SOL    HW137579   3.358   7.656  12.375
12046SOL    HW237580   3.233   7.739  12.356
12047SOL     OW37581   2.863   7.417  12.307
12047SOL    HW137582   2.830   7.371  12.230
12047SOL    HW237583   2.955   7.392  12.312
12048SOL     OW37584   3.227   7.495  11.347
12048SOL    HW137585   3.266   7.419  11.303
12048SOL    HW237586   3.136   7.469  11.363
12049SOL     OW37587   3.108   7.907  11.863
12049SOL    HW137588   3.175   7.974  11.856
12049SOL    HW237589   3.125   7.864  11.947
12050SOL     OW37590   3.441   7.638  12.064
12050SOL    HW137591   3.390   7.669  12.139
12050SOL    HW237592   3.440   7.710  12.002
12051SOL     OW37593   3.978   0.579   0.034
12051SOL    HW137594   3.948   0.640   0.102
12051SOL    HW237595   3.917   0.593  -0.038
12052SOL     OW37596   3.950   0.295   0.980
12052SOL    HW137597   3.979   0.259   1.065
12052SOL    HW237598   3.867   0.251   0.963
12053SOL     OW37599   3.728   0.395   0.632
12053SOL    HW137600   3.648   0.424   0.676
12053SOL    HW237601   3.702   0.313   0.589
12054SOL     OW37602   4.261   1.240   1.162
12054SOL    HW137603   4.181   1.278   1.126
12054SOL    HW237604   4.307   1.314   1.201
12055SOL     OW37605   5.282   1.519   0.713
12055SOL    HW137606   5.243   1.501   0.798
12055SOL    HW237607   5.209   1.523   0.653
12056SOL     OW37608   4.863   0.696   0.692
12056SOL    HW137609   4.909   0.779   0.676
12056SOL    HW237610   4.816   0.709   0.774
12057SOL     OW37611   5.470   0.626   0.270
12057SOL    HW137612   5.441   0.633   0.179
12057SOL    HW237613   5.435   0.541   0.299
12058SOL     OW37614   4.475   1.109   1.072
12058SOL    HW137615   4.396   1.147   1.110
12058SOL    HW237616   4.512   1.179   1.018
12059SOL     OW37617   4.601   0.755   1.820
12059SOL    HW137618   4.588   0.817   1.892
12059SOL    HW237619   4.616   0.809   1.743
12060SOL     OW37620   4.413   0.986   0.645
12060SOL    HW137621   4.482   0.986   0.711
12060SOL    HW237622   4.346   1.046   0.679
12061SOL     OW37623   4.439   1.152   1.827
12061SOL    HW137624   4.480   1.234   1.853
12061SOL    HW237625   4.357   1.178   1.785
12062SOL     OW37626   4.057   1.413   1.068
12062SOL    HW137627   3.979   1.378   1.024
12062SOL    HW237628   4.100   1.466   1.001
12063SOL     OW37629   5.179   1.492   1.373
12063SOL    HW137630   5.231   1.571   1.382
12063SOL    HW237631   5.101   1.508   1.427
12064SOL     OW37632   4.158   0.381   1.479
12064SOL    HW137633   4.235   0.324   1.490
12064SOL    HW237634   4.083   0.322   1.486
12065SOL     OW37635   5.331   0.442   0.739
12065SOL    HW137636   5.279   0.472   0.665
12065SOL    HW237637   5.320   0.510   0.806
12066SOL     OW37638   3.937   1.723   0.466
12066SOL    HW137639   3.958   1.794   0.527
12066SOL    HW237640   4.017   1.710   0.415
12067SOL     OW37641   4.865   1.339   1.692
12067SOL    HW137642   4.891   1.339   1.785
12067SOL    HW237643   4.811   1.260   1.683
12068SOL     OW37644   3.994   1.449   0.529
12068SOL    HW137645   3.953   1.533   0.550
12068SOL    HW237646   3.938   1.383   0.570
12069SOL     OW37647   4.019   1.096   0.914
12069SOL    HW137648   3.968   1.015   0.914
12069SOL    HW237649   3.956   1.163   0.941
12070SOL     OW37650   4.366   1.782   1.497
12070SOL    HW137651   4.273   1.764   1.487
12070SOL    HW237652   4.372   1.878   1.490
12071SOL     OW37653   4.302   0.963   0.148
12071SOL    HW137654   4.369   0.980   0.082
12071SOL    HW237655   4.334   1.008   0.226
12072SOL     OW37656   5.375   0.142   1.489
12072SOL    HW137657   5.311   0.135   1.418
12072SOL    HW237658   5.324   0.169   1.565
12073SOL     OW37659   3.848   0.649   0.567
12073SOL    HW137660   3.809   0.564   0.586
12073SOL    HW237661   3.834   0.700   0.646
12074SOL     OW37662   5.581   1.732   0.310
12074SOL    HW137663   5.641   1.712   0.381
12074SOL    HW237664   5.585   1.827   0.301
12075SOL     OW37665   3.759   1.524   0.130
12075SOL    HW137666   3.821   1.475   0.185
12075SOL    HW237667   3.738   1.602   0.180
12076SOL     OW37668   5.397   0.934   0.640
12076SOL    HW137669   5.460   0.891   0.583
12076SOL    HW237670   5.361   1.006   0.588
12077SOL     OW37671   5.372   1.128   0.432
12077SOL    HW137672   5.460   1.126   0.394
12077SOL    HW237673   5.379   1.189   0.506
12078SOL     OW37674   3.852   0.738   1.598
12078SOL    HW137675   3.941   0.775   1.593
12078SOL    HW237676   3.795   0.814   1.605
12079SOL     OW37677   4.343   1.397   0.726
12079SOL    HW137678   4.302   1.312   0.740
12079SOL    HW237679   4.323   1.420   0.635
12080SOL     OW37680   4.996   1.218   1.430
12080SOL    HW137681   5.031   1.162   1.362
12080SOL    HW237682   5.068   1.228   1.493
12081SOL     OW37683   4.571   0.027   0.572
12081SOL    HW137684   4.606   0.104   0.527
12081SOL    HW237685   4.477   0.042   0.576
12082SOL     OW37686   3.904   0.945   1.292
12082SOL    HW137687   3.993   0.915   1.272
12082SOL    HW237688   3.864   0.959   1.206
12083SOL     OW37689   5.234   1.008   0.228
12083SOL    HW137690   5.170   0.949   0.267
12083SOL    HW237691   5.279   1.047   0.303
12084SOL     OW37692   4.952   1.833   1.632
12084SOL    HW137693   4.931   1.893   1.560
12084SOL    HW237694   4.942   1.746   1.594
12085SOL     OW37695   5.194   1.412   0.960
12085SOL    HW137696   5.122   1.437   1.017
12085SOL    HW237697   5.170   1.325   0.928
12086SOL     OW37698   5.382   1.753   0.582
12086SOL    HW137699   5.353   1.721   0.496
12086SOL    HW237700   5.354   1.685   0.643
12087SOL     OW37701   4.307   0.713   0.280
12087SOL    HW137702   4.314   0.801   0.243
12087SOL    HW237703   4.242   0.722   0.350
12088SOL     OW37704   5.022   0.383   0.937
12088SOL    HW137705   4.931   0.354   0.936
12088SOL    HW237706   5.066   0.324   0.999
12089SOL     OW37707   5.309   1.681   0.325
12089SOL    HW137708   5.404   1.687   0.312
12089SOL    HW237709   5.272   1.719   0.245
12090SOL     OW37710   4.560   0.568   1.476
12090SOL    HW137711   4.496   0.580   1.546
12090SOL    HW237712   4.507   0.542   1.400
12091SOL     OW37713   5.154   0.508   1.675
12091SOL    HW137714   5.151   0.542   1.765
12091SOL    HW237715   5.197   0.423   1.683
12092SOL     OW37716   4.655   0.896   1.574
12092SOL    HW137717   4.718   0.832   1.538
12092SOL    HW237718   4.623   0.943   1.497
12093SOL     OW37719   4.719   0.392   1.229
12093SOL    HW137720   4.634   0.428   1.256
12093SOL    HW237721   4.713   0.385   1.134
12094SOL     OW37722   4.780   0.700   0.426
12094SOL    HW137723   4.796   0.695   0.520
12094SOL    HW237724   4.693   0.660   0.415
12095SOL     OW37725   3.801   0.800   0.786
12095SOL    HW137726   3.884   0.797   0.834
12095SOL    HW237727   3.756   0.877   0.822
12096SOL     OW37728   3.837   1.852   1.578
12096SOL    HW137729   3.844   1.829   1.671
12096SOL    HW237730   3.751   1.895   1.570
12097SOL     OW37731   4.605   0.364   0.204
12097SOL    HW137732   4.660   0.425   0.154
12097SOL    HW237733   4.535   0.339   0.144
12098SOL     OW37734   5.437   0.578   1.831
12098SOL    HW137735   5.402   0.655   1.785
12098SOL    HW237736   5.456   0.515   1.762
12099SOL     OW37737   5.105   1.143   0.538
12099SOL    HW137738   5.185   1.150   0.486
12099SOL    HW237739   5.045   1.206   0.499
12100SOL     OW37740   4.277   0.215   0.932
12100SOL    HW137741   4.259   0.256   1.017
12100SOL    HW237742   4.289   0.288   0.872
12101SOL     OW37743   4.709   1.441   0.466
12101SOL    HW137744   4.680   1.519   0.419
12101SOL    HW237745   4.681   1.455   0.556
12102SOL     OW37746   4.077   1.814   0.874
12102SOL    HW137747   4.120   1.728   0.879
12102SOL    HW237748   4.146   1.876   0.899
12103SOL     OW37749   5.535   1.023   0.865
12103SOL    HW137750   5.474   1.011   0.792
12103SOL    HW237751   5.481   1.057   0.936
12104SOL     OW37752   4.943   1.541   1.505
12104SOL    HW137753   4.924   1.470   1.566
12104SOL    HW237754   4.858   1.562   1.466
12105SOL     OW37755   4.039   1.000   0.247
12105SOL    HW137756   4.125   1.000   0.205
12105SOL    HW237757   4.007   0.910   0.235
12106SOL     OW37758   5.206   0.755   0.724
12106SOL    HW137759   5.208   0.718   0.812
12106SOL    HW237760   5.279   0.816   0.721
12107SOL     OW37761   4.188   1.239   1.740
12107SOL    HW137762   4.164   1.254   1.648
12107SOL    HW237763   4.106   1.251   1.788
12108SOL     OW37764   4.830   1.783   0.248
12108SOL    HW137765   4.759   1.745   0.299
12108SOL    HW237766   4.867   1.710   0.200
12109SOL     OW37767   3.897   0.270   1.474
12109SOL    HW137768   3.859   0.358   1.469
12109SOL    HW237769   3.884   0.243   1.564
12110SOL     OW37770   5.377   1.417   0.037
12110SOL    HW137771   5.309   1.483   0.029
12110SOL    HW237772   5.331   1.336   0.056
12111SOL     OW37773   4.177   1.733   0.326
12111SOL    HW137774   4.223   1.787   0.391
12111SOL    HW237775   4.247   1.690   0.277
12112SOL     OW37776   5.141   0.083   0.464
12112SOL    HW137777   5.125   0.062   0.372
12112SOL    HW237778   5.231   0.113   0.468
12113SOL     OW37779   3.987   1.788   1.237
12113SOL    HW137780   4.042   1.729   1.289
12113SOL    HW237781   3.988   1.749   1.149
12114SOL     OW37782   4.656   1.697   0.903
12114SOL    HW137783   4.668   1.640   0.979
12114SOL    HW237784   4.631   1.638   0.832
12115SOL     OW37785   4.113   0.684   0.477
12115SOL    HW137786   4.137   0.593   0.494
12115SOL    HW237787   4.024   0.692   0.512
12116SOL     OW37788   5.245   0.241   1.720
12116SOL    HW137789   5.262   0.250   1.814
12116SOL    HW237790   5.174   0.177   1.714
12117SOL     OW37791   4.301   0.103   0.122
12117SOL    HW137792   4.390   0.079   0.148
12117SOL    HW237793   4.311   0.145   0.037
12118SOL     OW37794   4.435   0.322   1.748
12118SOL    HW137795   4.525   0.292   1.735
12118SOL    HW237796   4.403   0.270   1.823
12119SOL     OW37797   4.669   1.548   1.130
12119SOL    HW137798   4.578   1.539   1.158
12119SOL    HW237799   4.719   1.495   1.191
12120SOL     OW37800   5.058   0.589   1.432
12120SOL    HW137801   5.100   0.566   1.515
12120SOL    HW237802   5.087   0.678   1.414
12121SOL     OW37803   4.549   1.307   0.908
12121SOL    HW137804   4.632   1.351   0.895
12121SOL    HW237805   4.487   1.357   0.854
12122SOL     OW37806   4.654   0.516   0.893
12122SOL    HW137807   4.624   0.512   0.802
12122SOL    HW237808   4.691   0.429   0.909
12123SOL     OW37809   4.309   0.019   0.438
12123SOL    HW137810   4.235  -0.019   0.486
12123SOL    HW237811   4.286   0.112   0.429
12124SOL     OW37812   5.189   1.223   0.063
12124SOL    HW137813   5.202   1.141   0.111
12124SOL    HW237814   5.098   1.246   0.080
12125SOL     OW37815   4.063   0.000   0.207
12125SOL    HW137816   4.144   0.037   0.173
12125SOL    HW237817   4.086  -0.030   0.295
12126SOL     OW37818   4.676   0.254   0.458
12126SOL    HW137819   4.644   0.280   0.372
12126SOL    HW237820   4.770   0.273   0.456
12127SOL     OW37821   4.801   0.698   1.457
12127SOL    HW137822   4.727   0.637   1.467
12127SOL    HW237823   4.878   0.641   1.453
12128SOL     OW37824   4.968   1.559   0.776
12128SOL    HW137825   4.967   1.632   0.714
12128SOL    HW237826   4.974   1.602   0.862
12129SOL     OW37827   4.215   1.153   0.733
12129SOL    HW137828   4.151   1.137   0.803
12129SOL    HW237829   4.165   1.144   0.652
12130SOL     OW37830   4.980   1.787   0.609
12130SOL    HW137831   5.027   1.856   0.561
12130SOL    HW237832   4.909   1.834   0.653
12131SOL     OW37833   4.759   0.542   0.056
12131SOL    HW137834   4.735   0.626   0.018
12131SOL    HW237835   4.822   0.564   0.125
12132SOL     OW37836   3.817   0.554   1.400
12132SOL    HW137837   3.906   0.562   1.368
12132SOL    HW237838   3.809   0.623   1.466
12133SOL     OW37839   4.295   0.231   1.221
12133SOL    HW137840   4.323   0.212   1.310
12133SOL    HW237841   4.199   0.223   1.224
12134SOL     OW37842   4.592   0.467   0.633
12134SOL    HW137843   4.554   0.523   0.564
12134SOL    HW237844   4.603   0.382   0.590
12135SOL     OW37845   4.744   0.019   0.776
12135SOL    HW137846   4.687   0.027   0.699
12135SOL    HW237847   4.697  -0.041   0.834
12136SOL     OW37848   5.166   1.152   0.857
12136SOL    HW137849   5.077   1.117   0.854
12136SOL    HW237850   5.189   1.168   0.766
12137SOL     OW37851   5.197   0.611   0.961
12137SOL    HW137852   5.136   0.538   0.967
12137SOL    HW237853   5.246   0.609   1.043
12138SOL     OW37854   5.552   0.829   0.434
12138SOL    HW137855   5.609   0.770   0.482
12138SOL    HW237856   5.513   0.775   0.365
12139SOL     OW37857   4.202   1.394   0.185
12139SOL    HW137858   4.128   1.352   0.227
12139SOL    HW237859   4.164   1.438   0.108
12140SOL     OW37860   5.399   1.274   0.653
12140SOL    HW137861   5.493   1.277   0.670
12140SOL    HW237862   5.368   1.361   0.676
12141SOL     OW37863   5.126   0.553   0.084
12141SOL    HW137864   5.070   0.551   0.161
12141SOL    HW237865   5.177   0.472   0.090
12142SOL     OW37866   4.224   0.262   0.329
12142SOL    HW137867   4.253   0.204   0.258
12142SOL    HW237868   4.209   0.347   0.285
12143SOL     OW37869   5.493   1.235   1.580
12143SOL    HW137870   5.582   1.199   1.583
12143SOL    HW237871   5.504   1.328   1.598
12144SOL     OW37872   4.785   1.351   1.314
12144SOL    HW137873   4.703   1.336   1.361
12144SOL    HW237874   4.851   1.310   1.369
12145SOL     OW37875   5.336   1.615   1.671
12145SOL    HW137876   5.321   1.653   1.584
12145SOL    HW237877   5.420   1.571   1.664
12146SOL     OW37878   4.854   1.192   1.097
12146SOL    HW137879   4.804   1.241   1.162
12146SOL    HW237880   4.839   1.239   1.014
12147SOL     OW37881   5.345   1.097   1.064
12147SOL    HW137882   5.336   1.174   1.120
12147SOL    HW237883   5.279   1.108   0.997
12148SOL     OW37884   4.651   0.080   1.385
12148SOL    HW137885   4.671   0.146   1.318
12148SOL    HW237886   4.703   0.106   1.461
12149SOL     OW37887   4.707   1.111   1.733
12149SOL    HW137888   4.619   1.137   1.760
12149SOL    HW237889   4.693   1.040   1.671
12150SOL     OW37890   4.432   1.058   0.370
12150SOL    HW137891   4.414   1.041   0.463
12150SOL    HW237892   4.511   1.007   0.352
12151SOL     OW37893   4.148   0.821   1.253
12151SOL    HW137894   4.218   0.831   1.317
12151SOL    HW237895   4.112   0.734   1.270
12152SOL     OW37896   4.995   0.378   1.270
12152SOL    HW137897   5.022   0.458   1.314
12152SOL    HW237898   4.903   0.393   1.247
12153SOL     OW37899   3.814   1.568   1.348
12153SOL    HW137900   3.795   1.661   1.336
12153SOL    HW237901   3.910   1.562   1.345
12154SOL     OW37902   4.076   1.117   0.503
12154SOL    HW137903   3.988   1.145   0.529
12154SOL    HW237904   4.065   1.079   0.416
12155SOL     OW37905   4.279   0.511   0.848
12155SOL    HW137906   4.284   0.572   0.774
12155SOL    HW237907   4.339   0.548   0.913
12156SOL     OW37908   4.962   1.348   0.403
12156SOL    HW137909   5.017   1.421   0.432
12156SOL    HW237910   4.874   1.370   0.434
12157SOL     OW37911   5.009   1.472   1.154
12157SOL    HW137912   5.065   1.475   1.232
12157SOL    HW237913   4.930   1.428   1.183
12158SOL     OW37914   5.275   0.608   0.504
12158SOL    HW137915   5.234   0.660   0.573
12158SOL    HW237916   5.297   0.671   0.436
12159SOL     OW37917   4.093   1.524   1.311
12159SOL    HW137918   4.079   1.481   1.227
12159SOL    HW237919   4.188   1.531   1.319
12160SOL     OW37920   4.160   0.739   1.619
12160SOL    HW137921   4.204   0.789   1.550
12160SOL    HW237922   4.225   0.674   1.647
12161SOL     OW37923   5.333   0.783   1.676
12161SOL    HW137924   5.250   0.831   1.682
12161SOL    HW237925   5.328   0.738   1.592
12162SOL     OW37926   4.763   0.066   1.718
12162SOL    HW137927   4.770   0.161   1.713
12162SOL    HW237928   4.668   0.049   1.721
12163SOL     OW37929   4.211   0.006   1.747
12163SOL    HW137930   4.198  -0.042   1.665
12163SOL    HW237931   4.128   0.052   1.761
12164SOL     OW37932   4.308   0.873   1.033
12164SOL    HW137933   4.343   0.962   1.029
12164SOL    HW237934   4.247   0.875   1.107
12165SOL     OW37935   5.059   0.848   1.030
12165SOL    HW137936   4.972   0.840   0.990
12165SOL    HW237937   5.105   0.769   1.003
12166SOL     OW37938   4.932   0.526   0.279
12166SOL    HW137939   4.949   0.453   0.339
12166SOL    HW237940   4.887   0.591   0.332
12167SOL     OW37941   4.022   0.201   1.231
12167SOL    HW137942   3.969   0.221   1.308
12167SOL    HW237943   4.001   0.110   1.209
12168SOL     OW37944   3.771   1.309   1.272
12168SOL    HW137945   3.800   1.259   1.348
12168SOL    HW237946   3.778   1.400   1.300
12169SOL     OW37947   4.430   0.629   1.041
12169SOL    HW137948   4.513   0.632   0.993
12169SOL    HW237949   4.396   0.718   1.035
12170SOL     OW37950   5.461   0.957   1.857
12170SOL    HW137951   5.415   0.894   1.802
12170SOL    HW237952   5.399   0.978   1.927
12171SOL     OW37953   4.123   0.083   0.664
12171SOL    HW137954   4.067   0.159   0.680
12171SOL    HW237955   4.071   0.026   0.609
12172SOL     OW37956   5.356   0.393   0.361
12172SOL    HW137957   5.372   0.315   0.415
12172SOL    HW237958   5.317   0.456   0.421
12173SOL     OW37959   4.768   0.754   0.955
12173SOL    HW137960   4.751   0.771   1.047
12173SOL    HW237961   4.729   0.668   0.938
12174SOL     OW37962   4.724   1.578   1.721
12174SOL    HW137963   4.682   1.618   1.645
12174SOL    HW237964   4.747   1.490   1.693
12175SOL     OW37965   5.579   1.492   1.615
12175SOL    HW137966   5.597   1.517   1.524
12175SOL    HW237967   5.658   1.515   1.663
12176SOL     OW37968   4.069   0.879   1.842
12176SOL    HW137969   4.146   0.930   1.868
12176SOL    HW237970   4.098   0.832   1.763
12177SOL     OW37971   5.219   0.297   0.143
12177SOL    HW137972   5.200   0.207   0.169
12177SOL    HW237973   5.280   0.329   0.209
12178SOL     OW37974   5.021   0.809   0.054
12178SOL    HW137975   5.073   0.729   0.045
12178SOL    HW237976   5.061   0.871  -0.006
12179SOL     OW37977   4.827   1.335   0.861
12179SOL    HW137978   4.817   1.269   0.792
12179SOL    HW237979   4.875   1.407   0.819
12180SOL     OW37980   4.028   0.797   0.938
12180SOL    HW137981   4.111   0.844   0.935
12180SOL    HW237982   4.048   0.715   0.983
12181SOL     OW37983   4.073   0.529   1.024
12181SOL    HW137984   4.024   0.449   1.003
12181SOL    HW237985   4.144   0.530   0.959
12182SOL     OW37986   4.908   0.386   1.696
12182SOL    HW137987   4.841   0.435   1.744
12182SOL    HW237988   4.980   0.448   1.686
12183SOL     OW37989   4.908   0.220   1.476
12183SOL    HW137990   4.914   0.275   1.554
12183SOL    HW237991   4.942   0.276   1.405
12184SOL     OW37992   3.811   1.786   0.935
12184SOL    HW137993   3.785   1.704   0.893
12184SOL    HW237994   3.903   1.797   0.912
12185SOL     OW37995   4.208   1.572   0.898
12185SOL    HW137996   4.278   1.632   0.924
12185SOL    HW237997   4.252   1.508   0.842
12186SOL     OW37998   4.700   0.783   1.214
12186SOL    HW137999   4.747   0.757   1.294
12186SOL    HW238000   4.637   0.849   1.243
12187SOL     OW38001   3.760   0.535   1.123
12187SOL    HW138002   3.834   0.562   1.068
12187SOL    HW238003   3.791   0.548   1.213
12188SOL     OW38004   3.938   0.488   1.683
12188SOL    HW138005   4.025   0.493   1.644
12188SOL    HW238006   3.898   0.573   1.664
12189SOL     OW38007   5.104   0.925   1.660
12189SOL    HW138008   5.116   1.020   1.661
12189SOL    HW238009   5.080   0.905   1.570
12190SOL     OW38010   4.537   0.579   0.376
12190SOL    HW138011   4.541   0.503   0.319
12190SOL    HW238012   4.460   0.628   0.347
12191SOL     OW38013   5.363   0.622   1.186
12191SOL    HW138014   5.359   0.560   1.259
12191SOL    HW238015   5.448   0.605   1.145
12192SOL     OW38016   3.996   1.562   1.731
12192SOL    HW138017   3.962   1.636   1.783
12192SOL    HW238018   3.987   1.487   1.789
12193SOL     OW38019   4.447   0.464   1.253
12193SOL    HW138020   4.386   0.393   1.237
12193SOL    HW238021   4.432   0.525   1.181
12194SOL     OW38022   4.644   1.659   1.463
12194SOL    HW138023   4.570   1.617   1.420
12194SOL    HW238024   4.626   1.753   1.456
12195SOL     OW38025   4.184   0.484   0.188
12195SOL    HW138026   4.229   0.565   0.212
12195SOL    HW238027   4.113   0.512   0.130
12196SOL     OW38028   3.856   1.138   1.479
12196SOL    HW138029   3.857   1.094   1.564
12196SOL    HW238030   3.874   1.068   1.416
12197SOL     OW38031   5.045   1.043   1.219
12197SOL    HW138032   5.062   0.979   1.150
12197SOL    HW238033   4.977   1.099   1.183
12198SOL     OW38034   5.041   0.838   0.328
12198SOL    HW138035   4.960   0.814   0.374
12198SOL    HW238036   5.022   0.818   0.236
12199SOL     OW38037   4.983   1.746   1.098
12199SOL    HW138038   5.072   1.762   1.065
12199SOL    HW238039   4.982   1.653   1.120
12200SOL     OW38040   3.822   1.268   1.011
12200SOL    HW138041   3.803   1.286   1.103
12200SOL    HW238042   3.751   1.211   0.982
12201SOL     OW38043   4.390   1.672   1.743
12201SOL    HW138044   4.324   1.736   1.771
12201SOL    HW238045   4.411   1.697   1.653
12202SOL     OW38046   4.693   0.062   0.072
12202SOL    HW138047   4.763   0.125   0.089
12202SOL    HW238048   4.634   0.070   0.147
12203SOL     OW38049   5.409   0.150   0.476
12203SOL    HW138050   5.436   0.122   0.389
12203SOL    HW238051   5.482   0.127   0.533
12204SOL     OW38052   5.109   1.568   0.484
12204SOL    HW138053   5.172   1.606   0.423
12204SOL    HW238054   5.060   1.643   0.518
12205SOL     OW38055   3.873   1.790   1.839
12205SOL    HW138056   3.825   1.723   1.888
12205SOL    HW238057   3.916   1.843   1.907
12206SOL     OW38058   5.000   0.925   0.659
12206SOL    HW138059   5.076   0.871   0.676
12206SOL    HW238060   5.034   1.000   0.610
12207SOL     OW38061   4.545   1.279   1.451
12207SOL    HW138062   4.517   1.311   1.537
12207SOL    HW238063   4.499   1.335   1.388
12208SOL     OW38064   4.382   1.602   0.186
12208SOL    HW138065   4.406   1.615   0.094
12208SOL    HW238066   4.330   1.521   0.186
12209SOL     OW38067   5.334   1.716   1.411
12209SOL    HW138068   5.389   1.714   1.333
12209SOL    HW238069   5.321   1.809   1.429
12210SOL     OW38070   5.561   0.188   0.964
12210SOL    HW138071   5.572   0.095   0.987
12210SOL    HW238072   5.480   0.190   0.914
12211SOL     OW38073   3.977   0.308   0.708
12211SOL    HW138074   3.895   0.349   0.683
12211SOL    HW238075   3.980   0.315   0.804
12212SOL     OW38076   4.912   1.589   0.065
12212SOL    HW138077   4.913   1.496   0.088
12212SOL    HW238078   4.822   1.605   0.034
12213SOL     OW38079   4.548   1.025   1.343
12213SOL    HW138080   4.534   1.046   1.251
12213SOL    HW238081   4.546   1.109   1.388
12214SOL     OW38082   4.651   0.918   0.294
12214SOL    HW138083   4.711   0.943   0.224
12214SOL    HW238084   4.698   0.850   0.343
12215SOL     OW38085   5.175   1.591  -0.004
12215SOL    HW138086   5.088   1.609   0.032
12215SOL    HW238087   5.227   1.669   0.019
12216SOL     OW38088   4.091   1.300   1.498
12216SOL    HW138089   4.094   1.375   1.439
12216SOL    HW238090   4.006   1.259   1.480
12217SOL     OW38091   5.328   1.276   1.295
12217SOL    HW138092   5.408   1.317   1.261
12217SOL    HW238093   5.270   1.349   1.316
12218SOL     OW38094   4.793   1.114   0.704
12218SOL    HW138095   4.717   1.073   0.746
12218SOL    HW238096   4.850   1.040   0.682
12219SOL     OW38097   4.771   0.264   0.938
12219SOL    HW138098   4.755   0.217   0.857
12219SOL    HW238099   4.774   0.196   1.005
12220SOL     OW38100   4.310   1.481   0.469
12220SOL    HW138101   4.321   1.432   0.388
12220SOL    HW238102   4.219   1.510   0.468
12221SOL     OW38103   5.448   0.437   1.380
12221SOL    HW138104   5.528   0.490   1.385
12221SOL    HW238105   5.473   0.360   1.330
12222SOL     OW38106   3.924   1.352   0.285
12222SOL    HW138107   3.868   1.280   0.313
12222SOL    HW238108   3.958   1.390   0.366
12223SOL     OW38109   3.841   1.006   1.721
12223SOL    HW138110   3.762   0.999   1.774
12223SOL    HW238111   3.912   0.978   1.779
12224SOL     OW38112   4.380   0.209   1.488
12224SOL    HW138113   4.456   0.153   1.470
12224SOL    HW238114   4.399   0.248   1.573
12225SOL     OW38115   5.143   0.853   1.392
12225SOL    HW138116   5.084   0.909   1.341
12225SOL    HW238117   5.225   0.854   1.342
12226SOL     OW38118   3.811   0.199   0.261
12226SOL    HW138119   3.805   0.287   0.299
12226SOL    HW238120   3.888   0.160   0.304
12227SOL     OW38121   4.917   1.319   0.131
12227SOL    HW138122   4.822   1.316   0.124
12227SOL    HW238123   4.934   1.320   0.225
12228SOL     OW38124   4.353   0.834   1.433
12228SOL    HW138125   4.394   0.917   1.409
12228SOL    HW238126   4.426   0.779   1.463
12229SOL     OW38127   5.240   1.793   1.006
12229SOL    HW138128   5.263   1.859   0.941
12229SOL    HW238129   5.324   1.771   1.048
12230SOL     OW38130   4.403   0.591   1.696
12230SOL    HW138131   4.461   0.638   1.756
12230SOL    HW238132   4.407   0.500   1.726
12231SOL     OW38133   5.219   1.185   1.624
12231SOL    HW138134   5.178   1.197   1.709
12231SOL    HW238135   5.298   1.238   1.627
12232SOL     OW38136   4.089   1.747   1.545
12232SOL    HW138137   4.002   1.787   1.536
12232SOL    HW238138   4.073   1.666   1.593
12233SOL     OW38139   5.381   0.915   1.268
12233SOL    HW138140   5.400   0.827   1.236
12233SOL    HW238141   5.372   0.969   1.189
12234SOL     OW38142   4.953   0.308   0.450
12234SOL    HW138143   5.010   0.231   0.457
12234SOL    HW238144   4.973   0.360   0.528
12235SOL     OW38145   4.310   0.725   0.671
12235SOL    HW138146   4.350   0.812   0.666
12235SOL    HW238147   4.242   0.727   0.604
12236SOL     OW38148   5.472   0.385   1.647
12236SOL    HW138149   5.463   0.399   1.553
12236SOL    HW238150   5.402   0.323   1.669
12237SOL     OW38151   4.653   1.366   0.037
12237SOL    HW138152   4.603   1.341   0.114
12237SOL    HW238153   4.635   1.459   0.025
12238SOL     OW38154   4.383   1.783   0.911
12238SOL    HW138155   4.365   1.877   0.910
12238SOL    HW238156   4.477   1.776   0.925
12239SOL     OW38157   4.602   0.973   0.852
12239SOL    HW138158   4.655   0.905   0.893
12239SOL    HW238159   4.562   1.020   0.925
12240SOL     OW38160   4.815   0.983   0.079
12240SOL    HW138161   4.850   1.067   0.050
12240SOL    HW238162   4.889   0.923   0.077
12241SOL     OW38163   5.587   1.530   0.844
12241SOL    HW138164   5.514   1.562   0.790
12241SOL    HW238165   5.546   1.505   0.927
12242SOL     OW38166   3.943   1.309   1.848
12242SOL    HW138167   3.881   1.295   1.777
12242SOL    HW238168   3.889   1.314   1.927
12243SOL     OW38169   4.428   1.404   1.675
12243SOL    HW138170   4.338   1.375   1.664
12243SOL    HW238171   4.422   1.499   1.690
12244SOL     OW38172   5.556   0.236   1.238
12244SOL    HW138173   5.510   0.154   1.257
12244SOL    HW238174   5.561   0.239   1.142
12245SOL     OW38175   4.165   0.426   0.542
12245SOL    HW138176   4.180   0.362   0.472
12245SOL    HW238177   4.099   0.384   0.598
12246SOL     OW38178   5.444   1.438   1.064
12246SOL    HW138179   5.355   1.438   1.032
12246SOL    HW238180   5.456   1.525   1.103
12247SOL     OW38181   4.063   0.564   1.297
12247SOL    HW138182   4.113   0.502   1.350
12247SOL    HW238183   4.082   0.539   1.206
12248SOL     OW38184   4.561   1.566   0.677
12248SOL    HW138185   4.530   1.644   0.632
12248SOL    HW238186   4.483   1.512   0.690
12249SOL     OW38187   5.165   0.222   1.110
12249SOL    HW138188   5.220   0.161   1.159
12249SOL    HW238189   5.113   0.266   1.177
12250SOL     OW38190   4.751   0.048   1.100
12250SOL    HW138191   4.657   0.057   1.086
12250SOL    HW238192   4.758  -0.022   1.166
12251SOL     OW38193   4.544   1.299   0.277
12251SOL    HW138194   4.493   1.226   0.311
12251SOL    HW238195   4.590   1.334   0.353
12252SOL     OW38196   5.105   0.047   0.197
12252SOL    HW138197   5.129  -0.001   0.118
12252SOL    HW238198   5.025   0.093   0.174
12253SOL     OW38199   5.009   0.458   0.670
12253SOL    HW138200   4.961   0.541   0.671
12253SOL    HW238201   5.020   0.435   0.762
12254SOL     OW38202   5.305   0.194   0.863
12254SOL    HW138203   5.259   0.222   0.942
12254SOL    HW238204   5.308   0.272   0.807
12255SOL     OW38205   3.773   1.073   0.273
12255SOL    HW138206   3.866   1.066   0.253
12255SOL    HW238207   3.767   1.048   0.365
12256SOL     OW38208   4.602   1.663   0.343
12256SOL    HW138209   4.518   1.638   0.305
12256SOL    HW238210   4.580   1.731   0.407
12257SOL     OW38211   3.917   0.592   1.992
12257SOL    HW138212   3.830   0.598   2.033
12257SOL    HW238213   3.915   0.659   1.923
12258SOL     OW38214   3.952   0.298   2.850
12258SOL    HW138215   3.981   0.258   2.932
12258SOL    HW238216   3.866   0.259   2.834
12259SOL     OW38217   3.729   0.403   2.496
12259SOL    HW138218   3.644   0.425   2.534
12259SOL    HW238219   3.710   0.331   2.436
12260SOL     OW38220   4.297   1.302   3.048
12260SOL    HW138221   4.211   1.310   3.006
12260SOL    HW238222   4.313   1.389   3.084
12261SOL     OW38223   5.294   1.516   2.576
12261SOL    HW138224   5.253   1.495   2.660
12261SOL    HW238225   5.221   1.520   2.514
12262SOL     OW38226   4.859   0.694   2.555
12262SOL    HW138227   4.905   0.777   2.541
12262SOL    HW238228   4.814   0.706   2.638
12263SOL     OW38229   5.531   0.588   2.082
12263SOL    HW138230   5.493   0.589   1.994
12263SOL    HW238231   5.481   0.522   2.130
12264SOL     OW38232   4.463   1.137   2.908
12264SOL    HW138233   4.398   1.176   2.967
12264SOL    HW238234   4.510   1.211   2.871
12265SOL     OW38235   4.530   0.778   3.691
12265SOL    HW138236   4.541   0.847   3.756
12265SOL    HW238237   4.567   0.815   3.611
12266SOL     OW38238   4.408   0.987   2.510
12266SOL    HW138239   4.475   0.986   2.578
12266SOL    HW238240   4.341   1.047   2.542
12267SOL     OW38241   4.434   1.154   3.678
12267SOL    HW138242   4.474   1.234   3.711
12267SOL    HW238243   4.351   1.183   3.640
12268SOL     OW38244   4.065   1.408   2.926
12268SOL    HW138245   3.986   1.370   2.888
12268SOL    HW238246   4.099   1.466   2.858
12269SOL     OW38247   5.185   1.507   3.222
12269SOL    HW138248   5.240   1.584   3.233
12269SOL    HW238249   5.116   1.517   3.288
12270SOL     OW38250   4.173   0.390   3.333
12270SOL    HW138251   4.250   0.332   3.334
12270SOL    HW238252   4.099   0.331   3.347
12271SOL     OW38253   5.325   0.457   2.596
12271SOL    HW138254   5.246   0.466   2.542
12271SOL    HW238255   5.314   0.523   2.665
12272SOL     OW38256   3.952   1.712   2.328
12272SOL    HW138257   3.969   1.789   2.383
12272SOL    HW238258   4.024   1.709   2.266
12273SOL     OW38259   4.865   1.340   3.554
12273SOL    HW138260   4.914   1.331   3.636
12273SOL    HW238261   4.812   1.260   3.549
12274SOL     OW38262   3.952   1.451   2.411
12274SOL    HW138263   3.943   1.545   2.396
12274SOL    HW238264   3.890   1.432   2.481
12275SOL     OW38265   3.995   1.094   2.744
12275SOL    HW138266   3.988   1.005   2.778
12275SOL    HW238267   3.939   1.146   2.802
12276SOL     OW38268   4.326   1.783   3.286
12276SOL    HW138269   4.244   1.766   3.332
12276SOL    HW238270   4.351   1.871   3.312
12277SOL     OW38271   4.308   0.987   2.010
12277SOL    HW138272   4.351   1.036   1.941
12277SOL    HW238273   4.347   1.020   2.091
12278SOL     OW38274   5.368   0.133   3.332
12278SOL    HW138275   5.356   0.219   3.290
12278SOL    HW238276   5.323   0.141   3.416
12279SOL     OW38277   3.850   0.656   2.425
12279SOL    HW138278   3.814   0.571   2.450
12279SOL    HW238279   3.837   0.711   2.502
12280SOL     OW38280   5.568   1.746   2.187
12280SOL    HW138281   5.636   1.723   2.251
12280SOL    HW238282   5.581   1.840   2.171
12281SOL     OW38283   3.784   1.584   1.986
12281SOL    HW138284   3.744   1.498   1.998
12281SOL    HW238285   3.749   1.636   2.058
12282SOL     OW38286   5.406   0.914   2.496
12282SOL    HW138287   5.494   0.881   2.475
12282SOL    HW238288   5.385   0.973   2.424
12283SOL     OW38289   5.377   1.103   2.290
12283SOL    HW138290   5.464   1.102   2.249
12283SOL    HW238291   5.383   1.170   2.358
12284SOL     OW38292   3.839   0.755   3.446
12284SOL    HW138293   3.927   0.793   3.452
12284SOL    HW238294   3.780   0.830   3.442
12285SOL     OW38295   4.353   1.395   2.592
12285SOL    HW138296   4.304   1.313   2.598
12285SOL    HW238297   4.335   1.427   2.503
12286SOL     OW38298   5.005   1.232   3.277
12286SOL    HW138299   5.043   1.166   3.218
12286SOL    HW238300   5.062   1.231   3.353
12287SOL     OW38301   4.573   0.029   2.416
12287SOL    HW138302   4.610   0.109   2.379
12287SOL    HW238303   4.479   0.043   2.416
12288SOL     OW38304   3.909   0.955   3.156
12288SOL    HW138305   3.995   0.919   3.134
12288SOL    HW238306   3.855   0.934   3.080
12289SOL     OW38307   5.257   1.003   2.060
12289SOL    HW138308   5.188   0.946   2.094
12289SOL    HW238309   5.298   1.040   2.138
12290SOL     OW38310   4.906   1.814   3.482
12290SOL    HW138311   4.923   1.884   3.419
12290SOL    HW238312   4.946   1.736   3.444
12291SOL     OW38313   4.026   0.225   3.638
12291SOL    HW138314   4.093   0.283   3.674
12291SOL    HW238315   3.947   0.247   3.688
12292SOL     OW38316   5.189   1.412   2.815
12292SOL    HW138317   5.124   1.429   2.883
12292SOL    HW238318   5.172   1.323   2.786
12293SOL     OW38319   5.372   1.761   2.437
12293SOL    HW138320   5.350   1.720   2.354
12293SOL    HW238321   5.358   1.692   2.502
12294SOL     OW38322   4.324   0.720   2.134
12294SOL    HW138323   4.327   0.806   2.093
12294SOL    HW238324   4.259   0.729   2.204
12295SOL     OW38325   5.016   0.374   2.793
12295SOL    HW138326   4.926   0.345   2.798
12295SOL    HW238327   5.063   0.320   2.856
12296SOL     OW38328   5.296   1.684   2.173
12296SOL    HW138329   5.389   1.702   2.164
12296SOL    HW238330   5.267   1.663   2.084
12297SOL     OW38331   4.480   0.609   3.324
12297SOL    HW138332   4.525   0.546   3.380
12297SOL    HW238333   4.459   0.560   3.245
12298SOL     OW38334   5.140   0.488   3.540
12298SOL    HW138335   5.138   0.535   3.623
12298SOL    HW238336   5.204   0.418   3.553
12299SOL     OW38337   4.660   0.877   3.454
12299SOL    HW138338   4.719   0.811   3.416
12299SOL    HW238339   4.621   0.920   3.378
12300SOL     OW38340   4.724   0.413   3.084
12300SOL    HW138341   4.636   0.437   3.112
12300SOL    HW238342   4.712   0.369   3.000
12301SOL     OW38343   4.780   0.695   2.288
12301SOL    HW138344   4.800   0.691   2.381
12301SOL    HW238345   4.694   0.654   2.280
12302SOL     OW38346   3.808   0.822   2.636
12302SOL    HW138347   3.887   0.820   2.690
12302SOL    HW238348   3.755   0.892   2.674
12303SOL     OW38349   3.835   1.834   3.433
12303SOL    HW138350   3.843   1.820   3.528
12303SOL    HW238351   3.754   1.884   3.424
12304SOL     OW38352   4.613   0.352   2.070
12304SOL    HW138353   4.663   0.391   1.999
12304SOL    HW238354   4.602   0.260   2.044
12305SOL     OW38355   5.433   0.561   3.688
12305SOL    HW138356   5.396   0.638   3.645
12305SOL    HW238357   5.466   0.507   3.617
12306SOL     OW38358   5.108   1.144   2.407
12306SOL    HW138359   5.187   1.140   2.354
12306SOL    HW238360   5.051   1.205   2.361
12307SOL     OW38361   4.288   0.254   2.772
12307SOL    HW138362   4.260   0.258   2.864
12307SOL    HW238363   4.280   0.344   2.741
12308SOL     OW38364   4.724   1.450   2.322
12308SOL    HW138365   4.693   1.522   2.268
12308SOL    HW238366   4.688   1.466   2.409
12309SOL     OW38367   4.071   1.815   2.735
12309SOL    HW138368   4.120   1.733   2.742
12309SOL    HW238369   4.133   1.882   2.762
12310SOL     OW38370   5.521   1.037   2.725
12310SOL    HW138371   5.453   1.025   2.658
12310SOL    HW238372   5.473   1.056   2.805
12311SOL     OW38373   4.947   1.543   3.368
12311SOL    HW138374   4.937   1.469   3.428
12311SOL    HW238375   4.858   1.566   3.342
12312SOL     OW38376   4.044   0.971   2.117
12312SOL    HW138377   4.133   0.994   2.090
12312SOL    HW238378   4.010   0.919   2.045
12313SOL     OW38379   5.202   0.749   2.574
12313SOL    HW138380   5.199   0.714   2.663
12313SOL    HW238381   5.279   0.805   2.572
12314SOL     OW38382   4.195   1.265   3.594
12314SOL    HW138383   4.162   1.273   3.505
12314SOL    HW238384   4.117   1.275   3.649
12315SOL     OW38385   4.875   1.774   2.108
12315SOL    HW138386   4.786   1.753   2.134
12315SOL    HW238387   4.894   1.716   2.034
12316SOL     OW38388   3.918   0.264   3.366
12316SOL    HW138389   3.848   0.328   3.361
12316SOL    HW238390   3.932   0.252   3.460
12317SOL     OW38391   5.345   1.375   1.948
12317SOL    HW138392   5.307   1.463   1.939
12317SOL    HW238393   5.273   1.316   1.925
12318SOL     OW38394   4.197   1.730   2.182
12318SOL    HW138395   4.235   1.795   2.240
12318SOL    HW238396   4.264   1.714   2.116
12319SOL     OW38397   5.143   0.138   2.271
12319SOL    HW138398   5.146   0.074   2.200
12319SOL    HW238399   5.232   0.141   2.305
12320SOL     OW38400   3.979   1.791   3.086
12320SOL    HW138401   4.025   1.717   3.124
12320SOL    HW238402   3.953   1.762   2.999
12321SOL     OW38403   4.705   1.698   2.739
12321SOL    HW138404   4.773   1.685   2.806
12321SOL    HW238405   4.645   1.624   2.752
12322SOL     OW38406   4.124   0.686   2.329
12322SOL    HW138407   4.131   0.592   2.346
12322SOL    HW238408   4.033   0.707   2.349
12323SOL     OW38409   5.273   0.224   3.587
12323SOL    HW138410   5.298   0.246   3.677
12323SOL    HW238411   5.178   0.211   3.590
12324SOL     OW38412   4.343   0.157   1.944
12324SOL    HW138413   4.408   0.106   1.993
12324SOL    HW238414   4.295   0.091   1.893
12325SOL     OW38415   4.454   0.356   3.648
12325SOL    HW138416   4.506   0.311   3.581
12325SOL    HW238417   4.418   0.285   3.702
12326SOL     OW38418   4.606   1.536   3.041
12326SOL    HW138419   4.581   1.486   2.963
12326SOL    HW238420   4.669   1.480   3.086
12327SOL     OW38421   5.067   0.599   3.296
12327SOL    HW138422   5.104   0.569   3.379
12327SOL    HW238423   5.104   0.686   3.283
12328SOL     OW38424   4.547   1.398   2.805
12328SOL    HW138425   4.630   1.375   2.763
12328SOL    HW238426   4.481   1.389   2.735
12329SOL     OW38427   4.653   0.520   2.751
12329SOL    HW138428   4.618   0.507   2.663
12329SOL    HW238429   4.689   0.434   2.775
12330SOL     OW38430   4.305   0.015   2.280
12330SOL    HW138431   4.231  -0.031   2.318
12330SOL    HW238432   4.303   0.102   2.321
12331SOL     OW38433   5.138   1.196   1.888
12331SOL    HW138434   5.165   1.129   1.950
12331SOL    HW238435   5.056   1.230   1.925
12332SOL     OW38436   4.063   0.045   2.040
12332SOL    HW138437   4.114   0.109   2.091
12332SOL    HW238438   4.039  -0.022   2.104
12333SOL     OW38439   4.680   0.266   2.326
12333SOL    HW138440   4.648   0.297   2.241
12333SOL    HW238441   4.774   0.281   2.323
12334SOL     OW38442   4.804   0.678   3.318
12334SOL    HW138443   4.760   0.596   3.344
12334SOL    HW238444   4.896   0.655   3.314
12335SOL     OW38445   4.962   1.555   2.646
12335SOL    HW138446   4.962   1.635   2.594
12335SOL    HW238447   5.004   1.579   2.728
12336SOL     OW38448   4.204   1.159   2.581
12336SOL    HW138449   4.138   1.140   2.647
12336SOL    HW238450   4.157   1.152   2.498
12337SOL     OW38451   4.965   1.816   2.500
12337SOL    HW138452   5.007   1.857   2.424
12337SOL    HW238453   5.012   1.852   2.575
12338SOL     OW38454   4.756   0.525   1.878
12338SOL    HW138455   4.706   0.605   1.862
12338SOL    HW238456   4.807   0.544   1.957
12339SOL     OW38457   3.816   0.563   3.255
12339SOL    HW138458   3.908   0.565   3.227
12339SOL    HW238459   3.810   0.632   3.321
12340SOL     OW38460   4.288   0.231   3.058
12340SOL    HW138461   4.325   0.202   3.142
12340SOL    HW238462   4.194   0.222   3.070
12341SOL     OW38463   4.567   0.453   2.498
12341SOL    HW138464   4.541   0.516   2.430
12341SOL    HW238465   4.607   0.381   2.450
12342SOL     OW38466   4.703   0.037   2.653
12342SOL    HW138467   4.660   0.035   2.568
12342SOL    HW238468   4.713  -0.054   2.678
12343SOL     OW38469   5.158   1.153   2.720
12343SOL    HW138470   5.092   1.086   2.738
12343SOL    HW238471   5.158   1.161   2.624
12344SOL     OW38472   5.188   0.610   2.815
12344SOL    HW138473   5.129   0.535   2.824
12344SOL    HW238474   5.244   0.606   2.893
12345SOL     OW38475   5.579   0.805   2.242
12345SOL    HW138476   5.632   0.757   2.305
12345SOL    HW238477   5.554   0.740   2.176
12346SOL     OW38478   4.211   1.419   2.015
12346SOL    HW138479   4.139   1.393   2.072
12346SOL    HW238480   4.185   1.387   1.928
12347SOL     OW38481   5.407   1.275   2.490
12347SOL    HW138482   5.499   1.275   2.516
12347SOL    HW238483   5.373   1.357   2.524
12348SOL     OW38484   5.120   0.569   1.939
12348SOL    HW138485   5.047   0.555   2.000
12348SOL    HW238486   5.198   0.563   1.993
12349SOL     OW38487   4.194   0.270   2.142
12349SOL    HW138488   4.263   0.232   2.087
12349SOL    HW238489   4.208   0.364   2.135
12350SOL     OW38490   5.467   1.249   3.405
12350SOL    HW138491   5.555   1.212   3.396
12350SOL    HW238492   5.481   1.337   3.438
12351SOL     OW38493   4.775   1.342   3.172
12351SOL    HW138494   4.698   1.321   3.224
12351SOL    HW238495   4.849   1.311   3.225
12352SOL     OW38496   5.324   1.621   3.515
12352SOL    HW138497   5.324   1.667   3.431
12352SOL    HW238498   5.410   1.579   3.519
12353SOL     OW38499   4.846   1.190   2.953
12353SOL    HW138500   4.809   1.241   3.025
12353SOL    HW238501   4.828   1.242   2.875
12354SOL     OW38502   5.354   1.103   2.934
12354SOL    HW138503   5.348   1.163   3.009
12354SOL    HW238504   5.277   1.123   2.882
12355SOL     OW38505   4.643   0.150   3.251
12355SOL    HW138506   4.664   0.130   3.160
12355SOL    HW238507   4.727   0.145   3.297
12356SOL     OW38508   4.700   1.118   3.580
12356SOL    HW138509   4.610   1.137   3.606
12356SOL    HW238510   4.694   1.036   3.531
12357SOL     OW38511   4.437   1.059   2.241
12357SOL    HW138512   4.421   1.037   2.332
12357SOL    HW238513   4.511   1.003   2.215
12358SOL     OW38514   4.149   0.825   3.111
12358SOL    HW138515   4.213   0.839   3.180
12358SOL    HW238516   4.115   0.737   3.128
12359SOL     OW38517   4.991   0.385   3.140
12359SOL    HW138518   5.022   0.462   3.187
12359SOL    HW238519   4.900   0.406   3.117
12360SOL     OW38520   3.797   1.571   3.218
12360SOL    HW138521   3.767   1.656   3.188
12360SOL    HW238522   3.893   1.577   3.215
12361SOL     OW38523   4.058   1.130   2.349
12361SOL    HW138524   4.049   1.206   2.292
12361SOL    HW238525   4.057   1.055   2.290
12362SOL     OW38526   4.274   0.520   2.710
12362SOL    HW138527   4.282   0.581   2.636
12362SOL    HW238528   4.335   0.554   2.775
12363SOL     OW38529   4.970   1.345   2.257
12363SOL    HW138530   5.026   1.417   2.287
12363SOL    HW238531   4.882   1.370   2.285
12364SOL     OW38532   5.012   1.464   3.020
12364SOL    HW138533   5.076   1.478   3.090
12364SOL    HW238534   4.942   1.415   3.063
12365SOL     OW38535   5.293   0.634   2.333
12365SOL    HW138536   5.245   0.660   2.412
12365SOL    HW238537   5.325   0.716   2.296
12366SOL     OW38538   4.070   1.531   3.167
12366SOL    HW138539   4.061   1.483   3.085
12366SOL    HW238540   4.164   1.543   3.178
12367SOL     OW38541   4.141   0.739   3.460
12367SOL    HW138542   4.200   0.796   3.411
12367SOL    HW238543   4.175   0.651   3.446
12368SOL     OW38544   5.336   0.776   3.553
12368SOL    HW138545   5.250   0.818   3.552
12368SOL    HW238546   5.387   0.823   3.487
12369SOL     OW38547   4.771   0.043   3.613
12369SOL    HW138548   4.813   0.125   3.636
12369SOL    HW238549   4.678   0.065   3.603
12370SOL     OW38550   4.223   0.029   3.602
12370SOL    HW138551   4.198  -0.029   3.530
12370SOL    HW238552   4.151   0.091   3.609
12371SOL     OW38553   4.311   0.879   2.894
12371SOL    HW138554   4.345   0.969   2.896
12371SOL    HW238555   4.253   0.873   2.970
12372SOL     OW38556   5.056   0.858   2.861
12372SOL    HW138557   4.964   0.836   2.843
12372SOL    HW238558   5.102   0.775   2.855
12373SOL     OW38559   4.913   0.531   2.112
12373SOL    HW138560   4.923   0.453   2.166
12373SOL    HW238561   4.874   0.596   2.172
12374SOL     OW38562   4.022   0.200   3.100
12374SOL    HW138563   3.971   0.216   3.180
12374SOL    HW238564   4.003   0.109   3.077
12375SOL     OW38565   3.778   1.311   3.137
12375SOL    HW138566   3.805   1.260   3.213
12375SOL    HW238567   3.778   1.402   3.168
12376SOL     OW38568   4.432   0.631   2.898
12376SOL    HW138569   4.515   0.629   2.850
12376SOL    HW238570   4.403   0.722   2.890
12377SOL     OW38571   5.464   0.961   3.725
12377SOL    HW138572   5.418   0.891   3.679
12377SOL    HW238573   5.407   0.983   3.798
12378SOL     OW38574   4.137   0.077   2.547
12378SOL    HW138575   4.077   0.152   2.560
12378SOL    HW238576   4.084   0.012   2.502
12379SOL     OW38577   5.360   0.401   2.209
12379SOL    HW138578   5.370   0.330   2.272
12379SOL    HW238579   5.329   0.475   2.260
12380SOL     OW38580   4.763   0.759   2.822
12380SOL    HW138581   4.748   0.774   2.915
12380SOL    HW238582   4.730   0.671   2.806
12381SOL     OW38583   4.706   1.556   3.594
12381SOL    HW138584   4.692   1.606   3.514
12381SOL    HW238585   4.755   1.479   3.566
12382SOL     OW38586   5.572   1.500   3.459
12382SOL    HW138587   5.594   1.535   3.373
12382SOL    HW238588   5.649   1.518   3.513
12383SOL     OW38589   4.078   0.911   3.673
12383SOL    HW138590   4.156   0.935   3.723
12383SOL    HW238591   4.109   0.847   3.609
12384SOL     OW38592   5.274   0.257   1.988
12384SOL    HW138593   5.288   0.170   2.024
12384SOL    HW238594   5.300   0.317   2.058
12385SOL     OW38595   5.003   0.819   1.890
12385SOL    HW138596   5.048   0.735   1.897
12385SOL    HW238597   5.038   0.858   1.809
12386SOL     OW38598   4.793   1.341   2.714
12386SOL    HW138599   4.803   1.267   2.655
12386SOL    HW238600   4.857   1.406   2.682
12387SOL     OW38601   4.032   0.815   2.803
12387SOL    HW138602   4.125   0.838   2.801
12387SOL    HW238603   4.030   0.727   2.841
12388SOL     OW38604   4.059   0.540   2.877
12388SOL    HW138605   4.017   0.455   2.864
12388SOL    HW238606   4.132   0.541   2.816
12389SOL     OW38607   4.873   0.424   3.506
12389SOL    HW138608   4.831   0.473   3.576
12389SOL    HW238609   4.967   0.439   3.519
12390SOL     OW38610   4.901   0.212   3.333
12390SOL    HW138611   4.898   0.270   3.409
12390SOL    HW238612   4.932   0.268   3.261
12391SOL     OW38613   3.742   1.306   2.044
12391SOL    HW138614   3.654   1.326   2.012
12391SOL    HW238615   3.733   1.221   2.087
12392SOL     OW38616   3.812   1.769   2.810
12392SOL    HW138617   3.782   1.695   2.758
12392SOL    HW238618   3.899   1.790   2.775
12393SOL     OW38619   4.220   1.580   2.760
12393SOL    HW138620   4.290   1.644   2.775
12393SOL    HW238621   4.258   1.515   2.701
12394SOL     OW38622   4.694   0.778   3.084
12394SOL    HW138623   4.750   0.750   3.156
12394SOL    HW238624   4.605   0.777   3.120
12395SOL     OW38625   3.762   0.559   2.979
12395SOL    HW138626   3.845   0.557   2.932
12395SOL    HW238627   3.785   0.556   3.071
12396SOL     OW38628   3.901   0.530   3.591
12396SOL    HW138629   3.987   0.526   3.549
12396SOL    HW238630   3.858   0.605   3.550
12397SOL     OW38631   5.109   0.927   3.516
12397SOL    HW138632   5.131   1.020   3.517
12397SOL    HW238633   5.108   0.903   3.423
12398SOL     OW38634   4.541   0.572   2.237
12398SOL    HW138635   4.549   0.500   2.174
12398SOL    HW238636   4.470   0.626   2.203
12399SOL     OW38637   5.361   0.608   3.025
12399SOL    HW138638   5.351   0.557   3.106
12399SOL    HW238639   5.451   0.592   2.997
12400SOL     OW38640   3.970   1.547   3.582
12400SOL    HW138641   3.943   1.618   3.641
12400SOL    HW238642   3.963   1.468   3.636
12401SOL     OW38643   4.448   0.457   3.102
12401SOL    HW138644   4.387   0.385   3.085
12401SOL    HW238645   4.434   0.518   3.029
12402SOL     OW38646   4.670   1.667   3.334
12402SOL    HW138647   4.602   1.641   3.273
12402SOL    HW238648   4.669   1.762   3.333
12403SOL     OW38649   4.170   0.516   2.039
12403SOL    HW138650   4.240   0.578   2.063
12403SOL    HW238651   4.094   0.572   2.025
12404SOL     OW38652   3.860   1.143   3.344
12404SOL    HW138653   3.864   1.100   3.429
12404SOL    HW238654   3.878   1.074   3.281
12405SOL     OW38655   5.044   1.037   3.069
12405SOL    HW138656   5.061   0.975   2.998
12405SOL    HW238657   4.973   1.093   3.036
12406SOL     OW38658   5.051   0.855   2.164
12406SOL    HW138659   4.981   0.837   2.227
12406SOL    HW238660   5.010   0.846   2.078
12407SOL     OW38661   5.443   1.730   2.970
12407SOL    HW138662   5.529   1.760   2.940
12407SOL    HW238663   5.451   1.634   2.972
12408SOL     OW38664   4.954   1.715   2.916
12408SOL    HW138665   5.040   1.754   2.898
12408SOL    HW238666   4.973   1.635   2.965
12409SOL     OW38667   3.825   1.254   2.880
12409SOL    HW138668   3.808   1.274   2.972
12409SOL    HW238669   3.739   1.238   2.843
12410SOL     OW38670   4.394   1.679   3.598
12410SOL    HW138671   4.333   1.753   3.599
12410SOL    HW238672   4.474   1.713   3.559
12411SOL     OW38673   5.400   0.160   2.375
12411SOL    HW138674   5.492   0.137   2.357
12411SOL    HW238675   5.378   0.108   2.453
12412SOL     OW38676   5.116   1.567   2.349
12412SOL    HW138677   5.175   1.602   2.282
12412SOL    HW238678   5.052   1.637   2.363
12413SOL     OW38679   3.879   1.787   3.699
12413SOL    HW138680   3.828   1.726   3.753
12413SOL    HW238681   3.917   1.848   3.762
12414SOL     OW38682   4.998   0.924   2.518
12414SOL    HW138683   5.073   0.867   2.535
12414SOL    HW238684   5.036   0.999   2.473
12415SOL     OW38685   4.520   1.282   3.277
12415SOL    HW138686   4.495   1.326   3.358
12415SOL    HW238687   4.445   1.293   3.219
12416SOL     OW38688   4.413   1.605   2.016
12416SOL    HW138689   4.416   1.634   1.925
12416SOL    HW238690   4.346   1.536   2.017
12417SOL     OW38691   5.334   1.734   3.250
12417SOL    HW138692   5.395   1.742   3.177
12417SOL    HW238693   5.317   1.824   3.277
12418SOL     OW38694   5.585   0.150   2.781
12418SOL    HW138695   5.579   0.073   2.838
12418SOL    HW238696   5.495   0.173   2.762
12419SOL     OW38697   3.970   0.294   2.577
12419SOL    HW138698   3.892   0.345   2.554
12419SOL    HW238699   3.976   0.301   2.672
12420SOL     OW38700   4.935   1.603   1.900
12420SOL    HW138701   4.922   1.511   1.926
12420SOL    HW238702   4.868   1.618   1.834
12421SOL     OW38703   4.553   1.011   3.237
12421SOL    HW138704   4.595   1.015   3.151
12421SOL    HW238705   4.541   1.103   3.262
12422SOL     OW38706   4.638   0.901   2.157
12422SOL    HW138707   4.696   0.939   2.091
12422SOL    HW238708   4.693   0.838   2.204
12423SOL     OW38709   5.213   1.623   1.915
12423SOL    HW138710   5.118   1.622   1.901
12423SOL    HW238711   5.250   1.630   1.827
12424SOL     OW38712   4.089   1.303   3.350
12424SOL    HW138713   4.074   1.384   3.302
12424SOL    HW238714   4.008   1.254   3.340
12425SOL     OW38715   5.332   1.285   3.146
12425SOL    HW138716   5.387   1.268   3.223
12425SOL    HW238717   5.273   1.355   3.174
12426SOL     OW38718   4.794   1.109   2.575
12426SOL    HW138719   4.720   1.062   2.613
12426SOL    HW238720   4.855   1.040   2.549
12427SOL     OW38721   4.759   0.263   2.807
12427SOL    HW138722   4.743   0.207   2.732
12427SOL    HW238723   4.762   0.204   2.882
12428SOL     OW38724   4.339   1.502   2.334
12428SOL    HW138725   4.377   1.446   2.266
12428SOL    HW238726   4.267   1.547   2.291
12429SOL     OW38727   5.441   0.425   3.234
12429SOL    HW138728   5.513   0.487   3.246
12429SOL    HW238729   5.476   0.359   3.174
12430SOL     OW38730   3.993   1.337   2.173
12430SOL    HW138731   3.906   1.339   2.132
12430SOL    HW238732   3.983   1.385   2.255
12431SOL     OW38733   3.845   1.035   3.597
12431SOL    HW138734   3.769   1.000   3.643
12431SOL    HW238735   3.920   0.990   3.635
12432SOL     OW38736   4.380   0.193   3.325
12432SOL    HW138737   4.467   0.168   3.294
12432SOL    HW238738   4.382   0.173   3.418
12433SOL     OW38739   3.810   0.328   1.867
12433SOL    HW138740   3.714   0.326   1.861
12433SOL    HW238741   3.838   0.385   1.796
12434SOL     OW38742   5.149   0.859   3.252
12434SOL    HW138743   5.102   0.921   3.197
12434SOL    HW238744   5.241   0.867   3.224
12435SOL     OW38745   3.837   0.232   2.168
12435SOL    HW138746   3.756   0.199   2.127
12435SOL    HW238747   3.849   0.177   2.245
12436SOL     OW38748   4.897   1.333   1.977
12436SOL    HW138749   4.802   1.330   1.970
12436SOL    HW238750   4.915   1.329   2.071
12437SOL     OW38751   4.342   0.841   3.300
12437SOL    HW138752   4.405   0.911   3.287
12437SOL    HW238753   4.396   0.763   3.317
12438SOL     OW38754   5.209   1.793   2.832
12438SOL    HW138755   5.238   1.876   2.793
12438SOL    HW238756   5.283   1.766   2.887
12439SOL     OW38757   5.196   1.190   3.486
12439SOL    HW138758   5.183   1.206   3.580
12439SOL    HW238759   5.286   1.217   3.469
12440SOL     OW38760   4.090   1.738   3.418
12440SOL    HW138761   4.006   1.780   3.402
12440SOL    HW238762   4.068   1.658   3.466
12441SOL     OW38763   5.391   0.885   3.109
12441SOL    HW138764   5.381   0.802   3.062
12441SOL    HW238765   5.382   0.952   3.041
12442SOL     OW38766   4.948   0.328   2.308
12442SOL    HW138767   5.012   0.259   2.296
12442SOL    HW238768   4.977   0.375   2.386
12443SOL     OW38769   4.309   0.725   2.531
12443SOL    HW138770   4.348   0.812   2.525
12443SOL    HW238771   4.245   0.722   2.460
12444SOL     OW38772   5.490   0.373   3.495
12444SOL    HW138773   5.462   0.395   3.406
12444SOL    HW238774   5.422   0.313   3.527
12445SOL     OW38775   5.453   0.937   3.371
12445SOL    HW138776   5.455   1.031   3.388
12445SOL    HW238777   5.444   0.930   3.276
12446SOL     OW38778   4.624   1.369   1.930
12446SOL    HW138779   4.565   1.379   2.005
12446SOL    HW238780   4.602   1.443   1.873
12447SOL     OW38781   4.401   1.789   2.777
12447SOL    HW138782   4.361   1.875   2.763
12447SOL    HW238783   4.465   1.804   2.846
12448SOL     OW38784   4.597   0.975   2.718
12448SOL    HW138785   4.650   0.905   2.758
12448SOL    HW238786   4.554   1.018   2.791
12449SOL     OW38787   4.798   0.985   1.960
12449SOL    HW138788   4.775   1.042   1.886
12449SOL    HW238789   4.870   0.931   1.926
12450SOL     OW38790   5.560   1.543   2.699
12450SOL    HW138791   5.477   1.544   2.650
12450SOL    HW238792   5.536   1.506   2.784
12451SOL     OW38793   3.934   1.294   3.701
12451SOL    HW138794   3.902   1.215   3.658
12451SOL    HW238795   3.873   1.309   3.773
12452SOL     OW38796   3.816   1.215   2.531
12452SOL    HW138797   3.850   1.175   2.611
12452SOL    HW238798   3.883   1.198   2.466
12453SOL     OW38799   4.403   1.418   3.482
12453SOL    HW138800   4.330   1.372   3.523
12453SOL    HW238801   4.401   1.506   3.521
12454SOL     OW38802   5.541   0.238   3.075
12454SOL    HW138803   5.488   0.158   3.080
12454SOL    HW238804   5.567   0.244   2.983
12455SOL     OW38805   4.132   0.422   2.385
12455SOL    HW138806   4.181   0.348   2.348
12455SOL    HW238807   4.084   0.385   2.459
12456SOL     OW38808   5.439   1.454   2.930
12456SOL    HW138809   5.349   1.441   2.902
12456SOL    HW238810   5.446   1.405   3.012
12457SOL     OW38811   4.068   0.568   3.156
12457SOL    HW138812   4.116   0.504   3.208
12457SOL    HW238813   4.081   0.539   3.065
12458SOL     OW38814   4.549   1.593   2.503
12458SOL    HW138815   4.495   1.600   2.424
12458SOL    HW238816   4.499   1.537   2.562
12459SOL     OW38817   5.158   0.230   2.975
12459SOL    HW138818   5.213   0.167   3.022
12459SOL    HW238819   5.108   0.273   3.044
12460SOL     OW38820   4.737   0.074   2.997
12460SOL    HW138821   4.654   0.036   2.969
12460SOL    HW238822   4.788  -0.001   3.030
12461SOL     OW38823   4.500   1.326   2.184
12461SOL    HW138824   4.471   1.236   2.198
12461SOL    HW238825   4.581   1.332   2.234
12462SOL     OW38826   4.350   1.554   3.145
12462SOL    HW138827   4.343   1.634   3.197
12462SOL    HW238828   4.438   1.556   3.108
12463SOL     OW38829   5.063  -0.000   2.029
12463SOL    HW138830   5.015  -0.054   1.967
12463SOL    HW238831   5.018   0.084   2.028
12464SOL     OW38832   5.028   0.467   2.534
12464SOL    HW138833   4.975   0.546   2.536
12464SOL    HW238834   5.024   0.432   2.623
12465SOL     OW38835   5.332   0.220   2.735
12465SOL    HW138836   5.261   0.223   2.799
12465SOL    HW238837   5.320   0.300   2.684
12466SOL     OW38838   3.765   1.063   2.177
12466SOL    HW138839   3.860   1.060   2.164
12466SOL    HW238840   3.741   0.972   2.194
12467SOL     OW38841   4.615   1.671   2.196
12467SOL    HW138842   4.550   1.646   2.130
12467SOL    HW238843   4.577   1.749   2.238
12468SOL     OW38844   3.941   0.610   3.858
12468SOL    HW138845   3.858   0.605   3.905
12468SOL    HW238846   3.918   0.596   3.766
12469SOL     OW38847   3.954   0.291   4.704
12469SOL    HW138848   3.980   0.258   4.790
12469SOL    HW238849   3.865   0.258   4.691
12470SOL     OW38850   3.732   0.403   4.360
12470SOL    HW138851   3.645   0.428   4.393
12470SOL    HW238852   3.722   0.310   4.336
12471SOL     OW38853   4.291   1.297   4.904
12471SOL    HW138854   4.205   1.308   4.863
12471SOL    HW238855   4.309   1.381   4.947
12472SOL     OW38856   5.292   1.507   4.430
12472SOL    HW138857   5.257   1.516   4.519
12472SOL    HW238858   5.215   1.517   4.373
12473SOL     OW38859   4.865   0.697   4.418
12473SOL    HW138860   4.913   0.778   4.403
12473SOL    HW238861   4.820   0.710   4.502
12474SOL     OW38862   5.526   0.585   3.940
12474SOL    HW138863   5.489   0.582   3.852
12474SOL    HW238864   5.472   0.525   3.991
12475SOL     OW38865   4.462   1.131   4.773
12475SOL    HW138866   4.395   1.172   4.828
12475SOL    HW238867   4.510   1.205   4.735
12476SOL     OW38868   4.599   0.756   5.548
12476SOL    HW138869   4.595   0.819   5.620
12476SOL    HW238870   4.620   0.810   5.471
12477SOL     OW38871   4.412   0.986   4.365
12477SOL    HW138872   4.480   0.984   4.433
12477SOL    HW238873   4.344   1.042   4.402
12478SOL     OW38874   4.440   1.153   5.546
12478SOL    HW138875   4.486   1.228   5.582
12478SOL    HW238876   4.361   1.189   5.507
12479SOL     OW38877   4.063   1.403   4.784
12479SOL    HW138878   3.981   1.371   4.747
12479SOL    HW238879   4.095   1.467   4.721
12480SOL     OW38880   5.184   1.504   5.088
12480SOL    HW138881   5.240   1.580   5.101
12480SOL    HW238882   5.111   1.519   5.148
12481SOL     OW38883   4.173   0.378   5.183
12481SOL    HW138884   4.247   0.319   5.197
12481SOL    HW238885   4.096   0.327   5.211
12482SOL     OW38886   5.322   0.458   4.447
12482SOL    HW138887   5.237   0.463   4.404
12482SOL    HW238888   5.328   0.539   4.498
12483SOL     OW38889   3.952   1.712   4.200
12483SOL    HW138890   3.961   1.783   4.263
12483SOL    HW238891   4.002   1.741   4.124
12484SOL     OW38892   4.861   1.344   5.413
12484SOL    HW138893   4.908   1.341   5.497
12484SOL    HW238894   4.810   1.263   5.411
12485SOL     OW38895   3.945   1.445   4.271
12485SOL    HW138896   3.936   1.540   4.273
12485SOL    HW238897   3.891   1.413   4.344
12486SOL     OW38898   4.000   1.088   4.610
12486SOL    HW138899   3.992   1.001   4.648
12486SOL    HW238900   3.944   1.143   4.665
12487SOL     OW38901   4.332   1.775   5.155
12487SOL    HW138902   4.247   1.766   5.198
12487SOL    HW238903   4.359   1.865   5.174
12488SOL     OW38904   4.300   0.990   3.866
12488SOL    HW138905   4.347   1.037   3.798
12488SOL    HW238906   4.338   1.022   3.948
12489SOL     OW38907   5.383   0.116   5.225
12489SOL    HW138908   5.355   0.172   5.153
12489SOL    HW238909   5.325   0.140   5.298
12490SOL     OW38910   3.848   0.662   4.285
12490SOL    HW138911   3.813   0.576   4.309
12490SOL    HW238912   3.835   0.716   4.363
12491SOL     OW38913   5.570   1.747   4.051
12491SOL    HW138914   5.638   1.723   4.114
12491SOL    HW238915   5.583   1.841   4.036
12492SOL     OW38916   3.784   1.582   3.848
12492SOL    HW138917   3.750   1.495   3.868
12492SOL    HW238918   3.750   1.638   3.918
12493SOL     OW38919   5.403   0.900   4.345
12493SOL    HW138920   5.498   0.891   4.355
12493SOL    HW238921   5.393   0.967   4.278
12494SOL     OW38922   5.378   1.108   4.154
12494SOL    HW138923   5.465   1.106   4.114
12494SOL    HW238924   5.387   1.168   4.227
12495SOL     OW38925   3.846   0.747   5.312
12495SOL    HW138926   3.935   0.779   5.300
12495SOL    HW238927   3.795   0.826   5.329
12496SOL     OW38928   4.334   1.394   4.455
12496SOL    HW138929   4.300   1.307   4.476
12496SOL    HW238930   4.298   1.413   4.369
12497SOL     OW38931   5.003   1.226   5.142
12497SOL    HW138932   5.043   1.164   5.081
12497SOL    HW238933   5.062   1.227   5.217
12498SOL     OW38934   4.551   0.038   4.262
12498SOL    HW138935   4.603   0.113   4.232
12498SOL    HW238936   4.468   0.077   4.292
12499SOL     OW38937   3.877   0.895   4.975
12499SOL    HW138938   3.967   0.924   4.987
12499SOL    HW238939   3.824   0.975   4.984
12500SOL     OW38940   5.251   1.004   3.927
12500SOL    HW138941   5.182   0.947   3.962
12500SOL    HW238942   5.295   1.038   4.005
12501SOL     OW38943   4.904   1.823   5.351
12501SOL    HW138944   4.911   1.896   5.289
12501SOL    HW238945   4.947   1.750   5.308
12502SOL     OW38946   4.041   0.252   5.537
12502SOL    HW138947   4.117   0.304   5.563
12502SOL    HW238948   3.966   0.307   5.559
12503SOL     OW38949   5.190   1.412   4.685
12503SOL    HW138950   5.120   1.431   4.748
12503SOL    HW238951   5.172   1.322   4.656
12504SOL     OW38952   5.380   1.754   4.303
12504SOL    HW138953   5.358   1.717   4.218
12504SOL    HW238954   5.356   1.685   4.366
12505SOL     OW38955   4.325   0.713   3.999
12505SOL    HW138956   4.335   0.802   3.965
12505SOL    HW238957   4.259   0.720   4.067
12506SOL     OW38958   5.019   0.371   4.660
12506SOL    HW138959   4.927   0.344   4.658
12506SOL    HW238960   5.059   0.314   4.725
12507SOL     OW38961   5.304   1.672   4.035
12507SOL    HW138962   5.395   1.699   4.031
12507SOL    HW238963   5.279   1.654   3.944
12508SOL     OW38964   4.555   0.563   5.193
12508SOL    HW138965   4.496   0.574   5.267
12508SOL    HW238966   4.498   0.538   5.120
12509SOL     OW38967   5.141   0.496   5.409
12509SOL    HW138968   5.132   0.532   5.497
12509SOL    HW238969   5.233   0.473   5.401
12510SOL     OW38970   4.658   0.888   5.305
12510SOL    HW138971   4.723   0.828   5.268
12510SOL    HW238972   4.626   0.938   5.230
12511SOL     OW38973   4.721   0.407   4.951
12511SOL    HW138974   4.637   0.440   4.982
12511SOL    HW238975   4.706   0.388   4.858
12512SOL     OW38976   4.766   0.730   4.157
12512SOL    HW138977   4.799   0.716   4.246
12512SOL    HW238978   4.696   0.665   4.147
12513SOL     OW38979   3.808   0.829   4.497
12513SOL    HW138980   3.888   0.823   4.548
12513SOL    HW238981   3.759   0.901   4.536
12514SOL     OW38982   3.835   1.831   5.295
12514SOL    HW138983   3.839   1.820   5.390
12514SOL    HW238984   3.792   1.916   5.283
12515SOL     OW38985   4.592   0.387   3.913
12515SOL    HW138986   4.688   0.390   3.909
12515SOL    HW238987   4.571   0.294   3.920
12516SOL     OW38988   5.425   0.569   5.554
12516SOL    HW138989   5.393   0.646   5.507
12516SOL    HW238990   5.454   0.509   5.486
12517SOL     OW38991   5.106   1.141   4.256
12517SOL    HW138992   5.190   1.141   4.212
12517SOL    HW238993   5.055   1.210   4.213
12518SOL     OW38994   4.270   0.253   4.615
12518SOL    HW138995   4.246   0.249   4.708
12518SOL    HW238996   4.269   0.347   4.594
12519SOL     OW38997   4.715   1.444   4.186
12519SOL    HW138998   4.693   1.523   4.137
12519SOL    HW238999   4.688   1.463   4.276
12520SOL     OW39000   4.069   1.820   4.600
12520SOL    HW139001   4.123   1.742   4.613
12520SOL    HW239002   4.125   1.892   4.629
12521SOL     OW39003   5.512   1.018   4.600
12521SOL    HW139004   5.461   1.058   4.529
12521SOL    HW239005   5.467   1.046   4.680
12522SOL     OW39006   4.943   1.545   5.223
12522SOL    HW139007   4.927   1.473   5.285
12522SOL    HW239008   4.856   1.580   5.204
12523SOL     OW39009   4.037   0.969   3.985
12523SOL    HW139010   4.120   0.984   3.938
12523SOL    HW239011   4.010   0.881   3.960
12524SOL     OW39012   5.202   0.747   4.438
12524SOL    HW139013   5.203   0.721   4.530
12524SOL    HW239014   5.278   0.804   4.429
12525SOL     OW39015   4.196   1.256   5.457
12525SOL    HW139016   4.174   1.268   5.365
12525SOL    HW239017   4.112   1.260   5.503
12526SOL     OW39018   4.853   1.787   3.943
12526SOL    HW139019   4.779   1.752   3.992
12526SOL    HW239020   4.878   1.716   3.883
12527SOL     OW39021   3.902   0.283   5.215
12527SOL    HW139022   3.856   0.358   5.176
12527SOL    HW239023   3.895   0.297   5.309
12528SOL     OW39024   5.350   1.373   3.807
12528SOL    HW139025   5.314   1.461   3.799
12528SOL    HW239026   5.277   1.314   3.787
12529SOL     OW39027   4.204   1.750   4.018
12529SOL    HW139028   4.224   1.799   4.098
12529SOL    HW239029   4.265   1.784   3.953
12530SOL     OW39030   5.148   0.107   4.148
12530SOL    HW139031   5.152   0.112   4.053
12530SOL    HW239032   5.238   0.127   4.176
12531SOL     OW39033   3.961   1.789   4.962
12531SOL    HW139034   4.011   1.722   5.009
12531SOL    HW239035   3.964   1.762   4.870
12532SOL     OW39036   4.688   1.700   4.633
12532SOL    HW139037   4.773   1.685   4.675
12532SOL    HW239038   4.672   1.620   4.582
12533SOL     OW39039   4.121   0.689   4.187
12533SOL    HW139040   4.133   0.595   4.205
12533SOL    HW239041   4.030   0.707   4.210
12534SOL     OW39042   5.259   0.212   5.453
12534SOL    HW139043   5.268   0.233   5.546
12534SOL    HW239044   5.165   0.221   5.436
12535SOL     OW39045   4.354   0.158   3.807
12535SOL    HW139046   4.408   0.105   3.865
12535SOL    HW239047   4.303   0.095   3.757
12536SOL     OW39048   4.460   0.266   5.490
12536SOL    HW139049   4.538   0.297   5.445
12536SOL    HW239050   4.475   0.289   5.582
12537SOL     OW39051   4.594   1.512   4.911
12537SOL    HW139052   4.578   1.471   4.826
12537SOL    HW239053   4.668   1.464   4.948
12538SOL     OW39054   5.062   0.592   5.156
12538SOL    HW139055   5.101   0.572   5.242
12538SOL    HW239056   5.092   0.681   5.137
12539SOL     OW39057   4.552   1.374   4.666
12539SOL    HW139058   4.639   1.366   4.628
12539SOL    HW239059   4.494   1.382   4.590
12540SOL     OW39060   4.649   0.513   4.617
12540SOL    HW139061   4.609   0.502   4.531
12540SOL    HW239062   4.691   0.429   4.635
12541SOL     OW39063   4.253   0.016   4.152
12541SOL    HW139064   4.209   0.021   4.237
12541SOL    HW239065   4.263   0.107   4.125
12542SOL     OW39066   5.144   1.195   3.757
12542SOL    HW139067   5.178   1.126   3.814
12542SOL    HW239068   5.066   1.227   3.803
12543SOL     OW39069   4.029   0.054   3.950
12543SOL    HW139070   4.090   0.123   3.974
12543SOL    HW239071   4.046  -0.017   4.013
12544SOL     OW39072   4.685   0.265   4.189
12544SOL    HW139073   4.695   0.325   4.115
12544SOL    HW239074   4.774   0.250   4.219
12545SOL     OW39075   4.802   0.696   5.175
12545SOL    HW139076   4.733   0.630   5.186
12545SOL    HW239077   4.884   0.646   5.176
12546SOL     OW39078   4.952   1.572   4.518
12546SOL    HW139079   4.964   1.640   4.451
12546SOL    HW239080   4.996   1.607   4.595
12547SOL     OW39081   4.205   1.148   4.445
12547SOL    HW139082   4.143   1.129   4.515
12547SOL    HW239083   4.154   1.141   4.364
12548SOL     OW39084   4.983   1.788   4.332
12548SOL    HW139085   5.035   1.856   4.289
12548SOL    HW239086   4.915   1.837   4.379
12549SOL     OW39087   4.755   0.585   3.697
12549SOL    HW139088   4.794   0.673   3.701
12549SOL    HW239089   4.803   0.535   3.763
12550SOL     OW39090   3.815   0.554   5.123
12550SOL    HW139091   3.904   0.563   5.089
12550SOL    HW239092   3.804   0.628   5.182
12551SOL     OW39093   4.291   0.222   4.914
12551SOL    HW139094   4.327   0.196   4.999
12551SOL    HW239095   4.196   0.222   4.927
12552SOL     OW39096   4.556   0.438   4.366
12552SOL    HW139097   4.536   0.508   4.303
12552SOL    HW239098   4.608   0.375   4.315
12553SOL     OW39099   4.679   0.042   4.513
12553SOL    HW139100   4.641   0.039   4.425
12553SOL    HW239101   4.707  -0.048   4.530
12554SOL     OW39102   5.171   1.151   4.587
12554SOL    HW139103   5.098   1.089   4.586
12554SOL    HW239104   5.190   1.168   4.495
12555SOL     OW39105   5.183   0.613   4.684
12555SOL    HW139106   5.129   0.534   4.688
12555SOL    HW239107   5.242   0.605   4.760
12556SOL     OW39108   5.567   0.803   4.100
12556SOL    HW139109   5.624   0.759   4.164
12556SOL    HW239110   5.548   0.735   4.035
12557SOL     OW39111   5.404   1.257   4.375
12557SOL    HW139112   5.499   1.261   4.389
12557SOL    HW239113   5.373   1.345   4.397
12558SOL     OW39114   5.126   0.585   3.795
12558SOL    HW139115   5.061   0.531   3.839
12558SOL    HW239116   5.203   0.582   3.852
12559SOL     OW39117   4.219   0.266   4.015
12559SOL    HW139118   4.276   0.234   3.945
12559SOL    HW239119   4.198   0.356   3.990
12560SOL     OW39120   5.468   1.220   5.266
12560SOL    HW139121   5.558   1.190   5.254
12560SOL    HW239122   5.477   1.310   5.299
12561SOL     OW39123   4.778   1.335   5.034
12561SOL    HW139124   4.702   1.320   5.090
12561SOL    HW239125   4.853   1.306   5.086
12562SOL     OW39126   5.313   1.613   5.382
12562SOL    HW139127   5.320   1.655   5.296
12562SOL    HW239128   5.394   1.564   5.391
12563SOL     OW39129   4.836   1.180   4.814
12563SOL    HW139130   4.809   1.235   4.887
12563SOL    HW239131   4.829   1.236   4.737
12564SOL     OW39132   5.349   1.100   4.807
12564SOL    HW139133   5.343   1.168   4.874
12564SOL    HW239134   5.278   1.121   4.745
12565SOL     OW39135   4.649   0.095   5.121
12565SOL    HW139136   4.675   0.102   5.029
12565SOL    HW239137   4.704   0.160   5.165
12566SOL     OW39138   4.708   1.116   5.451
12566SOL    HW139139   4.620   1.142   5.479
12566SOL    HW239140   4.694   1.038   5.397
12567SOL     OW39141   4.436   1.062   4.096
12567SOL    HW139142   4.423   1.041   4.189
12567SOL    HW239143   4.506   1.003   4.068
12568SOL     OW39144   4.167   0.820   4.967
12568SOL    HW139145   4.228   0.824   5.041
12568SOL    HW239146   4.109   0.746   4.988
12569SOL     OW39147   4.990   0.380   4.998
12569SOL    HW139148   5.021   0.459   5.042
12569SOL    HW239149   4.899   0.399   4.976
12570SOL     OW39150   3.788   1.582   5.080
12570SOL    HW139151   3.795   1.678   5.076
12570SOL    HW239152   3.877   1.551   5.067
12571SOL     OW39153   4.052   1.129   4.216
12571SOL    HW139154   4.049   1.208   4.163
12571SOL    HW239155   4.051   1.057   4.153
12572SOL     OW39156   4.274   0.521   4.572
12572SOL    HW139157   4.283   0.580   4.498
12572SOL    HW239158   4.333   0.556   4.639
12573SOL     OW39159   4.969   1.356   4.117
12573SOL    HW139160   5.025   1.427   4.149
12573SOL    HW239161   4.883   1.375   4.153
12574SOL     OW39162   5.007   1.462   4.887
12574SOL    HW139163   5.073   1.475   4.955
12574SOL    HW239164   4.931   1.428   4.933
12575SOL     OW39165   5.308   0.646   4.195
12575SOL    HW139166   5.250   0.671   4.268
12575SOL    HW239167   5.365   0.721   4.182
12576SOL     OW39168   4.060   1.525   5.027
12576SOL    HW139169   4.054   1.477   4.945
12576SOL    HW239170   4.154   1.539   5.040
12577SOL     OW39171   4.159   0.731   5.343
12577SOL    HW139172   4.199   0.785   5.275
12577SOL    HW239173   4.228   0.670   5.370
12578SOL     OW39174   5.331   0.772   5.404
12578SOL    HW139175   5.246   0.816   5.400
12578SOL    HW239176   5.385   0.818   5.341
12579SOL     OW39177   4.759   0.071   5.453
12579SOL    HW139178   4.825   0.128   5.494
12579SOL    HW239179   4.725   0.122   5.380
12580SOL     OW39180   4.100  -0.008   5.456
12580SOL    HW139181   4.165  -0.040   5.394
12580SOL    HW239182   4.123   0.083   5.471
12581SOL     OW39183   4.313   0.881   4.748
12581SOL    HW139184   4.349   0.969   4.753
12581SOL    HW239185   4.259   0.872   4.826
12582SOL     OW39186   5.058   0.857   4.727
12582SOL    HW139187   4.967   0.839   4.702
12582SOL    HW239188   5.103   0.773   4.718
12583SOL     OW39189   4.021   0.201   4.957
12583SOL    HW139190   3.972   0.230   5.034
12583SOL    HW239191   3.996   0.110   4.946
12584SOL     OW39192   4.428   0.631   4.763
12584SOL    HW139193   4.514   0.630   4.720
12584SOL    HW239194   4.399   0.722   4.756
12585SOL     OW39195   5.473   0.950   5.588
12585SOL    HW139196   5.412   0.900   5.534
12585SOL    HW239197   5.419   0.986   5.658
12586SOL     OW39198   4.114   0.052   4.391
12586SOL    HW139199   4.083   0.140   4.409
12586SOL    HW239200   4.057  -0.005   4.445
12587SOL     OW39201   5.354   0.409   4.074
12587SOL    HW139202   5.364   0.341   4.141
12587SOL    HW239203   5.327   0.487   4.122
12588SOL     OW39204   4.759   0.756   4.676
12588SOL    HW139205   4.746   0.773   4.769
12588SOL    HW239206   4.724   0.668   4.662
12589SOL     OW39207   4.703   1.564   5.450
12589SOL    HW139208   4.691   1.611   5.367
12589SOL    HW239209   4.746   1.482   5.426
12590SOL     OW39210   5.551   1.467   5.329
12590SOL    HW139211   5.595   1.521   5.263
12590SOL    HW239212   5.585   1.500   5.412
12591SOL     OW39213   4.072   0.887   5.562
12591SOL    HW139214   4.151   0.932   5.592
12591SOL    HW239215   4.101   0.838   5.485
12592SOL     OW39216   5.317   0.266   3.845
12592SOL    HW139217   5.290   0.183   3.886
12592SOL    HW239218   5.325   0.327   3.918
12593SOL     OW39219   4.983   0.809   3.731
12593SOL    HW139220   5.041   0.736   3.753
12593SOL    HW239221   5.028   0.854   3.660
12594SOL     OW39222   4.803   1.342   4.578
12594SOL    HW139223   4.813   1.274   4.512
12594SOL    HW239224   4.864   1.411   4.549
12595SOL     OW39225   4.039   0.809   4.654
12595SOL    HW139226   4.131   0.836   4.660
12595SOL    HW239227   4.032   0.732   4.711
12596SOL     OW39228   4.061   0.535   4.744
12596SOL    HW139229   4.017   0.452   4.726
12596SOL    HW239230   4.131   0.540   4.680
12597SOL     OW39231   4.878   0.431   5.386
12597SOL    HW139232   4.836   0.476   5.460
12597SOL    HW239233   4.968   0.462   5.387
12598SOL     OW39234   4.918   0.221   5.207
12598SOL    HW139235   4.906   0.287   5.275
12598SOL    HW239236   4.940   0.271   5.128
12599SOL     OW39237   3.744   1.307   3.902
12599SOL    HW139238   3.654   1.324   3.873
12599SOL    HW239239   3.739   1.222   3.947
12600SOL     OW39240   3.803   1.775   4.657
12600SOL    HW139241   3.782   1.696   4.607
12600SOL    HW239242   3.894   1.795   4.632
12601SOL     OW39243   4.215   1.581   4.627
12601SOL    HW139244   4.284   1.646   4.641
12601SOL    HW239245   4.258   1.511   4.578
12602SOL     OW39246   4.695   0.781   4.937
12602SOL    HW139247   4.751   0.757   5.010
12602SOL    HW239248   4.621   0.828   4.977
12603SOL     OW39249   3.766   0.539   4.845
12603SOL    HW139250   3.841   0.570   4.795
12603SOL    HW239251   3.788   0.558   4.936
12604SOL     OW39252   3.918   0.513   5.433
12604SOL    HW139253   4.008   0.531   5.406
12604SOL    HW239254   3.867   0.585   5.397
12605SOL     OW39255   5.108   0.924   5.374
12605SOL    HW139256   5.127   1.018   5.377
12605SOL    HW239257   5.101   0.903   5.281
12606SOL     OW39258   4.540   0.570   4.115
12606SOL    HW139259   4.545   0.501   4.049
12606SOL    HW239260   4.466   0.624   4.089
12607SOL     OW39261   5.359   0.595   4.892
12607SOL    HW139262   5.349   0.549   4.975
12607SOL    HW239263   5.448   0.576   4.864
12608SOL     OW39264   3.968   1.551   5.440
12608SOL    HW139265   3.945   1.627   5.494
12608SOL    HW239266   3.975   1.479   5.503
12609SOL     OW39267   4.439   0.460   4.971
12609SOL    HW139268   4.377   0.390   4.951
12609SOL    HW239269   4.426   0.524   4.901
12610SOL     OW39270   4.683   1.663   5.185
12610SOL    HW139271   4.624   1.636   5.115
12610SOL    HW239272   4.680   1.759   5.183
12611SOL     OW39273   4.193   0.507   3.879
12611SOL    HW139274   4.241   0.578   3.921
12611SOL    HW239275   4.103   0.539   3.874
12612SOL     OW39276   3.925   1.110   5.222
12612SOL    HW139277   3.880   1.075   5.299
12612SOL    HW239278   3.855   1.131   5.161
12613SOL     OW39279   5.038   1.034   4.934
12613SOL    HW139280   5.061   0.976   4.861
12613SOL    HW239281   4.967   1.088   4.901
12614SOL     OW39282   5.037   0.853   4.017
12614SOL    HW139283   4.976   0.824   4.084
12614SOL    HW239284   4.994   0.831   3.934
12615SOL     OW39285   5.527   1.706   4.899
12615SOL    HW139286   5.554   1.764   4.828
12615SOL    HW239287   5.482   1.633   4.855
12616SOL     OW39288   4.953   1.728   4.787
12616SOL    HW139289   5.021   1.794   4.803
12616SOL    HW239290   4.984   1.651   4.835
12617SOL     OW39291   3.825   1.258   4.728
12617SOL    HW139292   3.806   1.242   4.820
12617SOL    HW239293   3.740   1.257   4.685
12618SOL     OW39294   4.393   1.674   5.468
12618SOL    HW139295   4.327   1.744   5.472
12618SOL    HW239296   4.464   1.711   5.415
12619SOL     OW39297   5.410   0.162   4.207
12619SOL    HW139298   5.490   0.160   4.155
12619SOL    HW239299   5.437   0.129   4.293
12620SOL     OW39300   5.109   1.572   4.208
12620SOL    HW139301   5.172   1.610   4.147
12620SOL    HW239302   5.063   1.647   4.245
12621SOL     OW39303   3.876   1.781   5.564
12621SOL    HW139304   3.821   1.721   5.615
12621SOL    HW239305   3.919   1.836   5.629
12622SOL     OW39306   5.002   0.928   4.385
12622SOL    HW139307   5.077   0.871   4.400
12622SOL    HW239308   5.037   1.001   4.334
12623SOL     OW39309   4.524   1.281   5.151
12623SOL    HW139310   4.502   1.322   5.235
12623SOL    HW239311   4.456   1.310   5.091
12624SOL     OW39312   4.351   1.553   3.840
12624SOL    HW139313   4.360   1.608   3.762
12624SOL    HW239314   4.415   1.483   3.827
12625SOL     OW39315   5.355   1.717   5.123
12625SOL    HW139316   5.406   1.720   5.042
12625SOL    HW239317   5.333   1.809   5.141
12626SOL     OW39318   5.572   0.178   4.678
12626SOL    HW139319   5.572   0.083   4.672
12626SOL    HW239320   5.487   0.205   4.645
12627SOL     OW39321   3.981   0.294   4.432
12627SOL    HW139322   3.906   0.348   4.409
12627SOL    HW239323   3.986   0.300   4.528
12628SOL     OW39324   4.934   1.592   3.761
12628SOL    HW139325   4.920   1.502   3.791
12628SOL    HW239326   4.864   1.607   3.698
12629SOL     OW39327   4.557   1.018   5.080
12629SOL    HW139328   4.582   1.038   4.990
12629SOL    HW239329   4.543   1.104   5.120
12630SOL     OW39330   4.620   0.893   3.989
12630SOL    HW139331   4.686   0.934   3.933
12630SOL    HW239332   4.671   0.843   4.053
12631SOL     OW39333   5.214   1.620   3.770
12631SOL    HW139334   5.119   1.615   3.758
12631SOL    HW239335   5.249   1.629   3.682
12632SOL     OW39336   4.112   1.307   5.208
12632SOL    HW139337   4.075   1.381   5.160
12632SOL    HW239338   4.045   1.239   5.203
12633SOL     OW39339   5.339   1.293   5.006
12633SOL    HW139340   5.389   1.272   5.084
12633SOL    HW239341   5.277   1.360   5.034
12634SOL     OW39342   4.791   1.113   4.427
12634SOL    HW139343   4.720   1.066   4.471
12634SOL    HW239344   4.856   1.045   4.408
12635SOL     OW39345   4.760   0.263   4.668
12635SOL    HW139346   4.740   0.206   4.593
12635SOL    HW239347   4.762   0.204   4.743
12636SOL     OW39348   4.310   1.495   4.177
12636SOL    HW139349   4.394   1.454   4.155
12636SOL    HW239350   4.335   1.574   4.225
12637SOL     OW39351   5.450   0.414   5.107
12637SOL    HW139352   5.521   0.478   5.114
12637SOL    HW239353   5.484   0.348   5.047
12638SOL     OW39354   3.995   1.370   4.025
12638SOL    HW139355   3.911   1.350   3.983
12638SOL    HW239356   3.972   1.394   4.114
12639SOL     OW39357   3.831   0.995   5.458
12639SOL    HW139358   3.755   0.986   5.515
12639SOL    HW239359   3.905   0.966   5.511
12640SOL     OW39360   4.386   0.204   5.211
12640SOL    HW139361   4.465   0.158   5.184
12640SOL    HW239362   4.400   0.223   5.303
12641SOL     OW39363   3.797   0.325   3.748
12641SOL    HW139364   3.703   0.333   3.764
12641SOL    HW239365   3.820   0.403   3.698
12642SOL     OW39366   5.143   0.852   5.110
12642SOL    HW139367   5.093   0.914   5.058
12642SOL    HW239368   5.233   0.862   5.079
12643SOL     OW39369   3.764   0.147   3.992
12643SOL    HW139370   3.779   0.234   3.954
12643SOL    HW239371   3.850   0.104   3.988
12644SOL     OW39372   4.907   1.321   3.852
12644SOL    HW139373   4.837   1.258   3.863
12644SOL    HW239374   4.937   1.340   3.941
12645SOL     OW39375   4.358   0.828   5.163
12645SOL    HW139376   4.398   0.913   5.143
12645SOL    HW239377   4.430   0.775   5.196
12646SOL     OW39378   5.277   1.736   4.624
12646SOL    HW139379   5.290   1.810   4.564
12646SOL    HW239380   5.249   1.777   4.706
12647SOL     OW39381   4.415   0.588   5.425
12647SOL    HW139382   4.469   0.649   5.474
12647SOL    HW239383   4.401   0.515   5.485
12648SOL     OW39384   5.194   1.183   5.348
12648SOL    HW139385   5.176   1.206   5.439
12648SOL    HW239386   5.285   1.210   5.334
12649SOL     OW39387   4.090   1.739   5.275
12649SOL    HW139388   4.006   1.782   5.262
12649SOL    HW239389   4.068   1.657   5.321
12650SOL     OW39390   5.385   0.883   4.977
12650SOL    HW139391   5.381   0.804   4.923
12650SOL    HW239392   5.376   0.955   4.915
12651SOL     OW39393   4.939   0.241   4.268
12651SOL    HW139394   5.011   0.200   4.220
12651SOL    HW239395   4.976   0.324   4.300
12652SOL     OW39396   4.313   0.722   4.388
12652SOL    HW139397   4.351   0.809   4.385
12652SOL    HW239398   4.244   0.723   4.323
12653SOL     OW39399   5.473   0.373   5.376
12653SOL    HW139400   5.465   0.385   5.281
12653SOL    HW239401   5.410   0.304   5.396
12654SOL     OW39402   5.471   0.931   5.237
12654SOL    HW139403   5.457   1.023   5.255
12654SOL    HW239404   5.453   0.921   5.143
12655SOL     OW39405   4.556   1.383   3.762
12655SOL    HW139406   4.586   1.386   3.853
12655SOL    HW239407   4.609   1.450   3.717
12656SOL     OW39408   4.395   1.786   4.619
12656SOL    HW139409   4.362   1.876   4.623
12656SOL    HW239410   4.481   1.790   4.661
12657SOL     OW39411   4.598   0.975   4.574
12657SOL    HW139412   4.651   0.906   4.614
12657SOL    HW239413   4.556   1.019   4.648
12658SOL     OW39414   4.793   0.991   3.806
12658SOL    HW139415   4.773   1.040   3.726
12658SOL    HW239416   4.865   0.933   3.780
12659SOL     OW39417   5.564   1.547   4.567
12659SOL    HW139418   5.485   1.562   4.514
12659SOL    HW239419   5.530   1.516   4.651
12660SOL     OW39420   3.955   1.302   5.579
12660SOL    HW139421   3.884   1.267   5.526
12660SOL    HW239422   3.918   1.312   5.667
12661SOL     OW39423   3.819   1.216   4.395
12661SOL    HW139424   3.835   1.183   4.483
12661SOL    HW239425   3.890   1.180   4.342
12662SOL     OW39426   4.415   1.412   5.364
12662SOL    HW139427   4.331   1.374   5.390
12662SOL    HW239428   4.411   1.502   5.397
12663SOL     OW39429   5.557   0.222   4.954
12663SOL    HW139430   5.489   0.156   4.952
12663SOL    HW239431   5.578   0.238   4.862
12664SOL     OW39432   4.145   0.427   4.244
12664SOL    HW139433   4.186   0.354   4.197
12664SOL    HW239434   4.097   0.385   4.315
12665SOL     OW39435   5.435   1.461   4.794
12665SOL    HW139436   5.348   1.460   4.754
12665SOL    HW239437   5.425   1.409   4.874
12666SOL     OW39438   4.061   0.566   5.020
12666SOL    HW139439   4.115   0.504   5.069
12666SOL    HW239440   4.078   0.545   4.928
12667SOL     OW39441   4.549   1.571   4.381
12667SOL    HW139442   4.539   1.666   4.386
12667SOL    HW239443   4.475   1.536   4.430
12668SOL     OW39444   5.150   0.211   4.843
12668SOL    HW139445   5.215   0.164   4.895
12668SOL    HW239446   5.099   0.261   4.907
12669SOL     OW39447   4.738   0.068   4.853
12669SOL    HW139448   4.654   0.032   4.827
12669SOL    HW239449   4.788  -0.008   4.883
12670SOL     OW39450   4.511   1.330   4.042
12670SOL    HW139451   4.486   1.239   4.062
12670SOL    HW239452   4.587   1.346   4.098
12671SOL     OW39453   4.342   1.546   5.011
12671SOL    HW139454   4.340   1.627   5.063
12671SOL    HW239455   4.430   1.545   4.973
12672SOL     OW39456   5.095   8.012   3.868
12672SOL    HW139457   5.153   7.938   3.885
12672SOL    HW239458   5.021   8.000   3.928
12673SOL     OW39459   5.040   0.465   4.400
12673SOL    HW139460   4.989   0.546   4.395
12673SOL    HW239461   5.030   0.437   4.491
12674SOL     OW39462   5.322   0.231   4.597
12674SOL    HW139463   5.246   0.240   4.654
12674SOL    HW239464   5.318   0.308   4.540
12675SOL     OW39465   3.770   1.061   4.025
12675SOL    HW139466   3.864   1.053   4.012
12675SOL    HW239467   3.741   0.972   4.047
12676SOL     OW39468   4.611   1.665   4.054
12676SOL    HW139469   4.539   1.673   3.992
12676SOL    HW239470   4.594   1.730   4.121
12677SOL     OW39471   3.936   0.594   5.721
12677SOL    HW139472   3.850   0.599   5.762
12677SOL    HW239473   3.921   0.627   5.632
12678SOL     OW39474   3.951   0.299   6.569
12678SOL    HW139475   3.981   0.261   6.651
12678SOL    HW239476   3.866   0.259   6.553
12679SOL     OW39477   3.731   0.400   6.220
12679SOL    HW139478   3.645   0.426   6.255
12679SOL    HW239479   3.713   0.320   6.171
12680SOL     OW39480   4.286   1.290   6.766
12680SOL    HW139481   4.205   1.317   6.722
12680SOL    HW239482   4.318   1.370   6.807
12681SOL     OW39483   5.281   1.506   6.291
12681SOL    HW139484   5.231   1.499   6.372
12681SOL    HW239485   5.215   1.515   6.222
12682SOL     OW39486   4.859   0.692   6.278
12682SOL    HW139487   4.906   0.773   6.258
12682SOL    HW239488   4.816   0.710   6.362
12683SOL     OW39489   5.533   0.574   5.800
12683SOL    HW139490   5.492   0.583   5.713
12683SOL    HW239491   5.475   0.514   5.847
12684SOL     OW39492   4.456   1.114   6.648
12684SOL    HW139493   4.393   1.164   6.700
12684SOL    HW239494   4.496   1.179   6.590
12685SOL     OW39495   4.599   0.753   7.400
12685SOL    HW139496   4.593   0.820   7.469
12685SOL    HW239497   4.618   0.803   7.321
12686SOL     OW39498   4.407   0.984   6.235
12686SOL    HW139499   4.476   0.987   6.301
12686SOL    HW239500   4.342   1.047   6.266
12687SOL     OW39501   4.441   1.160   7.417
12687SOL    HW139502   4.488   1.237   7.449
12687SOL    HW239503   4.364   1.195   7.373
12688SOL     OW39504   4.063   1.412   6.651
12688SOL    HW139505   3.987   1.380   6.602
12688SOL    HW239506   4.108   1.470   6.589
12689SOL     OW39507   5.180   1.498   6.953
12689SOL    HW139508   5.231   1.578   6.960
12689SOL    HW239509   5.104   1.512   7.010
12690SOL     OW39510   4.171   0.378   7.049
12690SOL    HW139511   4.248   0.323   7.061
12690SOL    HW239512   4.097   0.320   7.069
12691SOL     OW39513   5.332   0.458   6.314
12691SOL    HW139514   5.259   0.471   6.254
12691SOL    HW239515   5.329   0.534   6.372
12692SOL     OW39516   3.956   1.707   6.047
12692SOL    HW139517   3.971   1.781   6.107
12692SOL    HW239518   4.032   1.706   5.990
12693SOL     OW39519   4.862   1.341   7.275
12693SOL    HW139520   4.901   1.333   7.363
12693SOL    HW239521   4.813   1.260   7.264
12694SOL     OW39522   3.923   1.450   6.135
12694SOL    HW139523   3.936   1.542   6.109
12694SOL    HW239524   3.889   1.455   6.224
12695SOL     OW39525   3.977   1.094   6.457
12695SOL    HW139526   3.986   1.007   6.497
12695SOL    HW239527   3.928   1.145   6.521
12696SOL     OW39528   4.326   1.777   7.029
12696SOL    HW139529   4.239   1.769   7.067
12696SOL    HW239530   4.350   1.869   7.044
12697SOL     OW39531   4.306   0.991   5.731
12697SOL    HW139532   4.352   1.039   5.662
12697SOL    HW239533   4.346   1.022   5.813
12698SOL     OW39534   5.398   0.112   7.082
12698SOL    HW139535   5.347   0.140   7.006
12698SOL    HW239536   5.345   0.138   7.158
12699SOL     OW39537   3.847   0.658   6.147
12699SOL    HW139538   3.813   0.572   6.171
12699SOL    HW239539   3.836   0.711   6.226
12700SOL     OW39540   5.551   1.766   5.952
12700SOL    HW139541   5.634   1.727   5.980
12700SOL    HW239542   5.576   1.847   5.908
12701SOL     OW39543   3.758   1.586   5.710
12701SOL    HW139544   3.744   1.496   5.738
12701SOL    HW239545   3.738   1.639   5.788
12702SOL     OW39546   5.403   0.905   6.204
12702SOL    HW139547   5.491   0.883   6.176
12702SOL    HW239548   5.375   0.975   6.145
12703SOL     OW39549   5.359   1.111   6.021
12703SOL    HW139550   5.446   1.101   5.982
12703SOL    HW239551   5.370   1.174   6.092
12704SOL     OW39552   3.837   0.753   7.171
12704SOL    HW139553   3.922   0.798   7.174
12704SOL    HW239554   3.773   0.824   7.164
12705SOL     OW39555   4.327   1.401   6.304
12705SOL    HW139556   4.288   1.314   6.311
12705SOL    HW239557   4.310   1.427   6.213
12706SOL     OW39558   5.014   1.189   7.041
12706SOL    HW139559   5.048   1.148   6.961
12706SOL    HW239560   5.090   1.197   7.098
12707SOL     OW39561   4.566   0.035   6.136
12707SOL    HW139562   4.612   0.111   6.100
12707SOL    HW239563   4.478   0.067   6.155
12708SOL     OW39564   3.905   0.949   6.881
12708SOL    HW139565   3.994   0.917   6.862
12708SOL    HW239566   3.862   0.951   6.795
12709SOL     OW39567   5.257   1.001   5.784
12709SOL    HW139568   5.193   0.940   5.821
12709SOL    HW239569   5.293   1.047   5.860
12710SOL     OW39570   4.911   1.823   7.221
12710SOL    HW139571   4.909   1.893   7.155
12710SOL    HW239572   4.923   1.743   7.171
12711SOL     OW39573   4.035   0.225   7.366
12711SOL    HW139574   4.098   0.295   7.385
12711SOL    HW239575   3.957   0.249   7.416
12712SOL     OW39576   5.192   1.414   6.553
12712SOL    HW139577   5.116   1.440   6.605
12712SOL    HW239578   5.171   1.327   6.519
12713SOL     OW39579   5.389   1.760   6.187
12713SOL    HW139580   5.418   1.737   6.099
12713SOL    HW239581   5.342   1.682   6.218
12714SOL     OW39582   4.318   0.719   5.858
12714SOL    HW139583   4.324   0.806   5.820
12714SOL    HW239584   4.252   0.728   5.928
12715SOL     OW39585   5.023   0.369   6.520
12715SOL    HW139586   4.931   0.344   6.518
12715SOL    HW239587   5.062   0.311   6.586
12716SOL     OW39588   5.300   1.660   5.893
12716SOL    HW139589   5.391   1.690   5.890
12716SOL    HW239590   5.275   1.649   5.801
12717SOL     OW39591   4.546   0.583   7.053
12717SOL    HW139592   4.484   0.588   7.126
12717SOL    HW239593   4.494   0.549   6.980
12718SOL     OW39594   5.141   0.495   7.263
12718SOL    HW139595   5.135   0.539   7.348
12718SOL    HW239596   5.225   0.451   7.264
12719SOL     OW39597   4.657   0.893   7.162
12719SOL    HW139598   4.722   0.832   7.127
12719SOL    HW239599   4.627   0.942   7.085
12720SOL     OW39600   4.720   0.410   6.817
12720SOL    HW139601   4.635   0.446   6.843
12720SOL    HW239602   4.709   0.390   6.724
12721SOL     OW39603   4.775   0.688   6.010
12721SOL    HW139604   4.795   0.689   6.104
12721SOL    HW239605   4.689   0.648   6.004
12722SOL     OW39606   3.806   0.816   6.365
12722SOL    HW139607   3.890   0.820   6.411
12722SOL    HW239608   3.753   0.884   6.407
12723SOL     OW39609   3.827   1.831   7.152
12723SOL    HW139610   3.829   1.821   7.247
12723SOL    HW239611   3.802   1.923   7.138
12724SOL     OW39612   4.594   0.351   5.760
12724SOL    HW139613   4.661   0.398   5.710
12724SOL    HW239614   4.623   0.260   5.761
12725SOL     OW39615   5.432   0.574   7.419
12725SOL    HW139616   5.400   0.650   7.370
12725SOL    HW239617   5.459   0.512   7.351
12726SOL     OW39618   5.095   1.139   6.118
12726SOL    HW139619   5.178   1.141   6.071
12726SOL    HW239620   5.043   1.209   6.078
12727SOL     OW39621   4.273   0.249   6.501
12727SOL    HW139622   4.258   0.260   6.595
12727SOL    HW239623   4.274   0.338   6.466
12728SOL     OW39624   4.713   1.445   6.048
12728SOL    HW139625   4.691   1.522   5.996
12728SOL    HW239626   4.684   1.466   6.137
12729SOL     OW39627   4.075   1.822   6.472
12729SOL    HW139628   4.132   1.745   6.475
12729SOL    HW239629   4.135   1.897   6.485
12730SOL     OW39630   5.520   1.024   6.456
12730SOL    HW139631   5.468   1.051   6.381
12730SOL    HW239632   5.466   1.047   6.532
12731SOL     OW39633   4.946   1.540   7.091
12731SOL    HW139634   4.928   1.465   7.147
12731SOL    HW239635   4.868   1.550   7.038
12732SOL     OW39636   4.042   0.969   5.840
12732SOL    HW139637   4.130   0.994   5.812
12732SOL    HW239638   4.013   0.907   5.773
12733SOL     OW39639   5.205   0.745   6.299
12733SOL    HW139640   5.204   0.720   6.392
12733SOL    HW239641   5.279   0.805   6.291
12734SOL     OW39642   4.188   1.258   7.329
12734SOL    HW139643   4.165   1.266   7.237
12734SOL    HW239644   4.105   1.261   7.376
12735SOL     OW39645   4.855   1.780   5.815
12735SOL    HW139646   4.775   1.746   5.855
12735SOL    HW239647   4.877   1.716   5.747
12736SOL     OW39648   3.908   0.264   7.084
12736SOL    HW139649   3.857   0.341   7.059
12736SOL    HW239650   3.912   0.268   7.179
12737SOL     OW39651   5.366   1.340   5.693
12737SOL    HW139652   5.383   1.433   5.675
12737SOL    HW239653   5.278   1.326   5.659
12738SOL     OW39654   4.203   1.722   5.915
12738SOL    HW139655   4.238   1.790   5.972
12738SOL    HW239656   4.269   1.714   5.845
12739SOL     OW39657   5.147   0.121   6.008
12739SOL    HW139658   5.149   0.085   5.919
12739SOL    HW239659   5.238   0.147   6.024
12740SOL     OW39660   3.969   1.783   6.814
12740SOL    HW139661   4.032   1.721   6.851
12740SOL    HW239662   3.982   1.775   6.719
12741SOL     OW39663   4.657   1.707   6.472
12741SOL    HW139664   4.656   1.660   6.555
12741SOL    HW239665   4.633   1.641   6.407
12742SOL     OW39666   4.125   0.684   6.058
12742SOL    HW139667   4.137   0.591   6.078
12742SOL    HW239668   4.032   0.700   6.073
12743SOL     OW39669   5.275   0.205   7.311
12743SOL    HW139670   5.282   0.239   7.400
12743SOL    HW239671   5.182   0.182   7.302
12744SOL     OW39672   4.293   0.092   5.696
12744SOL    HW139673   4.373   0.079   5.747
12744SOL    HW239674   4.314   0.058   5.609
12745SOL     OW39675   4.430   0.310   7.346
12745SOL    HW139676   4.522   0.307   7.320
12745SOL    HW239677   4.429   0.281   7.437
12746SOL     OW39678   5.060   0.590   7.016
12746SOL    HW139679   5.098   0.568   7.101
12746SOL    HW239680   5.090   0.679   6.998
12747SOL     OW39681   4.540   1.318   6.494
12747SOL    HW139682   4.579   1.390   6.545
12747SOL    HW239683   4.486   1.362   6.429
12748SOL     OW39684   4.651   0.511   6.482
12748SOL    HW139685   4.617   0.507   6.392
12748SOL    HW239686   4.691   0.425   6.496
12749SOL     OW39687   4.288   0.022   6.005
12749SOL    HW139688   4.237   0.009   6.085
12749SOL    HW239689   4.279   0.116   5.987
12750SOL     OW39690   5.130   1.198   5.614
12750SOL    HW139691   5.168   1.136   5.676
12750SOL    HW239692   5.053   1.234   5.659
12751SOL     OW39693   4.035   0.025   5.778
12751SOL    HW139694   4.125   0.052   5.756
12751SOL    HW239695   4.044  -0.021   5.862
12752SOL     OW39696   4.677   0.267   6.044
12752SOL    HW139697   4.640   0.314   5.969
12752SOL    HW239698   4.771   0.284   6.040
12753SOL     OW39699   4.804   0.697   7.046
12753SOL    HW139700   4.732   0.633   7.048
12753SOL    HW239701   4.883   0.644   7.038
12754SOL     OW39702   4.968   1.558   6.366
12754SOL    HW139703   4.971   1.627   6.300
12754SOL    HW239704   4.966   1.605   6.450
12755SOL     OW39705   4.196   1.152   6.301
12755SOL    HW139706   4.128   1.137   6.366
12755SOL    HW239707   4.152   1.145   6.217
12756SOL     OW39708   4.986   1.787   6.199
12756SOL    HW139709   5.031   1.853   6.146
12756SOL    HW239710   4.914   1.835   6.241
12757SOL     OW39711   4.757   0.532   5.610
12757SOL    HW139712   4.707   0.612   5.593
12757SOL    HW239713   4.810   0.553   5.687
12758SOL     OW39714   3.822   0.553   6.989
12758SOL    HW139715   3.912   0.560   6.956
12758SOL    HW239716   3.812   0.626   7.050
12759SOL     OW39717   4.293   0.227   6.786
12759SOL    HW139718   4.330   0.200   6.870
12759SOL    HW239719   4.199   0.221   6.799
12760SOL     OW39720   4.571   0.459   6.224
12760SOL    HW139721   4.541   0.518   6.155
12760SOL    HW239722   4.601   0.381   6.178
12761SOL     OW39723   4.699   0.036   6.374
12761SOL    HW139724   4.655   0.037   6.289
12761SOL    HW239725   4.709  -0.057   6.395
12762SOL     OW39726   5.162   1.158   6.449
12762SOL    HW139727   5.067   1.161   6.445
12762SOL    HW239728   5.190   1.169   6.358
12763SOL     OW39729   5.187   0.608   6.543
12763SOL    HW139730   5.129   0.531   6.548
12763SOL    HW239731   5.241   0.602   6.622
12764SOL     OW39732   5.576   0.779   5.976
12764SOL    HW139733   5.636   0.733   6.035
12764SOL    HW239734   5.560   0.716   5.905
12765SOL     OW39735   4.210   1.416   5.734
12765SOL    HW139736   4.141   1.393   5.795
12765SOL    HW239737   4.183   1.376   5.651
12766SOL     OW39738   5.397   1.254   6.247
12766SOL    HW139739   5.492   1.264   6.253
12766SOL    HW239740   5.363   1.343   6.261
12767SOL     OW39741   5.115   0.574   5.666
12767SOL    HW139742   5.050   0.560   5.735
12767SOL    HW239743   5.197   0.588   5.714
12768SOL     OW39744   4.227   0.274   5.893
12768SOL    HW139745   4.250   0.217   5.820
12768SOL    HW239746   4.215   0.360   5.854
12769SOL     OW39747   5.477   1.246   7.138
12769SOL    HW139748   5.565   1.211   7.122
12769SOL    HW239749   5.492   1.335   7.169
12770SOL     OW39750   4.813   1.316   6.911
12770SOL    HW139751   4.729   1.315   6.956
12770SOL    HW239752   4.874   1.275   6.972
12771SOL     OW39753   5.339   1.621   7.251
12771SOL    HW139754   5.324   1.660   7.166
12771SOL    HW239755   5.423   1.576   7.242
12772SOL     OW39756   4.838   1.167   6.681
12772SOL    HW139757   4.814   1.231   6.749
12772SOL    HW239758   4.846   1.219   6.601
12773SOL     OW39759   5.347   1.098   6.661
12773SOL    HW139760   5.338   1.166   6.728
12773SOL    HW239761   5.275   1.115   6.601
12774SOL     OW39762   4.649   0.128   6.983
12774SOL    HW139763   4.663   0.119   6.889
12774SOL    HW239764   4.737   0.124   7.021
12775SOL     OW39765   4.707   1.112   7.319
12775SOL    HW139766   4.617   1.138   7.341
12775SOL    HW239767   4.696   1.040   7.258
12776SOL     OW39768   4.436   1.056   5.964
12776SOL    HW139769   4.422   1.037   6.057
12776SOL    HW239770   4.510   1.000   5.939
12777SOL     OW39771   4.148   0.824   6.844
12777SOL    HW139772   4.220   0.833   6.906
12777SOL    HW239773   4.115   0.736   6.858
12778SOL     OW39774   4.989   0.376   6.862
12778SOL    HW139775   5.021   0.455   6.905
12778SOL    HW239776   4.898   0.397   6.839
12779SOL     OW39777   3.804   1.569   6.937
12779SOL    HW139778   3.782   1.659   6.912
12779SOL    HW239779   3.900   1.567   6.936
12780SOL     OW39780   4.055   1.127   6.068
12780SOL    HW139781   4.053   1.205   6.012
12780SOL    HW239782   4.055   1.054   6.007
12781SOL     OW39783   4.278   0.515   6.436
12781SOL    HW139784   4.284   0.575   6.361
12781SOL    HW239785   4.338   0.552   6.501
12782SOL     OW39786   4.965   1.352   5.981
12782SOL    HW139787   5.021   1.424   6.008
12782SOL    HW239788   4.878   1.375   6.014
12783SOL     OW39789   4.995   1.476   6.738
12783SOL    HW139790   5.049   1.471   6.816
12783SOL    HW239791   4.908   1.447   6.767
12784SOL     OW39792   5.302   0.636   6.062
12784SOL    HW139793   5.250   0.670   6.134
12784SOL    HW239794   5.352   0.711   6.031
12785SOL     OW39795   4.077   1.518   6.898
12785SOL    HW139796   4.065   1.478   6.812
12785SOL    HW239797   4.171   1.535   6.904
12786SOL     OW39798   4.165   0.735   7.204
12786SOL    HW139799   4.208   0.786   7.136
12786SOL    HW239800   4.232   0.672   7.233
12787SOL     OW39801   5.340   0.783   7.274
12787SOL    HW139802   5.253   0.822   7.267
12787SOL    HW239803   5.391   0.825   7.204
12788SOL     OW39804   4.772   0.078   7.334
12788SOL    HW139805   4.782   0.167   7.299
12788SOL    HW239806   4.678   0.060   7.326
12789SOL     OW39807   4.238   0.035   7.314
12789SOL    HW139808   4.212  -0.022   7.242
12789SOL    HW239809   4.170   0.103   7.317
12790SOL     OW39810   4.307   0.877   6.620
12790SOL    HW139811   4.353   0.961   6.619
12790SOL    HW239812   4.251   0.881   6.697
12791SOL     OW39813   5.065   0.848   6.614
12791SOL    HW139814   4.980   0.851   6.569
12791SOL    HW239815   5.103   0.764   6.587
12792SOL     OW39816   4.913   0.520   5.844
12792SOL    HW139817   4.930   0.448   5.905
12792SOL    HW239818   4.877   0.590   5.899
12793SOL     OW39819   4.023   0.198   6.817
12793SOL    HW139820   3.967   0.213   6.893
12793SOL    HW239821   4.001   0.109   6.788
12794SOL     OW39822   3.761   1.312   6.867
12794SOL    HW139823   3.800   1.262   6.940
12794SOL    HW239824   3.772   1.403   6.892
12795SOL     OW39825   4.429   0.631   6.627
12795SOL    HW139826   4.514   0.631   6.583
12795SOL    HW239827   4.398   0.721   6.620
12796SOL     OW39828   5.471   0.954   7.453
12796SOL    HW139829   5.424   0.892   7.397
12796SOL    HW239830   5.408   0.979   7.520
12797SOL     OW39831   4.134   0.064   6.258
12797SOL    HW139832   4.083   0.144   6.270
12797SOL    HW239833   4.069  -0.002   6.234
12798SOL     OW39834   5.349   0.408   5.929
12798SOL    HW139835   5.367   0.339   5.992
12798SOL    HW239836   5.324   0.483   5.982
12799SOL     OW39837   4.764   0.752   6.540
12799SOL    HW139838   4.752   0.769   6.633
12799SOL    HW239839   4.727   0.664   6.526
12800SOL     OW39840   4.706   1.562   7.309
12800SOL    HW139841   4.683   1.610   7.230
12800SOL    HW239842   4.753   1.485   7.278
12801SOL     OW39843   5.583   1.496   7.190
12801SOL    HW139844   5.595   1.530   7.102
12801SOL    HW239845   5.663   1.521   7.236
12802SOL     OW39846   4.072   0.899   7.410
12802SOL    HW139847   4.151   0.940   7.446
12802SOL    HW239848   4.105   0.841   7.341
12803SOL     OW39849   5.258   0.257   5.719
12803SOL    HW139850   5.298   0.177   5.752
12803SOL    HW239851   5.281   0.324   5.783
12804SOL     OW39852   5.000   0.822   5.603
12804SOL    HW139853   5.051   0.741   5.613
12804SOL    HW239854   5.037   0.864   5.525
12805SOL     OW39855   4.889   1.299   6.443
12805SOL    HW139856   4.834   1.258   6.376
12805SOL    HW239857   4.903   1.388   6.412
12806SOL     OW39858   4.036   0.819   6.527
12806SOL    HW139859   4.128   0.845   6.524
12806SOL    HW239860   4.037   0.732   6.565
12807SOL     OW39861   4.061   0.541   6.602
12807SOL    HW139862   4.018   0.458   6.584
12807SOL    HW239863   4.135   0.543   6.541
12808SOL     OW39864   4.903   0.362   7.298
12808SOL    HW139865   4.834   0.419   7.331
12808SOL    HW239866   4.977   0.421   7.280
12809SOL     OW39867   4.905   0.211   7.065
12809SOL    HW139868   4.897   0.267   7.142
12809SOL    HW239869   4.929   0.270   6.994
12810SOL     OW39870   3.737   1.311   5.778
12810SOL    HW139871   3.648   1.329   5.746
12810SOL    HW239872   3.732   1.223   5.814
12811SOL     OW39873   3.810   1.774   6.523
12811SOL    HW139874   3.793   1.695   6.472
12811SOL    HW239875   3.900   1.798   6.501
12812SOL     OW39876   4.215   1.573   6.491
12812SOL    HW139877   4.282   1.638   6.510
12812SOL    HW239878   4.255   1.516   6.426
12813SOL     OW39879   4.698   0.777   6.803
12813SOL    HW139880   4.753   0.757   6.878
12813SOL    HW239881   4.636   0.842   6.835
12814SOL     OW39882   3.761   0.539   6.711
12814SOL    HW139883   3.837   0.557   6.656
12814SOL    HW239884   3.793   0.550   6.800
12815SOL     OW39885   3.922   0.531   7.310
12815SOL    HW139886   4.009   0.540   7.270
12815SOL    HW239887   3.870   0.601   7.271
12816SOL     OW39888   5.109   0.923   7.240
12816SOL    HW139889   5.135   1.015   7.240
12816SOL    HW239890   5.096   0.901   7.148
12817SOL     OW39891   4.534   0.562   5.954
12817SOL    HW139892   4.530   0.497   5.883
12817SOL    HW239893   4.466   0.625   5.931
12818SOL     OW39894   5.358   0.595   6.756
12818SOL    HW139895   5.349   0.550   6.839
12818SOL    HW239896   5.446   0.573   6.726
12819SOL     OW39897   3.965   1.547   7.306
12819SOL    HW139898   3.943   1.625   7.358
12819SOL    HW239899   3.968   1.476   7.370
12820SOL     OW39900   4.438   0.463   6.837
12820SOL    HW139901   4.381   0.390   6.814
12820SOL    HW239902   4.428   0.525   6.764
12821SOL     OW39903   4.660   1.672   7.054
12821SOL    HW139904   4.644   1.635   6.967
12821SOL    HW239905   4.646   1.766   7.043
12822SOL     OW39906   4.189   0.500   5.747
12822SOL    HW139907   4.241   0.574   5.780
12822SOL    HW239908   4.100   0.533   5.744
12823SOL     OW39909   3.858   1.142   7.066
12823SOL    HW139910   3.861   1.099   7.152
12823SOL    HW239911   3.875   1.072   7.003
12824SOL     OW39912   5.045   1.040   6.804
12824SOL    HW139913   5.066   0.978   6.734
12824SOL    HW239914   4.972   1.091   6.770
12825SOL     OW39915   5.054   0.838   5.880
12825SOL    HW139916   4.985   0.850   5.945
12825SOL    HW239917   5.009   0.846   5.796
12826SOL     OW39918   5.502   1.729   6.751
12826SOL    HW139919   5.565   1.756   6.684
12826SOL    HW239920   5.469   1.645   6.720
12827SOL     OW39921   4.987   1.756   6.704
12827SOL    HW139922   5.065   1.761   6.649
12827SOL    HW239923   4.973   1.662   6.717
12828SOL     OW39924   3.818   1.246   6.613
12828SOL    HW139925   3.805   1.270   6.705
12828SOL    HW239926   3.731   1.251   6.574
12829SOL     OW39927   4.395   1.676   7.320
12829SOL    HW139928   4.330   1.746   7.330
12829SOL    HW239929   4.446   1.702   7.244
12830SOL     OW39930   5.421   0.180   6.075
12830SOL    HW139931   5.490   0.158   6.012
12830SOL    HW239932   5.428   0.112   6.142
12831SOL     OW39933   5.116   1.568   6.072
12831SOL    HW139934   5.177   1.601   6.006
12831SOL    HW239935   5.067   1.644   6.100
12832SOL     OW39936   3.875   1.783   7.422
12832SOL    HW139937   3.824   1.722   7.475
12832SOL    HW239938   3.917   1.841   7.486
12833SOL     OW39939   4.996   0.919   6.235
12833SOL    HW139940   5.076   0.869   6.255
12833SOL    HW239941   5.027   1.000   6.194
12834SOL     OW39942   4.547   1.289   7.018
12834SOL    HW139943   4.506   1.325   7.096
12834SOL    HW239944   4.524   1.351   6.948
12835SOL     OW39945   4.403   1.610   5.740
12835SOL    HW139946   4.407   1.637   5.649
12835SOL    HW239947   4.340   1.538   5.742
12836SOL     OW39948   5.340   1.725   6.984
12836SOL    HW139949   5.390   1.731   6.903
12836SOL    HW239950   5.327   1.815   7.011
12837SOL     OW39951   5.580   0.166   6.531
12837SOL    HW139952   5.571   0.079   6.571
12837SOL    HW239953   5.491   0.188   6.502
12838SOL     OW39954   3.974   0.286   6.295
12838SOL    HW139955   3.899   0.340   6.270
12838SOL    HW239956   3.982   0.299   6.390
12839SOL     OW39957   4.928   1.598   5.619
12839SOL    HW139958   4.915   1.508   5.648
12839SOL    HW239959   4.858   1.614   5.556
12840SOL     OW39960   4.554   1.025   6.933
12840SOL    HW139961   4.558   1.045   6.840
12840SOL    HW239962   4.549   1.111   6.976
12841SOL     OW39963   4.632   0.892   5.875
12841SOL    HW139964   4.689   0.933   5.810
12841SOL    HW239965   4.691   0.835   5.926
12842SOL     OW39966   5.204   1.633   5.635
12842SOL    HW139967   5.110   1.620   5.621
12842SOL    HW239968   5.242   1.631   5.547
12843SOL     OW39969   4.092   1.299   7.083
12843SOL    HW139970   4.089   1.377   7.027
12843SOL    HW239971   4.009   1.254   7.065
12844SOL     OW39972   5.340   1.291   6.868
12844SOL    HW139973   5.387   1.275   6.950
12844SOL    HW239974   5.273   1.356   6.891
12845SOL     OW39975   4.777   1.106   6.274
12845SOL    HW139976   4.708   1.065   6.326
12845SOL    HW239977   4.841   1.036   6.261
12846SOL     OW39978   4.767   0.260   6.528
12846SOL    HW139979   4.747   0.202   6.454
12846SOL    HW239980   4.766   0.202   6.605
12847SOL     OW39981   4.308   1.484   6.047
12847SOL    HW139982   4.362   1.440   5.981
12847SOL    HW239983   4.265   1.555   5.999
12848SOL     OW39984   5.450   0.421   6.970
12848SOL    HW139985   5.523   0.482   6.973
12848SOL    HW239986   5.480   0.349   6.914
12849SOL     OW39987   3.987   1.340   5.895
12849SOL    HW139988   3.897   1.340   5.861
12849SOL    HW239989   3.981   1.386   5.979
12850SOL     OW39990   3.843   1.028   7.316
12850SOL    HW139991   3.765   1.005   7.366
12850SOL    HW239992   3.915   0.985   7.361
12851SOL     OW39993   4.387   0.204   7.071
12851SOL    HW139994   4.470   0.164   7.045
12851SOL    HW239995   4.402   0.235   7.160
12852SOL     OW39996   3.786   0.331   5.612
12852SOL    HW139997   3.691   0.335   5.611
12852SOL    HW239998   3.814   0.410   5.565
12853SOL     OW39999   5.144   0.851   6.975
12853SOL    HW140000   5.091   0.913   6.925
12853SOL    HW240001   5.232   0.860   6.939
12854SOL     OW40002   3.761   0.160   5.844
12854SOL    HW140003   3.772   0.244   5.798
12854SOL    HW240004   3.844   0.147   5.890
12855SOL     OW40005   4.895   1.332   5.707
12855SOL    HW140006   4.800   1.322   5.705
12855SOL    HW240007   4.917   1.337   5.800
12856SOL     OW40008   4.359   0.833   7.017
12856SOL    HW140009   4.401   0.916   6.997
12856SOL    HW240010   4.432   0.773   7.035
12857SOL     OW40011   5.215   1.783   6.556
12857SOL    HW140012   5.213   1.841   6.480
12857SOL    HW240013   5.298   1.804   6.600
12858SOL     OW40014   4.401   0.586   7.282
12858SOL    HW140015   4.461   0.636   7.337
12858SOL    HW240016   4.405   0.497   7.317
12859SOL     OW40017   5.222   1.172   7.225
12859SOL    HW140018   5.203   1.203   7.313
12859SOL    HW240019   5.308   1.208   7.204
12860SOL     OW40020   4.083   1.740   7.145
12860SOL    HW140021   3.998   1.781   7.127
12860SOL    HW240022   4.062   1.657   7.188
12861SOL     OW40023   5.385   0.883   6.838
12861SOL    HW140024   5.375   0.803   6.785
12861SOL    HW240025   5.372   0.954   6.775
12862SOL     OW40026   4.948   0.317   6.034
12862SOL    HW140027   5.013   0.248   6.029
12862SOL    HW240028   4.973   0.368   6.112
12863SOL     OW40029   4.311   0.723   6.259
12863SOL    HW140030   4.350   0.810   6.255
12863SOL    HW240031   4.247   0.722   6.188
12864SOL     OW40032   5.478   0.377   7.236
12864SOL    HW140033   5.465   0.393   7.142
12864SOL    HW240034   5.418   0.306   7.256
12865SOL     OW40035   5.481   0.931   7.093
12865SOL    HW140036   5.462   1.023   7.110
12865SOL    HW240037   5.457   0.918   7.001
12866SOL     OW40038   4.603   1.360   5.642
12866SOL    HW140039   4.558   1.379   5.724
12866SOL    HW240040   4.604   1.444   5.595
12867SOL     OW40041   4.381   1.784   6.507
12867SOL    HW140042   4.360   1.877   6.498
12867SOL    HW240043   4.476   1.782   6.515
12868SOL     OW40044   4.600   0.967   6.439
12868SOL    HW140045   4.659   0.903   6.480
12868SOL    HW240046   4.566   1.019   6.513
12869SOL     OW40047   4.790   0.975   5.675
12869SOL    HW140048   4.773   1.043   5.609
12869SOL    HW240049   4.867   0.929   5.643
12870SOL     OW40050   5.557   1.553   6.431
12870SOL    HW140051   5.485   1.557   6.368
12870SOL    HW240052   5.517   1.517   6.510
12871SOL     OW40053   3.941   1.296   7.442
12871SOL    HW140054   3.885   1.241   7.387
12871SOL    HW240055   3.888   1.314   7.519
12872SOL     OW40056   3.800   1.193   6.257
12872SOL    HW140057   3.856   1.156   6.325
12872SOL    HW240058   3.860   1.216   6.186
12873SOL     OW40059   4.416   1.406   7.233
12873SOL    HW140060   4.327   1.375   7.252
12873SOL    HW240061   4.416   1.498   7.258
12874SOL     OW40062   5.555   0.224   6.818
12874SOL    HW140063   5.488   0.157   6.808
12874SOL    HW240064   5.573   0.254   6.729
12875SOL     OW40065   4.153   0.422   6.120
12875SOL    HW140066   4.180   0.359   6.053
12875SOL    HW240067   4.095   0.371   6.178
12876SOL     OW40068   5.428   1.475   6.665
12876SOL    HW140069   5.343   1.465   6.623
12876SOL    HW240070   5.426   1.415   6.739
12877SOL     OW40071   4.066   0.565   6.879
12877SOL    HW140072   4.118   0.503   6.930
12877SOL    HW240073   4.083   0.542   6.788
12878SOL     OW40074   4.558   1.572   6.250
12878SOL    HW140075   4.540   1.655   6.207
12878SOL    HW240076   4.474   1.527   6.254
12879SOL     OW40077   5.150   0.209   6.706
12879SOL    HW140078   5.213   0.161   6.760
12879SOL    HW240079   5.098   0.259   6.768
12880SOL     OW40080   4.728   0.070   6.719
12880SOL    HW140081   4.642   0.054   6.680
12880SOL    HW240082   4.756  -0.016   6.750
12881SOL     OW40083   4.501   1.328   5.904
12881SOL    HW140084   4.478   1.238   5.927
12881SOL    HW240085   4.576   1.349   5.960
12882SOL     OW40086   4.349   1.548   6.878
12882SOL    HW140087   4.349   1.628   6.932
12882SOL    HW240088   4.429   1.555   6.826
12883SOL     OW40089   5.089   7.992   5.755
12883SOL    HW140090   5.089   7.896   5.758
12883SOL    HW240091   4.996   8.016   5.750
12884SOL     OW40092   5.018   0.460   6.256
12884SOL    HW140093   4.970   0.543   6.259
12884SOL    HW240094   5.023   0.432   6.348
12885SOL     OW40095   5.328   0.229   6.462
12885SOL    HW140096   5.251   0.241   6.518
12885SOL    HW240097   5.327   0.305   6.404
12886SOL     OW40098   3.761   1.061   5.900
12886SOL    HW140099   3.856   1.061   5.890
12886SOL    HW240100   3.737   0.970   5.914
12887SOL     OW40101   4.618   1.664   5.914
12887SOL    HW140102   4.543   1.650   5.856
12887SOL    HW240103   4.589   1.733   5.974
12888SOL     OW40104   3.937   0.610   7.585
12888SOL    HW140105   3.848   0.613   7.620
12888SOL    HW240106   3.926   0.608   7.490
12889SOL     OW40107   3.940   0.295   8.432
12889SOL    HW140108   3.972   0.264   8.517
12889SOL    HW240109   3.857   0.248   8.420
12890SOL     OW40110   3.731   0.385   8.074
12890SOL    HW140111   3.646   0.410   8.112
12890SOL    HW240112   3.709   0.343   7.991
12891SOL     OW40113   4.292   1.298   8.638
12891SOL    HW140114   4.212   1.308   8.587
12891SOL    HW240115   4.311   1.386   8.670
12892SOL     OW40116   5.290   1.505   8.152
12892SOL    HW140117   5.246   1.484   8.234
12892SOL    HW240118   5.219   1.514   8.089
12893SOL     OW40119   4.855   0.702   8.140
12893SOL    HW140120   4.903   0.782   8.121
12893SOL    HW240121   4.808   0.720   8.222
12894SOL     OW40122   5.514   0.597   7.674
12894SOL    HW140123   5.483   0.597   7.584
12894SOL    HW240124   5.472   0.520   7.714
12895SOL     OW40125   4.476   1.139   8.514
12895SOL    HW140126   4.405   1.178   8.565
12895SOL    HW240127   4.512   1.211   8.462
12896SOL     OW40128   4.602   0.763   9.269
12896SOL    HW140129   4.590   0.832   9.334
12896SOL    HW240130   4.622   0.810   9.188
12897SOL     OW40131   4.410   0.987   8.095
12897SOL    HW140132   4.476   0.991   8.163
12897SOL    HW240133   4.342   1.048   8.123
12898SOL     OW40134   4.437   1.155   9.276
12898SOL    HW140135   4.483   1.234   9.305
12898SOL    HW240136   4.357   1.189   9.235
12899SOL     OW40137   4.064   1.407   8.513
12899SOL    HW140138   3.987   1.372   8.468
12899SOL    HW240139   4.104   1.465   8.449
12900SOL     OW40140   5.187   1.495   8.805
12900SOL    HW140141   5.245   1.571   8.803
12900SOL    HW240142   5.128   1.511   8.878
12901SOL     OW40143   4.173   0.390   8.934
12901SOL    HW140144   4.247   0.328   8.933
12901SOL    HW240145   4.096   0.334   8.939
12902SOL     OW40146   5.318   0.486   8.204
12902SOL    HW140147   5.276   0.519   8.125
12902SOL    HW240148   5.411   0.505   8.191
12903SOL     OW40149   3.954   1.709   7.907
12903SOL    HW140150   3.971   1.785   7.963
12903SOL    HW240151   4.029   1.706   7.848
12904SOL     OW40152   4.886   1.328   9.167
12904SOL    HW140153   4.896   1.319   9.261
12904SOL    HW240154   4.831   1.254   9.141
12905SOL     OW40155   3.943   1.452   7.997
12905SOL    HW140156   3.946   1.545   7.973
12905SOL    HW240157   3.884   1.450   8.073
12906SOL     OW40158   3.990   1.093   8.331
12906SOL    HW140159   3.985   1.004   8.365
12906SOL    HW240160   3.934   1.144   8.390
12907SOL     OW40161   4.344   1.776   8.909
12907SOL    HW140162   4.252   1.769   8.934
12907SOL    HW240163   4.363   1.870   8.913
12908SOL     OW40164   4.304   0.989   7.591
12908SOL    HW140165   4.349   1.039   7.523
12908SOL    HW240166   4.343   1.021   7.673
12909SOL     OW40167   5.364   0.137   8.936
12909SOL    HW140168   5.392   0.216   8.890
12909SOL    HW240169   5.308   0.169   9.007
12910SOL     OW40170   3.856   0.651   8.016
12910SOL    HW140171   3.819   0.565   8.036
12910SOL    HW240172   3.839   0.703   8.095
12911SOL     OW40173   5.568   1.754   7.772
12911SOL    HW140174   5.641   1.735   7.831
12911SOL    HW240175   5.581   1.846   7.747
12912SOL     OW40176   3.771   1.585   7.572
12912SOL    HW140177   3.742   1.497   7.595
12912SOL    HW240178   3.743   1.639   7.645
12913SOL     OW40179   5.406   0.900   8.065
12913SOL    HW140180   5.483   0.859   8.026
12913SOL    HW240181   5.382   0.969   8.004
12914SOL     OW40182   5.374   1.104   7.879
12914SOL    HW140183   5.461   1.104   7.840
12914SOL    HW240184   5.380   1.167   7.952
12915SOL     OW40185   3.834   0.753   9.031
12915SOL    HW140186   3.917   0.801   9.029
12915SOL    HW240187   3.768   0.820   9.014
12916SOL     OW40188   4.333   1.389   8.193
12916SOL    HW140189   4.289   1.304   8.188
12916SOL    HW240190   4.326   1.426   8.105
12917SOL     OW40191   5.004   1.233   8.885
12917SOL    HW140192   5.027   1.171   8.816
12917SOL    HW240193   5.074   1.224   8.950
12918SOL     OW40194   4.569   0.041   8.019
12918SOL    HW140195   4.603   0.120   7.978
12918SOL    HW240196   4.477   0.037   7.992
12919SOL     OW40197   3.903   0.954   8.744
12919SOL    HW140198   3.989   0.918   8.723
12919SOL    HW240199   3.857   0.958   8.660
12920SOL     OW40200   5.259   0.999   7.650
12920SOL    HW140201   5.191   0.941   7.684
12920SOL    HW240202   5.298   1.037   7.728
12921SOL     OW40203   4.924   1.788   9.080
12921SOL    HW140204   4.929   1.878   9.046
12921SOL    HW240205   4.925   1.733   9.003
12922SOL     OW40206   4.041   0.238   9.243
12922SOL    HW140207   4.098   0.311   9.269
12922SOL    HW240208   3.958   0.256   9.287
12923SOL     OW40209   5.185   1.424   8.390
12923SOL    HW140210   5.117   1.438   8.456
12923SOL    HW240211   5.178   1.331   8.368
12924SOL     OW40212   5.384   1.729   8.026
12924SOL    HW140213   5.354   1.711   7.938
12924SOL    HW240214   5.358   1.652   8.077
12925SOL     OW40215   4.320   0.725   7.721
12925SOL    HW140216   4.321   0.809   7.676
12925SOL    HW240217   4.254   0.736   7.790
12926SOL     OW40218   5.007   0.309   8.382
12926SOL    HW140219   4.918   0.338   8.402
12926SOL    HW240220   5.001   0.271   8.295
12927SOL     OW40221   5.304   1.666   7.763
12927SOL    HW140222   5.393   1.698   7.749
12927SOL    HW240223   5.268   1.656   7.674
12928SOL     OW40224   4.522   0.631   8.901
12928SOL    HW140225   4.487   0.599   8.984
12928SOL    HW240226   4.494   0.566   8.837
12929SOL     OW40227   5.141   0.502   9.118
12929SOL    HW140228   5.145   0.546   9.203
12929SOL    HW240229   5.192   0.423   9.129
12930SOL     OW40230   4.666   0.892   9.030
12930SOL    HW140231   4.725   0.825   8.994
12930SOL    HW240232   4.624   0.930   8.953
12931SOL     OW40233   4.737   0.401   8.670
12931SOL    HW140234   4.650   0.428   8.697
12931SOL    HW240235   4.726   0.370   8.580
12932SOL     OW40236   4.779   0.689   7.872
12932SOL    HW140237   4.794   0.690   7.966
12932SOL    HW240238   4.692   0.651   7.861
12933SOL     OW40239   3.804   0.798   8.239
12933SOL    HW140240   3.886   0.810   8.288
12933SOL    HW240241   3.751   0.874   8.262
12934SOL     OW40242   3.840   1.832   9.019
12934SOL    HW140243   3.838   1.822   9.114
12934SOL    HW240244   3.753   1.864   8.996
12935SOL     OW40245   4.613   0.351   7.648
12935SOL    HW140246   4.658   0.407   7.585
12935SOL    HW240247   4.629   0.262   7.616
12936SOL     OW40248   5.419   0.576   9.285
12936SOL    HW140249   5.391   0.652   9.233
12936SOL    HW240250   5.451   0.513   9.220
12937SOL     OW40251   5.101   1.141   7.980
12937SOL    HW140252   5.181   1.137   7.928
12937SOL    HW240253   5.048   1.208   7.936
12938SOL     OW40254   4.267   0.194   8.384
12938SOL    HW140255   4.252   0.278   8.428
12938SOL    HW240256   4.297   0.218   8.296
12939SOL     OW40257   4.721   1.452   7.916
12939SOL    HW140258   4.692   1.522   7.857
12939SOL    HW240259   4.685   1.477   8.001
12940SOL     OW40260   4.079   1.823   8.327
12940SOL    HW140261   4.133   1.744   8.332
12940SOL    HW240262   4.140   1.895   8.338
12941SOL     OW40263   5.538   1.016   8.314
12941SOL    HW140264   5.478   1.030   8.241
12941SOL    HW240265   5.510   1.079   8.380
12942SOL     OW40266   4.954   1.521   8.963
12942SOL    HW140267   4.957   1.426   8.974
12942SOL    HW240268   4.897   1.534   8.887
12943SOL     OW40269   4.041   0.962   7.704
12943SOL    HW140270   4.125   0.989   7.668
12943SOL    HW240271   4.008   0.896   7.642
12944SOL     OW40272   5.198   0.768   8.174
12944SOL    HW140273   5.210   0.744   8.265
12944SOL    HW240274   5.278   0.816   8.151
12945SOL     OW40275   4.192   1.271   9.190
12945SOL    HW140276   4.168   1.278   9.098
12945SOL    HW240277   4.108   1.266   9.237
12946SOL     OW40278   4.859   1.755   7.698
12946SOL    HW140279   4.771   1.729   7.724
12946SOL    HW240280   4.878   1.701   7.621
12947SOL     OW40281   3.913   0.281   8.946
12947SOL    HW140282   3.864   0.359   8.917
12947SOL    HW240283   3.901   0.280   9.041
12948SOL     OW40284   5.362   1.380   7.548
12948SOL    HW140285   5.324   1.466   7.533
12948SOL    HW240286   5.292   1.319   7.525
12949SOL     OW40287   4.210   1.715   7.786
12949SOL    HW140288   4.243   1.790   7.835
12949SOL    HW240289   4.267   1.711   7.708
12950SOL     OW40290   5.143   0.128   7.859
12950SOL    HW140291   5.151   0.111   7.765
12950SOL    HW240292   5.233   0.128   7.891
12951SOL     OW40293   3.970   1.782   8.665
12951SOL    HW140294   4.026   1.706   8.679
12951SOL    HW240295   3.941   1.774   8.574
12952SOL     OW40296   4.670   1.695   8.335
12952SOL    HW140297   4.757   1.655   8.331
12952SOL    HW240298   4.620   1.651   8.266
12953SOL     OW40299   4.130   0.687   7.926
12953SOL    HW140300   4.147   0.594   7.943
12953SOL    HW240301   4.035   0.697   7.938
12954SOL     OW40302   5.237   0.240   9.169
12954SOL    HW140303   5.249   0.251   9.263
12954SOL    HW240304   5.167   0.176   9.161
12955SOL     OW40305   4.298   0.113   7.566
12955SOL    HW140306   4.384   0.081   7.595
12955SOL    HW240307   4.289   0.079   7.477
12956SOL     OW40308   4.477   0.236   9.220
12956SOL    HW140309   4.532   0.288   9.162
12956SOL    HW240310   4.430   0.301   9.273
12957SOL     OW40311   4.596   1.519   8.646
12957SOL    HW140312   4.582   1.492   8.555
12957SOL    HW240313   4.673   1.468   8.673
12958SOL     OW40314   5.062   0.586   8.869
12958SOL    HW140315   5.100   0.567   8.955
12958SOL    HW240316   5.091   0.676   8.850
12959SOL     OW40317   4.542   1.380   8.393
12959SOL    HW140318   4.627   1.378   8.349
12959SOL    HW240319   4.479   1.395   8.323
12960SOL     OW40320   4.643   0.524   8.338
12960SOL    HW140321   4.619   0.517   8.246
12960SOL    HW240322   4.671   0.435   8.362
12961SOL     OW40323   4.321   0.044   7.892
12961SOL    HW140324   4.248  -0.008   7.923
12961SOL    HW240325   4.282   0.127   7.862
12962SOL     OW40326   5.153   1.209   7.491
12962SOL    HW140327   5.172   1.132   7.545
12962SOL    HW240328   5.065   1.236   7.519
12963SOL     OW40329   4.008   0.056   7.653
12963SOL    HW140330   4.078   0.102   7.606
12963SOL    HW240331   4.055  -0.003   7.712
12964SOL     OW40332   4.671   0.267   7.907
12964SOL    HW140333   4.639   0.299   7.823
12964SOL    HW240334   4.766   0.281   7.903
12965SOL     OW40335   4.808   0.690   8.917
12965SOL    HW140336   4.737   0.627   8.907
12965SOL    HW240337   4.887   0.641   8.896
12966SOL     OW40338   4.928   1.593   8.252
12966SOL    HW140339   4.942   1.651   8.177
12966SOL    HW240340   5.005   1.605   8.307
12967SOL     OW40341   4.199   1.148   8.166
12967SOL    HW140342   4.130   1.133   8.230
12967SOL    HW240343   4.156   1.143   8.081
12968SOL     OW40344   4.992   1.799   8.069
12968SOL    HW140345   5.040   1.857   8.010
12968SOL    HW240346   4.918   1.852   8.098
12969SOL     OW40347   4.743   0.523   7.473
12969SOL    HW140348   4.700   0.605   7.448
12969SOL    HW240349   4.808   0.548   7.539
12970SOL     OW40350   3.829   0.545   8.856
12970SOL    HW140351   3.917   0.559   8.820
12970SOL    HW240352   3.815   0.619   8.915
12971SOL     OW40353   4.293   0.247   8.675
12971SOL    HW140354   4.320   0.206   8.757
12971SOL    HW240355   4.198   0.234   8.671
12972SOL     OW40356   4.588   0.472   8.079
12972SOL    HW140357   4.550   0.526   8.010
12972SOL    HW240358   4.610   0.390   8.035
12973SOL     OW40359   4.698   0.029   8.252
12973SOL    HW140360   4.653   0.043   8.169
12973SOL    HW240361   4.719  -0.065   8.253
12974SOL     OW40362   5.177   1.164   8.302
12974SOL    HW140363   5.097   1.117   8.279
12974SOL    HW240364   5.223   1.175   8.219
12975SOL     OW40365   5.188   0.613   8.419
12975SOL    HW140366   5.231   0.562   8.351
12975SOL    HW240367   5.243   0.601   8.496
12976SOL     OW40368   5.574   0.791   7.860
12976SOL    HW140369   5.621   0.734   7.922
12976SOL    HW240370   5.555   0.734   7.785
12977SOL     OW40371   4.211   1.417   7.593
12977SOL    HW140372   4.140   1.391   7.652
12977SOL    HW240373   4.192   1.371   7.511
12978SOL     OW40374   5.395   1.254   8.103
12978SOL    HW140375   5.490   1.258   8.112
12978SOL    HW240376   5.365   1.344   8.115
12979SOL     OW40377   5.121   0.580   7.519
12979SOL    HW140378   5.055   0.557   7.585
12979SOL    HW240379   5.204   0.566   7.563
12980SOL     OW40380   4.224   0.274   7.767
12980SOL    HW140381   4.254   0.219   7.694
12980SOL    HW240382   4.208   0.360   7.727
12981SOL     OW40383   5.479   1.236   9.043
12981SOL    HW140384   5.554   1.212   8.989
12981SOL    HW240385   5.489   1.330   9.059
12982SOL     OW40386   4.773   1.349   8.785
12982SOL    HW140387   4.695   1.319   8.831
12982SOL    HW240388   4.846   1.301   8.825
12983SOL     OW40389   5.329   1.618   9.101
12983SOL    HW140390   5.322   1.661   9.016
12983SOL    HW240391   5.413   1.572   9.098
12984SOL     OW40392   4.863   1.222   8.550
12984SOL    HW140393   4.794   1.257   8.606
12984SOL    HW240394   4.841   1.255   8.463
12985SOL     OW40395   5.334   1.081   8.533
12985SOL    HW140396   5.329   1.152   8.598
12985SOL    HW240397   5.277   1.110   8.462
12986SOL     OW40398   4.648   0.121   8.847
12986SOL    HW140399   4.663   0.106   8.754
12986SOL    HW240400   4.735   0.137   8.883
12987SOL     OW40401   4.703   1.114   9.177
12987SOL    HW140402   4.612   1.131   9.201
12987SOL    HW240403   4.700   1.039   9.118
12988SOL     OW40404   4.434   1.054   7.823
12988SOL    HW140405   4.419   1.034   7.915
12988SOL    HW240406   4.511   1.003   7.799
12989SOL     OW40407   4.144   0.828   8.704
12989SOL    HW140408   4.214   0.838   8.768
12989SOL    HW240409   4.113   0.738   8.716
12990SOL     OW40410   5.011   0.373   8.707
12990SOL    HW140411   5.038   0.452   8.754
12990SOL    HW240412   4.920   0.389   8.683
12991SOL     OW40413   3.794   1.571   8.798
12991SOL    HW140414   3.755   1.641   8.746
12991SOL    HW240415   3.888   1.590   8.796
12992SOL     OW40416   4.062   1.125   7.932
12992SOL    HW140417   4.054   1.202   7.875
12992SOL    HW240418   4.059   1.050   7.872
12993SOL     OW40419   4.270   0.532   8.317
12993SOL    HW140420   4.279   0.589   8.240
12993SOL    HW240421   4.342   0.559   8.375
12994SOL     OW40422   4.966   1.350   7.847
12994SOL    HW140423   5.022   1.424   7.871
12994SOL    HW240424   4.878   1.376   7.874
12995SOL     OW40425   5.013   1.460   8.596
12995SOL    HW140426   5.073   1.459   8.670
12995SOL    HW240427   4.965   1.377   8.603
12996SOL     OW40428   5.292   0.616   7.949
12996SOL    HW140429   5.234   0.678   7.993
12996SOL    HW240430   5.358   0.671   7.906
12997SOL     OW40431   4.075   1.522   8.755
12997SOL    HW140432   4.063   1.478   8.671
12997SOL    HW240433   4.169   1.539   8.761
12998SOL     OW40434   4.153   0.743   9.060
12998SOL    HW140435   4.206   0.793   8.998
12998SOL    HW240436   4.196   0.658   9.066
12999SOL     OW40437   5.340   0.788   9.138
12999SOL    HW140438   5.253   0.828   9.128
12999SOL    HW240439   5.392   0.826   9.068
13000SOL     OW40440   4.767   0.065   9.185
13000SOL    HW140441   4.788   0.157   9.200
13000SOL    HW240442   4.681   0.067   9.143
13001SOL     OW40443   4.227   0.039   9.182
13001SOL    HW140444   4.206  -0.022   9.111
13001SOL    HW240445   4.151   0.097   9.187
13002SOL     OW40446   4.325   0.874   8.493
13002SOL    HW140447   4.347   0.966   8.478
13002SOL    HW240448   4.252   0.876   8.555
13003SOL     OW40449   5.053   0.850   8.480
13003SOL    HW140450   4.977   0.850   8.422
13003SOL    HW240451   5.096   0.767   8.463
13004SOL     OW40452   4.919   0.527   7.700
13004SOL    HW140453   4.928   0.448   7.753
13004SOL    HW240454   4.879   0.591   7.759
13005SOL     OW40455   4.021   0.204   8.684
13005SOL    HW140456   3.965   0.218   8.760
13005SOL    HW240457   4.005   0.113   8.659
13006SOL     OW40458   3.746   1.312   8.736
13006SOL    HW140459   3.795   1.263   8.802
13006SOL    HW240460   3.764   1.404   8.756
13007SOL     OW40461   4.447   0.630   8.507
13007SOL    HW140462   4.519   0.622   8.445
13007SOL    HW240463   4.414   0.719   8.494
13008SOL     OW40464   5.477   0.949   9.321
13008SOL    HW140465   5.432   0.892   9.259
13008SOL    HW240466   5.410   0.972   9.386
13009SOL     OW40467   4.125   0.090   8.118
13009SOL    HW140468   4.082   0.173   8.139
13009SOL    HW240469   4.055   0.036   8.080
13010SOL     OW40470   5.356   0.393   7.805
13010SOL    HW140471   5.372   0.322   7.867
13010SOL    HW240472   5.324   0.465   7.861
13011SOL     OW40473   4.753   0.763   8.399
13011SOL    HW140474   4.747   0.774   8.494
13011SOL    HW240475   4.718   0.676   8.383
13012SOL     OW40476   4.692   1.560   9.147
13012SOL    HW140477   4.675   1.615   9.070
13012SOL    HW240478   4.650   1.476   9.126
13013SOL     OW40479   5.574   1.501   9.057
13013SOL    HW140480   5.586   1.533   8.968
13013SOL    HW240481   5.661   1.511   9.097
13014SOL     OW40482   4.073   0.904   9.270
13014SOL    HW140483   4.156   0.931   9.310
13014SOL    HW240484   4.099   0.845   9.199
13015SOL     OW40485   5.291   0.293   7.561
13015SOL    HW140486   5.196   0.290   7.567
13015SOL    HW240487   5.320   0.325   7.646
13016SOL     OW40488   5.012   0.829   7.475
13016SOL    HW140489   5.055   0.743   7.479
13016SOL    HW240490   5.042   0.867   7.393
13017SOL     OW40491   4.802   1.346   8.311
13017SOL    HW140492   4.805   1.277   8.246
13017SOL    HW240493   4.849   1.419   8.271
13018SOL     OW40494   4.034   0.815   8.392
13018SOL    HW140495   4.122   0.829   8.357
13018SOL    HW240496   4.037   0.727   8.429
13019SOL     OW40497   4.053   0.537   8.469
13019SOL    HW140498   4.009   0.455   8.446
13019SOL    HW240499   4.129   0.540   8.412
13020SOL     OW40500   4.899   0.382   9.154
13020SOL    HW140501   4.835   0.437   9.198
13020SOL    HW240502   4.973   0.439   9.138
13021SOL     OW40503   4.892   0.229   8.927
13021SOL    HW140504   4.904   0.283   9.004
13021SOL    HW240505   4.925   0.282   8.854
13022SOL     OW40506   3.740   1.310   7.639
13022SOL    HW140507   3.653   1.331   7.607
13022SOL    HW240508   3.731   1.223   7.678
13023SOL     OW40509   3.827   1.764   8.411
13023SOL    HW140510   3.795   1.695   8.353
13023SOL    HW240511   3.909   1.793   8.370
13024SOL     OW40512   4.220   1.577   8.362
13024SOL    HW140513   4.289   1.641   8.380
13024SOL    HW240514   4.259   1.517   8.298
13025SOL     OW40515   4.705   0.772   8.666
13025SOL    HW140516   4.763   0.771   8.742
13025SOL    HW240517   4.617   0.765   8.702
13026SOL     OW40518   3.758   0.525   8.573
13026SOL    HW140519   3.823   0.548   8.506
13026SOL    HW240520   3.802   0.544   8.656
13027SOL     OW40521   3.915   0.532   9.176
13027SOL    HW140522   3.995   0.522   9.123
13027SOL    HW240523   3.869   0.605   9.137
13028SOL     OW40524   5.109   0.929   9.098
13028SOL    HW140525   5.132   1.022   9.093
13028SOL    HW240526   5.101   0.902   9.007
13029SOL     OW40527   4.535   0.573   7.820
13029SOL    HW140528   4.538   0.502   7.756
13029SOL    HW240529   4.464   0.630   7.790
13030SOL     OW40530   5.360   0.557   8.622
13030SOL    HW140531   5.365   0.533   8.714
13030SOL    HW240532   5.451   0.556   8.591
13031SOL     OW40533   3.970   1.547   9.173
13031SOL    HW140534   3.942   1.620   9.228
13031SOL    HW240535   3.962   1.470   9.229
13032SOL     OW40536   4.464   0.454   8.710
13032SOL    HW140537   4.402   0.383   8.692
13032SOL    HW240538   4.451   0.516   8.637
13033SOL     OW40539   4.657   1.679   8.905
13033SOL    HW140540   4.629   1.638   8.823
13033SOL    HW240541   4.648   1.773   8.889
13034SOL     OW40542   4.183   0.502   7.631
13034SOL    HW140543   4.238   0.578   7.653
13034SOL    HW240544   4.096   0.539   7.618
13035SOL     OW40545   3.863   1.147   8.931
13035SOL    HW140546   3.865   1.104   9.016
13035SOL    HW240547   3.876   1.076   8.868
13036SOL     OW40548   5.023   1.041   8.675
13036SOL    HW140549   5.048   0.978   8.606
13036SOL    HW240550   4.966   1.104   8.630
13037SOL     OW40551   5.048   0.848   7.749
13037SOL    HW140552   4.968   0.836   7.799
13037SOL    HW240553   5.020   0.844   7.658
13038SOL     OW40554   5.518   1.744   8.610
13038SOL    HW140555   5.562   1.768   8.529
13038SOL    HW240556   5.474   1.661   8.590
13039SOL     OW40557   4.965   1.731   8.577
13039SOL    HW140558   5.042   1.756   8.526
13039SOL    HW240559   4.970   1.636   8.584
13040SOL     OW40560   3.820   1.244   8.479
13040SOL    HW140561   3.788   1.271   8.565
13040SOL    HW240562   3.741   1.223   8.429
13041SOL     OW40563   4.394   1.687   9.179
13041SOL    HW140564   4.323   1.749   9.196
13041SOL    HW240565   4.422   1.706   9.089
13042SOL     OW40566   5.409   0.122   7.918
13042SOL    HW140567   5.427   0.107   7.825
13042SOL    HW240568   5.494   0.107   7.961
13043SOL     OW40569   5.115   1.569   7.943
13043SOL    HW140570   5.171   1.600   7.872
13043SOL    HW240571   5.061   1.645   7.965
13044SOL     OW40572   3.867   1.785   9.289
13044SOL    HW140573   3.819   1.720   9.340
13044SOL    HW240574   3.908   1.841   9.354
13045SOL     OW40575   4.994   0.933   8.111
13045SOL    HW140576   5.070   0.878   8.129
13045SOL    HW240577   5.028   1.004   8.057
13046SOL     OW40578   4.521   1.281   8.881
13046SOL    HW140579   4.491   1.323   8.961
13046SOL    HW240580   4.461   1.313   8.813
13047SOL     OW40581   4.412   1.601   7.594
13047SOL    HW140582   4.412   1.631   7.504
13047SOL    HW240583   4.342   1.536   7.598
13048SOL     OW40584   5.337   1.725   8.841
13048SOL    HW140585   5.397   1.729   8.767
13048SOL    HW240586   5.322   1.817   8.864
13049SOL     OW40587   5.563   0.190   8.407
13049SOL    HW140588   5.575   0.114   8.349
13049SOL    HW240589   5.477   0.224   8.383
13050SOL     OW40590   3.985   0.322   8.160
13050SOL    HW140591   3.898   0.348   8.129
13050SOL    HW240592   3.976   0.321   8.256
13051SOL     OW40593   4.937   1.603   7.481
13051SOL    HW140594   4.920   1.510   7.498
13051SOL    HW240595   4.876   1.626   7.411
13052SOL     OW40596   4.546   1.017   8.810
13052SOL    HW140597   4.559   1.023   8.716
13052SOL    HW240598   4.538   1.107   8.840
13053SOL     OW40599   4.645   0.906   7.753
13053SOL    HW140600   4.697   0.939   7.679
13053SOL    HW240601   4.699   0.837   7.791
13054SOL     OW40602   5.218   1.617   7.499
13054SOL    HW140603   5.124   1.617   7.485
13054SOL    HW240604   5.255   1.628   7.412
13055SOL     OW40605   4.095   1.307   8.943
13055SOL    HW140606   4.086   1.383   8.885
13055SOL    HW240607   4.015   1.256   8.927
13056SOL     OW40608   5.325   1.264   8.737
13056SOL    HW140609   5.416   1.288   8.755
13056SOL    HW240610   5.276   1.343   8.760
13057SOL     OW40611   4.791   1.117   8.170
13057SOL    HW140612   4.714   1.069   8.200
13057SOL    HW240613   4.850   1.050   8.136
13058SOL     OW40614   4.735   0.271   8.406
13058SOL    HW140615   4.714   0.221   8.327
13058SOL    HW240616   4.747   0.204   8.474
13059SOL     OW40617   4.337   1.503   7.944
13059SOL    HW140618   4.378   1.446   7.879
13059SOL    HW240619   4.279   1.560   7.893
13060SOL     OW40620   5.460   0.395   8.844
13060SOL    HW140621   5.528   0.461   8.855
13060SOL    HW240622   5.494   0.336   8.776
13061SOL     OW40623   3.994   1.334   7.761
13061SOL    HW140624   3.906   1.337   7.721
13061SOL    HW240625   3.985   1.384   7.841
13062SOL     OW40626   3.847   1.045   9.189
13062SOL    HW140627   3.767   1.015   9.232
13062SOL    HW240628   3.917   0.991   9.227
13063SOL     OW40629   4.387   0.197   8.935
13063SOL    HW140630   4.467   0.154   8.906
13063SOL    HW240631   4.388   0.189   9.031
13064SOL     OW40632   3.806   0.331   7.475
13064SOL    HW140633   3.714   0.326   7.450
13064SOL    HW240634   3.839   0.410   7.432
13065SOL     OW40635   5.140   0.851   8.836
13065SOL    HW140636   5.088   0.915   8.787
13065SOL    HW240637   5.228   0.857   8.798
13066SOL     OW40638   3.791   0.200   7.755
13066SOL    HW140639   3.783   0.265   7.685
13066SOL    HW240640   3.865   0.145   7.728
13067SOL     OW40641   4.895   1.330   7.561
13067SOL    HW140642   4.799   1.327   7.555
13067SOL    HW240643   4.912   1.332   7.656
13068SOL     OW40644   4.347   0.838   8.885
13068SOL    HW140645   4.399   0.916   8.864
13068SOL    HW240646   4.412   0.768   8.891
13069SOL     OW40647   5.189   1.775   8.429
13069SOL    HW140648   5.200   1.830   8.351
13069SOL    HW240649   5.271   1.727   8.436
13070SOL     OW40650   4.454   0.555   9.158
13070SOL    HW140651   4.479   0.632   9.209
13070SOL    HW240652   4.535   0.504   9.152
13071SOL     OW40653   5.204   1.187   9.081
13071SOL    HW140654   5.195   1.207   9.174
13071SOL    HW240655   5.295   1.208   9.060
13072SOL     OW40656   4.096   1.738   9.013
13072SOL    HW140657   4.014   1.782   8.988
13072SOL    HW240658   4.067   1.656   9.052
13073SOL     OW40659   5.381   0.874   8.703
13073SOL    HW140660   5.395   0.801   8.643
13073SOL    HW240661   5.369   0.950   8.646
13074SOL     OW40662   4.940   0.317   7.898
13074SOL    HW140663   5.010   0.253   7.886
13074SOL    HW240664   4.965   0.364   7.978
13075SOL     OW40665   4.302   0.735   8.134
13075SOL    HW140666   4.347   0.818   8.118
13075SOL    HW240667   4.244   0.724   8.059
13076SOL     OW40668   5.479   0.362   9.123
13076SOL    HW140669   5.486   0.378   9.028
13076SOL    HW240670   5.395   0.319   9.134
13077SOL     OW40671   5.484   0.928   8.957
13077SOL    HW140672   5.471   1.021   8.972
13077SOL    HW240673   5.462   0.915   8.865
13078SOL     OW40674   4.612   1.380   7.509
13078SOL    HW140675   4.551   1.421   7.571
13078SOL    HW240676   4.625   1.446   7.440
13079SOL     OW40677   4.391   1.786   8.393
13079SOL    HW140678   4.363   1.875   8.370
13079SOL    HW240679   4.484   1.784   8.373
13080SOL     OW40680   4.592   0.978   8.306
13080SOL    HW140681   4.644   0.905   8.340
13080SOL    HW240682   4.557   1.021   8.384
13081SOL     OW40683   4.792   0.975   7.541
13081SOL    HW140684   4.771   1.037   7.471
13081SOL    HW240685   4.871   0.930   7.510
13082SOL     OW40686   5.571   1.592   8.304
13082SOL    HW140687   5.504   1.557   8.246
13082SOL    HW240688   5.603   1.515   8.351
13083SOL     OW40689   3.936   1.290   9.297
13083SOL    HW140690   3.899   1.217   9.247
13083SOL    HW240691   3.873   1.306   9.367
13084SOL     OW40692   3.811   1.212   8.120
13084SOL    HW140693   3.861   1.166   8.188
13084SOL    HW240694   3.871   1.217   8.046
13085SOL     OW40695   4.425   1.415   9.107
13085SOL    HW140696   4.339   1.375   9.122
13085SOL    HW240697   4.410   1.508   9.123
13086SOL     OW40698   5.565   0.216   8.678
13086SOL    HW140699   5.515   0.134   8.682
13086SOL    HW240700   5.576   0.232   8.584
13087SOL     OW40701   4.175   0.426   7.992
13087SOL    HW140702   4.179   0.367   7.917
13087SOL    HW240703   4.105   0.390   8.047
13088SOL     OW40704   5.401   1.513   8.545
13088SOL    HW140705   5.326   1.477   8.496
13088SOL    HW240706   5.471   1.449   8.531
13089SOL     OW40707   4.070   0.566   8.742
13089SOL    HW140708   4.125   0.503   8.788
13089SOL    HW240709   4.079   0.543   8.649
13090SOL     OW40710   4.553   1.603   8.104
13090SOL    HW140711   4.555   1.686   8.057
13090SOL    HW240712   4.477   1.557   8.069
13091SOL     OW40713   4.739   0.069   8.587
13091SOL    HW140714   4.652   0.059   8.549
13091SOL    HW240715   4.780  -0.017   8.577
13092SOL     OW40716   4.485   1.329   7.793
13092SOL    HW140717   4.464   1.236   7.792
13092SOL    HW240718   4.576   1.334   7.821
13093SOL     OW40719   4.349   1.549   8.752
13093SOL    HW140720   4.351   1.630   8.803
13093SOL    HW240721   4.432   1.549   8.705
13094SOL     OW40722   5.074   7.976   7.556
13094SOL    HW140723   5.137   7.906   7.575
13094SOL    HW240724   5.000   7.958   7.614
13095SOL     OW40725   4.990   0.458   8.132
13095SOL    HW140726   4.936   0.535   8.119
13095SOL    HW240727   5.041   0.477   8.210
13096SOL     OW40728   5.302   0.263   8.357
13096SOL    HW140729   5.240   0.209   8.309
13096SOL    HW240730   5.314   0.341   8.302
13097SOL     OW40731   3.763   1.062   7.766
13097SOL    HW140732   3.856   1.057   7.746
13097SOL    HW240733   3.738   0.972   7.787
13098SOL     OW40734   4.610   1.662   7.779
13098SOL    HW140735   4.540   1.644   7.716
13098SOL    HW240736   4.577   1.736   7.831
13099SOL     OW40737   3.939   0.617   9.446
13099SOL    HW140738   3.850   0.614   9.481
13099SOL    HW240739   3.928   0.603   9.352
13100SOL     OW40740   3.947   0.298  10.298
13100SOL    HW140741   3.977   0.258  10.380
13100SOL    HW240742   3.866   0.251  10.277
13101SOL     OW40743   3.737   0.389   9.931
13101SOL    HW140744   3.649   0.403   9.967
13101SOL    HW240745   3.723   0.340   9.850
13102SOL     OW40746   4.307   1.309  10.501
13102SOL    HW140747   4.219   1.299  10.465
13102SOL    HW240748   4.319   1.403  10.508
13103SOL     OW40749   5.307   1.517  10.019
13103SOL    HW140750   5.259   1.493  10.098
13103SOL    HW240751   5.239   1.523   9.951
13104SOL     OW40752   4.863   0.700  10.003
13104SOL    HW140753   4.908   0.784   9.990
13104SOL    HW240754   4.814   0.713  10.084
13105SOL     OW40755   5.516   0.597   9.533
13105SOL    HW140756   5.482   0.599   9.443
13105SOL    HW240757   5.473   0.522   9.573
13106SOL     OW40758   4.478   1.135  10.369
13106SOL    HW140759   4.412   1.175  10.425
13106SOL    HW240760   4.509   1.207  10.314
13107SOL     OW40761   4.590   0.749  11.139
13107SOL    HW140762   4.543   0.810  11.195
13107SOL    HW240763   4.617   0.801  11.063
13108SOL     OW40764   4.411   0.988   9.954
13108SOL    HW140765   4.476   0.986  10.025
13108SOL    HW240766   4.343   1.047   9.987
13109SOL     OW40767   4.447   1.160  11.122
13109SOL    HW140768   4.488   1.236  11.162
13109SOL    HW240769   4.362   1.191  11.091
13110SOL     OW40770   4.068   1.405  10.382
13110SOL    HW140771   3.991   1.363  10.345
13110SOL    HW240772   4.102   1.460  10.311
13111SOL     OW40773   5.182   1.502  10.676
13111SOL    HW140774   5.236   1.580  10.684
13111SOL    HW240775   5.111   1.515  10.738
13112SOL     OW40776   4.171   0.381  10.772
13112SOL    HW140777   4.250   0.331  10.788
13112SOL    HW240778   4.099   0.321  10.792
13113SOL     OW40779   5.341   0.456  10.036
13113SOL    HW140780   5.286   0.484   9.963
13113SOL    HW240781   5.337   0.529  10.098
13114SOL     OW40782   3.946   1.716   9.772
13114SOL    HW140783   3.968   1.791   9.827
13114SOL    HW240784   4.019   1.709   9.710
13115SOL     OW40785   4.859   1.341  10.999
13115SOL    HW140786   4.900   1.337  11.085
13115SOL    HW240787   4.808   1.260  10.994
13116SOL     OW40788   3.958   1.454   9.857
13116SOL    HW140789   3.942   1.547   9.843
13116SOL    HW240790   3.892   1.428   9.922
13117SOL     OW40791   4.009   1.092  10.207
13117SOL    HW140792   3.994   1.002  10.237
13117SOL    HW240793   3.946   1.144  10.257
13118SOL     OW40794   4.348   1.742  10.746
13118SOL    HW140795   4.263   1.731  10.790
13118SOL    HW240796   4.368   1.835  10.756
13119SOL     OW40797   4.302   0.986   9.455
13119SOL    HW140798   4.348   1.034   9.386
13119SOL    HW240799   4.341   1.018   9.536
13120SOL     OW40800   5.393   0.124  10.774
13120SOL    HW140801   5.344   0.189  10.722
13120SOL    HW240802   5.355   0.130  10.861
13121SOL     OW40803   3.855   0.653   9.875
13121SOL    HW140804   3.820   0.566   9.894
13121SOL    HW240805   3.840   0.703   9.955
13122SOL     OW40806   5.567   1.752   9.641
13122SOL    HW140807   5.641   1.732   9.698
13122SOL    HW240808   5.581   1.844   9.616
13123SOL     OW40809   3.773   1.584   9.439
13123SOL    HW140810   3.748   1.494   9.459
13123SOL    HW240811   3.740   1.635   9.513
13124SOL     OW40812   5.416   0.921   9.954
13124SOL    HW140813   5.493   0.874   9.921
13124SOL    HW240814   5.389   0.977   9.882
13125SOL     OW40815   5.374   1.104   9.743
13125SOL    HW140816   5.460   1.104   9.701
13125SOL    HW240817   5.383   1.168   9.814
13126SOL     OW40818   3.841   0.758  10.898
13126SOL    HW140819   3.923   0.802  10.919
13126SOL    HW240820   3.777   0.830  10.889
13127SOL     OW40821   4.337   1.391  10.059
13127SOL    HW140822   4.294   1.306  10.057
13127SOL    HW240823   4.330   1.423   9.969
13128SOL     OW40824   4.993   1.241  10.716
13128SOL    HW140825   5.026   1.169  10.662
13128SOL    HW240826   5.049   1.240  10.794
13129SOL     OW40827   4.578   0.021   9.873
13129SOL    HW140828   4.605   0.110   9.848
13129SOL    HW240829   4.483   0.021   9.862
13130SOL     OW40830   3.907   0.956  10.595
13130SOL    HW140831   3.993   0.917  10.579
13130SOL    HW240832   3.852   0.922  10.524
13131SOL     OW40833   5.260   0.995   9.514
13131SOL    HW140834   5.191   0.938   9.546
13131SOL    HW240835   5.300   1.031   9.593
13132SOL     OW40836   4.904   1.816  10.930
13132SOL    HW140837   4.914   1.882  10.862
13132SOL    HW240838   4.933   1.734  10.889
13133SOL     OW40839   4.035   0.226  11.080
13133SOL    HW140840   4.100   0.292  11.104
13133SOL    HW240841   3.958   0.248  11.134
13134SOL     OW40842   5.189   1.422  10.248
13134SOL    HW140843   5.125   1.436  10.318
13134SOL    HW240844   5.177   1.330  10.224
13135SOL     OW40845   5.377   1.767   9.886
13135SOL    HW140846   5.359   1.731   9.800
13135SOL    HW240847   5.365   1.693   9.946
13136SOL     OW40848   4.319   0.721   9.585
13136SOL    HW140849   4.317   0.805   9.540
13136SOL    HW240850   4.253   0.729   9.654
13137SOL     OW40851   5.017   0.381  10.246
13137SOL    HW140852   4.926   0.355  10.254
13137SOL    HW240853   5.064   0.325  10.308
13138SOL     OW40854   5.305   1.664   9.630
13138SOL    HW140855   5.396   1.691   9.618
13138SOL    HW240856   5.277   1.638   9.542
13139SOL     OW40857   4.501   0.641  10.750
13139SOL    HW140858   4.485   0.609  10.838
13139SOL    HW240859   4.488   0.564  10.694
13140SOL     OW40860   5.144   0.496  10.992
13140SOL    HW140861   5.140   0.541  11.077
13140SOL    HW240862   5.224   0.444  10.996
13141SOL     OW40863   4.670   0.881  10.901
13141SOL    HW140864   4.722   0.811  10.861
13141SOL    HW240865   4.621   0.919  10.829
13142SOL     OW40866   4.733   0.412  10.525
13142SOL    HW140867   4.643   0.430  10.551
13142SOL    HW240868   4.726   0.375  10.437
13143SOL     OW40869   4.782   0.694   9.733
13143SOL    HW140870   4.800   0.689   9.827
13143SOL    HW240871   4.696   0.653   9.724
13144SOL     OW40872   3.810   0.811  10.093
13144SOL    HW140873   3.890   0.811  10.145
13144SOL    HW240874   3.762   0.888  10.123
13145SOL     OW40875   3.851   1.864  10.893
13145SOL    HW140876   3.858   1.841  10.985
13145SOL    HW240877   3.761   1.841  10.869
13146SOL     OW40878   4.618   0.350   9.519
13146SOL    HW140879   4.663   0.401   9.452
13146SOL    HW240880   4.613   0.261   9.483
13147SOL     OW40881   5.493   0.600  11.122
13147SOL    HW140882   5.435   0.666  11.082
13147SOL    HW240883   5.483   0.523  11.066
13148SOL     OW40884   5.105   1.143   9.843
13148SOL    HW140885   5.185   1.134   9.791
13148SOL    HW240886   5.052   1.207   9.796
13149SOL     OW40887   4.270   0.216  10.246
13149SOL    HW140888   4.258   0.262  10.330
13149SOL    HW240889   4.283   0.286  10.182
13150SOL     OW40890   4.722   1.453   9.780
13150SOL    HW140891   4.692   1.524   9.723
13150SOL    HW240892   4.689   1.478   9.867
13151SOL     OW40893   4.073   1.817  10.188
13151SOL    HW140894   4.123   1.735  10.194
13151SOL    HW240895   4.138   1.885  10.206
13152SOL     OW40896   5.525   1.039  10.192
13152SOL    HW140897   5.477   1.028  10.110
13152SOL    HW240898   5.457   1.049  10.259
13153SOL     OW40899   4.948   1.545  10.822
13153SOL    HW140900   4.936   1.472  10.883
13153SOL    HW240901   4.872   1.541  10.765
13154SOL     OW40902   4.035   0.961   9.568
13154SOL    HW140903   4.117   0.986   9.525
13154SOL    HW240904   4.003   0.886   9.518
13155SOL     OW40905   5.206   0.758  10.028
13155SOL    HW140906   5.204   0.718  10.115
13155SOL    HW240907   5.285   0.812  10.027
13156SOL     OW40908   4.203   1.273  11.039
13156SOL    HW140909   4.175   1.276  10.948
13156SOL    HW240910   4.122   1.264  11.089
13157SOL     OW40911   4.834   1.757   9.479
13157SOL    HW140912   4.775   1.716   9.541
13157SOL    HW240913   4.778   1.816   9.428
13158SOL     OW40914   3.908   0.261  10.808
13158SOL    HW140915   3.858   0.341  10.795
13158SOL    HW240916   3.923   0.257  10.903
13159SOL     OW40917   5.354   1.386   9.419
13159SOL    HW140918   5.314   1.467   9.388
13159SOL    HW240919   5.291   1.318   9.394
13160SOL     OW40920   4.195   1.726   9.636
13160SOL    HW140921   4.238   1.791   9.691
13160SOL    HW240922   4.261   1.703   9.571
13161SOL     OW40923   5.154   0.110   9.742
13161SOL    HW140924   5.144   0.073   9.655
13161SOL    HW240925   5.247   0.130   9.750
13162SOL     OW40926   3.966   1.793  10.531
13162SOL    HW140927   4.010   1.715  10.563
13162SOL    HW240928   3.947   1.774  10.439
13163SOL     OW40929   4.680   1.689  10.209
13163SOL    HW140930   4.769   1.655  10.200
13163SOL    HW240931   4.631   1.645  10.140
13164SOL     OW40932   4.129   0.686   9.788
13164SOL    HW140933   4.148   0.594   9.805
13164SOL    HW240934   4.034   0.694   9.800
13165SOL     OW40935   5.280   0.191  11.014
13165SOL    HW140936   5.294   0.238  11.097
13165SOL    HW240937   5.190   0.160  11.019
13166SOL     OW40938   4.283   0.103   9.435
13166SOL    HW140939   4.376   0.088   9.454
13166SOL    HW240940   4.273   0.082   9.343
13167SOL     OW40941   4.443   0.300  11.066
13167SOL    HW140942   4.532   0.265  11.072
13167SOL    HW240943   4.399   0.266  11.143
13168SOL     OW40944   5.062   0.595  10.748
13168SOL    HW140945   5.101   0.568  10.831
13168SOL    HW240946   5.098   0.683  10.733
13169SOL     OW40947   4.546   1.399  10.281
13169SOL    HW140948   4.628   1.387  10.233
13169SOL    HW240949   4.480   1.409  10.213
13170SOL     OW40950   4.651   0.542  10.201
13170SOL    HW140951   4.626   0.527  10.110
13170SOL    HW240952   4.690   0.459  10.229
13171SOL     OW40953   4.321   0.026   9.745
13171SOL    HW140954   4.251  -0.023   9.785
13171SOL    HW240955   4.286   0.115   9.735
13172SOL     OW40956   5.159   1.202   9.357
13172SOL    HW140957   5.188   1.123   9.404
13172SOL    HW240958   5.072   1.220   9.391
13173SOL     OW40959   4.002   0.045   9.510
13173SOL    HW140960   4.063   0.086   9.449
13173SOL    HW240961   4.056   0.019   9.584
13174SOL     OW40962   4.681   0.256   9.776
13174SOL    HW140963   4.646   0.287   9.693
13174SOL    HW240964   4.775   0.275   9.772
13175SOL     OW40965   4.801   0.677  10.770
13175SOL    HW140966   4.745   0.600  10.786
13175SOL    HW240967   4.889   0.641  10.765
13176SOL     OW40968   4.929   1.593  10.117
13176SOL    HW140969   4.945   1.649  10.041
13176SOL    HW240970   5.008   1.601  10.171
13177SOL     OW40971   4.203   1.153  10.030
13177SOL    HW140972   4.138   1.132  10.097
13177SOL    HW240973   4.157   1.145   9.947
13178SOL     OW40974   4.981   1.794   9.925
13178SOL    HW140975   5.032   1.853   9.870
13178SOL    HW240976   4.912   1.849   9.961
13179SOL     OW40977   4.745   0.529   9.333
13179SOL    HW140978   4.702   0.613   9.315
13179SOL    HW240979   4.807   0.548   9.404
13180SOL     OW40980   3.820   0.556  10.716
13180SOL    HW140981   3.910   0.560  10.683
13180SOL    HW240982   3.814   0.629  10.778
13181SOL     OW40983   4.293   0.235  10.529
13181SOL    HW140984   4.326   0.206  10.615
13181SOL    HW240985   4.198   0.225  10.536
13182SOL     OW40986   4.596   0.470   9.945
13182SOL    HW140987   4.557   0.523   9.876
13182SOL    HW240988   4.608   0.384   9.906
13183SOL     OW40989   5.166   1.159  10.164
13183SOL    HW140990   5.093   1.097  10.156
13183SOL    HW240991   5.200   1.169  10.075
13184SOL     OW40992   5.189   0.615  10.266
13184SOL    HW140993   5.133   0.537  10.269
13184SOL    HW240994   5.244   0.607  10.344
13185SOL     OW40995   5.561   0.806   9.704
13185SOL    HW140996   5.625   0.758   9.758
13185SOL    HW240997   5.542   0.746   9.632
13186SOL     OW40998   4.217   1.420   9.456
13186SOL    HW140999   4.146   1.391   9.514
13186SOL    HW241000   4.196   1.379   9.372
13187SOL     OW41001   5.404   1.259   9.961
13187SOL    HW141002   5.499   1.255   9.974
13187SOL    HW241003   5.382   1.351   9.975
13188SOL     OW41004   5.118   0.577   9.380
13188SOL    HW141005   5.055   0.557   9.450
13188SOL    HW241006   5.204   0.565   9.421
13189SOL     OW41007   4.223   0.274   9.633
13189SOL    HW141008   4.243   0.212   9.563
13189SOL    HW241009   4.209   0.357   9.589
13190SOL     OW41010   5.468   1.239  10.865
13190SOL    HW141011   5.556   1.208  10.844
13190SOL    HW241012   5.481   1.330  10.894
13191SOL     OW41013   4.754   1.352  10.630
13191SOL    HW141014   4.690   1.319  10.692
13191SOL    HW241015   4.838   1.320  10.664
13192SOL     OW41016   5.333   1.630  10.972
13192SOL    HW141017   5.321   1.667  10.885
13192SOL    HW241018   5.413   1.578  10.965
13193SOL     OW41019   4.877   1.216  10.405
13193SOL    HW141020   4.800   1.228  10.462
13193SOL    HW241021   4.848   1.249  10.320
13194SOL     OW41022   5.336   1.089  10.384
13194SOL    HW141023   5.328   1.155  10.452
13194SOL    HW241024   5.266   1.110  10.322
13195SOL     OW41025   4.644   0.124  10.699
13195SOL    HW141026   4.662   0.113  10.606
13195SOL    HW241027   4.730   0.128  10.740
13196SOL     OW41028   4.708   1.113  11.035
13196SOL    HW141029   4.618   1.130  11.062
13196SOL    HW241030   4.703   1.032  10.984
13197SOL     OW41031   4.437   1.062   9.684
13197SOL    HW141032   4.420   1.037   9.775
13197SOL    HW241033   4.513   1.010   9.659
13198SOL     OW41034   4.144   0.823  10.562
13198SOL    HW141035   4.208   0.837  10.632
13198SOL    HW241036   4.111   0.734  10.576
13199SOL     OW41037   4.992   0.377  10.600
13199SOL    HW141038   5.022   0.458  10.641
13199SOL    HW241039   4.904   0.398  10.568
13200SOL     OW41040   3.791   1.573  10.671
13200SOL    HW141041   3.755   1.641  10.614
13200SOL    HW241042   3.886   1.578  10.658
13201SOL     OW41043   4.058   1.125   9.798
13201SOL    HW141044   4.054   1.200   9.738
13201SOL    HW241045   4.056   1.048   9.741
13202SOL     OW41046   4.277   0.516  10.171
13202SOL    HW141047   4.285   0.573  10.095
13202SOL    HW241048   4.342   0.550  10.233
13203SOL     OW41049   4.969   1.355   9.709
13203SOL    HW141050   5.025   1.425   9.740
13203SOL    HW241051   4.882   1.378   9.739
13204SOL     OW41052   5.019   1.455  10.459
13204SOL    HW141053   5.072   1.459  10.538
13204SOL    HW241054   4.975   1.370  10.463
13205SOL     OW41055   5.295   0.624   9.798
13205SOL    HW141056   5.244   0.672   9.862
13205SOL    HW241057   5.340   0.691   9.747
13206SOL     OW41058   4.059   1.543  10.613
13206SOL    HW141059   4.063   1.488  10.535
13206SOL    HW241060   4.148   1.544  10.647
13207SOL     OW41061   4.170   0.706  10.935
13207SOL    HW141062   4.207   0.765  10.869
13207SOL    HW241063   4.243   0.649  10.960
13208SOL     OW41064   5.341   0.790  11.002
13208SOL    HW141065   5.254   0.828  10.996
13208SOL    HW241066   5.391   0.831  10.930
13209SOL     OW41067   4.763   0.060  11.057
13209SOL    HW141068   4.783   0.151  11.033
13209SOL    HW241069   4.670   0.050  11.040
13210SOL     OW41070   4.230   0.028  11.044
13210SOL    HW141071   4.206  -0.027  10.970
13210SOL    HW241072   4.161   0.095  11.048
13211SOL     OW41073   4.310   0.869  10.346
13211SOL    HW141074   4.334   0.962  10.344
13211SOL    HW241075   4.248   0.862  10.419
13212SOL     OW41076   5.055   0.854  10.325
13212SOL    HW141077   4.967   0.837  10.292
13212SOL    HW241078   5.104   0.774  10.309
13213SOL     OW41079   4.919   0.524   9.564
13213SOL    HW141080   4.927   0.445   9.617
13213SOL    HW241081   4.879   0.588   9.622
13214SOL     OW41082   4.022   0.197  10.547
13214SOL    HW141083   3.967   0.209  10.624
13214SOL    HW241084   4.003   0.108  10.517
13215SOL     OW41085   3.772   1.312  10.585
13215SOL    HW141086   3.804   1.257  10.656
13215SOL    HW241087   3.772   1.400  10.621
13216SOL     OW41088   4.440   0.628  10.362
13216SOL    HW141089   4.516   0.623  10.304
13216SOL    HW241090   4.405   0.716  10.349
13217SOL     OW41091   5.470   0.964  11.178
13217SOL    HW141092   5.432   0.895  11.124
13217SOL    HW241093   5.404   0.982  11.245
13218SOL     OW41094   4.130   0.104   9.972
13218SOL    HW141095   4.085   0.185   9.997
13218SOL    HW241096   4.062   0.047   9.938
13219SOL     OW41097   5.350   0.399   9.653
13219SOL    HW141098   5.372   0.328   9.714
13219SOL    HW241099   5.321   0.471   9.710
13220SOL     OW41100   4.764   0.775  10.276
13220SOL    HW141101   4.747   0.786  10.370
13220SOL    HW241102   4.727   0.689  10.256
13221SOL     OW41103   4.703   1.566  11.031
13221SOL    HW141104   4.683   1.606  10.946
13221SOL    HW241105   4.744   1.482  11.008
13222SOL     OW41106   5.566   1.497  10.907
13222SOL    HW141107   5.590   1.525  10.819
13222SOL    HW241108   5.647   1.507  10.958
13223SOL     OW41109   4.050   0.921  11.095
13223SOL    HW141110   4.065   0.931  11.189
13223SOL    HW241111   4.114   0.855  11.067
13224SOL     OW41112   5.252   0.259   9.437
13224SOL    HW141113   5.268   0.170   9.470
13224SOL    HW241114   5.288   0.316   9.505
13225SOL     OW41115   5.012   0.829   9.333
13225SOL    HW141116   5.054   0.743   9.336
13225SOL    HW241117   5.043   0.867   9.250
13226SOL     OW41118   4.790   1.348  10.175
13226SOL    HW141119   4.796   1.275  10.113
13226SOL    HW241120   4.844   1.417  10.137
13227SOL     OW41121   4.031   0.811  10.256
13227SOL    HW141122   4.124   0.829  10.240
13227SOL    HW241123   4.030   0.721  10.289
13228SOL     OW41124   4.057   0.538  10.324
13228SOL    HW141125   4.014   0.454  10.309
13228SOL    HW241126   4.133   0.537  10.266
13229SOL     OW41127   4.900   0.368  11.025
13229SOL    HW141128   4.836   0.423  11.070
13229SOL    HW241129   4.974   0.426  11.009
13230SOL     OW41130   4.889   0.219  10.796
13230SOL    HW141131   4.900   0.271  10.876
13230SOL    HW241132   4.928   0.272  10.727
13231SOL     OW41133   3.745   1.308   9.500
13231SOL    HW141134   3.656   1.328   9.469
13231SOL    HW241135   3.738   1.222   9.540
13232SOL     OW41136   3.816   1.773  10.263
13232SOL    HW141137   3.783   1.700  10.211
13232SOL    HW241138   3.902   1.793  10.226
13233SOL     OW41139   4.220   1.579  10.221
13233SOL    HW141140   4.291   1.642  10.234
13233SOL    HW241141   4.255   1.516  10.158
13234SOL     OW41142   4.686   0.785  10.540
13234SOL    HW141143   4.747   0.762  10.610
13234SOL    HW241144   4.602   0.749  10.568
13235SOL     OW41145   3.759   0.549  10.436
13235SOL    HW141146   3.836   0.548  10.378
13235SOL    HW241147   3.796   0.550  10.524
13236SOL     OW41148   3.924   0.536  11.037
13236SOL    HW141149   4.012   0.549  11.003
13236SOL    HW241150   3.872   0.604  10.995
13237SOL     OW41151   5.108   0.930  10.965
13237SOL    HW141152   5.126   1.024  10.959
13237SOL    HW241153   5.103   0.901  10.875
13238SOL     OW41154   4.540   0.573   9.684
13238SOL    HW141155   4.544   0.499   9.624
13238SOL    HW241156   4.466   0.625   9.652
13239SOL     OW41157   5.362   0.609  10.478
13239SOL    HW141158   5.354   0.553  10.555
13239SOL    HW241159   5.451   0.592  10.446
13240SOL     OW41160   3.961   1.544  11.028
13240SOL    HW141161   3.941   1.613  11.091
13240SOL    HW241162   3.970   1.465  11.081
13241SOL     OW41163   4.462   0.449  10.563
13241SOL    HW141164   4.397   0.380  10.550
13241SOL    HW241165   4.444   0.512  10.494
13242SOL     OW41166   4.629   1.671  10.762
13242SOL    HW141167   4.534   1.684  10.768
13242SOL    HW241168   4.664   1.759  10.751
13243SOL     OW41169   4.184   0.499   9.488
13243SOL    HW141170   4.240   0.573   9.511
13243SOL    HW241171   4.097   0.538   9.478
13244SOL     OW41172   3.874   1.147  10.783
13244SOL    HW141173   3.866   1.104  10.868
13244SOL    HW241174   3.885   1.075  10.720
13245SOL     OW41175   5.042   1.037  10.526
13245SOL    HW141176   5.060   0.972  10.458
13245SOL    HW241177   4.986   1.101  10.482
13246SOL     OW41178   5.046   0.849   9.609
13246SOL    HW141179   4.968   0.824   9.659
13246SOL    HW241180   5.017   0.845   9.518
13247SOL     OW41181   5.506   1.735  10.472
13247SOL    HW141182   5.565   1.760  10.401
13247SOL    HW241183   5.474   1.648  10.447
13248SOL     OW41184   4.968   1.725  10.419
13248SOL    HW141185   5.048   1.754  10.376
13248SOL    HW241186   4.983   1.632  10.437
13249SOL     OW41187   3.827   1.256  10.326
13249SOL    HW141188   3.802   1.275  10.417
13249SOL    HW241189   3.750   1.212  10.289
13250SOL     OW41190   4.399   1.677  11.062
13250SOL    HW141191   4.328   1.741  11.064
13250SOL    HW241192   4.475   1.727  11.032
13251SOL     OW41193   5.433   0.167   9.791
13251SOL    HW141194   5.493   0.167   9.716
13251SOL    HW241195   5.485   0.130   9.862
13252SOL     OW41196   5.121   1.569   9.814
13252SOL    HW141197   5.177   1.600   9.744
13252SOL    HW241198   5.068   1.646   9.838
13253SOL     OW41199   3.871   1.786  11.150
13253SOL    HW141200   3.818   1.722  11.199
13253SOL    HW241201   3.916   1.836  11.217
13254SOL     OW41202   5.002   0.934   9.980
13254SOL    HW141203   5.076   0.874   9.991
13254SOL    HW241204   5.036   1.004   9.923
13255SOL     OW41205   4.497   1.295  10.711
13255SOL    HW141206   4.475   1.337  10.794
13255SOL    HW241207   4.412   1.280  10.669
13256SOL     OW41208   4.400   1.622   9.457
13256SOL    HW141209   4.404   1.642   9.363
13256SOL    HW241210   4.340   1.547   9.463
13257SOL     OW41211   5.337   1.730  10.704
13257SOL    HW141212   5.394   1.732  10.627
13257SOL    HW241213   5.324   1.822  10.726
13258SOL     OW41214   5.585   0.159  10.249
13258SOL    HW141215   5.572   0.075  10.294
13258SOL    HW241216   5.497   0.183  10.218
13259SOL     OW41217   3.987   0.329  10.027
13259SOL    HW141218   3.900   0.353   9.994
13259SOL    HW241219   3.977   0.325  10.122
13260SOL     OW41220   4.546   1.016  10.692
13260SOL    HW141221   4.584   0.999  10.605
13260SOL    HW241222   4.539   1.111  10.698
13261SOL     OW41223   4.648   0.914   9.611
13261SOL    HW141224   4.704   0.945   9.540
13261SOL    HW241225   4.698   0.842   9.651
13262SOL     OW41226   5.218   1.631   9.346
13262SOL    HW141227   5.196   1.723   9.357
13262SOL    HW241228   5.257   1.625   9.259
13263SOL     OW41229   4.096   1.308  10.791
13263SOL    HW141230   4.058   1.390  10.759
13263SOL    HW241231   4.024   1.245  10.786
13264SOL     OW41232   5.324   1.285  10.578
13264SOL    HW141233   5.399   1.275  10.636
13264SOL    HW241234   5.269   1.351  10.621
13265SOL     OW41235   4.793   1.117  10.037
13265SOL    HW141236   4.718   1.064  10.065
13265SOL    HW241237   4.856   1.052  10.004
13266SOL     OW41238   4.748   0.287  10.270
13266SOL    HW141239   4.695   0.254  10.197
13266SOL    HW241240   4.760   0.210  10.327
13267SOL     OW41241   4.343   1.498   9.805
13267SOL    HW141242   4.384   1.443   9.738
13267SOL    HW241243   4.270   1.540   9.760
13268SOL     OW41244   5.444   0.425  10.680
13268SOL    HW141245   5.519   0.483  10.693
13268SOL    HW241246   5.478   0.355  10.624
13269SOL     OW41247   4.004   1.335   9.621
13269SOL    HW141248   3.919   1.335   9.579
13269SOL    HW241249   3.991   1.384   9.702
13270SOL     OW41250   3.821   1.048  11.030
13270SOL    HW141251   3.751   1.017  11.087
13270SOL    HW241252   3.899   1.004  11.062
13271SOL     OW41253   4.396   0.216  10.799
13271SOL    HW141254   4.472   0.163  10.774
13271SOL    HW241255   4.411   0.238  10.891
13272SOL     OW41256   3.801   0.331   9.339
13272SOL    HW141257   3.707   0.323   9.326
13272SOL    HW241258   3.827   0.408   9.288
13273SOL     OW41259   5.148   0.856  10.705
13273SOL    HW141260   5.097   0.917  10.651
13273SOL    HW241261   5.236   0.860  10.669
13274SOL     OW41262   3.807   0.225   9.616
13274SOL    HW141263   3.800   0.276   9.535
13274SOL    HW241264   3.866   0.154   9.594
13275SOL     OW41265   4.894   1.357   9.433
13275SOL    HW141266   4.798   1.355   9.434
13275SOL    HW241267   4.919   1.356   9.525
13276SOL     OW41268   4.333   0.847  10.750
13276SOL    HW141269   4.392   0.922  10.741
13276SOL    HW241270   4.392   0.771  10.752
13277SOL     OW41271   5.204   1.791  10.293
13277SOL    HW141272   5.224   1.863  10.233
13277SOL    HW241273   5.290   1.759  10.321
13278SOL     OW41274   4.415   0.572  11.003
13278SOL    HW141275   4.470   0.623  11.062
13278SOL    HW241276   4.428   0.481  11.030
13279SOL     OW41277   5.191   1.194  10.931
13279SOL    HW141278   5.184   1.212  11.024
13279SOL    HW241279   5.283   1.213  10.909
13280SOL     OW41280   4.094   1.724  10.862
13280SOL    HW141281   4.017   1.778  10.844
13280SOL    HW241282   4.061   1.651  10.913
13281SOL     OW41283   5.386   0.880  10.566
13281SOL    HW141284   5.381   0.796  10.521
13281SOL    HW241285   5.372   0.945  10.496
13282SOL     OW41286   4.951   0.314   9.760
13282SOL    HW141287   5.019   0.246   9.754
13282SOL    HW241288   4.977   0.366   9.836
13283SOL     OW41289   4.308   0.729   9.994
13283SOL    HW141290   4.351   0.813   9.977
13283SOL    HW241291   4.246   0.719   9.921
13284SOL     OW41292   5.473   0.389  10.947
13284SOL    HW141293   5.452   0.399  10.854
13284SOL    HW241294   5.426   0.310  10.974
13285SOL     OW41295   5.481   0.935  10.819
13285SOL    HW141296   5.464   1.029  10.833
13285SOL    HW241297   5.458   0.920  10.727
13286SOL     OW41298   4.609   1.377   9.383
13286SOL    HW141299   4.553   1.384   9.460
13286SOL    HW241300   4.590   1.455   9.332
13287SOL     OW41301   4.399   1.773  10.272
13287SOL    HW141302   4.362   1.860  10.256
13287SOL    HW241303   4.490   1.781  10.245
13288SOL     OW41304   4.594   0.973  10.168
13288SOL    HW141305   4.649   0.903  10.202
13288SOL    HW241306   4.553   1.012  10.245
13289SOL     OW41307   4.800   0.985   9.401
13289SOL    HW141308   4.776   1.041   9.328
13289SOL    HW241309   4.875   0.934   9.369
13290SOL     OW41310   5.568   1.552  10.145
13290SOL    HW141311   5.487   1.542  10.095
13290SOL    HW241312   5.563   1.486  10.213
13291SOL     OW41313   3.966   1.302  11.172
13291SOL    HW141314   3.896   1.238  11.158
13291SOL    HW241315   3.965   1.319  11.266
13292SOL     OW41316   3.812   1.226   9.975
13292SOL    HW141317   3.832   1.176  10.053
13292SOL    HW241318   3.879   1.200   9.912
13293SOL     OW41319   4.407   1.428  10.931
13293SOL    HW141320   4.336   1.379  10.974
13293SOL    HW241321   4.407   1.513  10.975
13294SOL     OW41322   5.552   0.230  10.531
13294SOL    HW141323   5.492   0.156  10.539
13294SOL    HW241324   5.567   0.239  10.437
13295SOL     OW41325   4.178   0.428   9.856
13295SOL    HW141326   4.181   0.367   9.782
13295SOL    HW241327   4.107   0.394   9.911
13296SOL     OW41328   5.414   1.490  10.397
13296SOL    HW141329   5.337   1.471  10.343
13296SOL    HW241330   5.417   1.419  10.461
13297SOL     OW41331   4.063   0.565  10.602
13297SOL    HW141332   4.113   0.503  10.655
13297SOL    HW241333   4.079   0.537  10.512
13298SOL     OW41334   4.556   1.602   9.980
13298SOL    HW141335   4.550   1.681   9.927
13298SOL    HW241336   4.482   1.548   9.951
13299SOL     OW41337   5.157   0.233  10.426
13299SOL    HW141338   5.211   0.166  10.468
13299SOL    HW241339   5.107   0.272  10.498
13300SOL     OW41340   4.742   0.066  10.428
13300SOL    HW141341   4.652   0.056  10.399
13300SOL    HW241342   4.765  -0.019  10.465
13301SOL     OW41343   4.495   1.332   9.640
13301SOL    HW141344   4.466   1.241   9.646
13301SOL    HW241345   4.580   1.334   9.685
13302SOL     OW41346   4.384   1.581  10.532
13302SOL    HW141347   4.373   1.634  10.610
13302SOL    HW241348   4.356   1.638  10.460
13303SOL     OW41349   5.107   8.001   9.489
13303SOL    HW141350   5.122   7.910   9.464
13303SOL    HW241351   5.025   8.025   9.445
13304SOL     OW41352   5.013   0.462   9.981
13304SOL    HW141353   4.965   0.545   9.984
13304SOL    HW241354   5.021   0.435  10.072
13305SOL     OW41355   5.335   0.226  10.183
13305SOL    HW141356   5.259   0.229  10.241
13305SOL    HW241357   5.326   0.303  10.127
13306SOL     OW41358   3.765   1.060   9.629
13306SOL    HW141359   3.858   1.052   9.605
13306SOL    HW241360   3.737   0.971   9.649
13307SOL     OW41361   4.615   1.666   9.638
13307SOL    HW141362   4.540   1.648   9.582
13307SOL    HW241363   4.586   1.736   9.696
13308SOL     OW41364   3.938   0.624  11.308
13308SOL    HW141365   3.849   0.620  11.343
13308SOL    HW241366   3.927   0.608  11.214
13309SOL     OW41367   3.960   0.293  12.159
13309SOL    HW141368   3.989   0.253  12.242
13309SOL    HW241369   3.877   0.249  12.139
13310SOL     OW41370   3.727   0.377  11.793
13310SOL    HW141371   3.645   0.393  11.840
13310SOL    HW241372   3.704   0.315  11.724
13311SOL     OW41373   4.289   1.269  12.325
13311SOL    HW141374   4.210   1.300  12.280
13311SOL    HW241375   4.276   1.294  12.416
13312SOL     OW41376   5.303   1.523  11.883
13312SOL    HW141377   5.260   1.502  11.966
13312SOL    HW241378   5.231   1.530  11.820
13313SOL     OW41379   4.860   0.704  11.868
13313SOL    HW141380   4.899   0.791  11.860
13313SOL    HW241381   4.803   0.710  11.944
13314SOL     OW41382   5.510   0.610  11.394
13314SOL    HW141383   5.490   0.603  11.301
13314SOL    HW241384   5.484   0.526  11.431
13315SOL     OW41385   4.525   1.171  12.233
13315SOL    HW141386   4.440   1.200  12.267
13315SOL    HW241387   4.543   1.230  12.160
13316SOL     OW41388   4.415   0.992  11.818
13316SOL    HW141389   4.476   0.993  11.892
13316SOL    HW241390   4.341   1.046  11.847
13317SOL     OW41391   4.059   1.405  12.223
13317SOL    HW141392   3.980   1.376  12.178
13317SOL    HW241393   4.101   1.465  12.161
13318SOL     OW41394   5.339   0.466  11.903
13318SOL    HW141395   5.298   0.487  11.819
13318SOL    HW241396   5.316   0.539  11.960
13319SOL     OW41397   3.940   1.715  11.630
13319SOL    HW141398   3.963   1.788  11.687
13319SOL    HW241399   4.015   1.704  11.573
13320SOL     OW41400   3.996   1.462  11.742
13320SOL    HW141401   3.954   1.540  11.707
13320SOL    HW241402   3.924   1.403  11.765
13321SOL     OW41403   4.013   1.093  12.091
13321SOL    HW141404   4.004   1.000  12.109
13321SOL    HW241405   3.954   1.135  12.154
13322SOL     OW41406   4.383   0.946  11.294
13322SOL    HW141407   4.394   1.013  11.226
13322SOL    HW241408   4.377   0.995  11.376
13323SOL     OW41409   3.849   0.653  11.734
13323SOL    HW141410   3.818   0.565  11.754
13323SOL    HW241411   3.838   0.702  11.815
13324SOL     OW41412   5.568   1.749  11.498
13324SOL    HW141413   5.634   1.727  11.564
13324SOL    HW241414   5.582   1.842  11.480
13325SOL     OW41415   3.757   1.587  11.288
13325SOL    HW141416   3.746   1.495  11.312
13325SOL    HW241417   3.733   1.635  11.367
13326SOL     OW41418   5.418   0.922  11.817
13326SOL    HW141419   5.485   0.863  11.780
13326SOL    HW241420   5.388   0.973  11.743
13327SOL     OW41421   5.372   1.102  11.604
13327SOL    HW141422   5.458   1.100  11.562
13327SOL    HW241423   5.379   1.171  11.671
13328SOL     OW41424   3.910   0.756   0.224
13328SOL    HW141425   3.907   0.731   0.316
13328SOL    HW241426   3.822   0.787   0.205
13329SOL     OW41427   4.341   1.377  11.912
13329SOL    HW141428   4.287   1.297  11.912
13329SOL    HW241429   4.328   1.413  11.824
13330SOL     OW41430   4.566   0.039  11.743
13330SOL    HW141431   4.603   0.118  11.704
13330SOL    HW241432   4.473   0.042  11.719
13331SOL     OW41433   3.916   0.989  12.391
13331SOL    HW141434   3.999   0.941  12.400
13331SOL    HW241435   3.851   0.932  12.433
13332SOL     OW41436   5.254   1.004  11.372
13332SOL    HW141437   5.186   0.944  11.401
13332SOL    HW241438   5.295   1.035  11.453
13333SOL     OW41439   5.203   1.409  12.117
13333SOL    HW141440   5.134   1.425  12.182
13333SOL    HW241441   5.187   1.320  12.086
13334SOL     OW41442   5.386   1.763  11.744
13334SOL    HW141443   5.357   1.728  11.660
13334SOL    HW241444   5.366   1.694  11.807
13335SOL     OW41445   4.327   0.715  11.444
13335SOL    HW141446   4.336   0.795  11.392
13335SOL    HW241447   4.261   0.736  11.509
13336SOL     OW41448   5.031   0.370  12.112
13336SOL    HW141449   4.941   0.338  12.103
13336SOL    HW241450   5.071   0.311  12.177
13337SOL     OW41451   5.301   1.671  11.487
13337SOL    HW141452   5.392   1.696  11.475
13337SOL    HW241453   5.267   1.657  11.398
13338SOL     OW41454   4.701   0.364  12.359
13338SOL    HW141455   4.722   0.422  12.432
13338SOL    HW241456   4.606   0.363  12.355
13339SOL     OW41457   4.784   0.697  11.596
13339SOL    HW141458   4.802   0.689  11.690
13339SOL    HW241459   4.698   0.656  11.585
13340SOL     OW41460   3.805   0.812  11.956
13340SOL    HW141461   3.889   0.809  12.001
13340SOL    HW241462   3.764   0.893  11.987
13341SOL     OW41463   4.612   0.352  11.382
13341SOL    HW141464   4.657   0.402  11.313
13341SOL    HW241465   4.606   0.263  11.347
13342SOL     OW41466   5.104   1.149  11.708
13342SOL    HW141467   5.183   1.131  11.657
13342SOL    HW241468   5.053   1.209  11.653
13343SOL     OW41469   4.304   0.237  12.111
13343SOL    HW141470   4.247   0.314  12.117
13343SOL    HW241471   4.336   0.239  12.020
13344SOL     OW41472   4.724   1.467  11.682
13344SOL    HW141473   4.718   1.509  11.596
13344SOL    HW241474   4.660   1.515  11.736
13345SOL     OW41475   4.073   1.818  12.043
13345SOL    HW141476   4.119   1.734  12.050
13345SOL    HW241477   4.140   1.884  12.060
13346SOL     OW41478   5.525   1.059  12.036
13346SOL    HW141479   5.475   1.024  11.962
13346SOL    HW241480   5.462   1.064  12.107
13347SOL     OW41481   4.054   0.936  11.372
13347SOL    HW141482   4.053   0.994  11.448
13347SOL    HW241483   4.025   0.851  11.405
13348SOL     OW41484   5.195   0.772  11.895
13348SOL    HW141485   5.195   0.722  11.976
13348SOL    HW241486   5.281   0.815  11.892
13349SOL     OW41487   4.865   1.763  11.412
13349SOL    HW141488   4.778   1.737  11.443
13349SOL    HW241489   4.881   1.707  11.336
13350SOL     OW41490   5.360   1.384  11.275
13350SOL    HW141491   5.318   1.469  11.257
13350SOL    HW241492   5.294   1.320  11.247
13351SOL     OW41493   4.190   1.737  11.491
13351SOL    HW141494   4.234   1.795  11.552
13351SOL    HW241495   4.259   1.704  11.434
13352SOL     OW41496   5.118   0.117  11.617
13352SOL    HW141497   5.113   0.075  11.531
13352SOL    HW241498   5.212   0.128  11.633
13353SOL     OW41499   3.982   1.770  12.394
13353SOL    HW141500   3.927   1.729  12.460
13353SOL    HW241501   3.933   1.762  12.312
13354SOL     OW41502   4.662   1.695  12.064
13354SOL    HW141503   4.750   1.657  12.064
13354SOL    HW241504   4.619   1.656  11.988
13355SOL     OW41505   4.128   0.686  11.645
13355SOL    HW141506   4.145   0.593  11.661
13355SOL    HW241507   4.035   0.697  11.663
13356SOL     OW41508   4.333   0.147  11.266
13356SOL    HW141509   4.401   0.096  11.312
13356SOL    HW241510   4.299   0.087  11.200
13357SOL     OW41511   4.584   1.378  12.035
13357SOL    HW141512   4.568   1.446  12.101
13357SOL    HW241513   4.501   1.371  11.988
13358SOL     OW41514   4.658   0.522  12.062
13358SOL    HW141515   4.626   0.512  11.973
13358SOL    HW241516   4.700   0.439  12.083
13359SOL     OW41517   4.315   0.039  11.612
13359SOL    HW141518   4.242  -0.012  11.646
13359SOL    HW241519   4.275   0.123  11.586
13360SOL     OW41520   5.157   1.208  11.208
13360SOL    HW141521   5.183   1.131  11.258
13360SOL    HW241522   5.068   1.227  11.238
13361SOL     OW41523   4.033   0.044  11.365
13361SOL    HW141524   4.096   0.115  11.373
13361SOL    HW241525   4.047  -0.009  11.444
13362SOL     OW41526   4.675   0.266  11.637
13362SOL    HW141527   4.645   0.298  11.552
13362SOL    HW241528   4.770   0.281  11.636
13363SOL     OW41529   4.904   1.558  11.958
13363SOL    HW141530   4.932   1.624  11.895
13363SOL    HW241531   4.952   1.581  12.038
13364SOL     OW41532   4.197   1.143  11.895
13364SOL    HW141533   4.133   1.128  11.964
13364SOL    HW241534   4.148   1.133  11.814
13365SOL     OW41535   4.976   1.783  11.792
13365SOL    HW141536   5.025   1.845  11.738
13365SOL    HW241537   4.908   1.836  11.833
13366SOL     OW41538   4.746   0.522  11.200
13366SOL    HW141539   4.699   0.603  11.182
13366SOL    HW241540   4.806   0.545  11.271
13367SOL     OW41541   4.279   0.233  12.384
13367SOL    HW141542   4.287   0.222  12.289
13367SOL    HW241543   4.184   0.232  12.400
13368SOL     OW41544   4.589   0.474  11.805
13368SOL    HW141545   4.553   0.525  11.732
13368SOL    HW241546   4.612   0.390  11.766
13369SOL     OW41547   4.688   8.016  11.981
13369SOL    HW141548   4.646   8.033  11.897
13369SOL    HW241549   4.715   7.924  11.977
13370SOL     OW41550   5.156   1.153  12.020
13370SOL    HW141551   5.095   1.079  12.021
13370SOL    HW241552   5.176   1.165  11.927
13371SOL     OW41553   5.186   0.615  12.126
13371SOL    HW141554   5.135   0.533  12.127
13371SOL    HW241555   5.249   0.605  12.197
13372SOL     OW41556   5.565   0.810  11.570
13372SOL    HW141557   5.625   0.758  11.623
13372SOL    HW241558   5.537   0.751  11.500
13373SOL     OW41559   4.226   1.419  11.311
13373SOL    HW141560   4.147   1.407  11.364
13373SOL    HW241561   4.209   1.367  11.232
13374SOL     OW41562   5.404   1.277  11.804
13374SOL    HW141563   5.496   1.277  11.829
13374SOL    HW241564   5.372   1.363  11.830
13375SOL     OW41565   5.122   0.576  11.252
13375SOL    HW141566   5.056   0.558  11.319
13375SOL    HW241567   5.194   0.516  11.272
13376SOL     OW41568   4.214   0.266  11.476
13376SOL    HW141569   4.270   0.228  11.408
13376SOL    HW241570   4.194   0.354  11.445
13377SOL     OW41571   4.800   1.230  12.334
13377SOL    HW141572   4.753   1.278  12.402
13377SOL    HW241573   4.732   1.191  12.280
13378SOL     OW41574   5.334   1.096  12.237
13378SOL    HW141575   5.304   1.133  12.320
13378SOL    HW241576   5.263   1.115  12.176
13379SOL     OW41577   4.440   1.067  11.543
13379SOL    HW141578   4.412   1.040  11.630
13379SOL    HW241579   4.519   1.016  11.525
13380SOL     OW41580   4.157   0.831  12.442
13380SOL    HW141581   4.202   0.871  12.517
13380SOL    HW241582   4.144   0.740  12.468
13381SOL     OW41583   4.980   0.369  12.432
13381SOL    HW141584   5.013   0.452  12.465
13381SOL    HW241585   4.896   0.390  12.391
13382SOL     OW41586   4.263   0.532  12.039
13382SOL    HW141587   4.277   0.589  11.964
13382SOL    HW241588   4.332   0.557  12.101
13383SOL     OW41589   4.963   1.357  11.572
13383SOL    HW141590   5.025   1.426  11.594
13383SOL    HW241591   4.879   1.388  11.606
13384SOL     OW41592   5.013   1.430  12.309
13384SOL    HW141593   5.057   1.449  12.392
13384SOL    HW241594   4.949   1.362  12.331
13385SOL     OW41595   5.285   0.620  11.660
13385SOL    HW141596   5.226   0.675  11.712
13385SOL    HW241597   5.306   0.673  11.583
13386SOL     OW41598   4.121   1.524  12.461
13386SOL    HW141599   4.091   1.478  12.383
13386SOL    HW241600   4.107   1.617  12.441
13387SOL     OW41601   4.318   0.876  12.219
13387SOL    HW141602   4.298   0.965  12.191
13387SOL    HW241603   4.258   0.860  12.292
13388SOL     OW41604   5.040   0.855  12.167
13388SOL    HW141605   4.952   0.826  12.142
13388SOL    HW241606   5.094   0.776  12.160
13389SOL     OW41607   4.917   0.525  11.428
13389SOL    HW141608   4.930   0.448  11.484
13389SOL    HW241609   4.876   0.590  11.486
13390SOL     OW41610   4.011   0.209  12.415
13390SOL    HW141611   3.950   0.251  12.476
13390SOL    HW241612   3.987   0.116  12.417
13391SOL     OW41613   3.752   1.331  12.429
13391SOL    HW141614   3.800   1.261  12.473
13391SOL    HW241615   3.755   1.404  12.491
13392SOL     OW41616   4.441   0.624  12.228
13392SOL    HW141617   4.517   0.615  12.172
13392SOL    HW241618   4.414   0.715  12.217
13393SOL     OW41619   4.116   0.098  11.845
13393SOL    HW141620   4.072   0.181  11.864
13393SOL    HW241621   4.046   0.040  11.814
13394SOL     OW41622   5.441   0.404  11.582
13394SOL    HW141623   5.393   0.338  11.531
13394SOL    HW241624   5.374   0.467  11.607
13395SOL     OW41625   4.754   0.760  12.147
13395SOL    HW141626   4.741   0.766  12.242
13395SOL    HW241627   4.724   0.672  12.124
13396SOL     OW41628   5.016   0.826  11.203
13396SOL    HW141629   5.059   0.741  11.210
13396SOL    HW241630   5.047   0.862  11.119
13397SOL     OW41631   4.036   0.815  12.106
13397SOL    HW141632   4.126   0.818  12.075
13397SOL    HW241633   4.026   0.728  12.144
13398SOL     OW41634   4.031   0.549  12.170
13398SOL    HW141635   4.004   0.457  12.168
13398SOL    HW241636   4.114   0.550  12.122
13399SOL     OW41637   4.901   0.217   0.143
13399SOL    HW141638   4.884   0.279   0.213
13399SOL    HW241639   4.932   0.271   0.070
13400SOL     OW41640   3.725   1.323  11.377
13400SOL    HW141641   3.637   1.336  11.340
13400SOL    HW241642   3.724   1.233  11.410
13401SOL     OW41643   3.818   1.775  12.130
13401SOL    HW141644   3.787   1.697  12.084
13401SOL    HW241645   3.903   1.794  12.091
13402SOL     OW41646   4.215   1.576  12.072
13402SOL    HW141647   4.284   1.640  12.088
13402SOL    HW241648   4.255   1.513  12.011
13403SOL     OW41649   4.692   0.786  12.422
13403SOL    HW141650   4.739   0.854  12.471
13403SOL    HW241651   4.600   0.810  12.429
13404SOL     OW41652   3.795   0.564  12.312
13404SOL    HW141653   3.867   0.575  12.251
13404SOL    HW241654   3.788   0.470  12.325
13405SOL     OW41655   4.543   0.575  11.545
13405SOL    HW141656   4.549   0.500  11.486
13405SOL    HW241657   4.469   0.626  11.513
13406SOL     OW41658   5.380   0.607  12.322
13406SOL    HW141659   5.369   0.560  12.405
13406SOL    HW241660   5.474   0.603  12.305
13407SOL     OW41661   4.450   0.440  12.440
13407SOL    HW141662   4.376   0.381  12.428
13407SOL    HW241663   4.434   0.511  12.377
13408SOL     OW41664   4.644   1.653   0.027
13408SOL    HW141665   4.650   1.728  -0.032
13408SOL    HW241666   4.628   1.692   0.113
13409SOL     OW41667   4.179   0.501  11.353
13409SOL    HW141668   4.239   0.572  11.376
13409SOL    HW241669   4.094   0.545  11.341
13410SOL     OW41670   5.021   1.035  12.370
13410SOL    HW141671   5.030   0.979  12.293
13410SOL    HW241672   4.959   1.103  12.342
13411SOL     OW41673   5.042   0.853  11.479
13411SOL    HW141674   4.967   0.821  11.528
13411SOL    HW241675   5.018   0.844  11.387
13412SOL     OW41676   5.484   1.762  12.315
13412SOL    HW141677   5.552   1.776  12.249
13412SOL    HW241678   5.463   1.669  12.308
13413SOL     OW41679   4.964   1.696  12.214
13413SOL    HW141680   5.049   1.738  12.198
13413SOL    HW241681   4.984   1.622  12.270
13414SOL     OW41682   3.793   1.291  12.157
13414SOL    HW141683   3.781   1.294  12.252
13414SOL    HW241684   3.752   1.208  12.131
13415SOL     OW41685   5.386   0.110  11.663
13415SOL    HW141686   5.441   0.084  11.589
13415SOL    HW241687   5.403   0.044  11.730
13416SOL     OW41688   5.116   1.569  11.671
13416SOL    HW141689   5.173   1.603  11.601
13416SOL    HW241690   5.064   1.645  11.697
13417SOL     OW41691   4.993   0.948  11.853
13417SOL    HW141692   5.064   0.885  11.866
13417SOL    HW241693   5.028   1.010  11.789
13418SOL     OW41694   4.407   1.614  11.335
13418SOL    HW141695   4.409   1.645  11.245
13418SOL    HW241696   4.346   1.540  11.334
13419SOL     OW41697   5.347   1.794   0.057
13419SOL    HW141698   5.401   1.794  -0.022
13419SOL    HW241699   5.340   1.887   0.081
13420SOL     OW41700   5.573   0.181  12.131
13420SOL    HW141701   5.578   0.085  12.130
13420SOL    HW241702   5.488   0.201  12.091
13421SOL     OW41703   3.984   0.333  11.884
13421SOL    HW141704   3.894   0.347  11.853
13421SOL    HW241705   3.975   0.329  11.980
13422SOL     OW41706   4.934   1.599  11.201
13422SOL    HW141707   4.919   1.508  11.226
13422SOL    HW241708   4.867   1.617  11.135
13423SOL     OW41709   4.514   1.019  12.480
13423SOL    HW141710   4.518   1.071  12.400
13423SOL    HW241711   4.579   1.059  12.538
13424SOL     OW41712   4.665   0.930  11.488
13424SOL    HW141713   4.713   0.954  11.409
13424SOL    HW241714   4.706   0.849  11.518
13425SOL     OW41715   5.214   1.626  11.221
13425SOL    HW141716   5.120   1.617  11.206
13425SOL    HW241717   5.252   1.634  11.134
13426SOL     OW41718   4.790   1.135  11.904
13426SOL    HW141719   4.717   1.083  11.939
13426SOL    HW241720   4.855   1.070  11.878
13427SOL     OW41721   4.778   0.262  12.103
13427SOL    HW141722   4.739   0.186  12.058
13427SOL    HW241723   4.739   0.260  12.190
13428SOL     OW41724   4.345   1.499  11.667
13428SOL    HW141725   4.385   1.451  11.595
13428SOL    HW241726   4.257   1.521  11.636
13429SOL     OW41727   5.460   0.454   0.040
13429SOL    HW141728   5.522   0.450   0.113
13429SOL    HW241729   5.484   0.379  -0.016
13430SOL     OW41730   3.989   1.370  11.443
13430SOL    HW141731   3.894   1.366  11.440
13430SOL    HW241732   4.013   1.326  11.525
13431SOL     OW41733   3.812   0.334  11.195
13431SOL    HW141734   3.720   0.323  11.169
13431SOL    HW241735   3.842   0.411  11.148
13432SOL     OW41736   3.819   0.208  11.451
13432SOL    HW141737   3.815   0.268  11.377
13432SOL    HW241738   3.883   0.142  11.425
13433SOL     OW41739   4.896   1.333  11.284
13433SOL    HW141740   4.802   1.313  11.278
13433SOL    HW241741   4.916   1.327  11.377
13434SOL     OW41742   5.219   1.787  12.151
13434SOL    HW141743   5.234   1.865  12.098
13434SOL    HW241744   5.296   1.781  12.208
13435SOL     OW41745   5.407   0.875  12.398
13435SOL    HW141746   5.382   0.790  12.361
13435SOL    HW241747   5.380   0.939  12.332
13436SOL     OW41748   4.943   0.326  11.623
13436SOL    HW141749   5.004   0.252  11.619
13436SOL    HW241750   4.970   0.375  11.700
13437SOL     OW41751   4.299   0.739  11.856
13437SOL    HW141752   4.346   0.820  11.836
13437SOL    HW241753   4.241   0.726  11.781
13438SOL     OW41754   5.545   0.894   0.125
13438SOL    HW141755   5.501   0.963   0.175
13438SOL    HW241756   5.492   0.885   0.046
13439SOL     OW41757   4.602   1.372  11.231
13439SOL    HW141758   4.550   1.392  11.310
13439SOL    HW241759   4.603   1.453  11.181
13440SOL     OW41760   4.386   1.784  12.104
13440SOL    HW141761   4.360   1.873  12.083
13440SOL    HW241762   4.482   1.787  12.109
13441SOL     OW41763   4.603   0.980  12.036
13441SOL    HW141764   4.645   0.900  12.067
13441SOL    HW241765   4.562   1.017  12.114
13442SOL     OW41766   4.809   0.995  11.267
13442SOL    HW141767   4.780   1.041  11.188
13442SOL    HW241768   4.878   0.936  11.237
13443SOL     OW41769   5.563   1.555  12.021
13443SOL    HW141770   5.485   1.550  11.966
13443SOL    HW241771   5.538   1.512  12.103
13444SOL     OW41772   3.810   1.240  11.830
13444SOL    HW141773   3.841   1.204  11.914
13444SOL    HW241774   3.866   1.199  11.765
13445SOL     OW41775   5.575   0.253  12.393
13445SOL    HW141776   5.544   0.171  12.434
13445SOL    HW241777   5.573   0.235  12.299
13446SOL     OW41778   4.173   0.423  11.709
13446SOL    HW141779   4.169   0.361  11.636
13446SOL    HW241780   4.103   0.395  11.768
13447SOL     OW41781   5.430   1.494  12.266
13447SOL    HW141782   5.349   1.466  12.224
13447SOL    HW241783   5.429   1.452  12.352
13448SOL     OW41784   4.548   1.613  11.827
13448SOL    HW141785   4.548   1.700  11.786
13448SOL    HW241786   4.469   1.571  11.794
13449SOL     OW41787   5.143   0.196  12.302
13449SOL    HW141788   5.222   0.172  12.350
13449SOL    HW241789   5.094   0.252  12.363
13450SOL     OW41790   4.765  -0.019  12.279
13450SOL    HW141791   4.679   0.020  12.265
13450SOL    HW241792   4.815   0.005  12.200
13451SOL     OW41793   4.496   1.334  11.498
13451SOL    HW141794   4.450   1.250  11.495
13451SOL    HW241795   4.578   1.314  11.544
13452SOL     OW41796   5.078   0.001  11.370
13452SOL    HW141797   5.083   0.074  11.308
13452SOL    HW241798   4.987  -0.026  11.369
13453SOL     OW41799   5.009   0.466  11.847
13453SOL    HW141800   4.959   0.547  11.855
13453SOL    HW241801   5.020   0.435  11.937
13454SOL     OW41802   5.330   0.232  12.040
13454SOL    HW141803   5.239   0.212  12.063
13454SOL    HW241804   5.325   0.310  11.985
13455SOL     OW41805   3.743   1.072  11.498
13455SOL    HW141806   3.829   1.087  11.537
13455SOL    HW241807   3.734   0.977  11.498
13456SOL     OW41808   4.621   1.661  11.503
13456SOL    HW141809   4.548   1.642  11.444
13456SOL    HW241810   4.590   1.733  11.558
13457SOL     OW41811   3.933   2.429   0.019
13457SOL    HW141812   3.919   2.485   0.095
13457SOL    HW241813   3.996   2.476  -0.035
13458SOL     OW41814   3.944   2.155   0.997
13458SOL    HW141815   3.972   2.118   1.081
13458SOL    HW241816   3.857   2.119   0.983
13459SOL     OW41817   3.718   2.252   0.639
13459SOL    HW141818   3.644   2.280   0.692
13459SOL    HW241819   3.689   2.170   0.598
13460SOL     OW41820   4.291   3.154   1.183
13460SOL    HW141821   4.206   3.163   1.141
13460SOL    HW241822   4.309   3.242   1.219
13461SOL     OW41823   5.301   3.382   0.714
13461SOL    HW141824   5.255   3.356   0.794
13461SOL    HW241825   5.233   3.384   0.647
13462SOL     OW41826   4.867   2.554   0.694
13462SOL    HW141827   4.909   2.639   0.681
13462SOL    HW241828   4.814   2.565   0.774
13463SOL     OW41829   5.511   2.441   0.244
13463SOL    HW141830   5.458   2.508   0.200
13463SOL    HW241831   5.450   2.397   0.303
13464SOL     OW41832   4.464   2.998   1.041
13464SOL    HW141833   4.399   3.034   1.101
13464SOL    HW241834   4.507   3.075   1.003
13465SOL     OW41835   4.643   2.634   1.835
13465SOL    HW141836   4.585   2.682   1.895
13465SOL    HW241837   4.636   2.681   1.752
13466SOL     OW41838   4.409   2.852   0.644
13466SOL    HW141839   4.477   2.848   0.711
13466SOL    HW241840   4.343   2.911   0.682
13467SOL     OW41841   4.440   3.016   1.814
13467SOL    HW141842   4.483   3.093   1.851
13467SOL    HW241843   4.359   3.050   1.777
13468SOL     OW41844   4.064   3.263   1.057
13468SOL    HW141845   3.986   3.226   1.015
13468SOL    HW241846   4.102   3.320   0.990
13469SOL     OW41847   5.182   3.367   1.367
13469SOL    HW141848   5.235   3.446   1.380
13469SOL    HW241849   5.110   3.376   1.429
13470SOL     OW41850   4.169   2.260   1.439
13470SOL    HW141851   4.240   2.266   1.502
13470SOL    HW241852   4.102   2.206   1.482
13471SOL     OW41853   5.313   2.305   0.747
13471SOL    HW141854   5.232   2.311   0.698
13471SOL    HW241855   5.307   2.374   0.813
13472SOL     OW41856   3.936   3.582   0.468
13472SOL    HW141857   3.960   3.655   0.525
13472SOL    HW241858   4.014   3.566   0.416
13473SOL     OW41859   4.855   3.209   1.700
13473SOL    HW141860   4.891   3.210   1.788
13473SOL    HW241861   4.803   3.129   1.696
13474SOL     OW41862   3.941   3.311   0.541
13474SOL    HW141863   3.924   3.405   0.546
13474SOL    HW241864   3.890   3.274   0.612
13475SOL     OW41865   3.997   2.957   0.893
13475SOL    HW141866   3.988   2.868   0.928
13475SOL    HW241867   3.933   3.008   0.942
13476SOL     OW41868   4.314   3.630   1.439
13476SOL    HW141869   4.232   3.598   1.476
13476SOL    HW241870   4.378   3.620   1.510
13477SOL     OW41871   4.300   2.829   0.151
13477SOL    HW141872   4.368   2.849   0.086
13477SOL    HW241873   4.332   2.871   0.231
13478SOL     OW41874   5.324   1.982   1.463
13478SOL    HW141875   5.349   2.060   1.414
13478SOL    HW241876   5.287   2.016   1.544
13479SOL     OW41877   3.841   2.511   0.565
13479SOL    HW141878   3.811   2.423   0.589
13479SOL    HW241879   3.838   2.560   0.648
13480SOL     OW41880   5.577   3.589   0.319
13480SOL    HW141881   5.647   3.575   0.382
13480SOL    HW241882   5.584   3.681   0.296
13481SOL     OW41883   3.753   3.388   0.124
13481SOL    HW141884   3.665   3.351   0.126
13481SOL    HW241885   3.749   3.465   0.181
13482SOL     OW41886   5.404   2.796   0.648
13482SOL    HW141887   5.468   2.751   0.593
13482SOL    HW241888   5.368   2.864   0.592
13483SOL     OW41889   5.365   2.983   0.435
13483SOL    HW141890   5.449   2.982   0.390
13483SOL    HW241891   5.377   3.045   0.507
13484SOL     OW41892   3.871   2.647   1.541
13484SOL    HW141893   3.876   2.585   1.614
13484SOL    HW241894   3.791   2.698   1.559
13485SOL     OW41895   4.343   3.254   0.734
13485SOL    HW141896   4.300   3.169   0.746
13485SOL    HW241897   4.326   3.277   0.643
13486SOL     OW41898   5.006   3.097   1.414
13486SOL    HW141899   5.038   3.027   1.358
13486SOL    HW241900   5.062   3.093   1.492
13487SOL     OW41901   4.548   1.861   0.527
13487SOL    HW141902   4.587   1.945   0.502
13487SOL    HW241903   4.454   1.878   0.530
13488SOL     OW41904   3.945   2.764   1.274
13488SOL    HW141905   3.964   2.773   1.181
13488SOL    HW241906   3.851   2.743   1.277
13489SOL     OW41907   5.239   2.860   0.226
13489SOL    HW141908   5.168   2.806   0.262
13489SOL    HW241909   5.279   2.901   0.303
13490SOL     OW41910   4.931   3.682   1.624
13490SOL    HW141911   4.924   3.738   1.546
13490SOL    HW241912   4.940   3.594   1.589
13491SOL     OW41913   4.075   2.109   1.815
13491SOL    HW141914   4.126   2.189   1.827
13491SOL    HW241915   3.989   2.129   1.853
13492SOL     OW41916   5.190   3.280   0.945
13492SOL    HW141917   5.124   3.297   1.013
13492SOL    HW241918   5.176   3.189   0.919
13493SOL     OW41919   5.376   3.628   0.584
13493SOL    HW141920   5.356   3.593   0.497
13493SOL    HW241921   5.360   3.554   0.643
13494SOL     OW41922   4.303   2.569   0.274
13494SOL    HW141923   4.316   2.657   0.238
13494SOL    HW241924   4.239   2.581   0.344
13495SOL     OW41925   5.004   2.238   0.938
13495SOL    HW141926   4.915   2.204   0.945
13495SOL    HW241927   5.055   2.180   0.995
13496SOL     OW41928   5.303   3.540   0.332
13496SOL    HW141929   5.396   3.545   0.310
13496SOL    HW241930   5.260   3.592   0.265
13497SOL     OW41931   4.514   2.488   1.429
13497SOL    HW141932   4.487   2.451   1.513
13497SOL    HW241933   4.492   2.421   1.365
13498SOL     OW41934   5.128   2.354   1.693
13498SOL    HW141935   5.126   2.367   1.788
13498SOL    HW241936   5.221   2.360   1.670
13499SOL     OW41937   4.667   2.755   1.583
13499SOL    HW141938   4.720   2.686   1.545
13499SOL    HW241939   4.613   2.787   1.510
13500SOL     OW41940   4.728   2.264   1.226
13500SOL    HW141941   4.638   2.281   1.254
13500SOL    HW241942   4.719   2.217   1.143
13501SOL     OW41943   4.779   2.569   0.425
13501SOL    HW141944   4.799   2.553   0.517
13501SOL    HW241945   4.696   2.524   0.410
13502SOL     OW41946   3.827   2.674   0.782
13502SOL    HW141947   3.900   2.672   0.844
13502SOL    HW241948   3.774   2.749   0.809
13503SOL     OW41949   3.842   3.718   1.582
13503SOL    HW141950   3.851   3.708   1.677
13503SOL    HW241951   3.764   3.668   1.560
13504SOL     OW41952   4.613   2.223   0.228
13504SOL    HW141953   4.656   2.290   0.175
13504SOL    HW241954   4.590   2.155   0.165
13505SOL     OW41955   5.405   2.428   1.836
13505SOL    HW141956   5.388   2.505   1.782
13505SOL    HW241957   5.441   2.363   1.775
13506SOL     OW41958   5.105   3.004   0.541
13506SOL    HW141959   5.185   3.002   0.489
13506SOL    HW241960   5.048   3.065   0.495
13507SOL     OW41961   4.277   2.041   0.911
13507SOL    HW141962   4.279   2.063   1.004
13507SOL    HW241963   4.273   2.126   0.866
13508SOL     OW41964   4.721   3.293   0.473
13508SOL    HW141965   4.677   3.370   0.436
13508SOL    HW241966   4.706   3.300   0.567
13509SOL     OW41967   4.080   3.674   0.873
13509SOL    HW141968   4.119   3.587   0.877
13509SOL    HW241969   4.152   3.734   0.892
13510SOL     OW41970   5.528   2.892   0.879
13510SOL    HW141971   5.476   2.878   0.800
13510SOL    HW241972   5.462   2.908   0.947
13511SOL     OW41973   4.948   3.404   1.514
13511SOL    HW141974   4.932   3.336   1.579
13511SOL    HW241975   4.865   3.415   1.469
13512SOL     OW41976   4.037   2.844   0.261
13512SOL    HW141977   4.119   2.856   0.213
13512SOL    HW241978   4.006   2.757   0.236
13513SOL     OW41979   5.212   2.608   0.713
13513SOL    HW141980   5.207   2.574   0.803
13513SOL    HW241981   5.285   2.670   0.716
13514SOL     OW41982   4.203   3.126   1.722
13514SOL    HW141983   4.173   3.135   1.632
13514SOL    HW241984   4.122   3.123   1.773
13515SOL     OW41985   4.788   3.646   0.228
13515SOL    HW141986   4.796   3.603   0.313
13515SOL    HW241987   4.871   3.626   0.184
13516SOL     OW41988   3.935   2.133   1.520
13516SOL    HW141989   3.842   2.151   1.534
13516SOL    HW241990   3.954   2.059   1.577
13517SOL     OW41991   5.377   3.278   0.041
13517SOL    HW141992   5.311   3.347   0.037
13517SOL    HW241993   5.326   3.198   0.058
13518SOL     OW41994   4.178   3.589   0.332
13518SOL    HW141995   4.226   3.648   0.390
13518SOL    HW241996   4.244   3.552   0.274
13519SOL     OW41997   5.129   1.963   0.445
13519SOL    HW141998   5.124   1.923   0.358
13519SOL    HW241999   5.222   1.972   0.462
13520SOL     OW42000   3.994   3.648   1.223
13520SOL    HW142001   4.020   3.573   1.276
13520SOL    HW242002   3.988   3.614   1.134
13521SOL     OW42003   4.658   3.564   0.892
13521SOL    HW142004   4.737   3.514   0.915
13521SOL    HW242005   4.619   3.515   0.820
13522SOL     OW42006   4.110   2.553   0.476
13522SOL    HW142007   4.130   2.460   0.485
13522SOL    HW242008   4.021   2.562   0.511
13523SOL     OW42009   5.227   2.062   1.710
13523SOL    HW142010   5.173   2.133   1.747
13523SOL    HW242011   5.167   1.987   1.704
13524SOL     OW42012   4.366   1.995   0.111
13524SOL    HW142013   4.457   1.965   0.111
13524SOL    HW242014   4.362   2.058   0.039
13525SOL     OW42015   4.501   2.101   1.840
13525SOL    HW142016   4.575   2.064   1.791
13525SOL    HW242017   4.466   2.169   1.783
13526SOL     OW42018   4.602   3.387   1.193
13526SOL    HW142019   4.582   3.348   1.108
13526SOL    HW242020   4.667   3.329   1.232
13527SOL     OW42021   5.061   2.450   1.432
13527SOL    HW142022   5.085   2.433   1.523
13527SOL    HW242023   5.089   2.540   1.417
13528SOL     OW42024   4.545   3.249   0.951
13528SOL    HW142025   4.631   3.240   0.909
13528SOL    HW242026   4.484   3.259   0.877
13529SOL     OW42027   4.655   2.373   0.896
13529SOL    HW142028   4.629   2.363   0.804
13529SOL    HW242029   4.680   2.285   0.924
13530SOL     OW42030   4.279   1.914   0.505
13530SOL    HW142031   4.202   1.916   0.561
13530SOL    HW242032   4.270   1.991   0.449
13531SOL     OW42033   5.192   3.077   0.061
13531SOL    HW142034   5.205   2.995   0.108
13531SOL    HW242035   5.099   3.098   0.075
13532SOL     OW42036   4.031   1.941   0.205
13532SOL    HW142037   4.101   2.003   0.226
13532SOL    HW242038   4.066   1.856   0.232
13533SOL     OW42039   4.666   2.103   0.467
13533SOL    HW142040   4.640   2.145   0.385
13533SOL    HW242041   4.760   2.120   0.474
13534SOL     OW42042   4.797   2.549   1.458
13534SOL    HW142043   4.720   2.492   1.461
13534SOL    HW242044   4.871   2.490   1.448
13535SOL     OW42045   4.937   3.437   0.794
13535SOL    HW142046   4.950   3.501   0.723
13535SOL    HW242047   5.004   3.459   0.858
13536SOL     OW42048   4.203   3.017   0.727
13536SOL    HW142049   4.138   2.997   0.795
13536SOL    HW242050   4.156   3.008   0.645
13537SOL     OW42051   4.978   3.650   0.607
13537SOL    HW142052   5.027   3.711   0.551
13537SOL    HW242053   4.912   3.704   0.649
13538SOL     OW42054   3.798   2.419   1.376
13538SOL    HW142055   3.892   2.403   1.372
13538SOL    HW242056   3.787   2.486   1.444
13539SOL     OW42057   4.279   2.090   1.185
13539SOL    HW142058   4.322   2.045   1.258
13539SOL    HW242059   4.186   2.093   1.210
13540SOL     OW42060   4.592   2.320   0.637
13540SOL    HW142061   4.555   2.377   0.569
13540SOL    HW242062   4.609   2.237   0.592
13541SOL     OW42063   4.753   1.900   0.746
13541SOL    HW142064   4.685   1.898   0.679
13541SOL    HW242065   4.727   1.832   0.808
13542SOL     OW42066   5.165   3.019   0.859
13542SOL    HW142067   5.091   2.959   0.858
13542SOL    HW242068   5.190   3.029   0.767
13543SOL     OW42069   5.187   2.470   0.958
13543SOL    HW142070   5.124   2.399   0.966
13543SOL    HW242071   5.241   2.464   1.037
13544SOL     OW42072   5.559   2.694   0.438
13544SOL    HW142073   5.606   2.622   0.479
13544SOL    HW242074   5.517   2.655   0.362
13545SOL     OW42075   4.212   3.260   0.158
13545SOL    HW142076   4.155   3.213   0.219
13545SOL    HW242077   4.152   3.309   0.102
13546SOL     OW42078   5.403   3.128   0.654
13546SOL    HW142079   5.498   3.124   0.667
13546SOL    HW242080   5.380   3.219   0.673
13547SOL     OW42081   5.151   2.416   0.080
13547SOL    HW142082   5.089   2.414   0.153
13547SOL    HW242083   5.226   2.365   0.111
13548SOL     OW42084   4.239   2.109   0.321
13548SOL    HW142085   4.297   2.070   0.256
13548SOL    HW242086   4.216   2.195   0.285
13549SOL     OW42087   5.468   3.103   1.547
13549SOL    HW142088   5.556   3.069   1.534
13549SOL    HW242089   5.481   3.191   1.582
13550SOL     OW42090   4.771   3.206   1.320
13550SOL    HW142091   4.696   3.180   1.374
13550SOL    HW242092   4.847   3.175   1.369
13551SOL     OW42093   5.336   3.490   1.660
13551SOL    HW142094   5.327   3.526   1.571
13551SOL    HW242095   5.416   3.437   1.656
13552SOL     OW42096   4.859   3.069   1.098
13552SOL    HW142097   4.806   3.111   1.166
13552SOL    HW242098   4.832   3.112   1.017
13553SOL     OW42099   5.345   2.958   1.076
13553SOL    HW142100   5.337   3.023   1.146
13553SOL    HW242101   5.272   2.977   1.017
13554SOL     OW42102   4.653   1.957   1.395
13554SOL    HW142103   4.673   1.936   1.303
13554SOL    HW242104   4.734   1.994   1.429
13555SOL     OW42105   4.710   2.974   1.736
13555SOL    HW142106   4.620   2.996   1.761
13555SOL    HW242107   4.701   2.899   1.678
13556SOL     OW42108   4.433   2.923   0.375
13556SOL    HW142109   4.420   2.900   0.467
13556SOL    HW242110   4.512   2.875   0.350
13557SOL     OW42111   4.992   2.232   1.283
13557SOL    HW142112   5.021   2.312   1.328
13557SOL    HW242113   4.901   2.250   1.259
13558SOL     OW42114   3.797   3.456   1.373
13558SOL    HW142115   3.779   3.518   1.303
13558SOL    HW242116   3.884   3.423   1.353
13559SOL     OW42117   4.054   2.989   0.499
13559SOL    HW142118   4.046   3.065   0.442
13559SOL    HW242119   4.060   2.914   0.440
13560SOL     OW42120   4.263   2.383   0.854
13560SOL    HW142121   4.275   2.443   0.780
13560SOL    HW242122   4.329   2.409   0.918
13561SOL     OW42123   4.971   3.207   0.399
13561SOL    HW142124   5.025   3.279   0.432
13561SOL    HW242125   4.882   3.230   0.427
13562SOL     OW42126   5.019   3.326   1.153
13562SOL    HW142127   5.074   3.336   1.230
13562SOL    HW242128   4.957   3.257   1.176
13563SOL     OW42129   5.288   2.493   0.466
13563SOL    HW142130   5.262   2.514   0.556
13563SOL    HW242131   5.238   2.555   0.412
13564SOL     OW42132   4.061   3.388   1.296
13564SOL    HW142133   4.049   3.334   1.218
13564SOL    HW242134   4.156   3.393   1.308
13565SOL     OW42135   4.199   2.584   1.632
13565SOL    HW142136   4.285   2.626   1.629
13565SOL    HW242137   4.217   2.493   1.658
13566SOL     OW42138   5.337   2.638   1.683
13566SOL    HW142139   5.253   2.684   1.680
13566SOL    HW242140   5.391   2.682   1.618
13567SOL     OW42141   4.748   2.000   1.758
13567SOL    HW142142   4.796   2.078   1.731
13567SOL    HW242143   4.802   1.927   1.728
13568SOL     OW42144   4.197   1.871   1.768
13568SOL    HW142145   4.163   1.834   1.687
13568SOL    HW242146   4.156   1.957   1.774
13569SOL     OW42147   4.316   2.751   1.040
13569SOL    HW142148   4.359   2.833   1.016
13569SOL    HW242149   4.299   2.760   1.134
13570SOL     OW42150   5.059   2.716   1.013
13570SOL    HW142151   4.970   2.700   0.979
13570SOL    HW242152   5.105   2.633   0.997
13571SOL     OW42153   4.987   2.378   0.292
13571SOL    HW142154   4.963   2.318   0.362
13571SOL    HW242155   4.906   2.424   0.270
13572SOL     OW42156   4.008   2.060   1.247
13572SOL    HW142157   3.979   2.091   1.333
13572SOL    HW242158   3.997   1.965   1.251
13573SOL     OW42159   3.818   3.172   1.281
13573SOL    HW142160   3.831   3.105   1.348
13573SOL    HW242161   3.741   3.221   1.311
13574SOL     OW42162   4.434   2.492   1.037
13574SOL    HW142163   4.515   2.482   0.987
13574SOL    HW242164   4.409   2.583   1.025
13575SOL     OW42165   5.470   2.818   1.861
13575SOL    HW142166   5.420   2.753   1.811
13575SOL    HW242167   5.411   2.843   1.933
13576SOL     OW42168   4.033   1.922   0.629
13576SOL    HW142169   4.009   2.013   0.651
13576SOL    HW242170   4.042   1.879   0.714
13577SOL     OW42171   5.340   2.239   0.356
13577SOL    HW142172   5.362   2.174   0.423
13577SOL    HW242173   5.303   2.313   0.405
13578SOL     OW42174   4.756   2.619   0.958
13578SOL    HW142175   4.741   2.635   1.051
13578SOL    HW242176   4.727   2.529   0.944
13579SOL     OW42177   4.698   3.451   1.714
13579SOL    HW142178   4.689   3.477   1.622
13579SOL    HW242179   4.718   3.358   1.710
13580SOL     OW42180   5.575   3.356   1.601
13580SOL    HW142181   5.598   3.388   1.514
13580SOL    HW242182   5.653   3.371   1.654
13581SOL     OW42183   4.071   2.777   1.800
13581SOL    HW142184   4.144   2.804   1.856
13581SOL    HW242185   4.103   2.699   1.754
13582SOL     OW42186   5.272   2.065   0.135
13582SOL    HW142187   5.183   2.047   0.165
13582SOL    HW242188   5.305   2.133   0.194
13583SOL     OW42189   5.019   2.695   0.063
13583SOL    HW142190   5.046   2.609   0.032
13583SOL    HW242191   5.043   2.755  -0.008
13584SOL     OW42192   4.795   3.206   0.861
13584SOL    HW142193   4.804   3.133   0.799
13584SOL    HW242194   4.851   3.275   0.825
13585SOL     OW42195   4.033   2.684   0.979
13585SOL    HW142196   4.127   2.702   0.970
13585SOL    HW242197   4.028   2.590   0.995
13586SOL     OW42198   4.046   2.402   1.016
13586SOL    HW142199   4.010   2.314   1.011
13586SOL    HW242200   4.122   2.401   0.958
13587SOL     OW42201   4.874   2.238   1.685
13587SOL    HW142202   4.819   2.289   1.744
13587SOL    HW242203   4.957   2.286   1.681
13588SOL     OW42204   4.897   2.057   1.476
13588SOL    HW142205   4.880   2.123   1.543
13588SOL    HW242206   4.934   2.106   1.403
13589SOL     OW42207   3.814   3.644   0.937
13589SOL    HW142208   3.784   3.565   0.890
13589SOL    HW242209   3.905   3.654   0.909
13590SOL     OW42210   4.213   3.437   0.897
13590SOL    HW142211   4.282   3.496   0.926
13590SOL    HW242212   4.257   3.373   0.841
13591SOL     OW42213   4.688   2.645   1.221
13591SOL    HW142214   4.751   2.631   1.291
13591SOL    HW242215   4.606   2.609   1.255
13592SOL     OW42216   3.759   2.428   1.106
13592SOL    HW142217   3.843   2.413   1.063
13592SOL    HW242218   3.777   2.421   1.199
13593SOL     OW42219   3.895   2.424   1.697
13593SOL    HW142220   3.921   2.337   1.666
13593SOL    HW242221   3.806   2.412   1.730
13594SOL     OW42222   5.112   2.790   1.653
13594SOL    HW142223   5.128   2.884   1.652
13594SOL    HW242224   5.102   2.766   1.561
13595SOL     OW42225   4.534   2.440   0.386
13595SOL    HW142226   4.549   2.367   0.326
13595SOL    HW242227   4.460   2.487   0.349
13596SOL     OW42228   5.358   2.464   1.173
13596SOL    HW142229   5.343   2.406   1.248
13596SOL    HW242230   5.447   2.444   1.144
13597SOL     OW42231   3.953   3.400   1.730
13597SOL    HW142232   3.932   3.460   1.802
13597SOL    HW242233   3.967   3.315   1.772
13598SOL     OW42234   4.454   2.309   1.238
13598SOL    HW142235   4.386   2.241   1.234
13598SOL    HW242236   4.433   2.367   1.165
13599SOL     OW42237   4.676   3.526   1.445
13599SOL    HW142238   4.638   3.492   1.364
13599SOL    HW242239   4.662   3.620   1.441
13600SOL     OW42240   4.169   2.335   0.200
13600SOL    HW142241   4.227   2.410   0.215
13600SOL    HW242242   4.104   2.368   0.137
13601SOL     OW42243   3.891   2.982   1.472
13601SOL    HW142244   3.864   2.959   1.561
13601SOL    HW242245   3.895   2.899   1.426
13602SOL     OW42246   5.041   2.900   1.213
13602SOL    HW142247   5.058   2.837   1.142
13602SOL    HW242248   4.976   2.960   1.176
13603SOL     OW42249   5.037   2.696   0.334
13603SOL    HW142250   4.958   2.660   0.374
13603SOL    HW242251   5.022   2.688   0.240
13604SOL     OW42252   5.509   3.592   1.160
13604SOL    HW142253   5.570   3.617   1.091
13604SOL    HW242254   5.479   3.504   1.135
13605SOL     OW42255   4.965   3.593   1.094
13605SOL    HW142256   5.050   3.619   1.058
13605SOL    HW242257   4.976   3.502   1.121
13606SOL     OW42258   3.816   3.125   1.016
13606SOL    HW142259   3.818   3.143   1.110
13606SOL    HW242260   3.729   3.088   1.000
13607SOL     OW42261   4.427   3.573   1.698
13607SOL    HW142262   4.399   3.640   1.759
13607SOL    HW242263   4.513   3.546   1.730
13608SOL     OW42264   4.634   1.949   0.092
13608SOL    HW142265   4.661   2.001   0.016
13608SOL    HW242266   4.715   1.936   0.142
13609SOL     OW42267   5.437   2.016   0.507
13609SOL    HW142268   5.506   1.995   0.444
13609SOL    HW242269   5.422   1.934   0.555
13610SOL     OW42270   5.119   3.424   0.502
13610SOL    HW142271   5.179   3.456   0.434
13610SOL    HW242272   5.068   3.501   0.528
13611SOL     OW42273   3.865   3.670   1.844
13611SOL    HW142274   3.818   3.600   1.890
13611SOL    HW242275   3.921   3.709   1.911
13612SOL     OW42276   5.004   2.789   0.671
13612SOL    HW142277   5.078   2.728   0.676
13612SOL    HW242278   5.036   2.860   0.615
13613SOL     OW42279   4.520   3.138   1.421
13613SOL    HW142280   4.497   3.185   1.501
13613SOL    HW242281   4.444   3.152   1.363
13614SOL     OW42282   4.384   3.473   0.195
13614SOL    HW142283   4.454   3.480   0.130
13614SOL    HW242284   4.345   3.387   0.177
13615SOL     OW42285   5.344   3.591   1.394
13615SOL    HW142286   5.398   3.595   1.315
13615SOL    HW242287   5.329   3.683   1.418
13616SOL     OW42288   5.569   2.045   0.952
13616SOL    HW142289   5.600   1.961   0.919
13616SOL    HW242290   5.478   2.050   0.924
13617SOL     OW42291   3.975   2.173   0.718
13617SOL    HW142292   3.889   2.209   0.698
13617SOL    HW242293   3.979   2.171   0.813
13618SOL     OW42294   4.918   3.452   0.068
13618SOL    HW142295   4.911   3.359   0.090
13618SOL    HW242296   4.875   3.459  -0.017
13619SOL     OW42297   4.533   2.867   1.368
13619SOL    HW142298   4.586   2.865   1.288
13619SOL    HW242299   4.530   2.960   1.392
13620SOL     OW42300   4.652   2.790   0.299
13620SOL    HW142301   4.707   2.817   0.225
13620SOL    HW242302   4.699   2.715   0.336
13621SOL     OW42303   5.183   3.462   0.009
13621SOL    HW142304   5.093   3.457   0.043
13621SOL    HW242305   5.207   3.554   0.019
13622SOL     OW42306   4.092   3.167   1.480
13622SOL    HW142307   4.063   3.241   1.428
13622SOL    HW242308   4.020   3.103   1.474
13623SOL     OW42309   5.332   3.151   1.281
13623SOL    HW142310   5.383   3.129   1.359
13623SOL    HW242311   5.269   3.217   1.312
13624SOL     OW42312   4.794   2.976   0.717
13624SOL    HW142313   4.719   2.926   0.750
13624SOL    HW242314   4.857   2.909   0.689
13625SOL     OW42315   4.756   2.101   0.964
13625SOL    HW142316   4.753   2.054   0.881
13625SOL    HW242317   4.748   2.033   1.031
13626SOL     OW42318   4.323   3.331   0.476
13626SOL    HW142319   4.375   3.288   0.408
13626SOL    HW242320   4.254   3.378   0.429
13627SOL     OW42321   5.468   2.237   1.394
13627SOL    HW142322   5.533   2.306   1.385
13627SOL    HW242323   5.492   2.172   1.328
13628SOL     OW42324   3.993   3.187   0.313
13628SOL    HW142325   3.910   3.193   0.265
13628SOL    HW242326   3.979   3.237   0.393
13629SOL     OW42327   3.829   2.916   1.739
13629SOL    HW142328   3.755   2.874   1.784
13629SOL    HW242329   3.906   2.866   1.768
13630SOL     OW42330   4.404   2.050   1.480
13630SOL    HW142331   4.497   2.032   1.462
13630SOL    HW242332   4.405   2.125   1.539
13631SOL     OW42333   5.143   2.715   1.390
13631SOL    HW142334   5.092   2.775   1.337
13631SOL    HW242335   5.232   2.721   1.355
13632SOL     OW42336   3.785   2.010   0.306
13632SOL    HW142337   3.788   2.105   0.303
13632SOL    HW242338   3.871   1.982   0.276
13633SOL     OW42339   4.926   3.184   0.123
13633SOL    HW142340   4.835   3.154   0.113
13633SOL    HW242341   4.942   3.180   0.217
13634SOL     OW42342   4.320   2.690   1.382
13634SOL    HW142343   4.380   2.764   1.384
13634SOL    HW242344   4.376   2.613   1.397
13635SOL     OW42345   5.210   3.656   0.985
13635SOL    HW142346   5.234   3.726   0.925
13635SOL    HW242347   5.294   3.622   1.017
13636SOL     OW42348   5.193   3.052   1.628
13636SOL    HW142349   5.178   3.073   1.720
13636SOL    HW242350   5.284   3.078   1.612
13637SOL     OW42351   4.072   3.573   1.549
13637SOL    HW142352   3.990   3.621   1.544
13637SOL    HW242353   4.053   3.497   1.604
13638SOL     OW42354   5.385   2.742   1.255
13638SOL    HW142355   5.380   2.658   1.208
13638SOL    HW242356   5.374   2.808   1.187
13639SOL     OW42357   4.937   2.167   0.472
13639SOL    HW142358   5.001   2.096   0.462
13639SOL    HW242359   4.969   2.217   0.548
13640SOL     OW42360   4.300   2.594   0.677
13640SOL    HW142361   4.344   2.678   0.662
13640SOL    HW242362   4.238   2.587   0.605
13641SOL     OW42363   5.462   2.212   1.669
13641SOL    HW142364   5.463   2.222   1.574
13641SOL    HW242365   5.393   2.148   1.686
13642SOL     OW42366   5.481   2.791   1.510
13642SOL    HW142367   5.463   2.883   1.527
13642SOL    HW242368   5.457   2.778   1.418
13643SOL     OW42369   4.636   3.225   0.061
13643SOL    HW142370   4.581   3.210   0.138
13643SOL    HW242371   4.625   3.319   0.043
13644SOL     OW42372   4.385   3.646   0.940
13644SOL    HW142373   4.374   3.740   0.926
13644SOL    HW242374   4.480   3.632   0.931
13645SOL     OW42375   4.597   2.834   0.852
13645SOL    HW142376   4.648   2.762   0.890
13645SOL    HW242377   4.561   2.880   0.927
13646SOL     OW42378   4.811   2.875   0.087
13646SOL    HW142379   4.824   2.907  -0.003
13646SOL    HW242380   4.880   2.810   0.100
13647SOL     OW42381   5.560   3.417   0.841
13647SOL    HW142382   5.481   3.408   0.787
13647SOL    HW242383   5.542   3.362   0.918
13648SOL     OW42384   3.970   3.154   1.859
13648SOL    HW142385   3.901   3.090   1.843
13648SOL    HW242386   3.965   3.173   1.953
13649SOL     OW42387   3.813   3.089   0.674
13649SOL    HW142388   3.815   3.039   0.755
13649SOL    HW242389   3.883   3.052   0.621
13650SOL     OW42390   4.407   3.290   1.619
13650SOL    HW142391   4.336   3.245   1.664
13650SOL    HW242392   4.403   3.379   1.652
13651SOL     OW42393   5.542   2.039   1.226
13651SOL    HW142394   5.531   1.944   1.230
13651SOL    HW242395   5.552   2.058   1.133
13652SOL     OW42396   4.142   2.292   0.527
13652SOL    HW142397   4.181   2.221   0.477
13652SOL    HW242398   4.098   2.249   0.599
13653SOL     OW42399   5.420   3.343   1.085
13653SOL    HW142400   5.339   3.326   1.036
13653SOL    HW242401   5.419   3.278   1.155
13654SOL     OW42402   4.069   2.456   1.294
13654SOL    HW142403   4.112   2.383   1.338
13654SOL    HW242404   4.073   2.434   1.201
13655SOL     OW42405   4.554   3.434   0.677
13655SOL    HW142406   4.547   3.472   0.590
13655SOL    HW242407   4.478   3.378   0.685
13656SOL     OW42408   5.150   2.087   1.114
13656SOL    HW142409   5.154   1.997   1.144
13656SOL    HW242410   5.101   2.134   1.182
13657SOL     OW42411   4.744   1.881   1.138
13657SOL    HW142412   4.684   1.809   1.121
13657SOL    HW242413   4.831   1.842   1.130
13658SOL     OW42414   4.509   3.184   0.310
13658SOL    HW142415   4.476   3.096   0.328
13658SOL    HW242416   4.585   3.194   0.368
13659SOL     OW42417   4.341   3.409   1.276
13659SOL    HW142418   4.338   3.488   1.331
13659SOL    HW242419   4.432   3.405   1.245
13660SOL     OW42420   5.081   1.861   0.190
13660SOL    HW142421   5.074   1.891   0.099
13660SOL    HW242422   4.991   1.856   0.221
13661SOL     OW42423   5.032   2.323   0.680
13661SOL    HW142424   4.980   2.404   0.675
13661SOL    HW242425   5.017   2.291   0.769
13662SOL     OW42426   5.307   2.057   0.887
13662SOL    HW142427   5.251   2.078   0.962
13662SOL    HW242428   5.301   2.134   0.831
13663SOL     OW42429   3.763   2.935   0.330
13663SOL    HW142430   3.857   2.938   0.310
13663SOL    HW242431   3.751   2.850   0.374
13664SOL     OW42432   4.577   3.510   0.400
13664SOL    HW142433   4.509   3.502   0.333
13664SOL    HW242434   4.571   3.601   0.429
13665SOL     OW42435   3.944   2.472   1.976
13665SOL    HW142436   3.859   2.493   2.014
13665SOL    HW242437   3.931   2.476   1.882
13666SOL     OW42438   3.953   2.138   2.853
13666SOL    HW142439   3.974   2.111   2.942
13666SOL    HW242440   3.862   2.112   2.840
13667SOL     OW42441   3.717   2.245   2.503
13667SOL    HW142442   3.642   2.278   2.551
13667SOL    HW242443   3.684   2.168   2.457
13668SOL     OW42444   5.289   3.381   2.574
13668SOL    HW142445   5.248   3.367   2.659
13668SOL    HW242446   5.215   3.390   2.513
13669SOL     OW42447   4.861   2.552   2.553
13669SOL    HW142448   4.909   2.632   2.532
13669SOL    HW242449   4.818   2.571   2.636
13670SOL     OW42450   5.533   2.457   2.072
13670SOL    HW142451   5.489   2.451   1.988
13670SOL    HW242452   5.475   2.412   2.134
13671SOL     OW42453   4.448   2.976   2.879
13671SOL    HW142454   4.368   3.027   2.895
13671SOL    HW242455   4.506   3.037   2.834
13672SOL     OW42456   4.599   2.654   3.686
13672SOL    HW142457   4.614   2.738   3.730
13672SOL    HW242458   4.609   2.674   3.593
13673SOL     OW42459   4.391   2.880   2.510
13673SOL    HW142460   4.462   2.873   2.573
13673SOL    HW242461   4.347   2.962   2.534
13674SOL     OW42462   4.442   3.021   3.655
13674SOL    HW142463   4.487   3.098   3.688
13674SOL    HW242464   4.354   3.052   3.632
13675SOL     OW42465   5.187   3.365   3.225
13675SOL    HW142466   5.234   3.447   3.237
13675SOL    HW242467   5.113   3.370   3.285
13676SOL     OW42468   4.187   2.249   3.331
13676SOL    HW142469   4.255   2.183   3.347
13676SOL    HW242470   4.105   2.206   3.358
13677SOL     OW42471   5.322   2.302   2.620
13677SOL    HW142472   5.247   2.325   2.567
13677SOL    HW242473   5.320   2.363   2.694
13678SOL     OW42474   3.940   3.568   2.330
13678SOL    HW142475   3.953   3.641   2.390
13678SOL    HW242476   4.020   3.565   2.278
13679SOL     OW42477   4.877   3.190   3.565
13679SOL    HW142478   4.906   3.189   3.656
13679SOL    HW242479   4.820   3.114   3.557
13680SOL     OW42480   3.943   3.296   2.399
13680SOL    HW142481   3.933   3.390   2.383
13680SOL    HW242482   4.014   3.290   2.464
13681SOL     OW42483   4.305   2.847   1.995
13681SOL    HW142484   4.354   2.897   1.931
13681SOL    HW242485   4.338   2.878   2.080
13682SOL     OW42486   5.293   1.995   3.315
13682SOL    HW142487   5.356   2.053   3.273
13682SOL    HW242488   5.287   2.028   3.405
13683SOL     OW42489   3.849   2.514   2.416
13683SOL    HW142490   3.812   2.429   2.438
13683SOL    HW242491   3.842   2.565   2.497
13684SOL     OW42492   5.564   3.609   2.179
13684SOL    HW142493   5.606   3.584   2.261
13684SOL    HW242494   5.584   3.702   2.169
13685SOL     OW42495   3.765   3.453   1.971
13685SOL    HW142496   3.749   3.361   1.990
13685SOL    HW242497   3.743   3.498   2.053
13686SOL     OW42498   5.402   2.767   2.489
13686SOL    HW142499   5.495   2.748   2.484
13686SOL    HW242500   5.386   2.830   2.419
13687SOL     OW42501   5.382   2.966   2.290
13687SOL    HW142502   5.469   2.969   2.250
13687SOL    HW242503   5.385   3.033   2.358
13688SOL     OW42504   3.836   2.615   3.440
13688SOL    HW142505   3.916   2.663   3.462
13688SOL    HW242506   3.767   2.681   3.442
13689SOL     OW42507   5.007   3.082   3.288
13689SOL    HW142508   5.049   3.023   3.225
13689SOL    HW242509   5.064   3.080   3.364
13690SOL     OW42510   4.545   1.886   2.369
13690SOL    HW142511   4.578   1.970   2.338
13690SOL    HW242512   4.449   1.897   2.370
13691SOL     OW42513   3.911   2.815   3.138
13691SOL    HW142514   3.996   2.775   3.119
13691SOL    HW242515   3.857   2.796   3.061
13692SOL     OW42516   5.263   2.860   2.062
13692SOL    HW142517   5.197   2.798   2.093
13692SOL    HW242518   5.300   2.898   2.142
13693SOL     OW42519   5.019   3.677   3.500
13693SOL    HW142520   4.933   3.706   3.533
13693SOL    HW242521   5.008   3.584   3.482
13694SOL     OW42522   4.072   2.114   3.683
13694SOL    HW142523   4.109   2.199   3.705
13694SOL    HW242524   3.979   2.122   3.704
13695SOL     OW42525   5.208   3.270   2.818
13695SOL    HW142526   5.135   3.290   2.876
13695SOL    HW242527   5.187   3.184   2.781
13696SOL     OW42528   5.390   3.617   2.431
13696SOL    HW142529   5.349   3.581   2.352
13696SOL    HW242530   5.361   3.560   2.502
13697SOL     OW42531   4.319   2.577   2.139
13697SOL    HW142532   4.320   2.664   2.099
13697SOL    HW242533   4.254   2.584   2.209
13698SOL     OW42534   4.995   2.202   2.788
13698SOL    HW142535   4.909   2.162   2.799
13698SOL    HW242536   5.049   2.162   2.856
13699SOL     OW42537   5.294   3.545   2.170
13699SOL    HW142538   5.387   3.567   2.160
13699SOL    HW242539   5.265   3.524   2.081
13700SOL     OW42540   4.529   2.448   3.322
13700SOL    HW142541   4.486   2.417   3.402
13700SOL    HW242542   4.484   2.402   3.251
13701SOL     OW42543   5.115   2.334   3.545
13701SOL    HW142544   5.119   2.380   3.629
13701SOL    HW242545   5.175   2.260   3.556
13702SOL     OW42546   4.660   2.748   3.432
13702SOL    HW142547   4.722   2.687   3.394
13702SOL    HW242548   4.626   2.798   3.357
13703SOL     OW42549   4.722   2.278   3.098
13703SOL    HW142550   4.664   2.300   3.171
13703SOL    HW242551   4.671   2.298   3.019
13704SOL     OW42552   4.776   2.562   2.282
13704SOL    HW142553   4.790   2.560   2.376
13704SOL    HW242554   4.691   2.520   2.269
13705SOL     OW42555   3.819   2.664   2.638
13705SOL    HW142556   3.902   2.664   2.686
13705SOL    HW242557   3.762   2.724   2.688
13706SOL     OW42558   4.634   2.208   2.051
13706SOL    HW142559   4.674   2.273   1.993
13706SOL    HW242560   4.578   2.155   1.993
13707SOL     OW42561   5.425   2.425   3.691
13707SOL    HW142562   5.392   2.501   3.644
13707SOL    HW242563   5.457   2.366   3.622
13708SOL     OW42564   5.102   3.008   2.409
13708SOL    HW142565   5.182   3.019   2.357
13708SOL    HW242566   5.041   3.072   2.372
13709SOL     OW42567   4.285   2.037   2.771
13709SOL    HW142568   4.281   2.064   2.863
13709SOL    HW242569   4.272   2.118   2.721
13710SOL     OW42570   4.711   3.306   2.327
13710SOL    HW142571   4.695   3.385   2.276
13710SOL    HW242572   4.666   3.321   2.410
13711SOL     OW42573   4.156   3.646   2.651
13711SOL    HW142574   4.208   3.566   2.660
13711SOL    HW242575   4.193   3.706   2.716
13712SOL     OW42576   5.522   2.915   2.717
13712SOL    HW142577   5.450   2.911   2.654
13712SOL    HW242578   5.479   2.930   2.801
13713SOL     OW42579   4.961   3.392   3.378
13713SOL    HW142580   4.948   3.321   3.441
13713SOL    HW242581   4.873   3.412   3.345
13714SOL     OW42582   4.060   2.810   2.122
13714SOL    HW142583   4.139   2.828   2.070
13714SOL    HW242584   4.017   2.738   2.075
13715SOL     OW42585   5.210   2.590   2.568
13715SOL    HW142586   5.204   2.568   2.661
13715SOL    HW242587   5.280   2.655   2.563
13716SOL     OW42588   4.195   3.138   3.612
13716SOL    HW142589   4.150   3.150   3.529
13716SOL    HW242590   4.126   3.120   3.676
13717SOL     OW42591   4.861   3.647   2.083
13717SOL    HW142592   4.783   3.620   2.131
13717SOL    HW242593   4.877   3.577   2.020
13718SOL     OW42594   3.925   2.158   3.375
13718SOL    HW142595   3.848   2.213   3.359
13718SOL    HW242596   3.906   2.112   3.456
13719SOL     OW42597   5.357   3.242   1.949
13719SOL    HW142598   5.316   3.328   1.942
13719SOL    HW242599   5.286   3.180   1.933
13720SOL     OW42600   4.178   3.596   2.193
13720SOL    HW142601   4.222   3.663   2.245
13720SOL    HW242602   4.221   3.514   2.218
13721SOL     OW42603   5.136   1.950   2.315
13721SOL    HW142604   5.143   1.910   2.227
13721SOL    HW242605   5.227   1.964   2.341
13722SOL     OW42606   4.128   2.549   2.338
13722SOL    HW142607   4.141   2.456   2.356
13722SOL    HW242608   4.035   2.565   2.352
13723SOL     OW42609   5.258   2.089   3.584
13723SOL    HW142610   5.273   2.111   3.677
13723SOL    HW242611   5.191   2.021   3.586
13724SOL     OW42612   4.336   1.948   1.987
13724SOL    HW142613   4.402   2.001   1.943
13724SOL    HW242614   4.286   1.909   1.916
13725SOL     OW42615   4.478   2.107   3.609
13725SOL    HW142616   4.560   2.059   3.599
13725SOL    HW242617   4.487   2.155   3.691
13726SOL     OW42618   5.059   2.447   3.299
13726SOL    HW142619   5.091   2.418   3.384
13726SOL    HW242620   5.096   2.534   3.288
13727SOL     OW42621   4.671   2.371   2.763
13727SOL    HW142622   4.632   2.361   2.676
13727SOL    HW242623   4.728   2.296   2.773
13728SOL     OW42624   4.277   1.923   2.359
13728SOL    HW142625   4.198   1.922   2.411
13728SOL    HW242626   4.268   2.000   2.303
13729SOL     OW42627   5.148   3.066   1.902
13729SOL    HW142628   5.173   2.993   1.958
13729SOL    HW242629   5.063   3.094   1.937
13730SOL     OW42630   4.015   1.909   2.048
13730SOL    HW142631   4.066   1.978   2.005
13730SOL    HW242632   4.080   1.850   2.084
13731SOL     OW42633   4.677   2.115   2.304
13731SOL    HW142634   4.654   2.146   2.216
13731SOL    HW242635   4.770   2.134   2.312
13732SOL     OW42636   4.802   2.551   3.309
13732SOL    HW142637   4.737   2.486   3.336
13732SOL    HW242638   4.886   2.506   3.316
13733SOL     OW42639   4.942   3.424   2.666
13733SOL    HW142640   4.956   3.494   2.602
13733SOL    HW242641   4.880   3.460   2.728
13734SOL     OW42642   4.984   3.645   2.466
13734SOL    HW142643   5.018   3.723   2.421
13734SOL    HW242644   4.907   3.677   2.513
13735SOL     OW42645   4.769   2.401   1.887
13735SOL    HW142646   4.711   2.471   1.858
13735SOL    HW242647   4.800   2.429   1.973
13736SOL     OW42648   3.809   2.415   3.255
13736SOL    HW142649   3.901   2.421   3.229
13736SOL    HW242650   3.797   2.488   3.316
13737SOL     OW42651   4.279   2.083   3.046
13737SOL    HW142652   4.319   2.043   3.124
13737SOL    HW242653   4.185   2.083   3.066
13738SOL     OW42654   4.585   2.312   2.508
13738SOL    HW142655   4.523   2.377   2.474
13738SOL    HW242656   4.600   2.252   2.436
13739SOL     OW42657   5.160   3.017   2.714
13739SOL    HW142658   5.073   2.990   2.743
13739SOL    HW242659   5.153   3.025   2.619
13740SOL     OW42660   5.189   2.464   2.825
13740SOL    HW142661   5.126   2.396   2.846
13740SOL    HW242662   5.246   2.468   2.901
13741SOL     OW42663   5.580   2.671   2.238
13741SOL    HW142664   5.631   2.622   2.303
13741SOL    HW242665   5.564   2.607   2.168
13742SOL     OW42666   4.221   3.275   2.004
13742SOL    HW142667   4.147   3.268   2.065
13742SOL    HW242668   4.195   3.222   1.929
13743SOL     OW42669   5.406   3.141   2.489
13743SOL    HW142670   5.497   3.150   2.515
13743SOL    HW242671   5.364   3.221   2.521
13744SOL     OW42672   5.140   2.368   1.967
13744SOL    HW142673   5.075   2.418   2.015
13744SOL    HW242674   5.218   2.424   1.968
13745SOL     OW42675   4.248   2.121   2.180
13745SOL    HW142676   4.284   2.066   2.110
13745SOL    HW242677   4.224   2.203   2.136
13746SOL     OW42678   5.471   3.094   3.420
13746SOL    HW142679   5.538   3.045   3.467
13746SOL    HW242680   5.489   3.185   3.440
13747SOL     OW42681   4.784   3.197   3.184
13747SOL    HW142682   4.708   3.178   3.240
13747SOL    HW242683   4.859   3.163   3.234
13748SOL     OW42684   5.332   3.482   3.523
13748SOL    HW142685   5.326   3.523   3.437
13748SOL    HW242686   5.410   3.427   3.518
13749SOL     OW42687   4.828   3.024   2.974
13749SOL    HW142688   4.809   3.089   3.041
13749SOL    HW242689   4.826   3.073   2.892
13750SOL     OW42690   5.359   2.969   2.936
13750SOL    HW142691   5.352   3.032   3.008
13750SOL    HW242692   5.281   2.986   2.883
13751SOL     OW42693   4.652   1.948   3.259
13751SOL    HW142694   4.677   1.955   3.167
13751SOL    HW242695   4.724   1.989   3.306
13752SOL     OW42696   4.710   2.972   3.580
13752SOL    HW142697   4.621   3.000   3.604
13752SOL    HW242698   4.697   2.895   3.525
13753SOL     OW42699   4.423   2.914   2.235
13753SOL    HW142700   4.407   2.903   2.329
13753SOL    HW242701   4.502   2.863   2.217
13754SOL     OW42702   4.150   2.679   3.111
13754SOL    HW142703   4.217   2.691   3.179
13754SOL    HW242704   4.112   2.594   3.130
13755SOL     OW42705   4.988   2.237   3.138
13755SOL    HW142706   5.018   2.313   3.189
13755SOL    HW242707   4.897   2.256   3.118
13756SOL     OW42708   4.015   2.974   2.335
13756SOL    HW142709   4.094   2.997   2.383
13756SOL    HW242710   4.044   2.912   2.269
13757SOL     OW42711   4.275   2.379   2.712
13757SOL    HW142712   4.281   2.440   2.638
13757SOL    HW242713   4.336   2.414   2.777
13758SOL     OW42714   4.964   3.215   2.262
13758SOL    HW142715   5.017   3.288   2.294
13758SOL    HW242716   4.875   3.235   2.293
13759SOL     OW42717   5.021   3.289   3.014
13759SOL    HW142718   5.074   3.319   3.088
13759SOL    HW242719   4.932   3.283   3.049
13760SOL     OW42720   5.314   2.486   2.328
13760SOL    HW142721   5.262   2.509   2.405
13760SOL    HW242722   5.354   2.569   2.300
13761SOL     OW42723   4.153   2.599   3.466
13761SOL    HW142724   4.216   2.647   3.412
13761SOL    HW242725   4.161   2.508   3.437
13762SOL     OW42726   5.343   2.641   3.547
13762SOL    HW142727   5.256   2.680   3.545
13762SOL    HW242728   5.393   2.688   3.480
13763SOL     OW42729   4.717   1.987   3.587
13763SOL    HW142730   4.771   2.066   3.596
13763SOL    HW242731   4.780   1.917   3.571
13764SOL     OW42732   4.217   1.892   3.609
13764SOL    HW142733   4.163   1.848   3.544
13764SOL    HW242734   4.169   1.973   3.629
13765SOL     OW42735   4.313   2.731   2.895
13765SOL    HW142736   4.350   2.819   2.893
13765SOL    HW242737   4.254   2.732   2.970
13766SOL     OW42738   5.059   2.715   2.869
13766SOL    HW142739   4.967   2.699   2.847
13766SOL    HW242740   5.101   2.629   2.859
13767SOL     OW42741   4.932   2.381   2.149
13767SOL    HW142742   4.900   2.319   2.215
13767SOL    HW242743   4.901   2.467   2.179
13768SOL     OW42744   4.015   2.061   3.114
13768SOL    HW142745   3.975   2.094   3.195
13768SOL    HW242746   3.996   1.967   3.115
13769SOL     OW42747   3.744   3.159   3.187
13769SOL    HW142748   3.788   3.093   3.241
13769SOL    HW242749   3.815   3.216   3.157
13770SOL     OW42750   4.434   2.488   2.903
13770SOL    HW142751   4.520   2.497   2.862
13770SOL    HW242752   4.397   2.576   2.900
13771SOL     OW42753   5.465   2.826   3.720
13771SOL    HW142754   5.421   2.753   3.676
13771SOL    HW242755   5.408   2.847   3.794
13772SOL     OW42756   4.036   1.920   2.486
13772SOL    HW142757   4.007   2.009   2.502
13772SOL    HW242758   4.038   1.880   2.573
13773SOL     OW42759   5.282   2.231   2.234
13773SOL    HW142760   5.339   2.173   2.286
13773SOL    HW242761   5.294   2.318   2.273
13774SOL     OW42762   4.773   2.617   2.818
13774SOL    HW142763   4.755   2.638   2.909
13774SOL    HW242764   4.738   2.529   2.806
13775SOL     OW42765   4.735   3.428   3.576
13775SOL    HW142766   4.696   3.439   3.489
13775SOL    HW242767   4.756   3.335   3.581
13776SOL     OW42768   5.571   3.344   3.469
13776SOL    HW142769   5.590   3.387   3.386
13776SOL    HW242770   5.644   3.368   3.526
13777SOL     OW42771   4.070   2.796   3.657
13777SOL    HW142772   4.082   2.781   3.751
13777SOL    HW242773   4.115   2.724   3.614
13778SOL     OW42774   5.000   2.672   1.875
13778SOL    HW142775   4.954   2.603   1.827
13778SOL    HW242776   5.044   2.723   1.806
13779SOL     OW42777   4.822   3.163   2.741
13779SOL    HW142778   4.804   3.117   2.659
13779SOL    HW242779   4.851   3.250   2.714
13780SOL     OW42780   4.044   2.653   2.793
13780SOL    HW142781   4.132   2.690   2.796
13780SOL    HW242782   4.052   2.569   2.839
13781SOL     OW42783   4.065   2.382   2.885
13781SOL    HW142784   4.021   2.299   2.869
13781SOL    HW242785   4.136   2.383   2.820
13782SOL     OW42786   4.857   2.235   3.555
13782SOL    HW142787   4.809   2.288   3.620
13782SOL    HW242788   4.944   2.274   3.553
13783SOL     OW42789   4.892   2.061   3.339
13783SOL    HW142790   4.878   2.123   3.411
13783SOL    HW242791   4.937   2.113   3.272
13784SOL     OW42792   3.724   3.181   2.044
13784SOL    HW142793   3.634   3.197   2.015
13784SOL    HW242794   3.722   3.093   2.082
13785SOL     OW42795   4.697   2.643   3.074
13785SOL    HW142796   4.748   2.613   3.150
13785SOL    HW242797   4.623   2.689   3.113
13786SOL     OW42798   3.760   2.398   2.981
13786SOL    HW142799   3.839   2.421   2.932
13786SOL    HW242800   3.785   2.408   3.073
13787SOL     OW42801   3.902   2.390   3.582
13787SOL    HW142802   3.949   2.349   3.510
13787SOL    HW242803   3.868   2.472   3.546
13788SOL     OW42804   5.112   2.783   3.515
13788SOL    HW142805   5.130   2.877   3.516
13788SOL    HW242806   5.105   2.761   3.422
13789SOL     OW42807   4.544   2.433   2.221
13789SOL    HW142808   4.533   2.357   2.164
13789SOL    HW242809   4.469   2.489   2.201
13790SOL     OW42810   5.364   2.467   3.031
13790SOL    HW142811   5.356   2.415   3.111
13790SOL    HW242812   5.453   2.450   3.000
13791SOL     OW42813   4.430   2.313   3.109
13791SOL    HW142814   4.369   2.243   3.085
13791SOL    HW242815   4.421   2.377   3.038
13792SOL     OW42816   4.179   2.349   2.053
13792SOL    HW142817   4.236   2.423   2.074
13792SOL    HW242818   4.094   2.388   2.034
13793SOL     OW42819   3.873   2.987   3.343
13793SOL    HW142820   3.862   2.942   3.427
13793SOL    HW242821   3.887   2.917   3.280
13794SOL     OW42822   5.051   2.897   3.073
13794SOL    HW142823   5.066   2.838   2.999
13794SOL    HW242824   4.974   2.947   3.048
13795SOL     OW42825   5.060   2.697   2.152
13795SOL    HW142826   4.991   2.716   2.216
13795SOL    HW242827   5.015   2.700   2.067
13796SOL     OW42828   5.515   3.585   3.035
13796SOL    HW142829   5.541   3.633   2.956
13796SOL    HW242830   5.467   3.509   3.002
13797SOL     OW42831   5.037   3.610   2.958
13797SOL    HW142832   4.997   3.559   2.887
13797SOL    HW242833   4.968   3.620   3.022
13798SOL     OW42834   5.432   2.020   2.354
13798SOL    HW142835   5.506   2.009   2.294
13798SOL    HW242836   5.425   1.936   2.399
13799SOL     OW42837   5.113   3.432   2.352
13799SOL    HW142838   5.165   3.474   2.283
13799SOL    HW242839   5.059   3.502   2.388
13800SOL     OW42840   5.002   2.774   2.500
13800SOL    HW142841   5.081   2.724   2.523
13800SOL    HW242842   5.036   2.857   2.468
13801SOL     OW42843   4.527   3.151   3.297
13801SOL    HW142844   4.502   3.181   3.384
13801SOL    HW242845   4.475   3.206   3.238
13802SOL     OW42846   4.433   3.450   1.998
13802SOL    HW142847   4.375   3.520   1.968
13802SOL    HW242848   4.374   3.379   2.025
13803SOL     OW42849   5.349   3.593   3.264
13803SOL    HW142850   5.395   3.599   3.180
13803SOL    HW242851   5.328   3.683   3.287
13804SOL     OW42852   5.567   2.022   2.831
13804SOL    HW142853   5.593   1.932   2.812
13804SOL    HW242854   5.477   2.028   2.797
13805SOL     OW42855   3.974   2.170   2.571
13805SOL    HW142856   3.888   2.205   2.547
13805SOL    HW242857   3.974   2.170   2.667
13806SOL     OW42858   4.934   3.458   1.890
13806SOL    HW142859   4.915   3.372   1.927
13806SOL    HW242860   4.861   3.475   1.830
13807SOL     OW42861   4.558   2.886   3.218
13807SOL    HW142862   4.592   2.908   3.131
13807SOL    HW242863   4.539   2.971   3.258
13808SOL     OW42864   4.642   2.775   2.150
13808SOL    HW142865   4.705   2.818   2.093
13808SOL    HW242866   4.693   2.710   2.198
13809SOL     OW42867   5.211   3.490   1.908
13809SOL    HW142868   5.117   3.479   1.894
13809SOL    HW242869   5.248   3.496   1.820
13810SOL     OW42870   4.066   3.178   3.377
13810SOL    HW142871   4.025   3.256   3.339
13810SOL    HW242872   3.999   3.109   3.368
13811SOL     OW42873   5.359   3.159   3.155
13811SOL    HW142874   5.391   3.130   3.241
13811SOL    HW242875   5.289   3.220   3.175
13812SOL     OW42876   4.787   2.960   2.550
13812SOL    HW142877   4.714   2.918   2.595
13812SOL    HW242878   4.847   2.889   2.530
13813SOL     OW42879   4.738   2.088   2.815
13813SOL    HW142880   4.645   2.111   2.808
13813SOL    HW242881   4.742   2.021   2.882
13814SOL     OW42882   4.299   3.387   2.320
13814SOL    HW142883   4.353   3.310   2.301
13814SOL    HW242884   4.291   3.388   2.415
13815SOL     OW42885   5.443   2.276   3.233
13815SOL    HW142886   5.522   2.330   3.239
13815SOL    HW242887   5.469   2.200   3.181
13816SOL     OW42888   3.977   3.226   2.130
13816SOL    HW142889   3.883   3.218   2.115
13816SOL    HW242890   3.985   3.233   2.226
13817SOL     OW42891   3.822   2.879   3.579
13817SOL    HW142892   3.751   2.865   3.641
13817SOL    HW242893   3.902   2.858   3.628
13818SOL     OW42894   4.400   2.043   3.352
13818SOL    HW142895   4.489   2.025   3.321
13818SOL    HW242896   4.411   2.067   3.444
13819SOL     OW42897   3.832   2.163   1.926
13819SOL    HW142898   3.750   2.131   1.888
13819SOL    HW242899   3.819   2.258   1.933
13820SOL     OW42900   5.147   2.710   3.250
13820SOL    HW142901   5.097   2.773   3.198
13820SOL    HW242902   5.237   2.719   3.219
13821SOL     OW42903   3.787   2.010   2.169
13821SOL    HW142904   3.771   2.089   2.118
13821SOL    HW242905   3.871   1.977   2.137
13822SOL     OW42906   4.899   3.197   1.987
13822SOL    HW142907   4.806   3.175   1.987
13822SOL    HW242908   4.923   3.200   2.080
13823SOL     OW42909   4.357   2.686   3.291
13823SOL    HW142910   4.402   2.770   3.284
13823SOL    HW242911   4.428   2.623   3.306
13824SOL     OW42912   5.293   3.641   2.830
13824SOL    HW142913   5.281   3.728   2.793
13824SOL    HW242914   5.212   3.623   2.876
13825SOL     OW42915   5.196   3.045   3.495
13825SOL    HW142916   5.175   3.066   3.586
13825SOL    HW242917   5.286   3.076   3.483
13826SOL     OW42918   5.390   2.746   3.110
13826SOL    HW142919   5.380   2.663   3.064
13826SOL    HW242920   5.378   2.813   3.043
13827SOL     OW42921   4.961   2.163   2.322
13827SOL    HW142922   5.011   2.084   2.342
13827SOL    HW242923   4.974   2.220   2.398
13828SOL     OW42924   4.322   2.596   2.532
13828SOL    HW142925   4.344   2.689   2.533
13828SOL    HW242926   4.254   2.589   2.466
13829SOL     OW42927   5.487   2.227   3.501
13829SOL    HW142928   5.459   2.252   3.413
13829SOL    HW242929   5.417   2.171   3.534
13830SOL     OW42930   5.472   2.801   3.365
13830SOL    HW142931   5.450   2.893   3.378
13830SOL    HW242932   5.451   2.784   3.273
13831SOL     OW42933   4.596   3.226   1.911
13831SOL    HW142934   4.573   3.203   2.001
13831SOL    HW242935   4.569   3.317   1.902
13832SOL     OW42936   4.602   2.822   2.703
13832SOL    HW142937   4.658   2.759   2.747
13832SOL    HW242938   4.548   2.859   2.774
13833SOL     OW42939   4.824   2.868   1.968
13833SOL    HW142940   4.787   2.917   1.894
13833SOL    HW242941   4.879   2.801   1.926
13834SOL     OW42942   5.557   3.412   2.713
13834SOL    HW142943   5.479   3.417   2.658
13834SOL    HW242944   5.525   3.380   2.797
13835SOL     OW42945   4.399   3.295   3.495
13835SOL    HW142946   4.326   3.256   3.543
13835SOL    HW242947   4.379   3.389   3.492
13836SOL     OW42948   5.513   2.051   3.107
13836SOL    HW142949   5.570   1.990   3.155
13836SOL    HW242950   5.539   2.040   3.016
13837SOL     OW42951   4.161   2.289   2.398
13837SOL    HW142952   4.179   2.222   2.331
13837SOL    HW242953   4.101   2.247   2.459
13838SOL     OW42954   5.438   3.328   2.948
13838SOL    HW142955   5.355   3.322   2.901
13838SOL    HW242956   5.426   3.274   3.026
13839SOL     OW42957   4.063   2.422   3.158
13839SOL    HW142958   4.117   2.361   3.207
13839SOL    HW242959   4.075   2.397   3.067
13840SOL     OW42960   4.535   3.404   2.514
13840SOL    HW142961   4.523   3.496   2.489
13840SOL    HW242962   4.456   3.381   2.562
13841SOL     OW42963   5.162   2.095   2.987
13841SOL    HW142964   5.214   2.040   3.045
13841SOL    HW242965   5.104   2.145   3.045
13842SOL     OW42966   4.734   1.872   2.994
13842SOL    HW142967   4.683   1.797   3.024
13842SOL    HW242968   4.821   1.836   2.977
13843SOL     OW42969   4.537   3.161   2.161
13843SOL    HW142970   4.492   3.085   2.198
13843SOL    HW242971   4.590   3.195   2.233
13844SOL     OW42972   5.064   1.964   2.032
13844SOL    HW142973   5.104   1.910   1.964
13844SOL    HW242974   4.986   1.915   2.059
13845SOL     OW42975   5.013   2.316   2.537
13845SOL    HW142976   4.966   2.400   2.542
13845SOL    HW242977   5.008   2.281   2.626
13846SOL     OW42978   5.302   2.050   2.752
13846SOL    HW142979   5.254   2.077   2.831
13846SOL    HW242980   5.306   2.130   2.699
13847SOL     OW42981   3.764   2.940   2.180
13847SOL    HW142982   3.850   2.957   2.220
13847SOL    HW242983   3.753   2.845   2.186
13848SOL     OW42984   4.630   3.532   2.189
13848SOL    HW142985   4.556   3.509   2.133
13848SOL    HW242986   4.593   3.593   2.253
13849SOL     OW42987   3.958   2.426   3.857
13849SOL    HW142988   3.900   2.471   3.918
13849SOL    HW242989   3.925   2.449   3.770
13850SOL     OW42990   3.955   2.130   4.698
13850SOL    HW142991   3.980   2.114   4.789
13850SOL    HW242992   3.861   2.111   4.695
13851SOL     OW42993   3.709   2.236   4.361
13851SOL    HW142994   3.640   2.279   4.411
13851SOL    HW242995   3.668   2.158   4.324
13852SOL     OW42996   4.300   3.166   4.896
13852SOL    HW142997   4.212   3.171   4.858
13852SOL    HW242998   4.311   3.249   4.942
13853SOL     OW42999   5.298   3.380   4.445
13853SOL    HW143000   5.277   3.365   4.537
13853SOL    HW243001   5.214   3.384   4.400
13854SOL     OW43002   4.858   2.555   4.424
13854SOL    HW143003   4.906   2.635   4.402
13854SOL    HW243004   4.821   2.573   4.510
13855SOL     OW43005   5.528   2.447   3.940
13855SOL    HW143006   5.489   2.443   3.853
13855SOL    HW243007   5.477   2.385   3.992
13856SOL     OW43008   4.462   2.964   4.817
13856SOL    HW143009   4.393   3.017   4.857
13856SOL    HW243010   4.510   3.025   4.762
13857SOL     OW43011   4.580   2.632   5.548
13857SOL    HW143012   4.532   2.691   5.606
13857SOL    HW243013   4.610   2.688   5.476
13858SOL     OW43014   4.413   2.836   4.372
13858SOL    HW143015   4.480   2.838   4.440
13858SOL    HW243016   4.349   2.901   4.399
13859SOL     OW43017   4.060   3.264   4.788
13859SOL    HW143018   3.981   3.228   4.749
13859SOL    HW243019   4.097   3.322   4.721
13860SOL     OW43020   5.200   3.373   5.103
13860SOL    HW143021   5.186   3.453   5.052
13860SOL    HW243022   5.118   3.360   5.150
13861SOL     OW43023   4.186   2.217   5.163
13861SOL    HW143024   4.262   2.175   5.204
13861SOL    HW243025   4.112   2.192   5.219
13862SOL     OW43026   5.324   2.314   4.478
13862SOL    HW143027   5.252   2.332   4.418
13862SOL    HW243028   5.303   2.366   4.556
13863SOL     OW43029   4.911   3.177   5.400
13863SOL    HW143030   4.912   3.247   5.466
13863SOL    HW243031   4.836   3.123   5.423
13864SOL     OW43032   3.922   2.910   4.647
13864SOL    HW143033   3.924   2.863   4.731
13864SOL    HW243034   3.891   2.998   4.670
13865SOL     OW43035   4.327   3.654   5.153
13865SOL    HW143036   4.242   3.643   5.195
13865SOL    HW243037   4.346   3.747   5.162
13866SOL     OW43038   4.391   2.815   3.835
13866SOL    HW143039   4.394   2.885   3.769
13866SOL    HW243040   4.392   2.862   3.919
13867SOL     OW43041   5.316   1.981   5.162
13867SOL    HW143042   5.257   2.008   5.091
13867SOL    HW243043   5.292   2.038   5.236
13868SOL     OW43044   3.860   2.500   4.294
13868SOL    HW143045   3.799   2.428   4.312
13868SOL    HW243046   3.843   2.564   4.364
13869SOL     OW43047   5.570   3.606   4.036
13869SOL    HW143048   5.603   3.580   4.122
13869SOL    HW243049   5.588   3.700   4.031
13870SOL     OW43050   5.403   2.769   4.352
13870SOL    HW143051   5.495   2.746   4.345
13870SOL    HW243052   5.388   2.832   4.281
13871SOL     OW43053   5.386   2.967   4.149
13871SOL    HW143054   5.473   2.965   4.109
13871SOL    HW243055   5.391   3.035   4.216
13872SOL     OW43056   3.855   2.602   5.306
13872SOL    HW143057   3.949   2.614   5.295
13872SOL    HW243058   3.827   2.678   5.356
13873SOL     OW43059   5.029   3.113   5.121
13873SOL    HW143060   5.061   3.028   5.089
13873SOL    HW243061   5.038   3.108   5.216
13874SOL     OW43062   4.540   1.864   4.230
13874SOL    HW143063   4.584   1.944   4.203
13874SOL    HW243064   4.448   1.888   4.239
13875SOL     OW43065   3.915   2.791   4.893
13875SOL    HW143066   3.997   2.780   4.943
13875SOL    HW243067   3.868   2.859   4.941
13876SOL     OW43068   5.262   2.865   3.922
13876SOL    HW143069   5.194   2.805   3.953
13876SOL    HW243070   5.302   2.900   4.002
13877SOL     OW43071   5.007   3.689   5.346
13877SOL    HW143072   4.960   3.762   5.306
13877SOL    HW243073   4.952   3.612   5.330
13878SOL     OW43074   4.070   2.105   5.562
13878SOL    HW143075   4.114   2.190   5.570
13878SOL    HW243076   3.977   2.126   5.574
13879SOL     OW43077   5.224   3.266   4.686
13879SOL    HW143078   5.155   3.285   4.749
13879SOL    HW243079   5.197   3.183   4.645
13880SOL     OW43080   5.393   3.619   4.291
13880SOL    HW143081   5.348   3.578   4.217
13880SOL    HW243082   5.367   3.566   4.366
13881SOL     OW43083   4.276   2.604   4.005
13881SOL    HW143084   4.229   2.677   3.963
13881SOL    HW243085   4.225   2.585   4.084
13882SOL     OW43086   5.035   2.210   4.687
13882SOL    HW143087   4.942   2.197   4.701
13882SOL    HW243088   5.077   2.148   4.746
13883SOL     OW43089   5.302   3.542   4.028
13883SOL    HW143090   5.395   3.564   4.018
13883SOL    HW243091   5.272   3.526   3.939
13884SOL     OW43092   4.548   2.436   5.174
13884SOL    HW143093   4.503   2.435   5.259
13884SOL    HW243094   4.484   2.400   5.113
13885SOL     OW43095   5.114   2.339   5.401
13885SOL    HW143096   5.117   2.381   5.486
13885SOL    HW243097   5.171   2.263   5.410
13886SOL     OW43098   4.658   2.765   5.308
13886SOL    HW143099   4.719   2.700   5.274
13886SOL    HW243100   4.625   2.810   5.230
13887SOL     OW43101   4.708   2.279   4.961
13887SOL    HW143102   4.642   2.314   5.021
13887SOL    HW243103   4.665   2.275   4.876
13888SOL     OW43104   4.779   2.542   4.161
13888SOL    HW143105   4.807   2.551   4.252
13888SOL    HW243106   4.695   2.496   4.167
13889SOL     OW43107   3.813   2.663   4.505
13889SOL    HW143108   3.894   2.684   4.552
13889SOL    HW243109   3.755   2.737   4.523
13890SOL     OW43110   3.869   3.741   5.284
13890SOL    HW143111   3.832   3.653   5.290
13890SOL    HW243112   3.849   3.769   5.195
13891SOL     OW43113   4.590   2.174   3.858
13891SOL    HW143114   4.639   2.253   3.836
13891SOL    HW243115   4.630   2.144   3.940
13892SOL     OW43116   5.444   2.431   5.550
13892SOL    HW143117   5.405   2.506   5.506
13892SOL    HW243118   5.457   2.366   5.481
13893SOL     OW43119   5.111   3.001   4.263
13893SOL    HW143120   5.197   3.009   4.222
13893SOL    HW243121   5.058   3.068   4.220
13894SOL     OW43122   4.281   2.041   4.629
13894SOL    HW143123   4.280   2.056   4.724
13894SOL    HW243124   4.279   2.128   4.590
13895SOL     OW43125   4.069   3.664   4.605
13895SOL    HW143126   4.119   3.582   4.613
13895SOL    HW243127   4.127   3.731   4.642
13896SOL     OW43128   5.517   2.908   4.582
13896SOL    HW143129   5.446   2.898   4.518
13896SOL    HW243130   5.472   2.927   4.665
13897SOL     OW43131   4.940   3.395   5.206
13897SOL    HW143132   4.921   3.330   5.274
13897SOL    HW243133   4.857   3.442   5.193
13898SOL     OW43134   4.057   2.758   3.932
13898SOL    HW143135   4.068   2.820   4.003
13898SOL    HW243136   3.974   2.714   3.951
13899SOL     OW43137   5.201   2.602   4.440
13899SOL    HW143138   5.197   2.574   4.531
13899SOL    HW243139   5.275   2.663   4.437
13900SOL     OW43140   4.210   3.077   5.372
13900SOL    HW143141   4.178   3.082   5.282
13900SOL    HW243142   4.152   3.135   5.421
13901SOL     OW43143   4.871   3.680   3.946
13901SOL    HW143144   4.790   3.693   3.994
13901SOL    HW243145   4.865   3.591   3.911
13902SOL     OW43146   3.906   2.144   5.217
13902SOL    HW143147   3.874   2.229   5.190
13902SOL    HW243148   3.914   2.150   5.312
13903SOL     OW43149   5.356   3.241   3.800
13903SOL    HW143150   5.315   3.328   3.798
13903SOL    HW243151   5.283   3.180   3.789
13904SOL     OW43152   5.131   1.971   4.176
13904SOL    HW143153   5.131   1.949   4.082
13904SOL    HW243154   5.223   1.986   4.197
13905SOL     OW43155   3.988   3.658   4.961
13905SOL    HW143156   4.023   3.574   4.988
13905SOL    HW243157   3.943   3.640   4.878
13906SOL     OW43158   4.117   2.536   4.205
13906SOL    HW143159   4.133   2.443   4.224
13906SOL    HW243160   4.025   2.549   4.227
13907SOL     OW43161   5.251   2.095   5.444
13907SOL    HW143162   5.264   2.109   5.537
13907SOL    HW243163   5.183   2.028   5.438
13908SOL     OW43164   4.359   1.925   3.847
13908SOL    HW143165   4.440   1.974   3.832
13908SOL    HW243166   4.318   1.922   3.760
13909SOL     OW43167   4.482   2.105   5.486
13909SOL    HW143168   4.569   2.066   5.483
13909SOL    HW243169   4.480   2.151   5.570
13910SOL     OW43170   4.597   3.389   4.948
13910SOL    HW143171   4.585   3.405   4.854
13910SOL    HW243172   4.670   3.327   4.953
13911SOL     OW43173   5.054   2.452   5.155
13911SOL    HW143174   5.086   2.424   5.241
13911SOL    HW243175   5.090   2.540   5.144
13912SOL     OW43176   4.531   3.155   4.645
13912SOL    HW143177   4.545   3.247   4.668
13912SOL    HW243178   4.441   3.152   4.611
13913SOL     OW43179   4.685   2.367   4.621
13913SOL    HW143180   4.655   2.363   4.531
13913SOL    HW243181   4.707   2.277   4.644
13914SOL     OW43182   4.268   1.919   4.217
13914SOL    HW143183   4.196   1.925   4.280
13914SOL    HW243184   4.260   1.999   4.165
13915SOL     OW43185   5.145   3.065   3.765
13915SOL    HW143186   5.175   2.993   3.821
13915SOL    HW243187   5.063   3.094   3.806
13916SOL     OW43188   4.009   1.922   3.905
13916SOL    HW143189   4.052   2.002   3.875
13916SOL    HW243190   4.080   1.872   3.947
13917SOL     OW43191   4.667   2.109   4.160
13917SOL    HW143192   4.635   2.182   4.213
13917SOL    HW243193   4.762   2.117   4.164
13918SOL     OW43194   4.794   2.560   5.180
13918SOL    HW143195   4.719   2.500   5.185
13918SOL    HW243196   4.870   2.502   5.177
13919SOL     OW43197   5.017   3.362   4.469
13919SOL    HW143198   4.949   3.420   4.435
13919SOL    HW243199   4.986   3.337   4.556
13920SOL     OW43200   4.985   3.650   4.262
13920SOL    HW143201   5.040   3.721   4.229
13920SOL    HW243202   4.912   3.694   4.304
13921SOL     OW43203   4.750   2.399   3.758
13921SOL    HW143204   4.732   2.491   3.738
13921SOL    HW243205   4.810   2.403   3.833
13922SOL     OW43206   3.804   2.411   5.119
13922SOL    HW143207   3.895   2.417   5.089
13922SOL    HW243208   3.795   2.484   5.180
13923SOL     OW43209   4.273   2.065   4.902
13923SOL    HW143210   4.318   2.052   4.986
13923SOL    HW243211   4.181   2.078   4.926
13924SOL     OW43212   4.544   2.322   4.336
13924SOL    HW143213   4.503   2.408   4.345
13924SOL    HW243214   4.494   2.266   4.396
13925SOL     OW43215   4.761   1.904   4.464
13925SOL    HW143216   4.684   1.915   4.408
13925SOL    HW243217   4.734   1.838   4.528
13926SOL     OW43218   5.145   3.025   4.580
13926SOL    HW143219   5.054   3.031   4.611
13926SOL    HW243220   5.138   3.030   4.485
13927SOL     OW43221   5.188   2.451   4.686
13927SOL    HW143222   5.132   2.375   4.702
13927SOL    HW243223   5.241   2.459   4.765
13928SOL     OW43224   5.580   2.667   4.096
13928SOL    HW143225   5.629   2.621   4.163
13928SOL    HW243226   5.555   2.599   4.034
13929SOL     OW43227   5.413   3.146   4.342
13929SOL    HW143228   5.503   3.150   4.374
13929SOL    HW243229   5.370   3.222   4.379
13930SOL     OW43230   5.113   2.436   3.798
13930SOL    HW143231   5.051   2.416   3.868
13930SOL    HW243232   5.199   2.425   3.839
13931SOL     OW43233   4.232   2.108   4.022
13931SOL    HW143234   4.288   2.064   3.959
13931SOL    HW243235   4.225   2.198   3.989
13932SOL     OW43236   5.480   3.092   5.268
13932SOL    HW143237   5.568   3.056   5.275
13932SOL    HW243238   5.487   3.181   5.303
13933SOL     OW43239   4.781   3.190   5.018
13933SOL    HW143240   4.706   3.173   5.075
13933SOL    HW243241   4.857   3.181   5.076
13934SOL     OW43242   5.355   3.493   5.394
13934SOL    HW143243   5.322   3.520   5.308
13934SOL    HW243244   5.425   3.430   5.375
13935SOL     OW43245   4.843   3.003   4.831
13935SOL    HW143246   4.811   3.068   4.893
13935SOL    HW243247   4.842   3.048   4.746
13936SOL     OW43248   5.356   2.969   4.801
13936SOL    HW143249   5.351   3.033   4.872
13936SOL    HW243250   5.274   2.980   4.753
13937SOL     OW43251   4.658   1.941   5.122
13937SOL    HW143252   4.671   1.942   5.027
13937SOL    HW243253   4.733   1.989   5.157
13938SOL     OW43254   4.703   2.996   5.484
13938SOL    HW143255   4.621   3.029   5.523
13938SOL    HW243256   4.675   2.934   5.418
13939SOL     OW43257   4.429   2.916   4.090
13939SOL    HW143258   4.380   2.923   4.171
13939SOL    HW243259   4.504   2.860   4.111
13940SOL     OW43260   4.155   2.669   4.972
13940SOL    HW143261   4.221   2.683   5.040
13940SOL    HW243262   4.113   2.586   4.996
13941SOL     OW43263   4.970   2.234   5.016
13941SOL    HW143264   5.005   2.315   5.054
13941SOL    HW243265   4.880   2.257   4.991
13942SOL     OW43266   3.786   3.407   5.012
13942SOL    HW143267   3.741   3.488   5.036
13942SOL    HW243268   3.877   3.422   5.035
13943SOL     OW43269   4.331   2.343   4.538
13943SOL    HW143270   4.307   2.418   4.483
13943SOL    HW243271   4.349   2.381   4.624
13944SOL     OW43272   4.958   3.201   4.125
13944SOL    HW143273   5.013   3.278   4.142
13944SOL    HW243274   4.895   3.200   4.196
13945SOL     OW43275   5.027   3.280   4.865
13945SOL    HW143276   5.026   3.254   4.957
13945SOL    HW243277   4.937   3.304   4.846
13946SOL     OW43278   5.298   2.493   4.202
13946SOL    HW143279   5.249   2.519   4.280
13946SOL    HW243280   5.339   2.573   4.171
13947SOL     OW43281   4.065   3.396   5.025
13947SOL    HW143282   4.054   3.345   4.945
13947SOL    HW243283   4.160   3.404   5.036
13948SOL     OW43284   4.138   2.568   5.312
13948SOL    HW143285   4.201   2.613   5.254
13948SOL    HW243286   4.170   2.585   5.400
13949SOL     OW43287   5.347   2.644   5.412
13949SOL    HW143288   5.258   2.679   5.409
13949SOL    HW243289   5.393   2.688   5.341
13950SOL     OW43290   4.732   2.000   5.491
13950SOL    HW143291   4.783   2.078   5.467
13950SOL    HW243292   4.784   1.927   5.459
13951SOL     OW43293   4.212   1.886   5.477
13951SOL    HW143294   4.164   1.846   5.405
13951SOL    HW243295   4.164   1.966   5.497
13952SOL     OW43296   4.324   2.730   4.761
13952SOL    HW143297   4.360   2.818   4.771
13952SOL    HW243298   4.258   2.724   4.830
13953SOL     OW43299   5.062   2.704   4.732
13953SOL    HW143300   4.968   2.700   4.717
13953SOL    HW243301   5.092   2.613   4.727
13954SOL     OW43302   4.914   2.381   3.985
13954SOL    HW143303   4.930   2.306   4.042
13954SOL    HW243304   4.878   2.448   4.043
13955SOL     OW43305   4.002   2.058   4.963
13955SOL    HW143306   3.975   2.097   5.046
13955SOL    HW243307   3.984   1.964   4.973
13956SOL     OW43308   3.766   3.127   5.032
13956SOL    HW143309   3.788   3.106   5.123
13956SOL    HW243310   3.757   3.222   5.031
13957SOL     OW43311   4.428   2.484   4.755
13957SOL    HW143312   4.521   2.504   4.744
13957SOL    HW243313   4.386   2.570   4.759
13958SOL     OW43314   5.476   2.815   5.591
13958SOL    HW143315   5.428   2.753   5.536
13958SOL    HW243316   5.414   2.839   5.660
13959SOL     OW43317   4.029   1.922   4.353
13959SOL    HW143318   4.003   2.013   4.367
13959SOL    HW243319   4.037   1.886   4.441
13960SOL     OW43320   5.353   2.257   4.076
13960SOL    HW143321   5.371   2.190   4.141
13960SOL    HW243322   5.325   2.333   4.127
13961SOL     OW43323   4.777   2.615   4.686
13961SOL    HW143324   4.756   2.639   4.777
13961SOL    HW243325   4.745   2.525   4.678
13962SOL     OW43326   4.710   3.424   5.451
13962SOL    HW143327   4.674   3.467   5.373
13962SOL    HW243328   4.632   3.396   5.500
13963SOL     OW43329   5.581   3.338   5.336
13963SOL    HW143330   5.598   3.372   5.248
13963SOL    HW243331   5.649   3.377   5.390
13964SOL     OW43332   4.107   2.715   5.574
13964SOL    HW143333   4.183   2.773   5.562
13964SOL    HW243334   4.035   2.761   5.533
13965SOL     OW43335   5.263   2.132   3.848
13965SOL    HW143336   5.198   2.069   3.880
13965SOL    HW243337   5.294   2.177   3.926
13966SOL     OW43338   4.987   2.676   3.733
13966SOL    HW143339   5.039   2.598   3.754
13966SOL    HW243340   5.031   2.715   3.658
13967SOL     OW43341   4.861   3.125   4.588
13967SOL    HW143342   4.791   3.107   4.526
13967SOL    HW243343   4.842   3.212   4.622
13968SOL     OW43344   4.059   2.620   4.668
13968SOL    HW143345   4.121   2.684   4.634
13968SOL    HW243346   4.025   2.660   4.749
13969SOL     OW43347   4.101   2.359   4.765
13969SOL    HW143348   4.050   2.294   4.717
13969SOL    HW243349   4.094   2.439   4.713
13970SOL     OW43350   4.858   2.235   5.419
13970SOL    HW143351   4.807   2.296   5.473
13970SOL    HW243352   4.943   2.279   5.409
13971SOL     OW43353   4.894   2.056   5.207
13971SOL    HW143354   4.879   2.124   5.273
13971SOL    HW243355   4.931   2.104   5.132
13972SOL     OW43356   3.803   3.648   4.653
13972SOL    HW143357   3.780   3.564   4.611
13972SOL    HW243358   3.894   3.663   4.628
13973SOL     OW43359   4.208   3.428   4.620
13973SOL    HW143360   4.298   3.458   4.632
13973SOL    HW243361   4.214   3.364   4.548
13974SOL     OW43362   4.700   2.657   4.940
13974SOL    HW143363   4.742   2.621   5.018
13974SOL    HW243364   4.651   2.733   4.972
13975SOL     OW43365   3.761   2.393   4.842
13975SOL    HW143366   3.826   2.442   4.792
13975SOL    HW243367   3.788   2.403   4.933
13976SOL     OW43368   3.961   2.359   5.391
13976SOL    HW143369   4.040   2.408   5.367
13976SOL    HW243370   3.892   2.425   5.388
13977SOL     OW43371   5.112   2.777   5.379
13977SOL    HW143372   5.131   2.871   5.379
13977SOL    HW243373   5.099   2.755   5.286
13978SOL     OW43374   4.508   2.438   4.059
13978SOL    HW143375   4.495   2.348   4.088
13978SOL    HW243376   4.458   2.491   4.122
13979SOL     OW43377   5.359   2.470   4.898
13979SOL    HW143378   5.344   2.416   4.975
13979SOL    HW243379   5.447   2.446   4.869
13980SOL     OW43380   4.417   2.316   4.967
13980SOL    HW143381   4.344   2.256   4.951
13980SOL    HW243382   4.412   2.379   4.896
13981SOL     OW43383   4.704   3.534   5.169
13981SOL    HW143384   4.650   3.492   5.102
13981SOL    HW243385   4.671   3.624   5.172
13982SOL     OW43386   4.209   2.353   3.906
13982SOL    HW143387   4.242   2.431   3.950
13982SOL    HW243388   4.117   2.373   3.887
13983SOL     OW43389   5.062   2.887   4.937
13983SOL    HW143390   5.074   2.828   4.862
13983SOL    HW243391   4.984   2.938   4.914
13984SOL     OW43392   5.057   2.715   4.021
13984SOL    HW143393   5.009   2.716   4.104
13984SOL    HW243394   4.989   2.709   3.954
13985SOL     OW43395   5.513   3.597   4.876
13985SOL    HW143396   5.542   3.631   4.791
13985SOL    HW243397   5.472   3.513   4.856
13986SOL     OW43398   5.077   3.609   4.859
13986SOL    HW143399   5.005   3.653   4.814
13986SOL    HW243400   5.039   3.581   4.943
13987SOL     OW43401   3.804   3.129   4.761
13987SOL    HW143402   3.800   3.125   4.857
13987SOL    HW243403   3.738   3.194   4.737
13988SOL     OW43404   4.435   3.556   5.394
13988SOL    HW143405   4.372   3.601   5.450
13988SOL    HW243406   4.412   3.583   5.305
13989SOL     OW43407   5.429   2.020   4.217
13989SOL    HW143408   5.505   2.005   4.161
13989SOL    HW243409   5.420   1.940   4.269
13990SOL     OW43410   5.105   3.421   4.173
13990SOL    HW143411   5.175   3.462   4.122
13990SOL    HW243412   5.059   3.494   4.215
13991SOL     OW43413   4.998   2.775   4.355
13991SOL    HW143414   5.073   2.728   4.393
13991SOL    HW243415   5.035   2.858   4.327
13992SOL     OW43416   4.540   3.132   5.134
13992SOL    HW143417   4.512   3.174   5.215
13992SOL    HW243418   4.482   3.168   5.067
13993SOL     OW43419   5.454   3.638   5.138
13993SOL    HW143420   5.443   3.626   5.044
13993SOL    HW243421   5.390   3.705   5.162
13994SOL     OW43422   5.571   2.027   4.687
13994SOL    HW143423   5.597   1.937   4.669
13994SOL    HW243424   5.485   2.036   4.645
13995SOL     OW43425   3.973   2.175   4.426
13995SOL    HW143426   3.887   2.213   4.406
13995SOL    HW243427   3.976   2.170   4.522
13996SOL     OW43428   4.937   3.452   3.763
13996SOL    HW143429   4.925   3.365   3.800
13996SOL    HW243430   4.867   3.461   3.699
13997SOL     OW43431   4.559   2.873   5.061
13997SOL    HW143432   4.529   2.891   4.972
13997SOL    HW243433   4.560   2.959   5.104
13998SOL     OW43434   4.641   2.717   3.994
13998SOL    HW143435   4.697   2.778   3.946
13998SOL    HW243436   4.699   2.680   4.062
13999SOL     OW43437   5.213   3.488   3.771
13999SOL    HW143438   5.118   3.480   3.763
13999SOL    HW243439   5.245   3.494   3.681
14000SOL     OW43440   4.076   3.103   5.133
14000SOL    HW143441   4.070   3.199   5.125
14000SOL    HW243442   3.996   3.078   5.177
14001SOL     OW43443   5.356   3.158   5.016
14001SOL    HW143444   5.388   3.127   5.101
14001SOL    HW243445   5.287   3.221   5.037
14002SOL     OW43446   4.753   2.947   4.368
14002SOL    HW143447   4.692   2.918   4.436
14002SOL    HW243448   4.832   2.894   4.382
14003SOL     OW43449   4.759   2.108   4.673
14003SOL    HW143450   4.776   2.046   4.603
14003SOL    HW243451   4.744   2.054   4.750
14004SOL     OW43452   5.459   2.274   5.103
14004SOL    HW143453   5.535   2.333   5.096
14004SOL    HW243454   5.482   2.199   5.049
14005SOL     OW43455   3.846   2.810   5.487
14005SOL    HW143456   3.763   2.815   5.535
14005SOL    HW243457   3.863   2.901   5.460
14006SOL     OW43458   4.407   2.035   5.224
14006SOL    HW143459   4.495   2.023   5.188
14006SOL    HW243460   4.421   2.064   5.314
14007SOL     OW43461   3.815   2.169   3.745
14007SOL    HW143462   3.721   2.170   3.764
14007SOL    HW243463   3.834   2.259   3.719
14008SOL     OW43464   5.155   2.707   5.115
14008SOL    HW143465   5.103   2.768   5.062
14008SOL    HW243466   5.245   2.718   5.084
14009SOL     OW43467   3.777   2.015   4.034
14009SOL    HW143468   3.767   2.109   4.019
14009SOL    HW243469   3.860   1.993   3.991
14010SOL     OW43470   4.898   3.188   3.853
14010SOL    HW143471   4.804   3.170   3.851
14010SOL    HW243472   4.920   3.190   3.946
14011SOL     OW43473   4.348   2.688   5.163
14011SOL    HW143474   4.379   2.778   5.157
14011SOL    HW243475   4.427   2.636   5.177
14012SOL     OW43476   5.286   3.628   4.667
14012SOL    HW143477   5.270   3.718   4.637
14012SOL    HW243478   5.218   3.612   4.732
14013SOL     OW43479   4.438   2.436   5.420
14013SOL    HW143480   4.474   2.510   5.468
14013SOL    HW243481   4.449   2.361   5.479
14014SOL     OW43482   5.201   3.032   5.358
14014SOL    HW143483   5.167   3.065   5.441
14014SOL    HW243484   5.283   3.079   5.344
14015SOL     OW43485   4.103   3.598   5.295
14015SOL    HW143486   4.023   3.651   5.284
14015SOL    HW243487   4.072   3.508   5.291
14016SOL     OW43488   5.400   2.746   4.975
14016SOL    HW143489   5.380   2.663   4.930
14016SOL    HW243490   5.379   2.814   4.911
14017SOL     OW43491   4.941   2.178   4.182
14017SOL    HW143492   5.005   2.106   4.182
14017SOL    HW243493   4.961   2.227   4.261
14018SOL     OW43494   4.360   2.567   4.341
14018SOL    HW143495   4.382   2.657   4.365
14018SOL    HW243496   4.269   2.571   4.312
14019SOL     OW43497   5.483   2.223   5.369
14019SOL    HW143498   5.463   2.246   5.278
14019SOL    HW243499   5.408   2.170   5.397
14020SOL     OW43500   5.487   2.796   5.231
14020SOL    HW143501   5.457   2.885   5.251
14020SOL    HW243502   5.463   2.782   5.139
14021SOL     OW43503   4.604   3.224   3.746
14021SOL    HW143504   4.577   3.207   3.836
14021SOL    HW243505   4.569   3.310   3.726
14022SOL     OW43506   4.398   3.647   4.686
14022SOL    HW143507   4.385   3.695   4.768
14022SOL    HW243508   4.463   3.581   4.707
14023SOL     OW43509   4.606   2.829   4.574
14023SOL    HW143510   4.662   2.768   4.623
14023SOL    HW243511   4.558   2.877   4.642
14024SOL     OW43512   4.792   2.846   3.812
14024SOL    HW143513   4.777   2.909   3.741
14024SOL    HW243514   4.864   2.791   3.780
14025SOL     OW43515   5.557   3.408   4.571
14025SOL    HW143516   5.476   3.413   4.520
14025SOL    HW243517   5.530   3.379   4.657
14026SOL     OW43518   3.833   3.064   4.423
14026SOL    HW143519   3.877   3.004   4.484
14026SOL    HW243520   3.890   3.140   4.418
14027SOL     OW43521   4.422   3.265   5.330
14027SOL    HW143522   4.361   3.205   5.373
14027SOL    HW243523   4.433   3.337   5.391
14028SOL     OW43524   5.548   2.056   4.964
14028SOL    HW143525   5.474   2.000   4.987
14028SOL    HW243526   5.550   2.055   4.868
14029SOL     OW43527   4.168   2.277   4.255
14029SOL    HW143528   4.156   2.208   4.190
14029SOL    HW243529   4.109   2.253   4.326
14030SOL     OW43530   5.448   3.331   4.813
14030SOL    HW143531   5.365   3.319   4.768
14030SOL    HW243532   5.439   3.280   4.894
14031SOL     OW43533   4.054   2.413   5.023
14031SOL    HW143534   4.112   2.358   5.076
14031SOL    HW243535   4.076   2.390   4.933
14032SOL     OW43536   4.729   1.892   4.854
14032SOL    HW143537   4.681   1.817   4.818
14032SOL    HW243538   4.821   1.863   4.854
14033SOL     OW43539   4.532   3.159   3.991
14033SOL    HW143540   4.496   3.079   4.029
14033SOL    HW243541   4.505   3.229   4.051
14034SOL     OW43542   4.338   3.418   5.016
14034SOL    HW143543   4.333   3.500   5.065
14034SOL    HW243544   4.431   3.408   4.995
14035SOL     OW43545   5.091   1.918   3.903
14035SOL    HW143546   5.127   1.840   3.860
14035SOL    HW243547   5.000   1.896   3.921
14036SOL     OW43548   5.008   2.311   4.413
14036SOL    HW143549   4.965   2.396   4.422
14036SOL    HW243550   5.017   2.280   4.503
14037SOL     OW43551   5.325   2.040   4.574
14037SOL    HW143552   5.272   2.025   4.652
14037SOL    HW243553   5.303   2.129   4.547
14038SOL     OW43554   3.932   2.435   5.699
14038SOL    HW143555   3.857   2.461   5.753
14038SOL    HW243556   3.956   2.516   5.653
14039SOL     OW43557   3.949   2.139   6.574
14039SOL    HW143558   3.974   2.112   6.662
14039SOL    HW243559   3.856   2.117   6.567
14040SOL     OW43560   3.719   2.243   6.230
14040SOL    HW143561   3.642   2.280   6.275
14040SOL    HW243562   3.683   2.171   6.178
14041SOL     OW43563   5.284   3.381   6.291
14041SOL    HW143564   5.225   3.375   6.366
14041SOL    HW243565   5.227   3.398   6.216
14042SOL     OW43566   4.862   2.546   6.281
14042SOL    HW143567   4.905   2.628   6.258
14042SOL    HW243568   4.816   2.564   6.362
14043SOL     OW43569   5.535   2.448   5.803
14043SOL    HW143570   5.499   2.449   5.715
14043SOL    HW243571   5.479   2.388   5.852
14044SOL     OW43572   4.467   3.012   6.631
14044SOL    HW143573   4.380   3.039   6.662
14044SOL    HW243574   4.499   3.088   6.582
14045SOL     OW43575   4.574   2.629   7.411
14045SOL    HW143576   4.533   2.694   7.469
14045SOL    HW243577   4.605   2.680   7.336
14046SOL     OW43578   4.410   2.843   6.240
14046SOL    HW143579   4.479   2.855   6.305
14046SOL    HW243580   4.339   2.899   6.272
14047SOL     OW43581   5.216   3.354   6.940
14047SOL    HW143582   5.255   3.441   6.949
14047SOL    HW243583   5.133   3.361   6.989
14048SOL     OW43584   4.182   2.222   7.023
14048SOL    HW143585   4.258   2.175   7.057
14048SOL    HW243586   4.112   2.204   7.086
14049SOL     OW43587   5.313   2.304   6.333
14049SOL    HW143588   5.236   2.309   6.277
14049SOL    HW243589   5.301   2.374   6.397
14050SOL     OW43590   3.956   3.189   6.157
14050SOL    HW143591   4.033   3.245   6.169
14050SOL    HW243592   3.881   3.246   6.177
14051SOL     OW43593   3.948   2.950   6.498
14051SOL    HW143594   3.971   2.857   6.502
14051SOL    HW243595   3.923   2.973   6.587
14052SOL     OW43596   4.396   2.809   5.687
14052SOL    HW143597   4.419   2.890   5.641
14052SOL    HW243598   4.402   2.832   5.779
14053SOL     OW43599   5.329   1.986   7.057
14053SOL    HW143600   5.347   2.068   7.011
14053SOL    HW243601   5.300   2.014   7.144
14054SOL     OW43602   3.846   2.511   6.155
14054SOL    HW143603   3.813   2.426   6.183
14054SOL    HW243604   3.832   2.568   6.231
14055SOL     OW43605   5.578   3.607   5.908
14055SOL    HW143606   5.544   3.596   5.997
14055SOL    HW243607   5.597   3.701   5.901
14056SOL     OW43608   5.414   2.780   6.217
14056SOL    HW143609   5.478   2.732   6.163
14056SOL    HW243610   5.377   2.845   6.158
14057SOL     OW43611   5.373   2.971   6.019
14057SOL    HW143612   5.458   2.972   5.976
14057SOL    HW243613   5.378   3.041   6.084
14058SOL     OW43614   3.835   2.585   7.180
14058SOL    HW143615   3.922   2.627   7.183
14058SOL    HW243616   3.773   2.658   7.186
14059SOL     OW43617   4.987   3.072   7.019
14059SOL    HW143618   5.024   3.017   6.950
14059SOL    HW243619   5.056   3.079   7.084
14060SOL     OW43620   4.543   1.859   6.098
14060SOL    HW143621   4.585   1.942   6.074
14060SOL    HW243622   4.450   1.881   6.105
14061SOL     OW43623   3.893   2.814   6.773
14061SOL    HW143624   3.976   2.780   6.804
14061SOL    HW243625   3.857   2.861   6.849
14062SOL     OW43626   5.275   2.849   5.790
14062SOL    HW143627   5.202   2.793   5.818
14062SOL    HW243628   5.300   2.897   5.869
14063SOL     OW43629   4.060   2.110   7.423
14063SOL    HW143630   4.099   2.194   7.401
14063SOL    HW243631   3.968   2.129   7.441
14064SOL     OW43632   5.215   3.254   6.564
14064SOL    HW143633   5.135   3.287   6.605
14064SOL    HW243634   5.186   3.178   6.513
14065SOL     OW43635   5.407   3.602   6.131
14065SOL    HW143636   5.349   3.580   6.059
14065SOL    HW243637   5.374   3.550   6.205
14066SOL     OW43638   4.322   2.563   5.850
14066SOL    HW143639   4.342   2.646   5.806
14066SOL    HW243640   4.262   2.586   5.920
14067SOL     OW43641   5.009   2.231   6.524
14067SOL    HW143642   4.917   2.203   6.529
14067SOL    HW243643   5.055   2.173   6.585
14068SOL     OW43644   5.305   3.529   5.880
14068SOL    HW143645   5.390   3.564   5.855
14068SOL    HW243646   5.259   3.514   5.798
14069SOL     OW43647   4.533   2.463   7.033
14069SOL    HW143648   4.495   2.444   7.118
14069SOL    HW243649   4.488   2.405   6.972
14070SOL     OW43650   5.114   2.341   7.267
14070SOL    HW143651   5.119   2.383   7.353
14070SOL    HW243652   5.184   2.275   7.269
14071SOL     OW43653   4.656   2.748   7.163
14071SOL    HW143654   4.716   2.684   7.125
14071SOL    HW243655   4.621   2.795   7.087
14072SOL     OW43656   4.723   2.262   6.820
14072SOL    HW143657   4.636   2.287   6.852
14072SOL    HW243658   4.711   2.245   6.727
14073SOL     OW43659   4.779   2.541   6.010
14073SOL    HW143660   4.794   2.540   6.105
14073SOL    HW243661   4.692   2.503   6.000
14074SOL     OW43662   3.792   2.669   6.373
14074SOL    HW143663   3.878   2.678   6.414
14074SOL    HW243664   3.736   2.732   6.420
14075SOL     OW43665   3.840   3.756   7.168
14075SOL    HW143666   3.823   3.726   7.258
14075SOL    HW243667   3.799   3.690   7.113
14076SOL     OW43668   4.619   2.191   5.745
14076SOL    HW143669   4.653   2.271   5.705
14076SOL    HW243670   4.684   2.124   5.722
14077SOL     OW43671   5.448   2.438   7.408
14077SOL    HW143672   5.409   2.510   7.359
14077SOL    HW243673   5.462   2.369   7.343
14078SOL     OW43674   5.124   2.992   6.152
14078SOL    HW143675   5.196   2.987   6.089
14078SOL    HW243676   5.069   3.064   6.120
14079SOL     OW43677   4.268   2.039   6.487
14079SOL    HW143678   4.272   2.065   6.579
14079SOL    HW243679   4.270   2.121   6.438
14080SOL     OW43680   5.532   2.895   6.443
14080SOL    HW143681   5.467   2.878   6.375
14080SOL    HW243682   5.480   2.920   6.520
14081SOL     OW43683   4.981   3.383   7.065
14081SOL    HW143684   4.971   3.377   7.160
14081SOL    HW243685   4.894   3.407   7.033
14082SOL     OW43686   4.078   2.782   5.846
14082SOL    HW143687   4.168   2.808   5.864
14082SOL    HW243688   4.080   2.749   5.756
14083SOL     OW43689   5.216   2.603   6.296
14083SOL    HW143690   5.206   2.576   6.387
14083SOL    HW243691   5.286   2.668   6.298
14084SOL     OW43692   3.898   2.144   7.078
14084SOL    HW143693   3.864   2.222   7.035
14084SOL    HW243694   3.907   2.169   7.170
14085SOL     OW43695   5.363   3.239   5.668
14085SOL    HW143696   5.320   3.324   5.660
14085SOL    HW243697   5.293   3.175   5.655
14086SOL     OW43698   5.121   1.968   6.034
14086SOL    HW143699   5.112   1.946   5.941
14086SOL    HW243700   5.215   1.977   6.048
14087SOL     OW43701   4.137   2.549   6.061
14087SOL    HW143702   4.137   2.455   6.080
14087SOL    HW243703   4.046   2.576   6.073
14088SOL     OW43704   5.251   2.088   7.308
14088SOL    HW143705   5.264   2.095   7.403
14088SOL    HW243706   5.161   2.056   7.300
14089SOL     OW43707   4.340   1.943   5.717
14089SOL    HW143708   4.433   1.959   5.699
14089SOL    HW243709   4.301   1.926   5.631
14090SOL     OW43710   4.483   2.098   7.348
14090SOL    HW143711   4.572   2.063   7.352
14090SOL    HW243712   4.475   2.151   7.427
14091SOL     OW43713   4.700   3.362   6.750
14091SOL    HW143714   4.609   3.387   6.733
14091SOL    HW243715   4.693   3.294   6.818
14092SOL     OW43716   5.064   2.446   7.012
14092SOL    HW143717   5.089   2.427   7.103
14092SOL    HW243718   5.090   2.537   6.999
14093SOL     OW43719   4.539   3.247   6.506
14093SOL    HW143720   4.633   3.240   6.490
14093SOL    HW243721   4.518   3.338   6.482
14094SOL     OW43722   4.667   2.362   6.487
14094SOL    HW143723   4.635   2.358   6.397
14094SOL    HW243724   4.688   2.271   6.508
14095SOL     OW43725   4.275   1.920   6.086
14095SOL    HW143726   4.197   1.922   6.142
14095SOL    HW243727   4.268   1.999   6.033
14096SOL     OW43728   5.153   3.064   5.632
14096SOL    HW143729   5.168   2.986   5.685
14096SOL    HW243730   5.070   3.099   5.664
14097SOL     OW43731   4.013   1.912   5.768
14097SOL    HW143732   4.052   1.985   5.720
14097SOL    HW243733   4.088   1.867   5.808
14098SOL     OW43734   4.662   2.105   6.033
14098SOL    HW143735   4.633   2.148   5.952
14098SOL    HW243736   4.754   2.128   6.041
14099SOL     OW43737   4.798   2.549   7.039
14099SOL    HW143738   4.720   2.494   7.040
14099SOL    HW243739   4.871   2.488   7.030
14100SOL     OW43740   5.003   3.398   6.395
14100SOL    HW143741   4.933   3.427   6.336
14100SOL    HW243742   5.014   3.471   6.456
14101SOL     OW43743   4.186   2.967   6.341
14101SOL    HW143744   4.109   2.989   6.393
14101SOL    HW243745   4.155   2.965   6.250
14102SOL     OW43746   4.734   2.405   5.612
14102SOL    HW143747   4.687   2.486   5.591
14102SOL    HW243748   4.798   2.430   5.677
14103SOL     OW43749   3.811   2.403   6.983
14103SOL    HW143750   3.901   2.415   6.951
14103SOL    HW243751   3.799   2.470   7.049
14104SOL     OW43752   4.274   2.085   6.759
14104SOL    HW143753   4.318   2.036   6.829
14104SOL    HW243754   4.183   2.093   6.788
14105SOL     OW43755   4.587   2.315   6.230
14105SOL    HW143756   4.533   2.379   6.183
14105SOL    HW243757   4.602   2.245   6.166
14106SOL     OW43758   4.763   1.910   6.329
14106SOL    HW143759   4.696   1.921   6.262
14106SOL    HW243760   4.730   1.840   6.385
14107SOL     OW43761   5.161   3.012   6.436
14107SOL    HW143762   5.073   2.980   6.454
14107SOL    HW243763   5.166   3.019   6.341
14108SOL     OW43764   5.187   2.466   6.541
14108SOL    HW143765   5.122   2.396   6.550
14108SOL    HW243766   5.238   2.462   6.621
14109SOL     OW43767   5.597   2.667   5.965
14109SOL    HW143768   5.641   2.608   6.027
14109SOL    HW243769   5.559   2.609   5.900
14110SOL     OW43770   5.406   3.143   6.220
14110SOL    HW143771   5.495   3.161   6.251
14110SOL    HW243772   5.355   3.220   6.245
14111SOL     OW43773   5.115   2.429   5.656
14111SOL    HW143774   5.048   2.411   5.722
14111SOL    HW243775   5.198   2.412   5.702
14112SOL     OW43776   4.239   2.118   5.904
14112SOL    HW143777   4.278   2.062   5.837
14112SOL    HW243778   4.220   2.200   5.860
14113SOL     OW43779   5.471   3.101   7.133
14113SOL    HW143780   5.561   3.069   7.120
14113SOL    HW243781   5.482   3.190   7.167
14114SOL     OW43782   4.740   3.170   6.944
14114SOL    HW143783   4.708   3.227   7.015
14114SOL    HW243784   4.823   3.136   6.976
14115SOL     OW43785   5.334   3.481   7.242
14115SOL    HW143786   5.326   3.522   7.156
14115SOL    HW243787   5.417   3.433   7.238
14116SOL     OW43788   4.843   3.050   6.701
14116SOL    HW143789   4.789   3.094   6.766
14116SOL    HW243790   4.828   3.098   6.620
14117SOL     OW43791   5.357   2.959   6.654
14117SOL    HW143792   5.352   3.024   6.724
14117SOL    HW243793   5.283   2.980   6.597
14118SOL     OW43794   4.647   1.951   6.987
14118SOL    HW143795   4.664   1.937   6.894
14118SOL    HW243796   4.725   1.996   7.019
14119SOL     OW43797   4.675   2.916   7.375
14119SOL    HW143798   4.589   2.956   7.386
14119SOL    HW243799   4.670   2.871   7.291
14120SOL     OW43800   4.398   2.853   5.954
14120SOL    HW143801   4.383   2.867   6.048
14120SOL    HW243802   4.491   2.834   5.947
14121SOL     OW43803   4.137   2.686   6.843
14121SOL    HW143804   4.209   2.695   6.906
14121SOL    HW243805   4.100   2.600   6.861
14122SOL     OW43806   4.987   2.227   6.873
14122SOL    HW143807   5.018   2.308   6.914
14122SOL    HW243808   4.896   2.246   6.849
14123SOL     OW43809   3.809   3.590   6.946
14123SOL    HW143810   3.780   3.599   6.855
14123SOL    HW243811   3.905   3.585   6.940
14124SOL     OW43812   4.078   2.939   6.091
14124SOL    HW143813   4.048   3.030   6.077
14124SOL    HW243814   4.051   2.893   6.011
14125SOL     OW43815   4.274   2.376   6.440
14125SOL    HW143816   4.285   2.437   6.366
14125SOL    HW243817   4.336   2.408   6.506
14126SOL     OW43818   5.009   3.199   6.028
14126SOL    HW143819   5.045   3.287   6.041
14126SOL    HW243820   4.958   3.205   5.947
14127SOL     OW43821   4.998   3.337   6.720
14127SOL    HW143822   5.024   3.309   6.807
14127SOL    HW243823   4.903   3.327   6.718
14128SOL     OW43824   5.295   2.494   6.053
14128SOL    HW143825   5.264   2.519   6.140
14128SOL    HW243826   5.260   2.561   5.994
14129SOL     OW43827   4.137   2.569   7.178
14129SOL    HW143828   4.204   2.612   7.124
14129SOL    HW243829   4.147   2.609   7.264
14130SOL     OW43830   5.340   2.643   7.270
14130SOL    HW143831   5.254   2.684   7.265
14130SOL    HW243832   5.391   2.687   7.201
14131SOL     OW43833   4.740   2.006   7.373
14131SOL    HW143834   4.787   2.082   7.339
14131SOL    HW243835   4.784   1.931   7.333
14132SOL     OW43836   4.206   1.885   7.346
14132SOL    HW143837   4.159   1.843   7.274
14132SOL    HW243838   4.159   1.967   7.361
14133SOL     OW43839   4.316   2.726   6.626
14133SOL    HW143840   4.327   2.816   6.596
14133SOL    HW243841   4.248   2.732   6.694
14134SOL     OW43842   5.059   2.712   6.602
14134SOL    HW143843   4.969   2.703   6.571
14134SOL    HW243844   5.100   2.628   6.582
14135SOL     OW43845   4.922   2.379   5.843
14135SOL    HW143846   4.928   2.305   5.903
14135SOL    HW243847   4.882   2.448   5.896
14136SOL     OW43848   4.005   2.053   6.831
14136SOL    HW143849   3.978   2.090   6.915
14136SOL    HW243850   3.988   1.960   6.838
14137SOL     OW43851   4.438   2.485   6.632
14137SOL    HW143852   4.520   2.490   6.582
14137SOL    HW243853   4.402   2.573   6.628
14138SOL     OW43854   5.474   2.814   7.451
14138SOL    HW143855   5.425   2.754   7.395
14138SOL    HW243856   5.413   2.838   7.521
14139SOL     OW43857   4.028   1.909   6.215
14139SOL    HW143858   4.003   2.001   6.228
14139SOL    HW243859   4.040   1.875   6.304
14140SOL     OW43860   5.356   2.251   5.942
14140SOL    HW143861   5.378   2.188   6.010
14140SOL    HW243862   5.327   2.329   5.989
14141SOL     OW43863   4.771   2.609   6.543
14141SOL    HW143864   4.753   2.630   6.634
14141SOL    HW243865   4.737   2.521   6.531
14142SOL     OW43866   5.580   3.353   7.188
14142SOL    HW143867   5.593   3.388   7.100
14142SOL    HW243868   5.661   3.373   7.235
14143SOL     OW43869   4.115   2.696   7.426
14143SOL    HW143870   4.187   2.755   7.448
14143SOL    HW243871   4.045   2.753   7.394
14144SOL     OW43872   5.263   2.126   5.711
14144SOL    HW143873   5.196   2.065   5.741
14144SOL    HW243874   5.293   2.170   5.790
14145SOL     OW43875   5.017   2.686   5.615
14145SOL    HW143876   5.055   2.598   5.615
14145SOL    HW243877   5.045   2.723   5.532
14146SOL     OW43878   4.814   3.188   6.463
14146SOL    HW143879   4.810   3.123   6.393
14146SOL    HW243880   4.877   3.253   6.433
14147SOL     OW43881   4.036   2.682   6.502
14147SOL    HW143882   4.126   2.691   6.472
14147SOL    HW243883   4.042   2.619   6.574
14148SOL     OW43884   4.062   2.384   6.610
14148SOL    HW143885   4.020   2.301   6.590
14148SOL    HW243886   4.133   2.390   6.547
14149SOL     OW43887   4.858   2.238   7.284
14149SOL    HW143888   4.806   2.300   7.336
14149SOL    HW243889   4.943   2.281   7.274
14150SOL     OW43890   4.889   2.059   7.072
14150SOL    HW143891   4.873   2.127   7.137
14150SOL    HW243892   4.927   2.105   6.998
14151SOL     OW43893   4.701   2.645   6.799
14151SOL    HW143894   4.751   2.623   6.878
14151SOL    HW243895   4.614   2.669   6.832
14152SOL     OW43896   3.755   2.392   6.707
14152SOL    HW143897   3.826   2.425   6.652
14152SOL    HW243898   3.786   2.406   6.797
14153SOL     OW43899   3.979   2.353   7.253
14153SOL    HW143900   4.051   2.410   7.223
14153SOL    HW243901   3.903   2.411   7.255
14154SOL     OW43902   5.112   2.787   7.236
14154SOL    HW143903   5.125   2.881   7.235
14154SOL    HW243904   5.097   2.764   7.144
14155SOL     OW43905   4.539   2.419   5.949
14155SOL    HW143906   4.525   2.352   5.882
14155SOL    HW243907   4.470   2.484   5.932
14156SOL     OW43908   5.355   2.460   6.757
14156SOL    HW143909   5.340   2.411   6.838
14156SOL    HW243910   5.445   2.436   6.732
14157SOL     OW43911   3.991   3.381   7.343
14157SOL    HW143912   3.925   3.396   7.410
14157SOL    HW243913   4.060   3.332   7.387
14158SOL     OW43914   4.443   2.304   6.831
14158SOL    HW143915   4.375   2.240   6.809
14158SOL    HW243916   4.435   2.371   6.763
14159SOL     OW43917   4.187   2.340   5.759
14159SOL    HW143918   4.237   2.417   5.787
14159SOL    HW243919   4.098   2.373   5.745
14160SOL     OW43920   5.045   2.899   6.801
14160SOL    HW143921   5.061   2.839   6.728
14160SOL    HW243922   4.974   2.955   6.769
14161SOL     OW43923   5.064   2.701   5.889
14161SOL    HW143924   4.989   2.714   5.947
14161SOL    HW243925   5.026   2.702   5.801
14162SOL     OW43926   5.487   3.588   6.745
14162SOL    HW143927   5.549   3.625   6.682
14162SOL    HW243928   5.467   3.501   6.710
14163SOL     OW43929   5.048   3.615   6.739
14163SOL    HW143930   5.092   3.628   6.654
14163SOL    HW243931   5.020   3.523   6.738
14164SOL     OW43932   5.452   2.027   6.101
14164SOL    HW143933   5.513   2.004   6.031
14164SOL    HW243934   5.432   1.944   6.144
14165SOL     OW43935   5.131   3.446   6.074
14165SOL    HW143936   5.180   3.468   5.995
14165SOL    HW243937   5.049   3.494   6.066
14166SOL     OW43938   3.832   3.678   7.430
14166SOL    HW143939   3.809   3.594   7.468
14166SOL    HW243940   3.892   3.717   7.493
14167SOL     OW43941   5.001   2.768   6.230
14167SOL    HW143942   5.078   2.714   6.249
14167SOL    HW243943   5.036   2.852   6.201
14168SOL     OW43944   5.354   3.594   6.985
14168SOL    HW143945   5.389   3.602   6.897
14168SOL    HW243946   5.330   3.683   7.010
14169SOL     OW43947   5.569   2.024   6.548
14169SOL    HW143948   5.588   1.935   6.519
14169SOL    HW243949   5.481   2.042   6.515
14170SOL     OW43950   3.974   2.161   6.295
14170SOL    HW143951   3.890   2.202   6.273
14170SOL    HW243952   3.979   2.165   6.390
14171SOL     OW43953   4.949   3.423   5.583
14171SOL    HW143954   4.936   3.454   5.672
14171SOL    HW243955   4.866   3.440   5.539
14172SOL     OW43956   4.541   2.887   6.951
14172SOL    HW143957   4.566   2.914   6.862
14172SOL    HW243958   4.528   2.970   6.997
14173SOL     OW43959   4.651   2.769   5.905
14173SOL    HW143960   4.697   2.803   5.829
14173SOL    HW243961   4.706   2.698   5.937
14174SOL     OW43962   5.219   3.471   5.628
14174SOL    HW143963   5.126   3.457   5.609
14174SOL    HW243964   5.258   3.492   5.543
14175SOL     OW43965   5.359   3.138   6.871
14175SOL    HW143966   5.394   3.119   6.958
14175SOL    HW243967   5.296   3.209   6.886
14176SOL     OW43968   4.798   2.972   6.298
14176SOL    HW143969   4.718   2.933   6.335
14176SOL    HW243970   4.839   2.900   6.251
14177SOL     OW43971   4.759   2.097   6.550
14177SOL    HW143972   4.761   2.047   6.468
14177SOL    HW243973   4.743   2.032   6.618
14178SOL     OW43974   5.462   2.240   6.982
14178SOL    HW143975   5.526   2.311   6.975
14178SOL    HW243976   5.491   2.175   6.918
14179SOL     OW43977   3.891   2.832   7.350
14179SOL    HW143978   3.847   2.869   7.274
14179SOL    HW243979   3.907   2.907   7.407
14180SOL     OW43980   4.398   2.040   7.087
14180SOL    HW143981   4.485   2.027   7.047
14180SOL    HW243982   4.417   2.066   7.177
14181SOL     OW43983   3.814   2.185   5.621
14181SOL    HW143984   3.754   2.200   5.548
14181SOL    HW243985   3.845   2.273   5.644
14182SOL     OW43986   5.145   2.710   6.972
14182SOL    HW143987   5.092   2.772   6.921
14182SOL    HW243988   5.234   2.722   6.938
14183SOL     OW43989   3.775   2.012   5.876
14183SOL    HW143990   3.757   2.087   5.820
14183SOL    HW243991   3.864   1.986   5.854
14184SOL     OW43992   4.921   3.174   5.736
14184SOL    HW143993   4.831   3.159   5.705
14184SOL    HW243994   4.931   3.270   5.733
14185SOL     OW43995   4.349   2.686   7.017
14185SOL    HW143996   4.400   2.767   7.009
14185SOL    HW243997   4.416   2.618   7.031
14186SOL     OW43998   5.226   3.655   6.532
14186SOL    HW143999   5.240   3.738   6.488
14186SOL    HW244000   5.288   3.656   6.606
14187SOL     OW44001   4.445   2.425   7.282
14187SOL    HW144002   4.467   2.506   7.329
14187SOL    HW244003   4.474   2.355   7.341
14188SOL     OW44004   5.197   3.049   7.209
14188SOL    HW144005   5.186   3.063   7.303
14188SOL    HW244006   5.286   3.079   7.190
14189SOL     OW44007   4.075   3.600   7.205
14189SOL    HW144008   4.002   3.649   7.169
14189SOL    HW244009   4.035   3.521   7.242
14190SOL     OW44010   5.390   2.745   6.835
14190SOL    HW144011   5.375   2.665   6.786
14190SOL    HW244012   5.377   2.816   6.771
14191SOL     OW44013   4.934   2.178   6.044
14191SOL    HW144014   4.995   2.105   6.042
14191SOL    HW244015   4.962   2.231   6.119
14192SOL     OW44016   4.322   2.583   6.260
14192SOL    HW144017   4.358   2.671   6.255
14192SOL    HW244018   4.258   2.579   6.189
14193SOL     OW44019   5.494   2.210   7.256
14193SOL    HW144020   5.486   2.224   7.161
14193SOL    HW244021   5.416   2.159   7.279
14194SOL     OW44022   5.481   2.794   7.092
14194SOL    HW144023   5.461   2.885   7.111
14194SOL    HW244024   5.457   2.782   7.000
14195SOL     OW44025   4.601   2.843   6.446
14195SOL    HW144026   4.651   2.774   6.490
14195SOL    HW244027   4.562   2.894   6.517
14196SOL     OW44028   4.798   2.836   5.689
14196SOL    HW144029   4.768   2.899   5.624
14196SOL    HW244030   4.872   2.792   5.648
14197SOL     OW44031   5.546   3.404   6.425
14197SOL    HW144032   5.466   3.406   6.373
14197SOL    HW244033   5.517   3.374   6.511
14198SOL     OW44034   3.961   3.068   7.457
14198SOL    HW144035   3.897   3.125   7.413
14198SOL    HW244036   4.044   3.115   7.449
14199SOL     OW44037   3.773   3.020   6.287
14199SOL    HW144038   3.833   2.999   6.359
14199SOL    HW244039   3.830   3.045   6.215
14200SOL     OW44040   5.545   2.041   6.821
14200SOL    HW144041   5.527   1.947   6.831
14200SOL    HW244042   5.553   2.053   6.726
14201SOL     OW44043   4.149   2.286   6.116
14201SOL    HW144044   4.175   2.217   6.055
14201SOL    HW244045   4.095   2.241   6.181
14202SOL     OW44046   5.448   3.324   6.669
14202SOL    HW144047   5.362   3.308   6.630
14202SOL    HW244048   5.448   3.270   6.749
14203SOL     OW44049   4.057   2.422   6.879
14203SOL    HW144050   4.115   2.362   6.925
14203SOL    HW244051   4.072   2.403   6.786
14204SOL     OW44052   5.144   2.077   6.708
14204SOL    HW144053   5.124   1.989   6.738
14204SOL    HW244054   5.100   2.134   6.771
14205SOL     OW44055   4.738   1.874   6.734
14205SOL    HW144056   4.687   1.793   6.731
14205SOL    HW244057   4.829   1.845   6.725
14206SOL     OW44058   5.087   1.915   5.766
14206SOL    HW144059   5.125   1.842   5.716
14206SOL    HW244060   4.997   1.887   5.783
14207SOL     OW44061   5.027   2.321   6.263
14207SOL    HW144062   4.975   2.401   6.261
14207SOL    HW244063   5.017   2.288   6.352
14208SOL     OW44064   5.311   2.062   6.480
14208SOL    HW144065   5.252   2.080   6.553
14208SOL    HW244066   5.302   2.137   6.422
14209SOL     OW44067   3.745   2.926   5.962
14209SOL    HW144068   3.773   2.968   5.881
14209SOL    HW244069   3.753   2.832   5.946
14210SOL     OW44070   3.939   2.447   7.556
14210SOL    HW144071   3.876   2.494   7.611
14210SOL    HW244072   3.973   2.514   7.496
14211SOL     OW44073   3.947   2.130   8.432
14211SOL    HW144074   3.972   2.108   8.522
14211SOL    HW244075   3.853   2.111   8.428
14212SOL     OW44076   3.716   2.237   8.095
14212SOL    HW144077   3.638   2.277   8.132
14212SOL    HW244078   3.684   2.162   8.045
14213SOL     OW44079   5.273   3.367   8.161
14213SOL    HW144080   5.213   3.364   8.235
14213SOL    HW244081   5.216   3.388   8.086
14214SOL     OW44082   4.869   2.548   8.148
14214SOL    HW144083   4.920   2.626   8.126
14214SOL    HW244084   4.829   2.568   8.232
14215SOL     OW44085   5.426   2.480   7.674
14215SOL    HW144086   5.431   2.482   7.578
14215SOL    HW244087   5.498   2.423   7.700
14216SOL     OW44088   4.588   2.624   9.263
14216SOL    HW144089   4.552   2.696   9.316
14216SOL    HW244090   4.619   2.666   9.183
14217SOL     OW44091   4.401   2.870   8.128
14217SOL    HW144092   4.438   2.890   8.214
14217SOL    HW244093   4.347   2.946   8.106
14218SOL     OW44094   4.402   3.027   9.278
14218SOL    HW144095   4.457   3.059   9.207
14218SOL    HW244096   4.313   3.041   9.248
14219SOL     OW44097   5.212   3.329   8.886
14219SOL    HW144098   5.170   3.405   8.844
14219SOL    HW244099   5.146   3.260   8.882
14220SOL     OW44100   4.158   2.236   9.013
14220SOL    HW144101   4.232   2.195   8.967
14220SOL    HW244102   4.080   2.200   8.970
14221SOL     OW44103   5.301   2.304   8.201
14221SOL    HW144104   5.225   2.295   8.143
14221SOL    HW244105   5.309   2.398   8.215
14222SOL     OW44106   3.950   3.568   7.923
14222SOL    HW144107   3.974   3.650   7.966
14222SOL    HW244108   4.024   3.550   7.864
14223SOL     OW44109   4.974   3.126   9.198
14223SOL    HW144110   4.939   3.169   9.276
14223SOL    HW244111   4.897   3.087   9.156
14224SOL     OW44112   3.886   3.297   7.991
14224SOL    HW144113   3.909   3.389   7.980
14224SOL    HW244114   3.796   3.298   8.025
14225SOL     OW44115   4.356   2.817   7.559
14225SOL    HW144116   4.376   2.887   7.496
14225SOL    HW244117   4.372   2.857   7.645
14226SOL     OW44118   5.315   1.984   8.913
14226SOL    HW144119   5.343   2.067   8.874
14226SOL    HW244120   5.292   2.007   9.003
14227SOL     OW44121   3.860   2.505   8.017
14227SOL    HW144122   3.812   2.423   8.032
14227SOL    HW244123   3.842   2.557   8.096
14228SOL     OW44124   5.576   3.619   7.781
14228SOL    HW144125   5.550   3.606   7.872
14228SOL    HW244126   5.594   3.713   7.774
14229SOL     OW44127   3.791   3.451   7.578
14229SOL    HW144128   3.767   3.360   7.596
14229SOL    HW244129   3.750   3.501   7.648
14230SOL     OW44130   5.428   2.777   8.060
14230SOL    HW144131   5.487   2.729   8.002
14230SOL    HW244132   5.392   2.847   8.006
14231SOL     OW44133   5.370   2.976   7.880
14231SOL    HW144134   5.454   2.988   7.835
14231SOL    HW244135   5.371   3.041   7.950
14232SOL     OW44136   3.844   2.599   9.039
14232SOL    HW144137   3.927   2.642   9.016
14232SOL    HW244138   3.778   2.669   9.029
14233SOL     OW44139   4.325   3.145   8.142
14233SOL    HW144140   4.246   3.153   8.195
14233SOL    HW244141   4.313   3.210   8.072
14234SOL     OW44142   5.052   3.104   8.884
14234SOL    HW144143   5.034   3.062   8.800
14234SOL    HW244144   5.109   3.041   8.930
14235SOL     OW44145   4.545   1.863   7.974
14235SOL    HW144146   4.586   1.943   7.940
14235SOL    HW244147   4.451   1.883   7.974
14236SOL     OW44148   3.866   2.756   8.749
14236SOL    HW144149   3.961   2.747   8.745
14236SOL    HW244150   3.841   2.792   8.664
14237SOL     OW44151   5.276   2.847   7.654
14237SOL    HW144152   5.201   2.794   7.683
14237SOL    HW244153   5.300   2.898   7.731
14238SOL     OW44154   4.064   2.106   9.291
14238SOL    HW144155   4.100   2.181   9.244
14238SOL    HW244156   3.971   2.128   9.303
14239SOL     OW44157   5.208   3.253   8.423
14239SOL    HW144158   5.137   3.273   8.483
14239SOL    HW244159   5.176   3.179   8.372
14240SOL     OW44160   5.417   3.554   8.006
14240SOL    HW144161   5.363   3.556   7.927
14240SOL    HW244162   5.364   3.506   8.070
14241SOL     OW44163   4.319   2.584   7.715
14241SOL    HW144164   4.327   2.663   7.662
14241SOL    HW244165   4.254   2.607   7.782
14242SOL     OW44166   5.018   2.232   8.393
14242SOL    HW144167   4.927   2.203   8.395
14242SOL    HW244168   5.064   2.170   8.449
14243SOL     OW44169   5.311   3.538   7.748
14243SOL    HW144170   5.397   3.576   7.729
14243SOL    HW244171   5.279   3.508   7.662
14244SOL     OW44172   4.529   2.468   8.902
14244SOL    HW144173   4.485   2.448   8.985
14244SOL    HW244174   4.485   2.413   8.837
14245SOL     OW44175   5.108   2.320   9.136
14245SOL    HW144176   5.105   2.371   9.217
14245SOL    HW244177   5.191   2.345   9.095
14246SOL     OW44178   4.689   2.742   9.034
14246SOL    HW144179   4.740   2.664   9.009
14246SOL    HW244180   4.662   2.780   8.951
14247SOL     OW44181   4.723   2.253   8.678
14247SOL    HW144182   4.644   2.296   8.711
14247SOL    HW244183   4.713   2.255   8.583
14248SOL     OW44184   4.776   2.525   7.878
14248SOL    HW144185   4.789   2.534   7.972
14248SOL    HW244186   4.687   2.493   7.868
14249SOL     OW44187   3.796   2.626   8.258
14249SOL    HW144188   3.875   2.662   8.298
14249SOL    HW244189   3.732   2.697   8.265
14250SOL     OW44190   4.631   2.185   7.614
14250SOL    HW144191   4.659   2.270   7.579
14250SOL    HW244192   4.687   2.122   7.569
14251SOL     OW44193   5.418   2.437   9.285
14251SOL    HW144194   5.393   2.512   9.232
14251SOL    HW244195   5.447   2.371   9.222
14252SOL     OW44196   5.108   2.998   8.008
14252SOL    HW144197   5.178   2.995   7.943
14252SOL    HW244198   5.051   3.069   7.980
14253SOL     OW44199   4.274   2.033   8.341
14253SOL    HW144200   4.274   2.084   8.423
14253SOL    HW244201   4.273   2.100   8.272
14254SOL     OW44202   4.727   3.314   7.926
14254SOL    HW144203   4.718   3.349   7.838
14254SOL    HW244204   4.666   3.365   7.979
14255SOL     OW44205   4.088   3.683   8.299
14255SOL    HW144206   4.127   3.597   8.315
14255SOL    HW244207   4.158   3.745   8.315
14256SOL     OW44208   5.530   2.896   8.300
14256SOL    HW144209   5.472   2.892   8.224
14256SOL    HW244210   5.471   2.916   8.373
14257SOL     OW44211   4.059   2.808   7.693
14257SOL    HW144212   4.074   2.900   7.670
14257SOL    HW244213   4.058   2.762   7.609
14258SOL     OW44214   5.272   2.578   8.172
14258SOL    HW144215   5.214   2.596   8.246
14258SOL    HW244216   5.318   2.661   8.157
14259SOL     OW44217   4.167   3.078   9.161
14259SOL    HW144218   4.167   3.081   9.065
14259SOL    HW244219   4.160   3.169   9.188
14260SOL     OW44220   3.912   2.151   8.929
14260SOL    HW144221   3.876   2.235   8.902
14260SOL    HW244222   3.854   2.121   9.000
14261SOL     OW44223   5.378   3.218   7.543
14261SOL    HW144224   5.338   3.305   7.535
14261SOL    HW244225   5.308   3.157   7.522
14262SOL     OW44226   4.199   3.569   7.795
14262SOL    HW144227   4.249   3.645   7.823
14262SOL    HW244228   4.245   3.535   7.719
14263SOL     OW44229   5.128   1.970   7.890
14263SOL    HW144230   5.110   1.941   7.801
14263SOL    HW244231   5.194   2.039   7.879
14264SOL     OW44232   4.626   3.535   8.355
14264SOL    HW144233   4.620   3.461   8.415
14264SOL    HW244234   4.598   3.499   8.270
14265SOL     OW44235   4.138   2.542   7.933
14265SOL    HW144236   4.149   2.449   7.952
14265SOL    HW244237   4.045   2.558   7.945
14266SOL     OW44238   5.251   2.075   9.170
14266SOL    HW144239   5.262   2.087   9.264
14266SOL    HW244240   5.172   2.125   9.148
14267SOL     OW44241   4.341   1.935   7.580
14267SOL    HW144242   4.431   1.955   7.555
14267SOL    HW244243   4.296   1.919   7.497
14268SOL     OW44244   4.496   2.146   9.206
14268SOL    HW144245   4.569   2.083   9.215
14268SOL    HW244246   4.433   2.119   9.273
14269SOL     OW44247   5.093   2.439   8.861
14269SOL    HW144248   5.056   2.440   8.949
14269SOL    HW244249   5.106   2.531   8.840
14270SOL     OW44250   4.457   3.291   8.330
14270SOL    HW144251   4.549   3.268   8.315
14270SOL    HW244252   4.408   3.239   8.266
14271SOL     OW44253   4.652   2.355   8.353
14271SOL    HW144254   4.622   2.359   8.262
14271SOL    HW244255   4.688   2.267   8.363
14272SOL     OW44256   4.279   1.924   7.949
14272SOL    HW144257   4.197   1.924   7.997
14272SOL    HW244258   4.274   2.002   7.893
14273SOL     OW44259   5.175   3.046   7.481
14273SOL    HW144260   5.195   2.971   7.538
14273SOL    HW244261   5.088   3.074   7.509
14274SOL     OW44262   4.014   1.921   7.625
14274SOL    HW144263   4.043   1.993   7.570
14274SOL    HW244264   4.095   1.882   7.658
14275SOL     OW44265   4.662   2.101   7.892
14275SOL    HW144266   4.635   2.137   7.808
14275SOL    HW244267   4.754   2.127   7.900
14276SOL     OW44268   4.798   2.500   8.949
14276SOL    HW144269   4.706   2.483   8.931
14276SOL    HW244270   4.838   2.512   8.863
14277SOL     OW44271   4.986   3.433   8.265
14277SOL    HW144272   4.979   3.493   8.190
14277SOL    HW244273   4.949   3.482   8.338
14278SOL     OW44274   4.960   3.656   8.094
14278SOL    HW144275   4.975   3.720   8.025
14278SOL    HW244276   4.886   3.690   8.143
14279SOL     OW44277   4.730   2.407   7.476
14279SOL    HW144278   4.680   2.486   7.453
14279SOL    HW244279   4.798   2.439   7.536
14280SOL     OW44280   3.822   2.397   8.862
14280SOL    HW144281   3.903   2.411   8.813
14280SOL    HW244282   3.812   2.476   8.915
14281SOL     OW44283   4.280   2.092   8.621
14281SOL    HW144284   4.308   2.002   8.639
14281SOL    HW244285   4.187   2.093   8.642
14282SOL     OW44286   4.581   2.313   8.090
14282SOL    HW144287   4.529   2.379   8.045
14282SOL    HW244288   4.601   2.248   8.023
14283SOL     OW44289   4.754   1.917   8.190
14283SOL    HW144290   4.694   1.935   8.117
14283SOL    HW244291   4.716   1.843   8.236
14284SOL     OW44292   5.156   3.007   8.298
14284SOL    HW144293   5.064   3.031   8.304
14284SOL    HW244294   5.176   3.011   8.204
14285SOL     OW44295   5.165   2.476   8.425
14285SOL    HW144296   5.115   2.394   8.417
14285SOL    HW244297   5.227   2.459   8.496
14286SOL     OW44298   5.573   2.655   7.835
14286SOL    HW144299   5.653   2.614   7.802
14286SOL    HW244300   5.504   2.620   7.780
14287SOL     OW44301   5.396   3.126   8.101
14287SOL    HW144302   5.488   3.147   8.116
14287SOL    HW244303   5.349   3.208   8.121
14288SOL     OW44304   5.129   2.431   7.523
14288SOL    HW144305   5.062   2.412   7.588
14288SOL    HW244306   5.208   2.447   7.574
14289SOL     OW44307   4.242   2.118   7.765
14289SOL    HW144308   4.279   2.064   7.694
14289SOL    HW244309   4.223   2.202   7.723
14290SOL     OW44310   5.491   3.109   9.029
14290SOL    HW144311   5.572   3.085   8.983
14290SOL    HW244312   5.503   3.202   9.049
14291SOL     OW44313   5.327   3.479   9.124
14291SOL    HW144314   5.260   3.510   9.063
14291SOL    HW244315   5.388   3.429   9.070
14292SOL     OW44316   4.879   3.047   8.537
14292SOL    HW144317   4.784   3.047   8.550
14292SOL    HW244318   4.891   3.090   8.452
14293SOL     OW44319   5.343   2.943   8.507
14293SOL    HW144320   5.334   3.014   8.571
14293SOL    HW244321   5.272   2.959   8.444
14294SOL     OW44322   4.657   1.946   8.835
14294SOL    HW144323   4.667   1.937   8.741
14294SOL    HW244324   4.734   1.995   8.864
14295SOL     OW44325   4.712   2.983   9.163
14295SOL    HW144326   4.646   3.035   9.118
14295SOL    HW244327   4.709   2.898   9.119
14296SOL     OW44328   4.432   2.915   7.801
14296SOL    HW144329   4.386   2.918   7.885
14296SOL    HW244330   4.514   2.869   7.820
14297SOL     OW44331   4.128   2.692   8.750
14297SOL    HW144332   4.222   2.694   8.766
14297SOL    HW244333   4.111   2.605   8.714
14298SOL     OW44334   4.989   2.210   8.744
14298SOL    HW144335   5.025   2.294   8.772
14298SOL    HW244336   4.900   2.231   8.714
14299SOL     OW44337   4.134   2.942   7.927
14299SOL    HW144338   4.091   3.024   7.902
14299SOL    HW244339   4.100   2.877   7.866
14300SOL     OW44340   4.285   2.395   8.310
14300SOL    HW144341   4.287   2.451   8.232
14300SOL    HW244342   4.350   2.434   8.369
14301SOL     OW44343   4.969   3.201   7.902
14301SOL    HW144344   5.004   3.263   7.838
14301SOL    HW244345   4.880   3.230   7.917
14302SOL     OW44346   5.032   3.296   8.626
14302SOL    HW144347   5.026   3.382   8.665
14302SOL    HW244348   4.943   3.275   8.598
14303SOL     OW44349   5.306   2.440   7.930
14303SOL    HW144350   5.286   2.500   8.002
14303SOL    HW244351   5.318   2.497   7.854
14304SOL     OW44352   4.156   2.606   9.060
14304SOL    HW144353   4.198   2.655   8.989
14304SOL    HW244354   4.206   2.524   9.066
14305SOL     OW44355   5.342   2.645   9.131
14305SOL    HW144356   5.254   2.683   9.125
14305SOL    HW244357   5.391   2.686   9.060
14306SOL     OW44358   4.730   1.986   9.248
14306SOL    HW144359   4.776   2.066   9.223
14306SOL    HW244360   4.754   1.923   9.180
14307SOL     OW44361   4.205   1.886   9.215
14307SOL    HW144362   4.163   1.843   9.140
14307SOL    HW244363   4.153   1.966   9.228
14308SOL     OW44364   4.328   2.738   8.511
14308SOL    HW144365   4.378   2.794   8.451
14308SOL    HW244366   4.239   2.774   8.508
14309SOL     OW44367   5.069   2.718   8.492
14309SOL    HW144368   5.007   2.745   8.424
14309SOL    HW244369   5.098   2.631   8.464
14310SOL     OW44370   4.935   2.378   7.709
14310SOL    HW144371   4.933   2.302   7.767
14310SOL    HW244372   4.891   2.448   7.759
14311SOL     OW44373   4.020   2.049   8.694
14311SOL    HW144374   3.976   2.085   8.771
14311SOL    HW244375   3.996   1.957   8.694
14312SOL     OW44376   4.461   2.503   8.522
14312SOL    HW144377   4.522   2.500   8.448
14312SOL    HW244378   4.416   2.587   8.512
14313SOL     OW44379   5.480   2.801   9.319
14313SOL    HW144380   5.432   2.752   9.253
14313SOL    HW244381   5.419   2.809   9.393
14314SOL     OW44382   4.032   1.912   8.071
14314SOL    HW144383   4.004   2.003   8.084
14314SOL    HW244384   4.039   1.877   8.160
14315SOL     OW44385   5.303   2.183   7.848
14315SOL    HW144386   5.379   2.157   7.901
14315SOL    HW244387   5.292   2.276   7.866
14316SOL     OW44388   4.786   2.587   8.409
14316SOL    HW144389   4.776   2.606   8.502
14316SOL    HW244390   4.736   2.507   8.395
14317SOL     OW44391   5.611   3.387   9.049
14317SOL    HW144392   5.625   3.395   8.954
14317SOL    HW244393   5.581   3.473   9.076
14318SOL     OW44394   4.075   2.743   9.283
14318SOL    HW144395   4.130   2.820   9.272
14318SOL    HW244396   4.096   2.687   9.208
14319SOL     OW44397   5.260   2.104   7.578
14319SOL    HW144398   5.186   2.049   7.603
14319SOL    HW244399   5.283   2.151   7.658
14320SOL     OW44400   5.033   2.687   7.476
14320SOL    HW144401   5.070   2.599   7.470
14320SOL    HW244402   5.054   2.729   7.392
14321SOL     OW44403   4.918   3.156   8.292
14321SOL    HW144404   4.851   3.123   8.233
14321SOL    HW244405   4.929   3.248   8.268
14322SOL     OW44406   4.026   2.709   8.398
14322SOL    HW144407   4.013   2.799   8.371
14322SOL    HW244408   4.099   2.678   8.344
14323SOL     OW44409   4.090   2.355   8.490
14323SOL    HW144410   4.034   2.287   8.451
14323SOL    HW244411   4.151   2.378   8.421
14324SOL     OW44412   4.852   2.218   9.161
14324SOL    HW144413   4.796   2.287   9.194
14324SOL    HW244414   4.936   2.261   9.143
14325SOL     OW44415   4.899   2.043   8.951
14325SOL    HW144416   4.877   2.114   9.011
14325SOL    HW244417   4.938   2.087   8.875
14326SOL     OW44418   3.726   3.191   7.639
14326SOL    HW144419   3.639   3.206   7.601
14326SOL    HW244420   3.722   3.101   7.672
14327SOL     OW44421   3.850   3.516   8.260
14327SOL    HW144422   3.816   3.533   8.173
14327SOL    HW244423   3.911   3.588   8.277
14328SOL     OW44424   4.215   3.432   8.371
14328SOL    HW144425   4.307   3.404   8.369
14328SOL    HW244426   4.166   3.355   8.344
14329SOL     OW44427   4.722   2.624   8.683
14329SOL    HW144428   4.734   2.717   8.702
14329SOL    HW244429   4.629   2.616   8.663
14330SOL     OW44430   3.765   2.415   8.554
14330SOL    HW144431   3.793   2.440   8.466
14330SOL    HW244432   3.823   2.464   8.612
14331SOL     OW44433   3.947   2.381   9.169
14331SOL    HW144434   4.016   2.356   9.107
14331SOL    HW244435   3.903   2.454   9.126
14332SOL     OW44436   5.106   2.779   9.106
14332SOL    HW144437   5.138   2.869   9.106
14332SOL    HW244438   5.098   2.756   9.013
14333SOL     OW44439   4.526   2.428   7.819
14333SOL    HW144440   4.510   2.362   7.751
14333SOL    HW244441   4.462   2.497   7.800
14334SOL     OW44442   5.353   2.450   8.629
14334SOL    HW144443   5.334   2.400   8.708
14334SOL    HW244444   5.438   2.418   8.599
14335SOL     OW44445   4.417   2.315   8.711
14335SOL    HW144446   4.370   2.241   8.672
14335SOL    HW244447   4.423   2.379   8.640
14336SOL     OW44448   4.189   2.351   7.641
14336SOL    HW144449   4.236   2.431   7.662
14336SOL    HW244450   4.102   2.380   7.614
14337SOL     OW44451   3.814   3.014   8.963
14337SOL    HW144452   3.862   2.942   9.005
14337SOL    HW244453   3.855   3.023   8.877
14338SOL     OW44454   5.035   2.897   8.687
14338SOL    HW144455   5.059   2.835   8.618
14338SOL    HW244456   4.978   2.961   8.642
14339SOL     OW44457   5.056   2.710   7.751
14339SOL    HW144458   4.976   2.742   7.794
14339SOL    HW244459   5.032   2.701   7.659
14340SOL     OW44460   5.502   3.589   8.624
14340SOL    HW144461   5.557   3.620   8.551
14340SOL    HW244462   5.441   3.528   8.583
14341SOL     OW44463   4.984   3.596   8.534
14341SOL    HW144464   5.068   3.613   8.493
14341SOL    HW244465   5.004   3.582   8.627
14342SOL     OW44466   5.483   1.979   7.967
14342SOL    HW144467   5.531   1.996   7.885
14342SOL    HW244468   5.446   1.892   7.955
14343SOL     OW44469   5.133   3.461   7.952
14343SOL    HW144470   5.162   3.482   7.864
14343SOL    HW244471   5.055   3.515   7.965
14344SOL     OW44472   5.035   2.753   8.104
14344SOL    HW144473   5.106   2.713   8.054
14344SOL    HW244474   5.040   2.846   8.081
14345SOL     OW44475   4.328   3.467   7.580
14345SOL    HW144476   4.315   3.503   7.493
14345SOL    HW244477   4.335   3.372   7.566
14346SOL     OW44478   5.458   3.641   8.896
14346SOL    HW144479   5.450   3.613   8.805
14346SOL    HW244480   5.395   3.712   8.905
14347SOL     OW44481   3.971   2.161   8.153
14347SOL    HW144482   3.887   2.200   8.129
14347SOL    HW244483   3.973   2.165   8.249
14348SOL     OW44484   4.624   2.877   8.804
14348SOL    HW144485   4.611   2.894   8.711
14348SOL    HW244486   4.650   2.961   8.841
14349SOL     OW44487   4.669   2.774   7.805
14349SOL    HW144488   4.709   2.801   7.722
14349SOL    HW244489   4.707   2.688   7.823
14350SOL     OW44490   5.244   3.448   7.500
14350SOL    HW144491   5.150   3.430   7.505
14350SOL    HW244492   5.260   3.467   7.408
14351SOL     OW44493   5.336   3.131   8.711
14351SOL    HW144494   5.394   3.154   8.783
14351SOL    HW244495   5.260   3.188   8.721
14352SOL     OW44496   4.743   2.957   8.156
14352SOL    HW144497   4.653   2.970   8.127
14352SOL    HW244498   4.793   2.949   8.075
14353SOL     OW44499   4.768   2.102   8.406
14353SOL    HW144500   4.765   2.055   8.323
14353SOL    HW244501   4.747   2.036   8.472
14354SOL     OW44502   4.333   3.365   7.959
14354SOL    HW144503   4.374   3.312   7.891
14354SOL    HW244504   4.269   3.419   7.912
14355SOL     OW44505   5.475   2.226   8.845
14355SOL    HW144506   5.532   2.301   8.832
14355SOL    HW244507   5.499   2.164   8.776
14356SOL     OW44508   3.961   3.127   7.795
14356SOL    HW144509   3.915   3.164   7.720
14356SOL    HW244510   3.944   3.188   7.867
14357SOL     OW44511   3.837   2.849   9.194
14357SOL    HW144512   3.764   2.840   9.255
14357SOL    HW244513   3.912   2.810   9.240
14358SOL     OW44514   4.403   2.044   8.952
14358SOL    HW144515   4.480   2.045   8.894
14358SOL    HW244516   4.429   2.097   9.027
14359SOL     OW44517   3.808   2.194   7.494
14359SOL    HW144518   3.749   2.203   7.419
14359SOL    HW244519   3.839   2.283   7.511
14360SOL     OW44520   5.149   2.713   8.845
14360SOL    HW144521   5.094   2.774   8.796
14360SOL    HW244522   5.235   2.718   8.801
14361SOL     OW44523   3.777   2.016   7.734
14361SOL    HW144524   3.756   2.087   7.673
14361SOL    HW244525   3.866   1.990   7.711
14362SOL     OW44526   4.936   3.120   7.568
14362SOL    HW144527   4.842   3.115   7.552
14362SOL    HW244528   4.949   3.207   7.606
14363SOL     OW44529   4.373   2.697   8.881
14363SOL    HW144530   4.426   2.770   8.849
14363SOL    HW244531   4.435   2.624   8.886
14364SOL     OW44532   5.231   3.666   8.417
14364SOL    HW144533   5.202   3.650   8.328
14364SOL    HW244534   5.263   3.757   8.416
14365SOL     OW44535   4.430   2.422   9.147
14365SOL    HW144536   4.475   2.487   9.201
14365SOL    HW244537   4.460   2.338   9.182
14366SOL     OW44538   5.219   3.022   9.100
14366SOL    HW144539   5.153   3.088   9.123
14366SOL    HW244540   5.297   3.073   9.078
14367SOL     OW44541   5.385   2.740   8.698
14367SOL    HW144542   5.372   2.659   8.648
14367SOL    HW244543   5.371   2.810   8.634
14368SOL     OW44544   4.929   2.172   7.911
14368SOL    HW144545   4.997   2.104   7.905
14368SOL    HW244546   4.958   2.228   7.983
14369SOL     OW44547   4.320   2.603   8.130
14369SOL    HW144548   4.350   2.694   8.125
14369SOL    HW244549   4.260   2.593   8.056
14370SOL     OW44550   5.476   2.222   9.118
14370SOL    HW144551   5.479   2.232   9.023
14370SOL    HW244552   5.404   2.162   9.135
14371SOL     OW44553   5.486   2.793   8.952
14371SOL    HW144554   5.465   2.885   8.969
14371SOL    HW244555   5.462   2.780   8.861
14372SOL     OW44556   4.441   3.720   8.469
14372SOL    HW144557   4.385   3.763   8.405
14372SOL    HW244558   4.481   3.647   8.421
14373SOL     OW44559   4.554   2.865   8.382
14373SOL    HW144560   4.632   2.857   8.328
14373SOL    HW244561   4.573   2.937   8.442
14374SOL     OW44562   4.809   2.805   7.577
14374SOL    HW144563   4.761   2.856   7.512
14374SOL    HW244564   4.888   2.775   7.531
14375SOL     OW44565   5.563   3.426   8.299
14375SOL    HW144566   5.502   3.432   8.226
14375SOL    HW244567   5.513   3.386   8.370
14376SOL     OW44568   3.805   2.974   8.110
14376SOL    HW144569   3.886   2.969   8.161
14376SOL    HW244570   3.809   3.059   8.067
14377SOL     OW44571   5.537   2.031   8.664
14377SOL    HW144572   5.533   1.935   8.667
14377SOL    HW244573   5.487   2.055   8.587
14378SOL     OW44574   4.171   2.276   7.995
14378SOL    HW144575   4.182   2.221   7.917
14378SOL    HW244576   4.099   2.237   8.043
14379SOL     OW44577   5.438   3.327   8.527
14379SOL    HW144578   5.355   3.317   8.481
14379SOL    HW244579   5.434   3.262   8.597
14380SOL     OW44580   4.065   2.411   8.745
14380SOL    HW144581   4.149   2.379   8.778
14380SOL    HW244582   4.068   2.396   8.651
14381SOL     OW44583   4.553   3.469   8.091
14381SOL    HW144584   4.553   3.558   8.056
14381SOL    HW244585   4.473   3.429   8.057
14382SOL     OW44586   5.161   2.072   8.573
14382SOL    HW144587   5.141   1.982   8.597
14382SOL    HW244588   5.112   2.126   8.636
14383SOL     OW44589   4.728   1.868   8.572
14383SOL    HW144590   4.683   1.810   8.511
14383SOL    HW244591   4.815   1.829   8.582
14384SOL     OW44592   4.459   3.208   7.781
14384SOL    HW144593   4.453   3.115   7.762
14384SOL    HW244594   4.534   3.239   7.730
14385SOL     OW44595   5.067   1.912   7.627
14385SOL    HW144596   5.083   1.869   7.543
14385SOL    HW244597   4.985   1.874   7.657
14386SOL     OW44598   5.020   2.316   8.127
14386SOL    HW144599   4.972   2.398   8.121
14386SOL    HW244600   5.018   2.294   8.220
14387SOL     OW44601   5.341   2.078   8.350
14387SOL    HW144602   5.280   2.077   8.424
14387SOL    HW244603   5.321   2.160   8.304
14388SOL     OW44604   3.744   2.938   7.759
14388SOL    HW144605   3.834   2.967   7.772
14388SOL    HW244606   3.746   2.845   7.781
14389SOL     OW44607   3.941   2.441   9.434
14389SOL    HW144608   3.886   2.517   9.451
14389SOL    HW244609   3.953   2.441   9.339
14390SOL     OW44610   3.946   2.146  10.299
14390SOL    HW144611   3.973   2.115  10.386
14390SOL    HW244612   3.856   2.114  10.289
14391SOL     OW44613   3.722   2.242   9.953
14391SOL    HW144614   3.641   2.272   9.993
14391SOL    HW244615   3.696   2.165   9.901
14392SOL     OW44616   4.301   3.166  10.503
14392SOL    HW144617   4.217   3.166  10.456
14392SOL    HW244618   4.312   3.257  10.531
14393SOL     OW44619   5.304   3.384  10.016
14393SOL    HW144620   5.256   3.354  10.093
14393SOL    HW244621   5.238   3.393   9.948
14394SOL     OW44622   4.866   2.556  10.004
14394SOL    HW144623   4.911   2.638   9.988
14394SOL    HW244624   4.815   2.571  10.084
14395SOL     OW44625   5.519   2.457   9.534
14395SOL    HW144626   5.484   2.463   9.445
14395SOL    HW244627   5.475   2.382   9.573
14396SOL     OW44628   4.484   3.008  10.372
14396SOL    HW144629   4.415   3.045  10.427
14396SOL    HW244630   4.514   3.081  10.318
14397SOL     OW44631   4.642   2.632  11.143
14397SOL    HW144632   4.570   2.676  11.188
14397SOL    HW244633   4.645   2.674  11.057
14398SOL     OW44634   4.409   2.849   9.965
14398SOL    HW144635   4.470   2.848  10.039
14398SOL    HW244636   4.341   2.910   9.992
14399SOL     OW44637   4.435   3.010  11.134
14399SOL    HW144638   4.483   3.087  11.166
14399SOL    HW244639   4.357   3.046  11.092
14400SOL     OW44640   4.060   3.271  10.378
14400SOL    HW144641   3.984   3.230  10.336
14400SOL    HW244642   4.099   3.324  10.310
14401SOL     OW44643   5.180   3.365  10.676
14401SOL    HW144644   5.232   3.445  10.687
14401SOL    HW244645   5.108   3.373  10.737
14402SOL     OW44646   4.176   2.243  10.739
14402SOL    HW144647   4.231   2.272  10.812
14402SOL    HW244648   4.104   2.197  10.780
14403SOL     OW44649   5.319   2.299  10.056
14403SOL    HW144650   5.248   2.309   9.992
14403SOL    HW244651   5.314   2.378  10.110
14404SOL     OW44652   4.861   3.203  11.007
14404SOL    HW144653   4.899   3.199  11.095
14404SOL    HW244654   4.808   3.124  11.000
14405SOL     OW44655   4.031   2.955  10.229
14405SOL    HW144656   4.007   2.863  10.244
14405SOL    HW244657   3.956   3.005  10.263
14406SOL     OW44658   4.330   3.647  10.751
14406SOL    HW144659   4.245   3.632  10.791
14406SOL    HW244660   4.349   3.739  10.767
14407SOL     OW44661   4.332   2.838   9.462
14407SOL    HW144662   4.358   2.899   9.394
14407SOL    HW244663   4.368   2.875   9.543
14408SOL     OW44664   5.318   1.993  10.773
14408SOL    HW144665   5.344   2.074  10.729
14408SOL    HW244666   5.294   2.020  10.861
14409SOL     OW44667   3.844   2.515   9.871
14409SOL    HW144668   3.812   2.426   9.889
14409SOL    HW244669   3.834   2.561   9.954
14410SOL     OW44670   5.564   3.621   9.641
14410SOL    HW144671   5.639   3.601   9.698
14410SOL    HW244672   5.578   3.711   9.614
14411SOL     OW44673   5.424   2.785   9.946
14411SOL    HW144674   5.480   2.731   9.891
14411SOL    HW244675   5.383   2.846   9.885
14412SOL     OW44676   5.365   2.970   9.747
14412SOL    HW144677   5.449   2.966   9.702
14412SOL    HW244678   5.376   3.038   9.812
14413SOL     OW44679   3.851   2.610  10.895
14413SOL    HW144680   3.941   2.643  10.896
14413SOL    HW244681   3.797   2.688  10.886
14414SOL     OW44682   4.339   3.245  10.058
14414SOL    HW144683   4.291   3.162  10.050
14414SOL    HW244684   4.343   3.279   9.968
14415SOL     OW44685   5.002   3.098  10.726
14415SOL    HW144686   5.030   3.028  10.668
14415SOL    HW244687   5.059   3.090  10.803
14416SOL     OW44688   4.549   1.865   9.836
14416SOL    HW144689   4.589   1.945   9.804
14416SOL    HW244690   4.455   1.883   9.835
14417SOL     OW44691   3.909   2.822  10.599
14417SOL    HW144692   3.996   2.783  10.586
14417SOL    HW244693   3.860   2.796  10.520
14418SOL     OW44694   5.292   2.800   9.528
14418SOL    HW144695   5.205   2.765   9.547
14418SOL    HW244696   5.298   2.880   9.580
14419SOL     OW44697   4.913   3.683  10.941
14419SOL    HW144698   4.910   3.745  10.868
14419SOL    HW244699   4.924   3.598  10.900
14420SOL     OW44700   4.080   2.102  11.145
14420SOL    HW144701   4.135   2.180  11.141
14420SOL    HW244702   3.993   2.136  11.166
14421SOL     OW44703   5.189   3.280  10.245
14421SOL    HW144704   5.121   3.296  10.311
14421SOL    HW244705   5.176   3.188  10.219
14422SOL     OW44706   5.386   3.627   9.890
14422SOL    HW144707   5.371   3.605   9.798
14422SOL    HW244708   5.363   3.548   9.938
14423SOL     OW44709   4.321   2.585   9.589
14423SOL    HW144710   4.322   2.663   9.533
14423SOL    HW244711   4.250   2.602   9.652
14424SOL     OW44712   5.009   2.244  10.250
14424SOL    HW144713   4.919   2.211  10.253
14424SOL    HW244714   5.058   2.185  10.307
14425SOL     OW44715   5.302   3.525   9.625
14425SOL    HW144716   5.389   3.562   9.609
14425SOL    HW244717   5.267   3.507   9.538
14426SOL     OW44718   4.523   2.462  10.776
14426SOL    HW144719   4.478   2.429  10.854
14426SOL    HW244720   4.494   2.404  10.705
14427SOL     OW44721   5.122   2.344  10.988
14427SOL    HW144722   5.121   2.385  11.074
14427SOL    HW244723   5.174   2.265  10.999
14428SOL     OW44724   4.674   2.755  10.892
14428SOL    HW144725   4.726   2.684  10.853
14428SOL    HW244726   4.625   2.792  10.818
14429SOL     OW44727   4.726   2.260  10.535
14429SOL    HW144728   4.637   2.278  10.565
14429SOL    HW244729   4.716   2.242  10.442
14430SOL     OW44730   4.781   2.547   9.731
14430SOL    HW144731   4.796   2.543   9.826
14430SOL    HW244732   4.694   2.509   9.719
14431SOL     OW44733   3.807   2.659  10.102
14431SOL    HW144734   3.891   2.665  10.149
14431SOL    HW244735   3.763   2.742  10.123
14432SOL     OW44736   3.844   3.738  10.892
14432SOL    HW144737   3.844   3.717  10.986
14432SOL    HW244738   3.769   3.691  10.857
14433SOL     OW44739   4.634   2.213   9.508
14433SOL    HW144740   4.669   2.287   9.459
14433SOL    HW244741   4.625   2.143   9.443
14434SOL     OW44742   5.433   2.432  11.142
14434SOL    HW144743   5.398   2.507  11.093
14434SOL    HW244744   5.453   2.367  11.075
14435SOL     OW44745   5.106   3.007   9.859
14435SOL    HW144746   5.177   2.991   9.796
14435SOL    HW244747   5.049   3.070   9.814
14436SOL     OW44748   4.271   2.016  10.227
14436SOL    HW144749   4.275   2.053  10.315
14436SOL    HW244750   4.268   2.092  10.168
14437SOL     OW44751   4.741   3.361   9.795
14437SOL    HW144752   4.698   3.381   9.712
14437SOL    HW244753   4.674   3.380   9.862
14438SOL     OW44754   4.063   3.663  10.234
14438SOL    HW144755   4.114   3.584  10.217
14438SOL    HW244756   4.087   3.723  10.164
14439SOL     OW44757   5.534   2.909  10.174
14439SOL    HW144758   5.484   2.887  10.096
14439SOL    HW244759   5.469   2.918  10.244
14440SOL     OW44760   4.947   3.403  10.823
14440SOL    HW144761   4.936   3.332  10.886
14440SOL    HW244762   4.873   3.393  10.763
14441SOL     OW44763   4.074   2.786   9.560
14441SOL    HW144764   4.161   2.820   9.538
14441SOL    HW244765   4.038   2.757   9.476
14442SOL     OW44766   5.216   2.613  10.024
14442SOL    HW144767   5.211   2.578  10.113
14442SOL    HW244768   5.294   2.668  10.025
14443SOL     OW44769   4.196   3.137  11.050
14443SOL    HW144770   4.170   3.143  10.958
14443SOL    HW244771   4.114   3.129  11.098
14444SOL     OW44772   3.931   2.133  10.811
14444SOL    HW144773   3.867   2.200  10.836
14444SOL    HW244774   3.905   2.056  10.861
14445SOL     OW44775   5.370   3.241   9.429
14445SOL    HW144776   5.322   3.320   9.405
14445SOL    HW244777   5.306   3.170   9.423
14446SOL     OW44778   5.122   1.958   9.749
14446SOL    HW144779   5.113   1.932   9.657
14446SOL    HW244780   5.216   1.971   9.760
14447SOL     OW44781   3.986   3.651  10.524
14447SOL    HW144782   4.030   3.571  10.553
14447SOL    HW244783   3.991   3.647  10.428
14448SOL     OW44784   4.704   3.516  10.180
14448SOL    HW144785   4.669   3.470  10.256
14448SOL    HW244786   4.646   3.490  10.108
14449SOL     OW44787   4.132   2.548   9.803
14449SOL    HW144788   4.143   2.453   9.811
14449SOL    HW244789   4.038   2.561   9.797
14450SOL     OW44790   5.245   2.089  11.032
14450SOL    HW144791   5.259   2.103  11.125
14450SOL    HW244792   5.168   2.033  11.028
14451SOL     OW44793   4.369   1.963   9.417
14451SOL    HW144794   4.438   1.896   9.409
14451SOL    HW244795   4.306   1.941   9.349
14452SOL     OW44796   4.485   2.100  11.128
14452SOL    HW144797   4.565   2.077  11.082
14452SOL    HW244798   4.450   2.175  11.081
14453SOL     OW44799   4.606   3.391  10.483
14453SOL    HW144800   4.579   3.337  10.409
14453SOL    HW244801   4.666   3.336  10.533
14454SOL     OW44802   5.061   2.449  10.741
14454SOL    HW144803   5.091   2.423  10.828
14454SOL    HW244804   5.091   2.539  10.731
14455SOL     OW44805   4.550   3.253  10.246
14455SOL    HW144806   4.630   3.234  10.196
14455SOL    HW244807   4.481   3.255  10.180
14456SOL     OW44808   4.657   2.373  10.201
14456SOL    HW144809   4.629   2.366  10.110
14456SOL    HW244810   4.685   2.284  10.225
14457SOL     OW44811   4.283   1.921   9.808
14457SOL    HW144812   4.201   1.921   9.857
14457SOL    HW244813   4.277   1.998   9.750
14458SOL     OW44814   5.169   3.060   9.417
14458SOL    HW144815   5.173   2.985   9.358
14458SOL    HW244816   5.085   3.101   9.397
14459SOL     OW44817   4.008   1.918   9.493
14459SOL    HW144818   4.046   1.987   9.438
14459SOL    HW244819   4.084   1.868   9.524
14460SOL     OW44820   4.669   2.104   9.761
14460SOL    HW144821   4.644   2.143   9.677
14460SOL    HW244822   4.762   2.125   9.770
14461SOL     OW44823   4.794   2.548  10.763
14461SOL    HW144824   4.720   2.490  10.779
14461SOL    HW244825   4.870   2.491  10.762
14462SOL     OW44826   4.194   3.013  10.023
14462SOL    HW144827   4.140   2.991  10.100
14462SOL    HW244828   4.137   2.995   9.948
14463SOL     OW44829   4.986   3.709   9.919
14463SOL    HW144830   5.059   3.734   9.862
14463SOL    HW244831   4.915   3.768   9.893
14464SOL     OW44832   4.735   2.408   9.344
14464SOL    HW144833   4.683   2.483   9.314
14464SOL    HW244834   4.814   2.447   9.381
14465SOL     OW44835   3.812   2.411  10.712
14465SOL    HW144836   3.902   2.414  10.679
14465SOL    HW244837   3.808   2.482  10.776
14466SOL     OW44838   4.280   2.086  10.498
14466SOL    HW144839   4.319   2.058  10.581
14466SOL    HW244840   4.186   2.093  10.517
14467SOL     OW44841   4.590   2.317   9.943
14467SOL    HW144842   4.544   2.376   9.883
14467SOL    HW244843   4.611   2.240   9.889
14468SOL     OW44844   4.743   1.916  10.056
14468SOL    HW144845   4.682   1.919   9.983
14468SOL    HW244846   4.718   1.838  10.106
14469SOL     OW44847   5.165   3.018  10.161
14469SOL    HW144848   5.092   2.956  10.158
14469SOL    HW244849   5.191   3.029  10.069
14470SOL     OW44850   5.187   2.477  10.268
14470SOL    HW144851   5.126   2.403  10.270
14470SOL    HW244852   5.238   2.467  10.349
14471SOL     OW44853   5.566   2.661   9.718
14471SOL    HW144854   5.630   2.606   9.762
14471SOL    HW244855   5.537   2.609   9.643
14472SOL     OW44856   5.403   3.129   9.961
14472SOL    HW144857   5.499   3.132   9.967
14472SOL    HW244858   5.376   3.221   9.971
14473SOL     OW44859   5.114   2.440   9.378
14473SOL    HW144860   5.061   2.415   9.454
14473SOL    HW244861   5.204   2.428   9.407
14474SOL     OW44862   4.254   2.115   9.623
14474SOL    HW144863   4.298   2.071   9.550
14474SOL    HW244864   4.228   2.200   9.587
14475SOL     OW44865   5.467   3.099  10.867
14475SOL    HW144866   5.540   3.053  10.909
14475SOL    HW244867   5.486   3.192  10.882
14476SOL     OW44868   4.767   3.223  10.643
14476SOL    HW144869   4.691   3.187  10.688
14476SOL    HW244870   4.842   3.179  10.682
14477SOL     OW44871   5.337   3.488  10.964
14477SOL    HW144872   5.328   3.525  10.876
14477SOL    HW244873   5.415   3.433  10.959
14478SOL     OW44874   4.871   3.089  10.409
14478SOL    HW144875   4.797   3.111  10.467
14478SOL    HW244876   4.839   3.110  10.321
14479SOL     OW44877   5.350   2.959  10.381
14479SOL    HW144878   5.339   3.021  10.452
14479SOL    HW244879   5.276   2.974  10.323
14480SOL     OW44880   4.668   1.941  10.694
14480SOL    HW144881   4.681   1.938  10.600
14480SOL    HW244882   4.743   1.991  10.728
14481SOL     OW44883   4.706   2.977  11.041
14481SOL    HW144884   4.615   2.992  11.065
14481SOL    HW244885   4.703   2.899  10.984
14482SOL     OW44886   4.438   2.912   9.699
14482SOL    HW144887   4.420   2.885   9.789
14482SOL    HW244888   4.519   2.866   9.676
14483SOL     OW44889   4.146   2.685  10.570
14483SOL    HW144890   4.216   2.689  10.635
14483SOL    HW244891   4.110   2.597  10.578
14484SOL     OW44892   4.990   2.233  10.593
14484SOL    HW144893   5.018   2.313  10.637
14484SOL    HW244894   4.899   2.250  10.570
14485SOL     OW44895   3.803   3.433  10.669
14485SOL    HW144896   3.770   3.500  10.609
14485SOL    HW244897   3.898   3.435  10.655
14486SOL     OW44898   4.270   2.385  10.178
14486SOL    HW144899   4.281   2.440  10.101
14486SOL    HW244900   4.339   2.414  10.238
14487SOL     OW44901   4.966   3.218   9.741
14487SOL    HW144902   5.031   3.288   9.751
14487SOL    HW244903   4.883   3.259   9.764
14488SOL     OW44904   5.016   3.328  10.453
14488SOL    HW144905   5.066   3.330  10.535
14488SOL    HW244906   4.963   3.248  10.459
14489SOL     OW44907   5.300   2.480   9.791
14489SOL    HW144908   5.252   2.522   9.862
14489SOL    HW244909   5.312   2.549   9.726
14490SOL     OW44910   4.074   3.395  10.614
14490SOL    HW144911   4.063   3.347  10.532
14490SOL    HW244912   4.168   3.408  10.622
14491SOL     OW44913   4.154   2.594  10.930
14491SOL    HW144914   4.211   2.636  10.865
14491SOL    HW244915   4.203   2.516  10.958
14492SOL     OW44916   5.345   2.646  10.999
14492SOL    HW144917   5.257   2.683  10.994
14492SOL    HW244918   5.392   2.686  10.927
14493SOL     OW44919   4.732   2.002  11.053
14493SOL    HW144920   4.788   2.078  11.042
14493SOL    HW244921   4.787   1.928  11.027
14494SOL     OW44922   4.204   1.871  11.068
14494SOL    HW144923   4.159   1.834  10.993
14494SOL    HW244924   4.162   1.956  11.083
14495SOL     OW44925   4.314   2.734  10.354
14495SOL    HW144926   4.326   2.828  10.341
14495SOL    HW244927   4.249   2.727  10.423
14496SOL     OW44928   5.058   2.719  10.327
14496SOL    HW144929   4.972   2.707  10.287
14496SOL    HW244930   5.105   2.638  10.310
14497SOL     OW44931   4.946   2.380   9.585
14497SOL    HW144932   4.937   2.302   9.639
14497SOL    HW244933   4.894   2.446   9.629
14498SOL     OW44934   4.008   2.061  10.551
14498SOL    HW144935   3.981   2.092  10.638
14498SOL    HW244936   3.992   1.966  10.554
14499SOL     OW44937   3.746   3.175  10.581
14499SOL    HW144938   3.787   3.119  10.647
14499SOL    HW244939   3.765   3.264  10.612
14500SOL     OW44940   4.449   2.495  10.361
14500SOL    HW144941   4.519   2.488  10.296
14500SOL    HW244942   4.412   2.582  10.347
14501SOL     OW44943   5.468   2.827  11.170
14501SOL    HW144944   5.427   2.756  11.121
14501SOL    HW244945   5.407   2.845  11.241
14502SOL     OW44946   4.038   1.916   9.934
14502SOL    HW144947   4.010   2.006   9.949
14502SOL    HW244948   4.041   1.877  10.021
14503SOL     OW44949   5.353   2.244   9.665
14503SOL    HW144950   5.383   2.182   9.731
14503SOL    HW244951   5.326   2.321   9.715
14504SOL     OW44952   4.759   2.618  10.265
14504SOL    HW144953   4.745   2.633  10.359
14504SOL    HW244954   4.729   2.528  10.250
14505SOL     OW44955   4.709   3.431  11.038
14505SOL    HW144956   4.691   3.474  10.954
14505SOL    HW244957   4.746   3.346  11.014
14506SOL     OW44958   5.576   3.354  10.901
14506SOL    HW144959   5.602   3.394  10.818
14506SOL    HW244960   5.649   3.373  10.960
14507SOL     OW44961   4.076   2.778  11.118
14507SOL    HW144962   4.153   2.796  11.172
14507SOL    HW244963   4.104   2.710  11.057
14508SOL     OW44964   5.258   2.116   9.438
14508SOL    HW144965   5.197   2.056   9.481
14508SOL    HW244966   5.292   2.169   9.510
14509SOL     OW44967   5.011   2.692   9.343
14509SOL    HW144968   5.049   2.605   9.345
14509SOL    HW244969   5.037   2.728   9.258
14510SOL     OW44970   4.800   3.192  10.147
14510SOL    HW144971   4.789   3.106  10.106
14510SOL    HW244972   4.850   3.243  10.084
14511SOL     OW44973   4.036   2.670  10.254
14511SOL    HW144974   4.128   2.683  10.231
14511SOL    HW244975   4.031   2.579  10.284
14512SOL     OW44976   4.043   2.394  10.318
14512SOL    HW144977   4.006   2.307  10.306
14512SOL    HW244978   4.123   2.395  10.265
14513SOL     OW44979   4.866   2.237  10.995
14513SOL    HW144980   4.814   2.287  11.058
14513SOL    HW244981   4.950   2.283  10.990
14514SOL     OW44982   4.901   2.058  10.785
14514SOL    HW144983   4.882   2.121  10.855
14514SOL    HW244984   4.940   2.111  10.715
14515SOL     OW44985   3.793   3.647  10.260
14515SOL    HW144986   3.761   3.576  10.205
14515SOL    HW244987   3.886   3.654  10.239
14516SOL     OW44988   4.223   3.436  10.221
14516SOL    HW144989   4.293   3.498  10.241
14516SOL    HW244990   4.264   3.374  10.160
14517SOL     OW44991   4.692   2.644  10.526
14517SOL    HW144992   4.745   2.624  10.604
14517SOL    HW244993   4.605   2.611  10.547
14518SOL     OW44994   3.762   2.410  10.429
14518SOL    HW144995   3.838   2.415  10.371
14518SOL    HW244996   3.800   2.413  10.517
14519SOL     OW44997   3.927   2.394  11.050
14519SOL    HW144998   4.016   2.385  11.015
14519SOL    HW244999   3.888   2.465  10.999
14520SOL     OW45000   5.111   2.786  10.966
14520SOL    HW145001   5.126   2.880  10.962
14520SOL    HW245002   5.102   2.759  10.874
14521SOL     OW45003   4.534   2.435   9.684
14521SOL    HW145004   4.536   2.365   9.619
14521SOL    HW245005   4.462   2.491   9.657
14522SOL     OW45006   5.352   2.467  10.490
14522SOL    HW145007   5.338   2.407  10.563
14522SOL    HW245008   5.440   2.446  10.458
14523SOL     OW45009   3.957   3.407  11.035
14523SOL    HW145010   3.934   3.460  11.111
14523SOL    HW245011   3.968   3.318  11.070
14524SOL     OW45012   4.454   2.311  10.559
14524SOL    HW145013   4.382   2.249  10.547
14524SOL    HW245014   4.443   2.375  10.489
14525SOL     OW45015   4.652   3.543  10.787
14525SOL    HW145016   4.614   3.499  10.711
14525SOL    HW245017   4.642   3.636  10.769
14526SOL     OW45018   4.188   2.352   9.518
14526SOL    HW145019   4.238   2.433   9.531
14526SOL    HW245020   4.101   2.381   9.491
14527SOL     OW45021   3.858   3.011  10.785
14527SOL    HW145022   3.864   2.968  10.871
14527SOL    HW245023   3.876   2.941  10.722
14528SOL     OW45024   5.044   2.906  10.524
14528SOL    HW145025   5.057   2.840  10.456
14528SOL    HW245026   4.983   2.969  10.485
14529SOL     OW45027   5.041   2.711   9.615
14529SOL    HW145028   4.958   2.692   9.660
14529SOL    HW245029   5.018   2.714   9.523
14530SOL     OW45030   5.496   3.590  10.472
14530SOL    HW145031   5.561   3.615  10.406
14530SOL    HW245032   5.461   3.506  10.440
14531SOL     OW45033   4.958   3.582  10.354
14531SOL    HW145034   5.049   3.613  10.347
14531SOL    HW245035   4.966   3.496  10.395
14532SOL     OW45036   3.824   3.114  10.316
14532SOL    HW145037   3.787   3.133  10.402
14532SOL    HW245038   3.759   3.059  10.273
14533SOL     OW45039   4.407   3.538  11.055
14533SOL    HW145040   4.341   3.607  11.045
14533SOL    HW245041   4.473   3.558  10.989
14534SOL     OW45042   5.459   2.028   9.817
14534SOL    HW145043   5.521   2.012   9.745
14534SOL    HW245044   5.439   1.941   9.851
14535SOL     OW45045   5.124   3.444   9.813
14535SOL    HW145046   5.186   3.462   9.742
14535SOL    HW245047   5.063   3.517   9.811
14536SOL     OW45048   3.853   3.669  11.154
14536SOL    HW145049   3.810   3.594  11.195
14536SOL    HW245050   3.902   3.710  11.225
14537SOL     OW45051   5.007   2.787   9.981
14537SOL    HW145052   5.082   2.728   9.984
14537SOL    HW245053   5.037   2.861   9.928
14538SOL     OW45054   4.513   3.141  10.724
14538SOL    HW145055   4.487   3.186  10.805
14538SOL    HW245056   4.439   3.153  10.665
14539SOL     OW45057   5.342   3.593  10.704
14539SOL    HW145058   5.387   3.596  10.619
14539SOL    HW245059   5.328   3.684  10.728
14540SOL     OW45060   5.566   2.029  10.273
14540SOL    HW145061   5.593   1.940  10.249
14540SOL    HW245062   5.479   2.039  10.235
14541SOL     OW45063   3.976   2.164  10.020
14541SOL    HW145064   3.891   2.201   9.995
14541SOL    HW245065   3.976   2.168  10.116
14542SOL     OW45066   4.541   2.871  10.681
14542SOL    HW145067   4.567   2.868  10.589
14542SOL    HW245068   4.532   2.964  10.701
14543SOL     OW45069   4.666   2.789   9.633
14543SOL    HW145070   4.706   2.814   9.550
14543SOL    HW245071   4.705   2.704   9.654
14544SOL     OW45072   5.216   3.455   9.370
14544SOL    HW145073   5.124   3.452   9.345
14544SOL    HW245074   5.263   3.470   9.287
14545SOL     OW45075   4.088   3.173  10.805
14545SOL    HW145076   4.079   3.247  10.745
14545SOL    HW245077   4.011   3.119  10.788
14546SOL     OW45078   5.338   3.151  10.597
14546SOL    HW145079   5.381   3.122  10.677
14546SOL    HW245080   5.272   3.214  10.626
14547SOL     OW45081   4.780   2.956  10.033
14547SOL    HW145082   4.705   2.905  10.062
14547SOL    HW245083   4.838   2.892   9.991
14548SOL     OW45084   4.757   2.112  10.268
14548SOL    HW145085   4.753   2.065  10.185
14548SOL    HW245086   4.749   2.044  10.335
14549SOL     OW45087   4.363   3.352   9.804
14549SOL    HW145088   4.416   3.291   9.753
14549SOL    HW245089   4.302   3.390   9.740
14550SOL     OW45090   5.458   2.247  10.691
14550SOL    HW145091   5.527   2.313  10.687
14550SOL    HW245092   5.486   2.178  10.632
14551SOL     OW45093   3.845   2.911  11.045
14551SOL    HW145094   3.768   2.879  11.092
14551SOL    HW245095   3.917   2.858  11.080
14552SOL     OW45096   4.406   2.001  10.791
14552SOL    HW145097   4.500   2.008  10.774
14552SOL    HW245098   4.390   2.066  10.861
14553SOL     OW45099   3.799   2.183   9.342
14553SOL    HW145100   3.739   2.182   9.267
14553SOL    HW245101   3.838   2.271   9.340
14554SOL     OW45102   5.145   2.717  10.702
14554SOL    HW145103   5.092   2.776  10.649
14554SOL    HW245104   5.232   2.720  10.663
14555SOL     OW45105   3.774   2.019   9.595
14555SOL    HW145106   3.755   2.085   9.529
14555SOL    HW245107   3.863   1.989   9.573
14556SOL     OW45108   4.906   3.191   9.457
14556SOL    HW145109   4.828   3.245   9.453
14556SOL    HW245110   4.927   3.187   9.550
14557SOL     OW45111   4.350   2.682  10.749
14557SOL    HW145112   4.408   2.756  10.733
14557SOL    HW245113   4.410   2.609  10.765
14558SOL     OW45114   5.201   3.666  10.266
14558SOL    HW145115   5.230   3.748  10.226
14558SOL    HW245116   5.281   3.615  10.277
14559SOL     OW45117   5.192   3.051  10.936
14559SOL    HW145118   5.177   3.068  11.029
14559SOL    HW245119   5.283   3.075  10.921
14560SOL     OW45120   4.091   3.605  10.882
14560SOL    HW145121   4.011   3.652  10.859
14560SOL    HW245122   4.060   3.522  10.919
14561SOL     OW45123   5.387   2.740  10.563
14561SOL    HW145124   5.376   2.655  10.521
14561SOL    HW245125   5.375   2.803  10.492
14562SOL     OW45126   4.938   2.170   9.777
14562SOL    HW145127   5.004   2.100   9.769
14562SOL    HW245128   4.970   2.225   9.848
14563SOL     OW45129   4.314   2.591  10.000
14563SOL    HW145130   4.354   2.676   9.981
14563SOL    HW245131   4.252   2.577   9.928
14564SOL     OW45132   5.475   2.225  10.964
14564SOL    HW145133   5.464   2.241  10.870
14564SOL    HW245134   5.401   2.171  10.989
14565SOL     OW45135   5.486   2.793  10.812
14565SOL    HW145136   5.458   2.884  10.824
14565SOL    HW245137   5.461   2.772  10.723
14566SOL     OW45138   4.404   3.653  10.246
14566SOL    HW145139   4.352   3.734  10.245
14566SOL    HW245140   4.446   3.650  10.160
14567SOL     OW45141   4.585   2.829  10.178
14567SOL    HW145142   4.637   2.756  10.212
14567SOL    HW245143   4.551   2.873  10.256
14568SOL     OW45144   4.787   2.847   9.400
14568SOL    HW145145   4.764   2.906   9.328
14568SOL    HW245146   4.865   2.801   9.369
14569SOL     OW45147   5.565   3.428  10.157
14569SOL    HW145148   5.496   3.423  10.091
14569SOL    HW245149   5.555   3.348  10.208
14570SOL     OW45150   3.941   3.151  11.153
14570SOL    HW145151   3.903   3.074  11.110
14570SOL    HW245152   3.888   3.163  11.232
14571SOL     OW45153   4.411   3.277  10.939
14571SOL    HW145154   4.335   3.232  10.977
14571SOL    HW245155   4.412   3.362  10.981
14572SOL     OW45156   5.544   2.039  10.544
14572SOL    HW145157   5.540   1.945  10.558
14572SOL    HW245158   5.550   2.050  10.449
14573SOL     OW45159   4.166   2.283   9.850
14573SOL    HW145160   4.184   2.223   9.778
14573SOL    HW245161   4.102   2.236   9.904
14574SOL     OW45162   5.405   3.343  10.405
14574SOL    HW145163   5.334   3.326  10.344
14574SOL    HW245164   5.399   3.274  10.471
14575SOL     OW45165   4.052   2.429  10.590
14575SOL    HW145166   4.106   2.364  10.636
14575SOL    HW245167   4.063   2.407  10.498
14576SOL     OW45168   4.546   3.478   9.964
14576SOL    HW145169   4.547   3.564   9.924
14576SOL    HW245170   4.475   3.431   9.920
14577SOL     OW45171   5.151   2.090  10.428
14577SOL    HW145172   5.162   2.005  10.469
14577SOL    HW245173   5.101   2.141  10.493
14578SOL     OW45174   4.739   1.874  10.424
14578SOL    HW145175   4.699   1.817  10.358
14578SOL    HW245176   4.826   1.836  10.438
14579SOL     OW45177   4.522   3.171   9.677
14579SOL    HW145178   4.466   3.094   9.673
14579SOL    HW245179   4.610   3.138   9.659
14580SOL     OW45180   4.350   3.422  10.595
14580SOL    HW145181   4.349   3.501  10.650
14580SOL    HW245182   4.434   3.425  10.550
14581SOL     OW45183   5.070   1.899   9.477
14581SOL    HW145184   5.050   1.944   9.395
14581SOL    HW245185   4.995   1.841   9.492
14582SOL     OW45186   5.028   2.325   9.986
14582SOL    HW145187   4.976   2.405   9.982
14582SOL    HW245188   5.020   2.296  10.077
14583SOL     OW45189   5.306   2.055  10.199
14583SOL    HW145190   5.251   2.082  10.273
14583SOL    HW245191   5.304   2.130  10.139
14584SOL     OW45192   3.939   2.496  11.313
14584SOL    HW145193   3.850   2.482  11.346
14584SOL    HW245194   3.935   2.472  11.221
14585SOL     OW45195   3.951   2.148  12.162
14585SOL    HW145196   3.980   2.113  12.246
14585SOL    HW245197   3.860   2.118  12.154
14586SOL     OW45198   3.718   2.249  11.812
14586SOL    HW145199   3.638   2.276  11.856
14586SOL    HW245200   3.692   2.173  11.759
14587SOL     OW45201   4.268   3.107  12.341
14587SOL    HW145202   4.194   3.156  12.305
14587SOL    HW245203   4.290   3.151  12.423
14588SOL     OW45204   5.283   3.341  11.873
14588SOL    HW145205   5.239   3.349  11.958
14588SOL    HW245206   5.221   3.376  11.810
14589SOL     OW45207   4.863   2.555  11.862
14589SOL    HW145208   4.907   2.639  11.850
14589SOL    HW245209   4.813   2.565  11.943
14590SOL     OW45210   5.528   2.450  11.392
14590SOL    HW145211   5.492   2.449  11.303
14590SOL    HW245212   5.477   2.383  11.439
14591SOL     OW45213   4.463   2.984  12.197
14591SOL    HW145214   4.399   3.010  12.263
14591SOL    HW245215   4.497   3.066  12.162
14592SOL     OW45216   4.407   2.854  11.814
14592SOL    HW145217   4.476   2.848  11.881
14592SOL    HW245218   4.341   2.912  11.852
14593SOL     OW45219   4.063   3.275  12.235
14593SOL    HW145220   3.986   3.240  12.192
14593SOL    HW245221   4.107   3.327  12.167
14594SOL     OW45222   5.315   2.300  11.922
14594SOL    HW145223   5.241   2.309  11.863
14594SOL    HW245224   5.302   2.369  11.987
14595SOL     OW45225   3.942   3.587  11.637
14595SOL    HW145226   3.968   3.660  11.694
14595SOL    HW245227   4.016   3.575  11.578
14596SOL     OW45228   3.958   3.312  11.710
14596SOL    HW145229   3.933   3.405  11.717
14596SOL    HW245230   3.904   3.268  11.775
14597SOL     OW45231   3.991   2.952  12.061
14597SOL    HW145232   4.001   2.862  12.091
14597SOL    HW245233   3.945   2.997  12.132
14598SOL     OW45234   4.296   2.848  11.318
14598SOL    HW145235   4.345   2.892  11.249
14598SOL    HW245236   4.336   2.879  11.399
14599SOL     OW45237   3.843   2.522  11.736
14599SOL    HW145238   3.814   2.434  11.758
14599SOL    HW245239   3.836   2.571  11.818
14600SOL     OW45240   5.549   3.612  11.514
14600SOL    HW145241   5.558   3.609  11.610
14600SOL    HW245242   5.575   3.701  11.491
14601SOL     OW45243   3.774   3.449  11.288
14601SOL    HW145244   3.754   3.357  11.305
14601SOL    HW245245   3.743   3.495  11.367
14602SOL     OW45246   5.407   2.774  11.807
14602SOL    HW145247   5.493   2.739  11.784
14602SOL    HW245248   5.385   2.832  11.735
14603SOL     OW45249   5.377   2.964  11.598
14603SOL    HW145250   5.465   2.966  11.559
14603SOL    HW245251   5.383   3.022  11.673
14604SOL     OW45252   3.904   2.603   0.220
14604SOL    HW145253   3.893   2.585   0.314
14604SOL    HW245254   3.825   2.652   0.196
14605SOL     OW45255   4.340   3.259  11.895
14605SOL    HW145256   4.296   3.175  11.905
14605SOL    HW245257   4.323   3.285  11.804
14606SOL     OW45258   4.549   1.863  11.700
14606SOL    HW145259   4.590   1.942  11.665
14606SOL    HW245260   4.455   1.881  11.697
14607SOL     OW45261   3.916   2.849  12.405
14607SOL    HW145262   3.994   2.794  12.412
14607SOL    HW245263   3.849   2.800  12.454
14608SOL     OW45264   5.262   2.863  11.369
14608SOL    HW145265   5.192   2.805  11.401
14608SOL    HW245266   5.301   2.898  11.449
14609SOL     OW45267   5.199   3.269  12.139
14609SOL    HW145268   5.126   3.287  12.197
14609SOL    HW245269   5.181   3.183  12.102
14610SOL     OW45270   4.320   2.577  11.448
14610SOL    HW145271   4.316   2.661  11.402
14610SOL    HW245272   4.252   2.583  11.515
14611SOL     OW45273   5.016   2.230  12.104
14611SOL    HW145274   4.924   2.204  12.110
14611SOL    HW245275   5.060   2.178  12.171
14612SOL     OW45276   5.278   3.544  11.476
14612SOL    HW145277   5.372   3.564  11.485
14612SOL    HW245278   5.267   3.522  11.383
14613SOL     OW45279   4.654   2.161  12.404
14613SOL    HW145280   4.689   2.236  12.451
14613SOL    HW245281   4.605   2.199  12.331
14614SOL     OW45282   4.780   2.560  11.592
14614SOL    HW145283   4.798   2.554  11.686
14614SOL    HW245284   4.695   2.517  11.581
14615SOL     OW45285   3.814   2.690  11.954
14615SOL    HW145286   3.897   2.682  12.001
14615SOL    HW245287   3.771   2.766  11.994
14616SOL     OW45288   4.621   2.210  11.367
14616SOL    HW145289   4.666   2.272  11.310
14616SOL    HW245290   4.579   2.148  11.307
14617SOL     OW45291   5.106   3.004  11.706
14617SOL    HW145292   5.186   2.999  11.654
14617SOL    HW245293   5.052   3.070  11.661
14618SOL     OW45294   4.275   2.033  12.062
14618SOL    HW145295   4.279   2.073  12.149
14618SOL    HW245296   4.269   2.107  12.002
14619SOL     OW45297   4.722   3.306  11.638
14619SOL    HW145298   4.694   3.383  11.589
14619SOL    HW245299   4.702   3.326  11.729
14620SOL     OW45300   4.080   3.677  12.037
14620SOL    HW145301   4.123   3.592  12.047
14620SOL    HW245302   4.148   3.741  12.061
14621SOL     OW45303   5.524   2.906  12.040
14621SOL    HW145304   5.464   2.904  11.966
14621SOL    HW245305   5.467   2.917  12.117
14622SOL     OW45306   4.029   2.821  11.428
14622SOL    HW145307   4.113   2.840  11.386
14622SOL    HW245308   4.004   2.735  11.394
14623SOL     OW45309   5.203   2.608  11.880
14623SOL    HW145310   5.200   2.574  11.969
14623SOL    HW245311   5.280   2.666  11.878
14624SOL     OW45312   4.847   3.645  11.393
14624SOL    HW145313   4.773   3.604  11.439
14624SOL    HW245314   4.874   3.579  11.329
14625SOL     OW45315   5.359   3.243  11.254
14625SOL    HW145316   5.317   3.328  11.246
14625SOL    HW245317   5.289   3.180  11.239
14626SOL     OW45318   4.183   3.607  11.481
14626SOL    HW145319   4.234   3.651  11.550
14626SOL    HW245320   4.248   3.560  11.429
14627SOL     OW45321   5.119   1.959  11.625
14627SOL    HW145322   5.111   1.940  11.532
14627SOL    HW245323   5.213   1.976  11.638
14628SOL     OW45324   3.950   3.649  12.398
14628SOL    HW145325   3.981   3.573  12.447
14628SOL    HW245326   3.919   3.613  12.315
14629SOL     OW45327   4.665   3.557  12.072
14629SOL    HW145328   4.743   3.506  12.094
14629SOL    HW245329   4.623   3.507  12.002
14630SOL     OW45330   4.122   2.554  11.645
14630SOL    HW145331   4.138   2.461  11.659
14630SOL    HW245332   4.029   2.565  11.660
14631SOL     OW45333   4.334   1.955  11.296
14631SOL    HW145334   4.395   2.010  11.246
14631SOL    HW245335   4.284   1.909  11.229
14632SOL     OW45336   4.532   3.229  12.103
14632SOL    HW145337   4.623   3.232  12.071
14632SOL    HW245338   4.479   3.244  12.026
14633SOL     OW45339   4.659   2.377  12.065
14633SOL    HW145340   4.631   2.365  11.975
14633SOL    HW245341   4.695   2.292  12.091
14634SOL     OW45342   4.284   1.922  11.674
14634SOL    HW145343   4.201   1.920  11.722
14634SOL    HW245344   4.277   1.998  11.617
14635SOL     OW45345   5.153   3.064  11.209
14635SOL    HW145346   5.181   2.989  11.261
14635SOL    HW245347   5.068   3.088  11.244
14636SOL     OW45348   4.012   1.908  11.355
14636SOL    HW145349   4.065   1.974  11.309
14636SOL    HW245350   4.076   1.852  11.398
14637SOL     OW45351   4.671   2.103  11.623
14637SOL    HW145352   4.643   2.136  11.537
14637SOL    HW245353   4.764   2.125  11.628
14638SOL     OW45354   4.938   3.438  11.968
14638SOL    HW145355   4.956   3.499  11.896
14638SOL    HW245356   4.981   3.477  12.044
14639SOL     OW45357   4.196   3.021  11.890
14639SOL    HW145358   4.133   2.998  11.959
14639SOL    HW245359   4.148   3.008  11.808
14640SOL     OW45360   4.982   3.654  11.785
14640SOL    HW145361   5.030   3.719  11.734
14640SOL    HW245362   4.912   3.704  11.827
14641SOL     OW45363   4.756   2.390  11.198
14641SOL    HW145364   4.711   2.471  11.176
14641SOL    HW245365   4.815   2.413  11.269
14642SOL     OW45366   4.287   2.075  12.337
14642SOL    HW145367   4.308   1.982  12.348
14642SOL    HW245368   4.195   2.081  12.363
14643SOL     OW45369   4.591   2.315  11.806
14643SOL    HW145370   4.548   2.374  11.744
14643SOL    HW245371   4.612   2.237  11.754
14644SOL     OW45372   4.751   1.912  11.916
14644SOL    HW145373   4.691   1.926  11.843
14644SOL    HW245374   4.710   1.844  11.969
14645SOL     OW45375   5.164   3.016  12.029
14645SOL    HW145376   5.092   2.954  12.022
14645SOL    HW245377   5.189   3.035  11.938
14646SOL     OW45378   5.181   2.468  12.122
14646SOL    HW145379   5.120   2.395  12.132
14646SOL    HW245380   5.240   2.460  12.198
14647SOL     OW45381   5.580   2.668  11.552
14647SOL    HW145382   5.634   2.619  11.616
14647SOL    HW245383   5.553   2.602  11.488
14648SOL     OW45384   4.213   3.287  11.324
14648SOL    HW145385   4.137   3.255  11.372
14648SOL    HW245386   4.216   3.234  11.245
14649SOL     OW45387   5.404   3.106  11.820
14649SOL    HW145388   5.497   3.117  11.836
14649SOL    HW245389   5.366   3.192  11.840
14650SOL     OW45390   5.115   2.434  11.243
14650SOL    HW145391   5.051   2.414  11.311
14650SOL    HW245392   5.200   2.413  11.283
14651SOL     OW45393   4.245   2.121  11.494
14651SOL    HW145394   4.282   2.066  11.425
14651SOL    HW245395   4.218   2.201  11.449
14652SOL     OW45396   4.831   3.092  12.291
14652SOL    HW145397   4.747   3.105  12.335
14652SOL    HW245398   4.816   3.123  12.201
14653SOL     OW45399   5.336   2.954  12.245
14653SOL    HW145400   5.302   2.997  12.324
14653SOL    HW245401   5.272   2.975  12.177
14654SOL     OW45402   4.437   2.927  11.544
14654SOL    HW145403   4.421   2.901  11.635
14654SOL    HW245404   4.514   2.876  11.518
14655SOL     OW45405   4.159   2.676  12.458
14655SOL    HW145406   4.200   2.730  12.525
14655SOL    HW245407   4.213   2.597  12.455
14656SOL     OW45408   4.996   2.260  12.421
14656SOL    HW145409   5.057   2.318  12.468
14656SOL    HW245410   4.911   2.302  12.432
14657SOL     OW45411   4.046   2.988  11.660
14657SOL    HW145412   4.047   3.059  11.595
14657SOL    HW245413   4.047   2.908  11.607
14658SOL     OW45414   4.267   2.385  12.035
14658SOL    HW145415   4.280   2.443  11.960
14658SOL    HW245416   4.332   2.414  12.099
14659SOL     OW45417   4.973   3.215  11.564
14659SOL    HW145418   5.027   3.287  11.596
14659SOL    HW245419   4.885   3.235  11.596
14660SOL     OW45420   5.006   3.305  12.325
14660SOL    HW145421   5.057   3.305  12.406
14660SOL    HW245422   4.949   3.228  12.332
14661SOL     OW45423   5.298   2.485  11.648
14661SOL    HW145424   5.251   2.515  11.726
14661SOL    HW245425   5.315   2.564  11.598
14662SOL     OW45426   4.091   3.415  12.465
14662SOL    HW145427   4.069   3.359  12.391
14662SOL    HW245428   4.177   3.451  12.443
14663SOL     OW45429   4.311   2.739  12.211
14663SOL    HW145430   4.357   2.823  12.201
14663SOL    HW245431   4.257   2.750  12.289
14664SOL     OW45432   5.040   2.711  12.158
14664SOL    HW145433   4.949   2.685  12.140
14664SOL    HW245434   5.090   2.629  12.151
14665SOL     OW45435   4.926   2.387  11.434
14665SOL    HW145436   4.928   2.309  11.489
14665SOL    HW245437   4.882   2.453  11.488
14666SOL     OW45438   4.025   2.045  12.409
14666SOL    HW145439   4.000   2.076  12.496
14666SOL    HW245440   4.016   1.950  12.414
14667SOL     OW45441   3.773   3.193  12.428
14667SOL    HW145442   3.817   3.119  12.471
14667SOL    HW245443   3.780   3.265  12.491
14668SOL     OW45444   4.445   2.491  12.219
14668SOL    HW145445   4.521   2.480  12.162
14668SOL    HW245446   4.415   2.581  12.202
14669SOL     OW45447   4.035   1.918  11.792
14669SOL    HW145448   4.009   2.009  11.810
14669SOL    HW245449   4.039   1.877  11.878
14670SOL     OW45450   5.353   2.248  11.527
14670SOL    HW145451   5.379   2.185  11.594
14670SOL    HW245452   5.325   2.325  11.576
14671SOL     OW45453   4.767   2.621  12.135
14671SOL    HW145454   4.745   2.643  12.226
14671SOL    HW245455   4.736   2.531  12.123
14672SOL     OW45456   5.258   2.125  11.298
14672SOL    HW145457   5.191   2.065  11.330
14672SOL    HW245458   5.290   2.170  11.376
14673SOL     OW45459   5.008   2.688  11.201
14673SOL    HW145460   5.044   2.599  11.204
14673SOL    HW245461   5.039   2.723  11.118
14674SOL     OW45462   4.796   3.206  12.034
14674SOL    HW145463   4.804   3.133  11.972
14674SOL    HW245464   4.853   3.274  11.999
14675SOL     OW45465   4.043   2.679  12.110
14675SOL    HW145466   4.137   2.693  12.115
14675SOL    HW245467   4.031   2.588  12.138
14676SOL     OW45468   4.030   2.406  12.163
14676SOL    HW145469   4.001   2.315  12.167
14676SOL    HW245470   4.114   2.403  12.117
14677SOL     OW45471   4.909   2.090   0.135
14677SOL    HW145472   4.879   2.145   0.207
14677SOL    HW245473   4.921   2.150   0.062
14678SOL     OW45474   3.740   3.173  11.358
14678SOL    HW145475   3.651   3.193  11.329
14678SOL    HW245476   3.734   3.086  11.397
14679SOL     OW45477   3.818   3.641  12.116
14679SOL    HW145478   3.788   3.563  12.070
14679SOL    HW245479   3.906   3.656  12.083
14680SOL     OW45480   4.219   3.440  12.072
14680SOL    HW145481   4.289   3.500  12.097
14680SOL    HW245482   4.262   3.376  12.014
14681SOL     OW45483   4.671   2.665  12.390
14681SOL    HW145484   4.729   2.615  12.446
14681SOL    HW245485   4.586   2.621  12.396
14682SOL     OW45486   3.780   2.418  12.290
14682SOL    HW145487   3.850   2.426  12.225
14682SOL    HW245488   3.825   2.413  12.374
14683SOL     OW45489   4.542   2.432  11.542
14683SOL    HW145490   4.547   2.358  11.481
14683SOL    HW245491   4.467   2.483  11.511
14684SOL     OW45492   5.371   2.447  12.315
14684SOL    HW145493   5.360   2.402  12.398
14684SOL    HW245494   5.461   2.427  12.289
14685SOL     OW45495   4.351   2.336  12.425
14685SOL    HW145496   4.339   2.251  12.384
14685SOL    HW245497   4.392   2.390  12.357
14686SOL     OW45498   4.616   3.513   0.045
14686SOL    HW145499   4.618   3.582  -0.023
14686SOL    HW245500   4.675   3.545   0.113
14687SOL     OW45501   4.171   2.349  11.368
14687SOL    HW145502   4.238   2.417  11.374
14687SOL    HW245503   4.089   2.397  11.356
14688SOL     OW45504   5.022   2.891  12.360
14688SOL    HW145505   5.035   2.836  12.283
14688SOL    HW245506   4.967   2.964  12.330
14689SOL     OW45507   5.055   2.713  11.473
14689SOL    HW145508   4.980   2.693  11.530
14689SOL    HW245509   5.021   2.704  11.384
14690SOL     OW45510   5.453   3.602  12.273
14690SOL    HW145511   5.527   3.625  12.217
14690SOL    HW245512   5.451   3.507  12.272
14691SOL     OW45513   4.960   3.565  12.238
14691SOL    HW145514   5.045   3.605  12.217
14691SOL    HW245515   4.983   3.478  12.273
14692SOL     OW45516   3.804   3.154  12.161
14692SOL    HW145517   3.791   3.163  12.255
14692SOL    HW245518   3.751   3.078  12.136
14693SOL     OW45519   5.455   2.027  11.680
14693SOL    HW145520   5.520   2.012  11.611
14693SOL    HW245521   5.437   1.940  11.715
14694SOL     OW45522   5.111   3.435  11.664
14694SOL    HW145523   5.171   3.472  11.599
14694SOL    HW245524   5.063   3.511  11.697
14695SOL     OW45525   5.000   2.789  11.831
14695SOL    HW145526   5.074   2.730  11.844
14695SOL    HW245527   5.036   2.862  11.780
14696SOL     OW45528   4.391   3.493  11.329
14696SOL    HW145529   4.407   3.507  11.236
14696SOL    HW245530   4.338   3.414  11.333
14697SOL     OW45531   5.461   3.689   0.034
14697SOL    HW145532   5.444   3.648  -0.050
14697SOL    HW245533   5.374   3.709   0.070
14698SOL     OW45534   5.571   2.034  12.138
14698SOL    HW145535   5.594   1.945  12.113
14698SOL    HW245536   5.482   2.045  12.105
14699SOL     OW45537   3.976   2.169  11.881
14699SOL    HW145538   3.890   2.206  11.859
14699SOL    HW245539   3.979   2.171  11.977
14700SOL     OW45540   4.934   3.458  11.208
14700SOL    HW145541   4.922   3.367  11.238
14700SOL    HW245542   4.865   3.470  11.143
14701SOL     OW45543   4.521   2.884   0.001
14701SOL    HW145544   4.581   2.822  -0.040
14701SOL    HW245545   4.578   2.945   0.047
14702SOL     OW45546   4.652   2.785  11.465
14702SOL    HW145547   4.712   2.820  11.399
14702SOL    HW245548   4.698   2.711  11.503
14703SOL     OW45549   5.214   3.487  11.211
14703SOL    HW145550   5.119   3.479  11.199
14703SOL    HW245551   5.249   3.495  11.122
14704SOL     OW45552   4.796   2.976  11.889
14704SOL    HW145553   4.721   2.926  11.921
14704SOL    HW245554   4.858   2.909  11.859
14705SOL     OW45555   4.763   2.117  12.120
14705SOL    HW145556   4.760   2.051  12.050
14705SOL    HW245557   4.744   2.068  12.200
14706SOL     OW45558   4.328   3.351  11.638
14706SOL    HW145559   4.385   3.301  11.580
14706SOL    HW245560   4.246   3.358  11.590
14707SOL     OW45561   5.445   2.282   0.023
14707SOL    HW145562   5.493   2.315   0.099
14707SOL    HW245563   5.487   2.198   0.002
14708SOL     OW45564   3.995   3.202  11.472
14708SOL    HW145565   3.906   3.196  11.437
14708SOL    HW245566   3.986   3.246  11.556
14709SOL     OW45567   3.811   2.193  11.196
14709SOL    HW145568   3.730   2.175  11.148
14709SOL    HW245569   3.847   2.271  11.154
14710SOL     OW45570   3.781   2.015  11.460
14710SOL    HW145571   3.770   2.092  11.404
14710SOL    HW245572   3.867   1.981  11.437
14711SOL     OW45573   4.907   3.190  11.293
14711SOL    HW145574   4.828   3.136  11.295
14711SOL    HW245575   4.934   3.197  11.384
14712SOL     OW45576   5.207   3.648  12.148
14712SOL    HW145577   5.229   3.722  12.092
14712SOL    HW245578   5.287   3.631  12.197
14713SOL     OW45579   5.439   2.726  12.384
14713SOL    HW145580   5.387   2.651  12.356
14713SOL    HW245581   5.402   2.801  12.336
14714SOL     OW45582   4.940   2.178  11.631
14714SOL    HW145583   4.998   2.103  11.630
14714SOL    HW245584   4.970   2.231  11.705
14715SOL     OW45585   4.308   2.591  11.851
14715SOL    HW145586   4.348   2.676  11.836
14715SOL    HW245587   4.245   2.581  11.780
14716SOL     OW45588   5.529   2.730   0.140
14716SOL    HW145589   5.508   2.815   0.178
14716SOL    HW245590   5.489   2.732   0.054
14717SOL     OW45591   4.577   3.227  11.218
14717SOL    HW145592   4.552   3.246  11.309
14717SOL    HW245593   4.601   3.312  11.181
14718SOL     OW45594   4.388   3.654  12.116
14718SOL    HW145595   4.377   3.743  12.085
14718SOL    HW245596   4.482   3.639  12.114
14719SOL     OW45597   4.601   2.829  12.017
14719SOL    HW145598   4.652   2.761  12.061
14719SOL    HW245599   4.557   2.876  12.088
14720SOL     OW45600   4.823   2.882  11.272
14720SOL    HW145601   4.783   2.914  11.191
14720SOL    HW245602   4.881   2.811  11.243
14721SOL     OW45603   5.594   3.409  12.046
14721SOL    HW145604   5.542   3.432  11.969
14721SOL    HW245605   5.532   3.363  12.103
14722SOL     OW45606   3.826   3.088  11.836
14722SOL    HW145607   3.846   3.048  11.921
14722SOL    HW245608   3.888   3.048  11.775
14723SOL     OW45609   5.569   2.042  12.416
14723SOL    HW145610   5.536   1.952  12.415
14723SOL    HW245611   5.568   2.068  12.324
14724SOL     OW45612   4.154   2.294  11.702
14724SOL    HW145613   4.183   2.227  11.640
14724SOL    HW245614   4.099   2.246  11.765
14725SOL     OW45615   5.432   3.333  12.266
14725SOL    HW145616   5.347   3.310  12.228
14725SOL    HW245617   5.427   3.303  12.356
14726SOL     OW45618   4.552   3.443  11.850
14726SOL    HW145619   4.526   3.502  11.779
14726SOL    HW245620   4.480   3.380  11.857
14727SOL     OW45621   5.170   2.096  12.305
14727SOL    HW145622   5.231   2.074  12.376
14727SOL    HW245623   5.101   2.147  12.347
14728SOL     OW45624   4.725   1.829  12.302
14728SOL    HW145625   4.688   1.785  12.225
14728SOL    HW245626   4.819   1.813  12.296
14729SOL     OW45627   4.504   3.196  11.494
14729SOL    HW145628   4.478   3.104  11.504
14729SOL    HW245629   4.585   3.203  11.545
14730SOL     OW45630   5.085   1.913  11.355
14730SOL    HW145631   5.117   1.848  11.292
14730SOL    HW245632   4.997   1.883  11.376
14731SOL     OW45633   5.030   2.324  11.846
14731SOL    HW145634   4.978   2.405  11.846
14731SOL    HW245635   5.022   2.290  11.935
14732SOL     OW45636   5.308   2.054  12.067
14732SOL    HW145637   5.254   2.077  12.142
14732SOL    HW245638   5.302   2.129  12.008
14733SOL     OW45639   3.765   2.922  11.481
14733SOL    HW145640   3.858   2.911  11.460
14733SOL    HW245641   3.735   2.833  11.503
14734SOL     OW45642   4.615   3.527  11.509
14734SOL    HW145643   4.538   3.511  11.454
14734SOL    HW245644   4.589   3.598  11.567
14735SOL     OW45645   3.902   4.294   0.025
14735SOL    HW145646   3.891   4.341   0.107
14735SOL    HW245647   3.976   4.337  -0.017
14736SOL     OW45648   3.965   3.998   1.005
14736SOL    HW145649   3.989   3.963   1.090
14736SOL    HW245650   3.876   3.966   0.990
14737SOL     OW45651   3.724   4.099   0.644
14737SOL    HW145652   3.645   4.111   0.696
14737SOL    HW245653   3.705   4.023   0.588
14738SOL     OW45654   4.297   5.025   1.194
14738SOL    HW145655   4.215   5.030   1.145
14738SOL    HW245656   4.315   5.116   1.220
14739SOL     OW45657   5.284   5.230   0.714
14739SOL    HW145658   5.234   5.212   0.793
14739SOL    HW245659   5.218   5.239   0.645
14740SOL     OW45660   4.858   4.426   0.698
14740SOL    HW145661   4.905   4.509   0.686
14740SOL    HW245662   4.809   4.438   0.780
14741SOL     OW45663   5.440   4.335   0.272
14741SOL    HW145664   5.452   4.336   0.177
14741SOL    HW245665   5.425   4.243   0.294
14742SOL     OW45666   4.476   4.862   1.062
14742SOL    HW145667   4.411   4.900   1.121
14742SOL    HW245668   4.508   4.935   1.010
14743SOL     OW45669   4.596   4.474   1.831
14743SOL    HW145670   4.592   4.534   1.905
14743SOL    HW245671   4.622   4.529   1.757
14744SOL     OW45672   4.403   4.702   0.659
14744SOL    HW145673   4.472   4.704   0.725
14744SOL    HW245674   4.339   4.767   0.689
14745SOL     OW45675   4.441   4.872   1.818
14745SOL    HW145676   4.484   4.949   1.854
14745SOL    HW245677   4.360   4.905   1.779
14746SOL     OW45678   4.062   5.132   1.065
14746SOL    HW145679   3.986   5.096   1.020
14746SOL    HW245680   4.104   5.189   1.000
14747SOL     OW45681   5.153   5.240   1.332
14747SOL    HW145682   5.222   5.306   1.334
14747SOL    HW245683   5.100   5.259   1.410
14748SOL     OW45684   4.182   4.095   1.459
14748SOL    HW145685   4.243   4.104   1.531
14748SOL    HW245686   4.099   4.072   1.500
14749SOL     OW45687   5.331   4.166   0.750
14749SOL    HW145688   5.295   4.203   0.669
14749SOL    HW245689   5.311   4.231   0.817
14750SOL     OW45690   3.939   5.443   0.472
14750SOL    HW145691   3.964   5.515   0.529
14750SOL    HW245692   4.014   5.431   0.413
14751SOL     OW45693   4.859   5.065   1.685
14751SOL    HW145694   4.906   5.066   1.768
14751SOL    HW245695   4.804   4.986   1.689
14752SOL     OW45696   3.933   5.177   0.547
14752SOL    HW145697   3.930   5.271   0.531
14752SOL    HW245698   3.886   5.165   0.629
14753SOL     OW45699   3.983   4.813   0.875
14753SOL    HW145700   3.991   4.725   0.913
14753SOL    HW245701   3.936   4.863   0.942
14754SOL     OW45702   4.345   5.494   1.448
14754SOL    HW145703   4.256   5.500   1.484
14754SOL    HW245704   4.354   5.572   1.393
14755SOL     OW45705   5.322   3.854   1.464
14755SOL    HW145706   5.342   3.937   1.421
14755SOL    HW245707   5.292   3.878   1.552
14756SOL     OW45708   3.833   4.366   0.574
14756SOL    HW145709   3.809   4.276   0.597
14756SOL    HW245710   3.824   4.415   0.656
14757SOL     OW45711   5.575   5.475   0.306
14757SOL    HW145712   5.643   5.450   0.368
14757SOL    HW245713   5.587   5.570   0.296
14758SOL     OW45714   3.792   5.267   0.186
14758SOL    HW145715   3.717   5.229   0.140
14758SOL    HW245716   3.758   5.349   0.222
14759SOL     OW45717   5.418   4.656   0.653
14759SOL    HW145718   5.477   4.605   0.598
14759SOL    HW245719   5.375   4.717   0.593
14760SOL     OW45720   5.354   4.835   0.444
14760SOL    HW145721   5.439   4.831   0.400
14760SOL    HW245722   5.366   4.899   0.514
14761SOL     OW45723   3.880   4.474   1.570
14761SOL    HW145724   3.976   4.474   1.579
14761SOL    HW245725   3.852   4.551   1.620
14762SOL     OW45726   4.339   5.116   0.735
14762SOL    HW145727   4.296   5.031   0.742
14762SOL    HW245728   4.327   5.142   0.644
14763SOL     OW45729   5.040   4.947   1.421
14763SOL    HW145730   5.056   4.864   1.374
14763SOL    HW245731   5.089   4.938   1.502
14764SOL     OW45732   4.552   3.750   0.529
14764SOL    HW145733   4.588   3.834   0.500
14764SOL    HW245734   4.457   3.763   0.528
14765SOL     OW45735   3.908   4.686   1.271
14765SOL    HW145736   3.998   4.651   1.268
14765SOL    HW245737   3.858   4.627   1.216
14766SOL     OW45738   5.224   4.728   0.226
14766SOL    HW145739   5.158   4.668   0.261
14766SOL    HW245740   5.272   4.758   0.303
14767SOL     OW45741   4.917   5.565   1.637
14767SOL    HW145742   4.910   5.626   1.564
14767SOL    HW245743   4.934   5.480   1.596
14768SOL     OW45744   4.043   4.040   1.787
14768SOL    HW145745   4.127   4.007   1.819
14768SOL    HW245746   3.979   4.010   1.852
14769SOL     OW45747   5.158   5.143   0.952
14769SOL    HW145748   5.223   5.146   1.022
14769SOL    HW245749   5.155   5.051   0.926
14770SOL     OW45750   5.392   5.459   0.594
14770SOL    HW145751   5.367   5.437   0.504
14770SOL    HW245752   5.356   5.388   0.647
14771SOL     OW45753   4.317   4.445   0.270
14771SOL    HW145754   4.328   4.516   0.206
14771SOL    HW245755   4.253   4.479   0.333
14772SOL     OW45756   5.005   4.103   0.936
14772SOL    HW145757   4.916   4.068   0.942
14772SOL    HW245758   5.057   4.046   0.992
14773SOL     OW45759   5.317   5.390   0.333
14773SOL    HW145760   5.409   5.418   0.322
14773SOL    HW245761   5.288   5.371   0.244
14774SOL     OW45762   4.521   4.351   1.451
14774SOL    HW145763   4.496   4.321   1.539
14774SOL    HW245764   4.502   4.277   1.394
14775SOL     OW45765   5.125   4.199   1.681
14775SOL    HW145766   5.124   4.241   1.767
14775SOL    HW245767   5.173   4.118   1.695
14776SOL     OW45768   4.675   4.609   1.591
14776SOL    HW145769   4.730   4.541   1.552
14776SOL    HW245770   4.622   4.642   1.519
14777SOL     OW45771   4.728   4.133   1.217
14777SOL    HW145772   4.638   4.146   1.247
14777SOL    HW245773   4.720   4.083   1.136
14778SOL     OW45774   4.775   4.427   0.433
14778SOL    HW145775   4.793   4.420   0.527
14778SOL    HW245776   4.689   4.386   0.421
14779SOL     OW45777   3.805   4.533   0.790
14779SOL    HW145778   3.890   4.532   0.835
14779SOL    HW245779   3.764   4.614   0.819
14780SOL     OW45780   3.847   5.601   1.590
14780SOL    HW145781   3.851   5.575   1.682
14780SOL    HW245782   3.763   5.568   1.560
14781SOL     OW45783   4.594   4.084   0.225
14781SOL    HW145784   4.638   4.146   0.166
14781SOL    HW245785   4.601   4.000   0.180
14782SOL     OW45786   5.439   4.289   1.830
14782SOL    HW145787   5.401   4.363   1.783
14782SOL    HW245788   5.456   4.224   1.762
14783SOL     OW45789   5.096   4.865   0.538
14783SOL    HW145790   5.176   4.853   0.487
14783SOL    HW245791   5.045   4.928   0.488
14784SOL     OW45792   4.264   3.905   0.891
14784SOL    HW145793   4.198   3.958   0.936
14784SOL    HW245794   4.305   3.966   0.830
14785SOL     OW45795   4.723   5.169   0.473
14785SOL    HW145796   4.688   5.244   0.426
14785SOL    HW245797   4.691   5.180   0.563
14786SOL     OW45798   4.070   5.542   0.885
14786SOL    HW145799   4.126   5.464   0.887
14786SOL    HW245800   4.131   5.615   0.895
14787SOL     OW45801   5.536   4.776   0.877
14787SOL    HW145802   5.490   4.750   0.797
14787SOL    HW245803   5.468   4.777   0.944
14788SOL     OW45804   4.934   5.262   1.492
14788SOL    HW145805   4.924   5.203   1.566
14788SOL    HW245806   4.848   5.304   1.483
14789SOL     OW45807   4.048   4.704   0.253
14789SOL    HW145808   4.124   4.721   0.198
14789SOL    HW245809   4.017   4.617   0.226
14790SOL     OW45810   5.204   4.492   0.728
14790SOL    HW145811   5.209   4.440   0.809
14790SOL    HW245812   5.288   4.537   0.724
14791SOL     OW45813   4.204   4.990   1.732
14791SOL    HW145814   4.174   4.992   1.641
14791SOL    HW245815   4.123   4.990   1.783
14792SOL     OW45816   4.810   5.510   0.234
14792SOL    HW145817   4.762   5.462   0.301
14792SOL    HW245818   4.863   5.444   0.190
14793SOL     OW45819   3.920   3.999   1.505
14793SOL    HW145820   3.839   4.037   1.537
14793SOL    HW245821   3.938   3.926   1.565
14794SOL     OW45822   5.373   5.140   0.096
14794SOL    HW145823   5.310   5.199   0.054
14794SOL    HW245824   5.330   5.054   0.095
14795SOL     OW45825   4.177   5.450   0.332
14795SOL    HW145826   4.225   5.510   0.389
14795SOL    HW245827   4.242   5.416   0.272
14796SOL     OW45828   5.119   3.818   0.432
14796SOL    HW145829   5.123   3.795   0.340
14796SOL    HW245830   5.211   3.828   0.459
14797SOL     OW45831   3.975   5.507   1.222
14797SOL    HW145832   4.043   5.453   1.261
14797SOL    HW245833   3.998   5.511   1.129
14798SOL     OW45834   4.677   5.419   0.891
14798SOL    HW145835   4.765   5.381   0.889
14798SOL    HW245836   4.628   5.371   0.824
14799SOL     OW45837   4.088   4.417   0.470
14799SOL    HW145838   4.121   4.328   0.474
14799SOL    HW245839   4.005   4.415   0.517
14800SOL     OW45840   5.244   3.944   1.724
14800SOL    HW145841   5.259   3.964   1.816
14800SOL    HW245842   5.175   3.877   1.725
14801SOL     OW45843   4.349   3.852   0.116
14801SOL    HW145844   4.440   3.825   0.123
14801SOL    HW245845   4.347   3.912   0.041
14802SOL     OW45846   4.502   4.015   1.731
14802SOL    HW145847   4.580   3.959   1.737
14802SOL    HW245848   4.438   3.973   1.788
14803SOL     OW45849   4.602   5.240   1.192
14803SOL    HW145850   4.583   5.210   1.103
14803SOL    HW245851   4.650   5.168   1.232
14804SOL     OW45852   5.066   4.315   1.440
14804SOL    HW145853   5.096   4.281   1.524
14804SOL    HW245854   5.106   4.402   1.434
14805SOL     OW45855   4.545   5.103   0.945
14805SOL    HW145856   4.631   5.101   0.902
14805SOL    HW245857   4.483   5.118   0.874
14806SOL     OW45858   4.651   4.235   0.895
14806SOL    HW145859   4.626   4.226   0.804
14806SOL    HW245860   4.683   4.149   0.921
14807SOL     OW45861   4.279   3.785   0.500
14807SOL    HW145862   4.198   3.782   0.551
14807SOL    HW245863   4.270   3.863   0.445
14808SOL     OW45864   5.194   4.935   0.053
14808SOL    HW145865   5.209   4.858   0.107
14808SOL    HW245866   5.098   4.945   0.052
14809SOL     OW45867   4.036   3.805   0.209
14809SOL    HW145868   4.117   3.857   0.213
14809SOL    HW245869   4.064   3.716   0.231
14810SOL     OW45870   4.673   3.985   0.464
14810SOL    HW145871   4.642   4.020   0.381
14810SOL    HW245872   4.768   3.995   0.460
14811SOL     OW45873   4.810   4.414   1.452
14811SOL    HW145874   4.748   4.344   1.471
14811SOL    HW245875   4.896   4.372   1.452
14812SOL     OW45876   4.933   5.316   0.807
14812SOL    HW145877   4.952   5.379   0.738
14812SOL    HW245878   5.016   5.307   0.855
14813SOL     OW45879   4.198   4.879   0.721
14813SOL    HW145880   4.128   4.857   0.782
14813SOL    HW245881   4.157   4.873   0.635
14814SOL     OW45882   4.980   5.518   0.617
14814SOL    HW145883   5.033   5.579   0.565
14814SOL    HW245884   4.910   5.572   0.653
14815SOL     OW45885   4.737   4.269   0.077
14815SOL    HW145886   4.731   4.352   0.031
14815SOL    HW245887   4.810   4.280   0.138
14816SOL     OW45888   3.804   4.293   1.381
14816SOL    HW145889   3.897   4.277   1.361
14816SOL    HW245890   3.805   4.359   1.450
14817SOL     OW45891   4.584   4.184   0.638
14817SOL    HW145892   4.547   4.240   0.569
14817SOL    HW245893   4.615   4.106   0.591
14818SOL     OW45894   4.741   3.780   0.743
14818SOL    HW145895   4.680   3.775   0.669
14818SOL    HW245896   4.716   3.706   0.799
14819SOL     OW45897   5.169   4.882   0.855
14819SOL    HW145898   5.098   4.823   0.830
14819SOL    HW245899   5.217   4.896   0.774
14820SOL     OW45900   5.193   4.332   0.959
14820SOL    HW145901   5.131   4.260   0.964
14820SOL    HW245902   5.246   4.323   1.039
14821SOL     OW45903   5.550   4.539   0.437
14821SOL    HW145904   5.604   4.471   0.478
14821SOL    HW245905   5.509   4.495   0.363
14822SOL     OW45906   4.208   5.111   0.143
14822SOL    HW145907   4.132   5.097   0.200
14822SOL    HW245908   4.240   5.023   0.123
14823SOL     OW45909   5.395   4.983   0.666
14823SOL    HW145910   5.490   4.987   0.666
14823SOL    HW245911   5.366   5.074   0.675
14824SOL     OW45912   5.104   4.289   0.078
14824SOL    HW145913   5.050   4.287   0.157
14824SOL    HW245914   5.162   4.213   0.086
14825SOL     OW45915   4.246   3.990   0.325
14825SOL    HW145916   4.300   3.945   0.261
14825SOL    HW245917   4.224   4.074   0.284
14826SOL     OW45918   5.468   4.966   1.559
14826SOL    HW145919   5.552   4.923   1.570
14826SOL    HW245920   5.483   5.057   1.585
14827SOL     OW45921   4.759   5.054   1.372
14827SOL    HW145922   4.666   5.037   1.388
14827SOL    HW245923   4.803   5.024   1.451
14828SOL     OW45924   5.324   5.347   1.646
14828SOL    HW145925   5.319   5.382   1.557
14828SOL    HW245926   5.406   5.299   1.649
14829SOL     OW45927   4.869   4.968   1.104
14829SOL    HW145928   4.786   4.927   1.126
14829SOL    HW245929   4.857   5.000   1.014
14830SOL     OW45930   5.342   4.811   1.070
14830SOL    HW145931   5.329   4.873   1.141
14830SOL    HW245932   5.270   4.826   1.009
14831SOL     OW45933   4.659   3.801   1.381
14831SOL    HW145934   4.683   3.788   1.289
14831SOL    HW245935   4.735   3.843   1.420
14832SOL     OW45936   4.704   4.845   1.715
14832SOL    HW145937   4.615   4.857   1.749
14832SOL    HW245938   4.701   4.762   1.668
14833SOL     OW45939   4.453   4.813   0.405
14833SOL    HW145940   4.432   4.770   0.488
14833SOL    HW245941   4.513   4.752   0.362
14834SOL     OW45942   4.145   4.545   1.259
14834SOL    HW145943   4.213   4.555   1.326
14834SOL    HW245944   4.112   4.456   1.271
14835SOL     OW45945   4.993   4.104   1.282
14835SOL    HW145946   5.022   4.181   1.331
14835SOL    HW245947   4.902   4.124   1.258
14836SOL     OW45948   3.812   5.291   1.343
14836SOL    HW145949   3.799   5.374   1.296
14836SOL    HW245950   3.906   5.277   1.343
14837SOL     OW45951   4.054   4.860   0.484
14837SOL    HW145952   4.051   4.937   0.428
14837SOL    HW245953   4.067   4.786   0.424
14838SOL     OW45954   4.259   4.247   0.861
14838SOL    HW145955   4.268   4.304   0.784
14838SOL    HW245956   4.330   4.272   0.919
14839SOL     OW45957   4.972   5.075   0.405
14839SOL    HW145958   5.025   5.148   0.436
14839SOL    HW245959   4.883   5.097   0.431
14840SOL     OW45960   5.288   4.317   0.514
14840SOL    HW145961   5.236   4.387   0.554
14840SOL    HW245962   5.326   4.358   0.435
14841SOL     OW45963   4.076   5.236   1.313
14841SOL    HW145964   4.067   5.198   1.225
14841SOL    HW245965   4.170   5.256   1.320
14842SOL     OW45966   4.154   4.459   1.618
14842SOL    HW145967   4.217   4.498   1.557
14842SOL    HW245968   4.202   4.389   1.662
14843SOL     OW45969   5.345   4.503   1.690
14843SOL    HW145970   5.257   4.541   1.688
14843SOL    HW245971   5.393   4.547   1.620
14844SOL     OW45972   4.725   3.858   1.725
14844SOL    HW145973   4.788   3.930   1.722
14844SOL    HW245974   4.778   3.779   1.717
14845SOL     OW45975   4.175   3.820   1.619
14845SOL    HW145976   4.140   3.731   1.630
14845SOL    HW245977   4.213   3.841   1.704
14846SOL     OW45978   4.308   4.600   1.037
14846SOL    HW145979   4.345   4.688   1.043
14846SOL    HW245980   4.252   4.592   1.114
14847SOL     OW45981   5.060   4.575   1.017
14847SOL    HW145982   4.979   4.558   0.969
14847SOL    HW245983   5.112   4.496   1.003
14848SOL     OW45984   4.927   4.262   0.280
14848SOL    HW145985   4.939   4.181   0.329
14848SOL    HW245986   4.880   4.320   0.340
14849SOL     OW45987   4.036   3.908   1.267
14849SOL    HW145988   3.979   3.941   1.337
14849SOL    HW245989   4.008   3.817   1.254
14850SOL     OW45990   3.719   5.037   1.282
14850SOL    HW145991   3.768   4.979   1.340
14850SOL    HW245992   3.752   5.125   1.302
14851SOL     OW45993   4.438   4.350   1.042
14851SOL    HW145994   4.516   4.337   0.988
14851SOL    HW245995   4.412   4.441   1.026
14852SOL     OW45996   5.466   4.692   1.857
14852SOL    HW145997   5.429   4.615   1.813
14852SOL    HW245998   5.407   4.708   1.930
14853SOL     OW45999   4.034   3.782   0.627
14853SOL    HW146000   4.012   3.872   0.650
14853SOL    HW246001   4.045   3.738   0.712
14854SOL     OW46002   5.355   4.088   0.376
14854SOL    HW146003   5.387   4.018   0.433
14854SOL    HW246004   5.320   4.154   0.436
14855SOL     OW46005   4.751   4.482   0.960
14855SOL    HW146006   4.741   4.496   1.054
14855SOL    HW246007   4.725   4.391   0.947
14856SOL     OW46008   4.717   5.299   1.730
14856SOL    HW146009   4.685   5.337   1.648
14856SOL    HW246010   4.737   5.208   1.708
14857SOL     OW46011   5.569   5.223   1.601
14857SOL    HW146012   5.598   5.250   1.513
14857SOL    HW246013   5.647   5.234   1.655
14858SOL     OW46014   4.075   4.665   1.789
14858SOL    HW146015   4.139   4.679   1.859
14858SOL    HW246016   4.109   4.592   1.739
14859SOL     OW46017   5.220   4.052   0.139
14859SOL    HW146018   5.207   3.958   0.128
14859SOL    HW246019   5.272   4.061   0.218
14860SOL     OW46020   4.986   4.537   0.038
14860SOL    HW146021   5.041   4.458   0.038
14860SOL    HW246022   5.036   4.601  -0.012
14861SOL     OW46023   4.804   5.072   0.861
14861SOL    HW146024   4.805   5.000   0.797
14861SOL    HW246025   4.853   5.142   0.818
14862SOL     OW46026   4.036   4.538   0.944
14862SOL    HW146027   4.130   4.556   0.937
14862SOL    HW246028   4.031   4.448   0.977
14863SOL     OW46029   4.039   4.256   1.013
14863SOL    HW146030   4.008   4.166   1.006
14863SOL    HW246031   4.116   4.260   0.956
14864SOL     OW46032   4.866   4.099   1.675
14864SOL    HW146033   4.816   4.146   1.741
14864SOL    HW246034   4.953   4.138   1.677
14865SOL     OW46035   4.891   3.920   1.463
14865SOL    HW146036   4.876   3.978   1.537
14865SOL    HW246037   4.935   3.975   1.398
14866SOL     OW46038   3.803   5.507   0.933
14866SOL    HW146039   3.781   5.427   0.885
14866SOL    HW246040   3.896   5.521   0.913
14867SOL     OW46041   4.214   5.300   0.904
14867SOL    HW146042   4.283   5.361   0.931
14867SOL    HW246043   4.257   5.240   0.843
14868SOL     OW46044   4.688   4.514   1.226
14868SOL    HW146045   4.752   4.493   1.295
14868SOL    HW246046   4.607   4.472   1.254
14869SOL     OW46047   3.766   4.295   1.108
14869SOL    HW146048   3.850   4.287   1.064
14869SOL    HW246049   3.786   4.291   1.201
14870SOL     OW46050   3.888   4.263   1.766
14870SOL    HW146051   3.953   4.194   1.753
14870SOL    HW246052   3.888   4.312   1.684
14871SOL     OW46053   5.113   4.648   1.658
14871SOL    HW146054   5.135   4.741   1.657
14871SOL    HW246055   5.109   4.624   1.565
14872SOL     OW46056   4.533   4.304   0.385
14872SOL    HW146057   4.540   4.229   0.327
14872SOL    HW246058   4.463   4.358   0.347
14873SOL     OW46059   5.362   4.326   1.177
14873SOL    HW146060   5.353   4.265   1.250
14873SOL    HW246061   5.450   4.311   1.144
14874SOL     OW46062   3.963   5.273   1.719
14874SOL    HW146063   3.948   5.339   1.787
14874SOL    HW246064   3.980   5.193   1.767
14875SOL     OW46065   4.455   4.180   1.253
14875SOL    HW146066   4.370   4.138   1.269
14875SOL    HW246067   4.439   4.237   1.177
14876SOL     OW46068   4.686   5.385   1.457
14876SOL    HW146069   4.637   5.350   1.383
14876SOL    HW246070   4.670   5.479   1.454
14877SOL     OW46071   4.180   4.216   0.195
14877SOL    HW146072   4.240   4.289   0.215
14877SOL    HW246073   4.108   4.257   0.148
14878SOL     OW46074   3.842   4.862   1.465
14878SOL    HW146075   3.859   4.815   1.548
14878SOL    HW246076   3.869   4.800   1.397
14879SOL     OW46077   5.040   4.763   1.208
14879SOL    HW146078   5.056   4.696   1.142
14879SOL    HW246079   4.981   4.825   1.165
14880SOL     OW46080   5.020   4.567   0.317
14880SOL    HW146081   4.946   4.532   0.366
14880SOL    HW246082   4.998   4.551   0.225
14881SOL     OW46083   5.517   5.466   1.177
14881SOL    HW146084   5.574   5.490   1.104
14881SOL    HW246085   5.476   5.384   1.150
14882SOL     OW46086   4.977   5.489   1.109
14882SOL    HW146087   5.050   5.512   1.052
14882SOL    HW246088   5.002   5.405   1.148
14883SOL     OW46089   3.814   4.977   1.019
14883SOL    HW146090   3.777   4.994   1.105
14883SOL    HW246091   3.751   4.920   0.976
14884SOL     OW46092   4.398   5.407   1.725
14884SOL    HW146093   4.335   5.475   1.749
14884SOL    HW246094   4.422   5.427   1.635
14885SOL     OW46095   4.620   3.827   0.108
14885SOL    HW146096   4.678   3.865   0.042
14885SOL    HW246097   4.678   3.773   0.162
14886SOL     OW46098   5.466   3.880   0.518
14886SOL    HW146099   5.531   3.856   0.452
14886SOL    HW246100   5.438   3.796   0.555
14887SOL     OW46101   5.116   5.295   0.503
14887SOL    HW146102   5.178   5.328   0.437
14887SOL    HW246103   5.065   5.372   0.527
14888SOL     OW46104   3.859   5.509   1.843
14888SOL    HW146105   3.805   5.445   1.889
14888SOL    HW246106   3.903   5.557   1.914
14889SOL     OW46107   4.999   4.660   0.682
14889SOL    HW146108   5.073   4.601   0.693
14889SOL    HW246109   5.030   4.726   0.620
14890SOL     OW46110   4.498   5.004   1.407
14890SOL    HW146111   4.473   5.050   1.488
14890SOL    HW246112   4.421   5.011   1.351
14891SOL     OW46113   4.379   5.329   0.193
14891SOL    HW146114   4.440   5.342   0.121
14891SOL    HW246115   4.331   5.249   0.170
14892SOL     OW46116   5.330   5.450   1.383
14892SOL    HW146117   5.396   5.457   1.314
14892SOL    HW246118   5.317   5.540   1.413
14893SOL     OW46119   5.569   3.888   0.963
14893SOL    HW146120   5.598   3.800   0.940
14893SOL    HW246121   5.482   3.896   0.925
14894SOL     OW46122   3.981   4.031   0.722
14894SOL    HW146123   3.894   4.063   0.698
14894SOL    HW246124   3.980   4.027   0.817
14895SOL     OW46125   4.922   5.325   0.072
14895SOL    HW146126   4.914   5.233   0.096
14895SOL    HW246127   4.878   5.333  -0.012
14896SOL     OW46128   4.541   4.733   1.383
14896SOL    HW146129   4.583   4.722   1.298
14896SOL    HW246130   4.530   4.827   1.393
14897SOL     OW46131   4.650   4.651   0.311
14897SOL    HW146132   4.715   4.694   0.255
14897SOL    HW246133   4.698   4.576   0.348
14898SOL     OW46134   5.183   5.302  -0.001
14898SOL    HW146135   5.096   5.327   0.032
14898SOL    HW246136   5.234   5.383   0.003
14899SOL     OW46137   4.083   5.018   1.492
14899SOL    HW146138   4.081   5.096   1.436
14899SOL    HW246139   4.002   4.971   1.471
14900SOL     OW46140   5.318   5.004   1.273
14900SOL    HW146141   5.383   4.983   1.340
14900SOL    HW246142   5.265   5.074   1.312
14901SOL     OW46143   4.788   4.841   0.724
14901SOL    HW146144   4.713   4.789   0.753
14901SOL    HW246145   4.852   4.777   0.693
14902SOL     OW46146   4.751   3.970   0.962
14902SOL    HW146147   4.748   3.925   0.877
14902SOL    HW246148   4.747   3.899   1.026
14903SOL     OW46149   4.336   5.205   0.479
14903SOL    HW146150   4.385   5.157   0.413
14903SOL    HW246151   4.267   5.250   0.430
14904SOL     OW46152   5.452   4.117   1.373
14904SOL    HW146153   5.526   4.177   1.376
14904SOL    HW246154   5.482   4.045   1.318
14905SOL     OW46155   3.984   5.077   0.302
14905SOL    HW146156   3.919   5.121   0.247
14905SOL    HW246157   3.968   5.111   0.390
14906SOL     OW46158   3.825   4.720   1.704
14906SOL    HW146159   3.765   4.708   1.778
14906SOL    HW246160   3.912   4.708   1.742
14907SOL     OW46161   4.443   3.940   1.474
14907SOL    HW146162   4.521   3.893   1.445
14907SOL    HW246163   4.463   3.969   1.563
14908SOL     OW46164   5.148   4.585   1.395
14908SOL    HW146165   5.096   4.637   1.334
14908SOL    HW246166   5.236   4.585   1.356
14909SOL     OW46167   3.789   3.872   0.304
14909SOL    HW146168   3.782   3.964   0.278
14909SOL    HW246169   3.877   3.846   0.277
14910SOL     OW46170   4.909   5.059   0.131
14910SOL    HW146171   4.849   4.986   0.120
14910SOL    HW246172   4.938   5.053   0.222
14911SOL     OW46173   4.343   4.553   1.442
14911SOL    HW146174   4.399   4.631   1.431
14911SOL    HW246175   4.405   4.480   1.449
14912SOL     OW46176   5.210   5.524   0.974
14912SOL    HW146177   5.232   5.599   0.918
14912SOL    HW246178   5.294   5.484   0.996
14913SOL     OW46179   4.431   4.282   1.696
14913SOL    HW146180   4.476   4.338   1.760
14913SOL    HW246181   4.453   4.193   1.723
14914SOL     OW46182   5.202   4.911   1.636
14914SOL    HW146183   5.188   4.926   1.730
14914SOL    HW246184   5.294   4.932   1.623
14915SOL     OW46185   4.093   5.474   1.563
14915SOL    HW146186   4.010   5.520   1.553
14915SOL    HW246187   4.068   5.390   1.602
14916SOL     OW46188   5.386   4.599   1.254
14916SOL    HW146189   5.382   4.512   1.215
14916SOL    HW246190   5.377   4.658   1.179
14917SOL     OW46191   4.947   4.035   0.443
14917SOL    HW146192   5.009   3.962   0.444
14917SOL    HW246193   4.969   4.085   0.522
14918SOL     OW46194   4.286   4.451   0.677
14918SOL    HW146195   4.334   4.533   0.666
14918SOL    HW246196   4.229   4.446   0.601
14919SOL     OW46197   5.473   4.088   1.646
14919SOL    HW146198   5.455   4.103   1.554
14919SOL    HW246199   5.402   4.029   1.674
14920SOL     OW46200   5.478   4.657   1.507
14920SOL    HW146201   5.456   4.750   1.519
14920SOL    HW246202   5.456   4.639   1.416
14921SOL     OW46203   4.587   5.099   0.031
14921SOL    HW146204   4.558   5.078   0.120
14921SOL    HW246205   4.601   5.194   0.032
14922SOL     OW46206   4.393   5.494   0.967
14922SOL    HW146207   4.380   5.568   1.026
14922SOL    HW246208   4.487   5.494   0.948
14923SOL     OW46209   4.594   4.697   0.862
14923SOL    HW146210   4.644   4.622   0.895
14923SOL    HW246211   4.557   4.737   0.940
14924SOL     OW46212   4.814   4.775   0.119
14924SOL    HW146213   4.737   4.766   0.063
14924SOL    HW246214   4.883   4.727   0.074
14925SOL     OW46215   5.567   5.255   0.866
14925SOL    HW146216   5.515   5.258   0.786
14925SOL    HW246217   5.611   5.171   0.863
14926SOL     OW46218   3.968   5.029   1.863
14926SOL    HW146219   3.893   4.969   1.864
14926SOL    HW246220   3.983   5.050   1.955
14927SOL     OW46221   3.806   4.930   0.672
14927SOL    HW146222   3.862   4.892   0.739
14927SOL    HW246223   3.859   4.929   0.592
14928SOL     OW46224   4.410   5.142   1.624
14928SOL    HW146225   4.340   5.094   1.668
14928SOL    HW246226   4.414   5.226   1.670
14929SOL     OW46227   5.540   3.905   1.234
14929SOL    HW146228   5.538   3.810   1.250
14929SOL    HW246229   5.551   3.913   1.139
14930SOL     OW46230   4.141   4.159   0.527
14930SOL    HW146231   4.182   4.093   0.471
14930SOL    HW246232   4.100   4.109   0.597
14931SOL     OW46233   5.411   5.226   1.103
14931SOL    HW146234   5.461   5.214   1.022
14931SOL    HW246235   5.428   5.146   1.154
14932SOL     OW46236   4.062   4.283   1.292
14932SOL    HW146237   4.109   4.215   1.340
14932SOL    HW246238   4.071   4.256   1.200
14933SOL     OW46239   4.558   5.299   0.677
14933SOL    HW146240   4.541   5.367   0.612
14933SOL    HW246241   4.480   5.243   0.673
14934SOL     OW46242   5.151   3.956   1.115
14934SOL    HW146243   5.160   3.869   1.153
14934SOL    HW246244   5.104   4.007   1.181
14935SOL     OW46245   4.737   3.741   1.121
14935SOL    HW146246   4.680   3.676   1.079
14935SOL    HW246247   4.823   3.699   1.123
14936SOL     OW46248   4.510   5.059   0.308
14936SOL    HW146249   4.480   4.971   0.330
14936SOL    HW246250   4.592   5.069   0.357
14937SOL     OW46251   4.347   5.278   1.286
14937SOL    HW146252   4.350   5.352   1.347
14937SOL    HW246253   4.433   5.278   1.244
14938SOL     OW46254   4.999   4.182   0.668
14938SOL    HW146255   4.954   4.267   0.675
14938SOL    HW246256   5.009   4.153   0.759
14939SOL     OW46257   5.308   3.915   0.887
14939SOL    HW146258   5.254   3.942   0.961
14939SOL    HW246259   5.307   3.991   0.828
14940SOL     OW46260   3.758   4.805   0.341
14940SOL    HW146261   3.850   4.821   0.320
14940SOL    HW246262   3.759   4.722   0.389
14941SOL     OW46263   4.599   5.385   0.364
14941SOL    HW146264   4.519   5.362   0.316
14941SOL    HW246265   4.575   5.463   0.414
14942SOL     OW46266   3.930   4.389   2.008
14942SOL    HW146267   3.856   4.355   2.058
14942SOL    HW246268   3.920   4.351   1.921
14943SOL     OW46269   3.947   3.994   2.859
14943SOL    HW146270   4.013   3.935   2.896
14943SOL    HW246271   3.863   3.958   2.888
14944SOL     OW46272   3.726   4.139   2.487
14944SOL    HW146273   3.643   4.160   2.529
14944SOL    HW246274   3.716   4.049   2.457
14945SOL     OW46275   4.267   5.023   3.052
14945SOL    HW146276   4.218   4.994   3.129
14945SOL    HW246277   4.303   5.108   3.078
14946SOL     OW46278   5.292   5.214   2.567
14946SOL    HW146279   5.241   5.195   2.646
14946SOL    HW246280   5.227   5.236   2.501
14947SOL     OW46281   4.861   4.411   2.547
14947SOL    HW146282   4.895   4.500   2.560
14947SOL    HW246283   4.802   4.398   2.622
14948SOL     OW46284   5.528   4.313   2.082
14948SOL    HW146285   5.493   4.307   1.993
14948SOL    HW246286   5.478   4.248   2.132
14949SOL     OW46287   4.469   4.873   2.894
14949SOL    HW146288   4.416   4.889   2.972
14949SOL    HW246289   4.491   4.960   2.861
14950SOL     OW46290   4.406   4.721   2.508
14950SOL    HW146291   4.475   4.710   2.574
14950SOL    HW246292   4.338   4.771   2.553
14951SOL     OW46293   3.999   5.216   2.902
14951SOL    HW146294   4.001   5.121   2.909
14951SOL    HW246295   4.081   5.238   2.857
14952SOL     OW46296   5.185   5.227   3.219
14952SOL    HW146297   5.231   5.309   3.237
14952SOL    HW246298   5.118   5.221   3.286
14953SOL     OW46299   5.311   4.168   2.613
14953SOL    HW146300   5.229   4.170   2.563
14953SOL    HW246301   5.295   4.225   2.688
14954SOL     OW46302   3.947   5.445   2.328
14954SOL    HW146303   3.968   5.515   2.389
14954SOL    HW246304   4.024   5.438   2.272
14955SOL     OW46305   4.852   5.059   3.553
14955SOL    HW146306   4.864   5.039   3.646
14955SOL    HW246307   4.822   4.977   3.514
14956SOL     OW46308   3.925   5.172   2.377
14956SOL    HW146309   3.932   5.267   2.383
14956SOL    HW246310   3.916   5.142   2.467
14957SOL     OW46311   3.953   4.786   2.751
14957SOL    HW146312   3.989   4.699   2.768
14957SOL    HW246313   3.941   4.824   2.838
14958SOL     OW46314   4.328   5.521   3.292
14958SOL    HW146315   4.253   5.491   3.342
14958SOL    HW246316   4.340   5.612   3.320
14959SOL     OW46317   4.288   4.723   2.010
14959SOL    HW146318   4.346   4.754   1.941
14959SOL    HW246319   4.331   4.749   2.092
14960SOL     OW46320   5.324   3.857   3.322
14960SOL    HW146321   5.326   3.945   3.285
14960SOL    HW246322   5.288   3.869   3.410
14961SOL     OW46323   3.835   4.392   2.419
14961SOL    HW146324   3.814   4.300   2.435
14961SOL    HW246325   3.835   4.432   2.506
14962SOL     OW46326   5.546   5.477   2.199
14962SOL    HW146327   5.547   5.472   2.295
14962SOL    HW246328   5.574   5.566   2.179
14963SOL     OW46329   3.737   5.306   1.977
14963SOL    HW146330   3.749   5.216   2.005
14963SOL    HW246331   3.728   5.356   2.058
14964SOL     OW46332   5.419   4.648   2.508
14964SOL    HW146333   5.495   4.597   2.479
14964SOL    HW246334   5.392   4.697   2.431
14965SOL     OW46335   5.380   4.821   2.281
14965SOL    HW146336   5.467   4.817   2.242
14965SOL    HW246337   5.388   4.887   2.350
14966SOL     OW46338   3.854   4.487   3.404
14966SOL    HW146339   3.945   4.460   3.414
14966SOL    HW246340   3.837   4.543   3.479
14967SOL     OW46341   4.333   5.102   2.616
14967SOL    HW146342   4.287   5.018   2.618
14967SOL    HW246343   4.327   5.130   2.524
14968SOL     OW46344   5.021   4.971   3.272
14968SOL    HW146345   5.035   4.890   3.223
14968SOL    HW246346   5.073   4.960   3.351
14969SOL     OW46347   4.545   3.720   2.377
14969SOL    HW146348   4.587   3.806   2.366
14969SOL    HW246349   4.452   3.740   2.380
14970SOL     OW46350   3.903   4.660   3.112
14970SOL    HW146351   3.993   4.630   3.103
14970SOL    HW246352   3.857   4.586   3.153
14971SOL     OW46353   5.256   4.725   2.057
14971SOL    HW146354   5.186   4.669   2.089
14971SOL    HW246355   5.299   4.757   2.136
14972SOL     OW46356   4.984   5.544   3.474
14972SOL    HW146357   4.931   5.578   3.401
14972SOL    HW246358   4.974   5.448   3.467
14973SOL     OW46359   5.179   5.144   2.809
14973SOL    HW146360   5.113   5.157   2.877
14973SOL    HW246361   5.168   5.053   2.782
14974SOL     OW46362   4.314   4.440   2.137
14974SOL    HW146363   4.325   4.530   2.109
14974SOL    HW246364   4.252   4.446   2.210
14975SOL     OW46365   4.996   4.088   2.788
14975SOL    HW146366   4.906   4.057   2.790
14975SOL    HW246367   5.037   4.050   2.866
14976SOL     OW46368   5.271   5.432   2.159
14976SOL    HW146369   5.366   5.438   2.174
14976SOL    HW246370   5.263   5.392   2.073
14977SOL     OW46371   4.524   4.349   3.271
14977SOL    HW146372   4.561   4.368   3.358
14977SOL    HW246373   4.583   4.284   3.233
14978SOL     OW46374   5.192   4.204   3.520
14978SOL    HW146375   5.166   4.243   3.604
14978SOL    HW246376   5.184   4.109   3.534
14979SOL     OW46377   4.782   4.432   2.281
14979SOL    HW146378   4.803   4.421   2.373
14979SOL    HW246379   4.700   4.384   2.269
14980SOL     OW46380   3.803   4.568   2.640
14980SOL    HW146381   3.850   4.510   2.699
14980SOL    HW246382   3.831   4.656   2.665
14981SOL     OW46383   3.844   5.578   3.445
14981SOL    HW146384   3.849   5.591   3.540
14981SOL    HW246385   3.795   5.496   3.434
14982SOL     OW46386   4.587   4.065   2.065
14982SOL    HW146387   4.638   4.089   1.988
14982SOL    HW246388   4.523   4.001   2.033
14983SOL     OW46389   5.460   4.297   3.681
14983SOL    HW146390   5.409   4.368   3.642
14983SOL    HW246391   5.452   4.225   3.618
14984SOL     OW46392   5.113   4.869   2.409
14984SOL    HW146393   5.190   4.859   2.353
14984SOL    HW246394   5.057   4.930   2.361
14985SOL     OW46395   4.253   3.921   2.764
14985SOL    HW146396   4.327   3.917   2.825
14985SOL    HW246397   4.250   4.013   2.736
14986SOL     OW46398   4.724   5.162   2.320
14986SOL    HW146399   4.707   5.240   2.267
14986SOL    HW246400   4.699   5.187   2.409
14987SOL     OW46401   4.084   5.539   2.736
14987SOL    HW146402   4.128   5.454   2.744
14987SOL    HW246403   4.151   5.603   2.761
14988SOL     OW46404   5.530   4.783   2.725
14988SOL    HW146405   5.476   4.752   2.652
14988SOL    HW246406   5.468   4.791   2.798
14989SOL     OW46407   4.970   5.260   3.389
14989SOL    HW146408   4.957   5.190   3.453
14989SOL    HW246409   4.906   5.241   3.320
14990SOL     OW46410   4.025   4.679   2.113
14990SOL    HW146411   4.113   4.693   2.080
14990SOL    HW246412   4.008   4.586   2.097
14991SOL     OW46413   5.203   4.476   2.578
14991SOL    HW146414   5.196   4.428   2.660
14991SOL    HW246415   5.284   4.528   2.587
14992SOL     OW46416   4.844   5.523   2.065
14992SOL    HW146417   4.770   5.487   2.113
14992SOL    HW246418   4.875   5.451   2.010
14993SOL     OW46419   3.912   4.105   3.347
14993SOL    HW146420   3.833   4.059   3.375
14993SOL    HW246421   3.984   4.049   3.376
14994SOL     OW46422   5.358   5.106   1.945
14994SOL    HW146423   5.314   5.191   1.935
14994SOL    HW246424   5.289   5.042   1.933
14995SOL     OW46425   4.177   5.470   2.165
14995SOL    HW146426   4.223   5.517   2.236
14995SOL    HW246427   4.244   5.412   2.129
14996SOL     OW46428   5.122   3.841   2.301
14996SOL    HW146429   5.117   3.807   2.212
14996SOL    HW246430   5.215   3.832   2.325
14997SOL     OW46431   3.976   5.525   3.067
14997SOL    HW146432   4.018   5.457   3.119
14997SOL    HW246433   3.963   5.485   2.981
14998SOL     OW46434   4.648   5.427   2.775
14998SOL    HW146435   4.662   5.345   2.821
14998SOL    HW246436   4.624   5.402   2.686
14999SOL     OW46437   4.111   4.424   2.330
14999SOL    HW146438   4.130   4.331   2.346
14999SOL    HW246439   4.019   4.434   2.354
15000SOL     OW46440   5.236   3.929   3.583
15000SOL    HW146441   5.247   3.955   3.674
15000SOL    HW246442   5.162   3.868   3.584
15001SOL     OW46443   4.612   5.260   3.048
15001SOL    HW146444   4.581   5.208   2.975
15001SOL    HW246445   4.671   5.201   3.096
15002SOL     OW46446   5.210   4.326   3.273
15002SOL    HW146447   5.201   4.272   3.352
15002SOL    HW246448   5.129   4.378   3.270
15003SOL     OW46449   4.542   5.135   2.805
15003SOL    HW146450   4.623   5.108   2.763
15003SOL    HW246451   4.476   5.130   2.735
15004SOL     OW46452   4.675   4.248   2.764
15004SOL    HW146453   4.644   4.227   2.676
15004SOL    HW246454   4.697   4.163   2.803
15005SOL     OW46455   4.279   3.790   2.358
15005SOL    HW146456   4.206   3.789   2.421
15005SOL    HW246457   4.266   3.871   2.309
15006SOL     OW46458   5.151   4.928   1.903
15006SOL    HW146459   5.181   4.852   1.954
15006SOL    HW246460   5.067   4.951   1.942
15007SOL     OW46461   4.032   3.769   2.036
15007SOL    HW146462   4.107   3.810   1.993
15007SOL    HW246463   4.071   3.703   2.093
15008SOL     OW46464   4.667   3.978   2.322
15008SOL    HW146465   4.640   4.005   2.234
15008SOL    HW246466   4.762   3.994   2.324
15009SOL     OW46467   4.953   5.272   2.642
15009SOL    HW146468   4.962   5.351   2.589
15009SOL    HW246469   5.013   5.285   2.715
15010SOL     OW46470   4.181   4.869   2.592
15010SOL    HW146471   4.125   4.839   2.664
15010SOL    HW246472   4.129   4.853   2.513
15011SOL     OW46473   4.988   5.512   2.484
15011SOL    HW146474   5.026   5.580   2.429
15011SOL    HW246475   4.910   5.552   2.522
15012SOL     OW46476   4.756   4.245   1.879
15012SOL    HW146477   4.704   4.325   1.873
15012SOL    HW246478   4.804   4.254   1.961
15013SOL     OW46479   3.766   4.301   3.215
15013SOL    HW146480   3.817   4.228   3.249
15013SOL    HW246481   3.775   4.369   3.282
15014SOL     OW46482   4.603   4.189   2.505
15014SOL    HW146483   4.534   4.235   2.456
15014SOL    HW246484   4.617   4.108   2.457
15015SOL     OW46485   4.763   3.724   2.609
15015SOL    HW146486   4.678   3.713   2.566
15015SOL    HW246487   4.753   3.678   2.693
15016SOL     OW46488   5.153   4.885   2.718
15016SOL    HW146489   5.090   4.815   2.737
15016SOL    HW246490   5.158   4.887   2.622
15017SOL     OW46491   5.184   4.326   2.815
15017SOL    HW146492   5.118   4.259   2.833
15017SOL    HW246493   5.237   4.328   2.895
15018SOL     OW46494   5.572   4.531   2.244
15018SOL    HW146495   5.626   4.483   2.307
15018SOL    HW246496   5.547   4.465   2.179
15019SOL     OW46497   4.223   5.155   1.998
15019SOL    HW146498   4.155   5.130   2.060
15019SOL    HW246499   4.228   5.081   1.937
15020SOL     OW46500   5.418   4.990   2.478
15020SOL    HW146501   5.509   4.994   2.509
15020SOL    HW246502   5.378   5.070   2.513
15021SOL     OW46503   5.113   4.295   1.937
15021SOL    HW146504   5.044   4.276   2.000
15021SOL    HW246505   5.193   4.262   1.978
15022SOL     OW46506   4.247   3.999   2.179
15022SOL    HW146507   4.273   3.942   2.106
15022SOL    HW246508   4.217   4.080   2.136
15023SOL     OW46509   5.471   4.970   3.414
15023SOL    HW146510   5.552   4.918   3.418
15023SOL    HW246511   5.496   5.054   3.452
15024SOL     OW46512   4.799   5.123   3.214
15024SOL    HW146513   4.717   5.086   3.246
15024SOL    HW246514   4.865   5.056   3.235
15025SOL     OW46515   5.345   5.376   3.531
15025SOL    HW146516   5.326   5.397   3.439
15025SOL    HW246517   5.417   5.313   3.526
15026SOL     OW46518   4.847   4.943   2.964
15026SOL    HW146519   4.768   4.914   3.009
15026SOL    HW246520   4.816   4.973   2.879
15027SOL     OW46521   5.358   4.831   2.935
15027SOL    HW146522   5.351   4.886   3.014
15027SOL    HW246523   5.273   4.840   2.892
15028SOL     OW46524   4.433   4.786   2.238
15028SOL    HW146525   4.422   4.766   2.331
15028SOL    HW246526   4.506   4.732   2.210
15029SOL     OW46527   4.148   4.538   3.109
15029SOL    HW146528   4.206   4.551   3.184
15029SOL    HW246529   4.120   4.447   3.116
15030SOL     OW46530   3.800   5.291   3.197
15030SOL    HW146531   3.783   5.385   3.188
15030SOL    HW246532   3.896   5.285   3.201
15031SOL     OW46533   4.033   4.845   2.356
15031SOL    HW146534   4.077   4.912   2.304
15031SOL    HW246535   4.035   4.767   2.300
15032SOL     OW46536   4.267   4.239   2.712
15032SOL    HW146537   4.290   4.298   2.641
15032SOL    HW246538   4.325   4.264   2.784
15033SOL     OW46539   4.977   5.079   2.251
15033SOL    HW146540   5.031   5.149   2.288
15033SOL    HW246541   4.890   5.094   2.287
15034SOL     OW46542   5.004   5.192   3.007
15034SOL    HW146543   5.056   5.188   3.087
15034SOL    HW246544   4.937   5.124   3.019
15035SOL     OW46545   5.295   4.353   2.337
15035SOL    HW146546   5.248   4.373   2.417
15035SOL    HW246547   5.316   4.439   2.299
15036SOL     OW46548   4.070   5.292   3.164
15036SOL    HW146549   4.051   5.242   3.084
15036SOL    HW246550   4.162   5.271   3.183
15037SOL     OW46551   4.117   4.413   3.430
15037SOL    HW146552   4.191   4.470   3.408
15037SOL    HW246553   4.142   4.372   3.513
15038SOL     OW46554   5.343   4.518   3.555
15038SOL    HW146555   5.253   4.552   3.552
15038SOL    HW246556   5.367   4.506   3.463
15039SOL     OW46557   4.295   4.613   2.893
15039SOL    HW146558   4.344   4.691   2.916
15039SOL    HW246559   4.249   4.589   2.974
15040SOL     OW46560   5.044   4.579   2.874
15040SOL    HW146561   4.953   4.554   2.863
15040SOL    HW246562   5.093   4.497   2.868
15041SOL     OW46563   4.911   4.252   2.116
15041SOL    HW146564   4.923   4.176   2.173
15041SOL    HW246565   4.871   4.318   2.173
15042SOL     OW46566   3.806   5.032   3.111
15042SOL    HW146567   3.830   4.971   3.182
15042SOL    HW246568   3.792   5.115   3.156
15043SOL     OW46569   4.437   4.335   2.902
15043SOL    HW146570   4.527   4.318   2.874
15043SOL    HW246571   4.431   4.430   2.909
15044SOL     OW46572   5.467   4.705   3.711
15044SOL    HW146573   5.432   4.632   3.661
15044SOL    HW246574   5.406   4.716   3.784
15045SOL     OW46575   4.014   3.788   2.476
15045SOL    HW146576   3.998   3.875   2.514
15045SOL    HW246577   4.051   3.737   2.548
15046SOL     OW46578   5.360   4.116   2.216
15046SOL    HW146579   5.376   4.048   2.282
15046SOL    HW246580   5.328   4.191   2.266
15047SOL     OW46581   4.763   4.495   2.851
15047SOL    HW146582   4.746   4.506   2.944
15047SOL    HW246583   4.739   4.405   2.832
15048SOL     OW46584   4.735   5.315   3.563
15048SOL    HW146585   4.703   5.351   3.481
15048SOL    HW246586   4.758   5.224   3.543
15049SOL     OW46587   5.576   5.229   3.481
15049SOL    HW146588   5.601   5.264   3.396
15049SOL    HW246589   5.655   5.235   3.534
15050SOL     OW46590   4.045   4.700   3.628
15050SOL    HW146591   4.100   4.772   3.658
15050SOL    HW246592   4.043   4.639   3.703
15051SOL     OW46593   5.256   3.998   1.987
15051SOL    HW146594   5.194   3.931   2.016
15051SOL    HW246595   5.290   4.037   2.068
15052SOL     OW46596   5.002   4.544   1.886
15052SOL    HW146597   5.041   4.458   1.897
15052SOL    HW246598   5.041   4.579   1.806
15053SOL     OW46599   4.784   5.062   2.711
15053SOL    HW146600   4.792   4.988   2.651
15053SOL    HW246601   4.845   5.127   2.677
15054SOL     OW46602   4.046   4.535   2.789
15054SOL    HW146603   4.136   4.552   2.817
15054SOL    HW246604   4.030   4.444   2.814
15055SOL     OW46605   4.011   4.261   2.816
15055SOL    HW146606   3.989   4.175   2.850
15055SOL    HW246607   4.100   4.252   2.782
15056SOL     OW46608   3.726   5.029   2.048
15056SOL    HW146609   3.633   5.048   2.039
15056SOL    HW246610   3.730   4.943   2.090
15057SOL     OW46611   3.818   5.502   2.788
15057SOL    HW146612   3.797   5.418   2.748
15057SOL    HW246613   3.910   5.516   2.769
15058SOL     OW46614   4.222   5.304   2.769
15058SOL    HW146615   4.293   5.356   2.805
15058SOL    HW246616   4.265   5.235   2.718
15059SOL     OW46617   4.701   4.529   3.119
15059SOL    HW146618   4.745   4.559   3.198
15059SOL    HW246619   4.653   4.450   3.147
15060SOL     OW46620   3.768   4.359   2.947
15060SOL    HW146621   3.848   4.321   2.911
15060SOL    HW246622   3.769   4.333   3.040
15061SOL     OW46623   3.902   4.232   3.601
15061SOL    HW146624   3.935   4.192   3.520
15061SOL    HW246625   3.838   4.296   3.571
15062SOL     OW46626   5.096   4.646   3.521
15062SOL    HW146627   5.022   4.707   3.525
15062SOL    HW246628   5.107   4.629   3.427
15063SOL     OW46629   4.554   4.304   2.208
15063SOL    HW146630   4.553   4.219   2.165
15063SOL    HW246631   4.469   4.343   2.186
15064SOL     OW46632   5.344   4.346   3.034
15064SOL    HW146633   5.305   4.319   3.117
15064SOL    HW246634   5.425   4.295   3.028
15065SOL     OW46635   3.985   5.284   3.621
15065SOL    HW146636   3.933   5.318   3.694
15065SOL    HW246637   3.985   5.189   3.635
15066SOL     OW46638   4.333   4.143   3.072
15066SOL    HW146639   4.410   4.118   3.124
15066SOL    HW246640   4.363   4.215   3.017
15067SOL     OW46641   4.660   5.417   3.315
15067SOL    HW146642   4.652   5.353   3.244
15067SOL    HW246643   4.579   5.468   3.311
15068SOL     OW46644   4.170   4.228   2.042
15068SOL    HW146645   4.234   4.294   2.069
15068SOL    HW246646   4.086   4.274   2.042
15069SOL     OW46647   3.893   4.858   3.305
15069SOL    HW146648   3.870   4.822   3.391
15069SOL    HW246649   3.899   4.782   3.247
15070SOL     OW46650   5.056   4.784   3.055
15070SOL    HW146651   5.053   4.710   2.994
15070SOL    HW246652   4.984   4.841   3.027
15071SOL     OW46653   5.045   4.584   2.163
15071SOL    HW146654   4.981   4.552   2.227
15071SOL    HW246655   5.007   4.563   2.078
15072SOL     OW46656   5.518   5.447   3.037
15072SOL    HW146657   5.577   5.471   2.966
15072SOL    HW246658   5.476   5.367   3.007
15073SOL     OW46659   4.976   5.475   2.984
15073SOL    HW146660   5.057   5.483   2.933
15073SOL    HW246661   4.969   5.381   3.001
15074SOL     OW46662   3.756   4.997   2.854
15074SOL    HW146663   3.777   5.020   2.945
15074SOL    HW246664   3.721   4.909   2.860
15075SOL     OW46665   4.419   5.415   3.602
15075SOL    HW146666   4.330   5.442   3.577
15075SOL    HW246667   4.433   5.332   3.555
15076SOL     OW46668   5.450   3.886   2.368
15076SOL    HW146669   5.519   3.869   2.304
15076SOL    HW246670   5.432   3.800   2.407
15077SOL     OW46671   5.118   5.298   2.352
15077SOL    HW146672   5.172   5.344   2.288
15077SOL    HW246673   5.066   5.367   2.393
15078SOL     OW46674   3.857   5.591   3.715
15078SOL    HW146675   3.818   5.506   3.738
15078SOL    HW246676   3.923   5.606   3.783
15079SOL     OW46677   4.999   4.654   2.533
15079SOL    HW146678   5.070   4.591   2.546
15079SOL    HW246679   5.039   4.724   2.482
15080SOL     OW46680   4.554   5.045   3.277
15080SOL    HW146681   4.489   5.068   3.344
15080SOL    HW246682   4.538   4.953   3.259
15081SOL     OW46683   4.397   5.361   2.007
15081SOL    HW146684   4.413   5.372   1.914
15081SOL    HW246685   4.342   5.282   2.013
15082SOL     OW46686   5.344   5.455   3.262
15082SOL    HW146687   5.398   5.451   3.183
15082SOL    HW246688   5.344   5.548   3.285
15083SOL     OW46689   5.563   3.892   2.822
15083SOL    HW146690   5.582   3.801   2.799
15083SOL    HW246691   5.472   3.904   2.798
15084SOL     OW46692   3.978   4.038   2.584
15084SOL    HW146693   3.898   4.088   2.572
15084SOL    HW246694   3.983   4.023   2.678
15085SOL     OW46695   4.935   5.320   1.898
15085SOL    HW146696   4.924   5.232   1.935
15085SOL    HW246697   4.862   5.330   1.837
15086SOL     OW46698   4.561   4.778   3.196
15086SOL    HW146699   4.595   4.705   3.145
15086SOL    HW246700   4.551   4.743   3.285
15087SOL     OW46701   4.633   4.634   2.138
15087SOL    HW146702   4.700   4.671   2.080
15087SOL    HW246703   4.680   4.569   2.190
15088SOL     OW46704   5.213   5.349   1.900
15088SOL    HW146705   5.119   5.341   1.891
15088SOL    HW246706   5.246   5.355   1.811
15089SOL     OW46707   4.121   5.016   3.295
15089SOL    HW146708   4.096   5.073   3.368
15089SOL    HW246709   4.057   4.945   3.298
15090SOL     OW46710   5.359   5.021   3.158
15090SOL    HW146711   5.383   4.980   3.242
15090SOL    HW246712   5.283   5.075   3.179
15091SOL     OW46713   4.789   4.832   2.569
15091SOL    HW146714   4.718   4.784   2.611
15091SOL    HW246715   4.856   4.765   2.553
15092SOL     OW46716   4.746   3.964   2.788
15092SOL    HW146717   4.754   3.905   2.712
15092SOL    HW246718   4.704   3.910   2.855
15093SOL     OW46719   4.331   5.200   2.351
15093SOL    HW146720   4.381   5.155   2.283
15093SOL    HW246721   4.390   5.268   2.384
15094SOL     OW46722   5.468   4.107   3.246
15094SOL    HW146723   5.529   4.180   3.238
15094SOL    HW246724   5.501   4.041   3.184
15095SOL     OW46725   3.985   5.080   2.132
15095SOL    HW146726   3.892   5.062   2.117
15095SOL    HW246727   3.989   5.116   2.220
15096SOL     OW46728   3.792   4.747   3.536
15096SOL    HW146729   3.729   4.738   3.608
15096SOL    HW246730   3.877   4.734   3.578
15097SOL     OW46731   3.786   4.057   1.929
15097SOL    HW146732   3.709   4.024   1.882
15097SOL    HW246733   3.810   4.137   1.882
15098SOL     OW46734   5.154   4.620   3.258
15098SOL    HW146735   5.102   4.670   3.196
15098SOL    HW246736   5.234   4.598   3.211
15099SOL     OW46737   3.789   3.874   2.154
15099SOL    HW146738   3.781   3.949   2.094
15099SOL    HW246739   3.879   3.845   2.144
15100SOL     OW46740   4.903   5.056   1.985
15100SOL    HW146741   4.820   5.009   1.990
15100SOL    HW246742   4.933   5.062   2.075
15101SOL     OW46743   4.338   4.546   3.304
15101SOL    HW146744   4.396   4.599   3.358
15101SOL    HW246745   4.389   4.468   3.282
15102SOL     OW46746   5.214   5.508   2.850
15102SOL    HW146747   5.246   5.544   2.767
15102SOL    HW246748   5.274   5.437   2.870
15103SOL     OW46749   5.194   4.954   3.487
15103SOL    HW146750   5.178   4.940   3.581
15103SOL    HW246751   5.289   4.942   3.478
15104SOL     OW46752   4.106   5.469   3.458
15104SOL    HW146753   4.021   5.502   3.427
15104SOL    HW246754   4.084   5.391   3.509
15105SOL     OW46755   5.396   4.605   3.112
15105SOL    HW146756   5.381   4.518   3.076
15105SOL    HW246757   5.382   4.664   3.037
15106SOL     OW46758   4.946   4.055   2.311
15106SOL    HW146759   5.002   3.978   2.309
15106SOL    HW246760   4.972   4.101   2.391
15107SOL     OW46761   4.324   4.443   2.519
15107SOL    HW146762   4.357   4.533   2.520
15107SOL    HW246763   4.248   4.445   2.462
15108SOL     OW46764   5.477   4.070   3.515
15108SOL    HW146765   5.460   4.091   3.423
15108SOL    HW246766   5.401   4.019   3.542
15109SOL     OW46767   5.510   4.659   3.353
15109SOL    HW146768   5.448   4.720   3.393
15109SOL    HW246769   5.473   4.639   3.268
15110SOL     OW46770   4.571   5.091   1.914
15110SOL    HW146771   4.547   5.090   2.007
15110SOL    HW246772   4.595   5.182   1.897
15111SOL     OW46773   4.390   5.525   2.823
15111SOL    HW146774   4.380   5.606   2.772
15111SOL    HW246775   4.479   5.496   2.805
15112SOL     OW46776   4.599   4.698   2.715
15112SOL    HW146777   4.644   4.627   2.761
15112SOL    HW246778   4.554   4.746   2.784
15113SOL     OW46779   4.805   4.724   1.947
15113SOL    HW146780   4.784   4.767   1.864
15113SOL    HW246781   4.874   4.661   1.924
15114SOL     OW46782   5.577   5.298   2.714
15114SOL    HW146783   5.540   5.335   2.634
15114SOL    HW246784   5.526   5.219   2.730
15115SOL     OW46785   3.922   5.036   3.708
15115SOL    HW146786   4.007   4.990   3.710
15115SOL    HW246787   3.874   5.000   3.782
15116SOL     OW46788   3.834   4.940   2.545
15116SOL    HW146789   3.872   4.893   2.619
15116SOL    HW246790   3.886   4.913   2.469
15117SOL     OW46791   4.370   5.143   3.467
15117SOL    HW146792   4.301   5.084   3.436
15117SOL    HW246793   4.375   5.126   3.561
15118SOL     OW46794   5.568   3.905   3.096
15118SOL    HW146795   5.514   3.829   3.119
15118SOL    HW246796   5.562   3.911   3.000
15119SOL     OW46797   4.138   4.164   2.386
15119SOL    HW146798   4.179   4.094   2.335
15119SOL    HW246799   4.099   4.120   2.462
15120SOL     OW46800   5.395   5.218   2.962
15120SOL    HW146801   5.325   5.193   2.902
15120SOL    HW246802   5.396   5.149   3.029
15121SOL     OW46803   4.089   4.273   3.138
15121SOL    HW146804   4.058   4.247   3.225
15121SOL    HW246805   4.165   4.217   3.122
15122SOL     OW46806   5.130   3.966   2.996
15122SOL    HW146807   5.117   3.878   3.032
15122SOL    HW246808   5.067   4.021   3.043
15123SOL     OW46809   4.508   5.052   2.181
15123SOL    HW146810   4.481   4.962   2.202
15123SOL    HW246811   4.584   5.068   2.237
15124SOL     OW46812   4.348   5.284   3.140
15124SOL    HW146813   4.347   5.365   3.192
15124SOL    HW246814   4.440   5.271   3.117
15125SOL     OW46815   5.094   3.776   2.030
15125SOL    HW146816   5.128   3.698   1.985
15125SOL    HW246817   5.003   3.753   2.051
15126SOL     OW46818   5.034   4.188   2.539
15126SOL    HW146819   4.978   4.266   2.538
15126SOL    HW246820   5.018   4.147   2.623
15127SOL     OW46821   5.298   3.925   2.772
15127SOL    HW146822   5.238   3.945   2.844
15127SOL    HW246823   5.288   3.997   2.710
15128SOL     OW46824   3.763   4.779   2.154
15128SOL    HW146825   3.857   4.767   2.143
15128SOL    HW246826   3.731   4.693   2.183
15129SOL     OW46827   4.627   5.384   2.168
15129SOL    HW146828   4.544   5.373   2.122
15129SOL    HW246829   4.603   5.399   2.259
15130SOL     OW46830   3.923   4.407   3.810
15130SOL    HW146831   3.857   4.385   3.875
15130SOL    HW246832   3.932   4.328   3.757
15131SOL     OW46833   3.938   4.006   4.710
15131SOL    HW146834   3.986   3.993   4.792
15131SOL    HW246835   3.847   3.987   4.732
15132SOL     OW46836   3.708   4.111   4.341
15132SOL    HW146837   3.627   4.131   4.388
15132SOL    HW246838   3.709   4.016   4.334
15133SOL     OW46839   4.280   5.037   4.827
15133SOL    HW146840   4.219   4.971   4.860
15133SOL    HW246841   4.284   5.102   4.897
15134SOL     OW46842   5.295   5.278   4.463
15134SOL    HW146843   5.259   5.234   4.539
15134SOL    HW246844   5.229   5.267   4.395
15135SOL     OW46845   4.881   4.388   4.430
15135SOL    HW146846   4.893   4.483   4.435
15135SOL    HW246847   4.833   4.365   4.509
15136SOL     OW46848   5.532   4.315   3.940
15136SOL    HW146849   5.499   4.310   3.851
15136SOL    HW246850   5.479   4.252   3.989
15137SOL     OW46851   4.648   4.520   5.561
15137SOL    HW146852   4.597   4.601   5.556
15137SOL    HW246853   4.616   4.468   5.487
15138SOL     OW46854   4.011   5.208   4.775
15138SOL    HW146855   3.981   5.122   4.745
15138SOL    HW246856   4.084   5.230   4.718
15139SOL     OW46857   5.178   5.229   5.076
15139SOL    HW146858   5.226   5.308   5.098
15139SOL    HW246859   5.112   5.221   5.144
15140SOL     OW46860   4.185   4.125   5.215
15140SOL    HW146861   4.239   4.048   5.236
15140SOL    HW246862   4.097   4.090   5.203
15141SOL     OW46863   5.333   4.172   4.468
15141SOL    HW146864   5.250   4.177   4.421
15141SOL    HW246865   5.318   4.221   4.549
15142SOL     OW46866   3.942   5.470   4.168
15142SOL    HW146867   3.969   5.527   4.240
15142SOL    HW246868   4.024   5.439   4.130
15143SOL     OW46869   4.854   5.054   5.411
15143SOL    HW146870   4.893   5.024   5.493
15143SOL    HW246871   4.760   5.043   5.424
15144SOL     OW46872   4.324   5.525   5.151
15144SOL    HW146873   4.245   5.498   5.197
15144SOL    HW246874   4.344   5.611   5.187
15145SOL     OW46875   5.294   3.854   5.174
15145SOL    HW146876   5.212   3.888   5.136
15145SOL    HW246877   5.285   3.870   5.268
15146SOL     OW46878   3.784   4.363   4.258
15146SOL    HW146879   3.759   4.274   4.283
15146SOL    HW246880   3.861   4.382   4.312
15147SOL     OW46881   5.569   5.464   4.002
15147SOL    HW146882   5.637   5.434   4.063
15147SOL    HW246883   5.576   5.559   4.004
15148SOL     OW46884   3.781   5.348   3.823
15148SOL    HW146885   3.770   5.256   3.848
15148SOL    HW246886   3.739   5.397   3.893
15149SOL     OW46887   5.438   4.675   4.370
15149SOL    HW146888   5.500   4.602   4.363
15149SOL    HW246889   5.368   4.652   4.310
15150SOL     OW46890   5.375   4.850   4.130
15150SOL    HW146891   5.453   4.795   4.119
15150SOL    HW246892   5.383   4.887   4.218
15151SOL     OW46893   4.330   5.080   4.488
15151SOL    HW146894   4.292   5.014   4.546
15151SOL    HW246895   4.293   5.060   4.402
15152SOL     OW46896   5.012   4.974   5.127
15152SOL    HW146897   5.051   4.895   5.091
15152SOL    HW246898   5.044   4.977   5.218
15153SOL     OW46899   5.268   4.731   3.897
15153SOL    HW146900   5.206   4.659   3.883
15153SOL    HW246901   5.279   4.735   3.992
15154SOL     OW46902   4.953   5.558   5.348
15154SOL    HW146903   4.907   5.570   5.265
15154SOL    HW246904   4.949   5.464   5.364
15155SOL     OW46905   4.050   3.994   5.536
15155SOL    HW146906   4.115   4.057   5.569
15155SOL    HW246907   3.966   4.035   5.556
15156SOL     OW46908   5.197   5.142   4.675
15156SOL    HW146909   5.129   5.149   4.742
15156SOL    HW246910   5.185   5.055   4.638
15157SOL     OW46911   5.361   5.495   4.282
15157SOL    HW146912   5.328   5.439   4.212
15157SOL    HW246913   5.359   5.439   4.360
15158SOL     OW46914   5.312   5.380   4.016
15158SOL    HW146915   5.401   5.412   4.004
15158SOL    HW246916   5.273   5.384   3.929
15159SOL     OW46917   4.552   4.330   5.220
15159SOL    HW146918   4.519   4.312   5.308
15159SOL    HW246919   4.513   4.263   5.165
15160SOL     OW46920   5.189   4.212   5.392
15160SOL    HW146921   5.162   4.253   5.475
15160SOL    HW246922   5.124   4.144   5.376
15161SOL     OW46923   4.788   4.382   4.164
15161SOL    HW146924   4.804   4.362   4.257
15161SOL    HW246925   4.708   4.334   4.143
15162SOL     OW46926   3.850   5.597   5.299
15162SOL    HW146927   3.843   5.591   5.394
15162SOL    HW246928   3.806   5.518   5.266
15163SOL     OW46929   5.473   4.295   5.531
15163SOL    HW146930   5.420   4.370   5.504
15163SOL    HW246931   5.441   4.223   5.476
15164SOL     OW46932   5.109   4.864   4.267
15164SOL    HW146933   5.162   4.831   4.195
15164SOL    HW246934   5.035   4.909   4.224
15165SOL     OW46935   4.753   5.203   4.201
15165SOL    HW146936   4.704   5.266   4.148
15165SOL    HW246937   4.705   5.199   4.284
15166SOL     OW46938   4.077   5.526   4.587
15166SOL    HW146939   4.113   5.437   4.589
15166SOL    HW246940   4.136   5.577   4.642
15167SOL     OW46941   5.514   4.836   4.585
15167SOL    HW146942   5.475   4.779   4.518
15167SOL    HW246943   5.452   4.832   4.658
15168SOL     OW46944   4.962   5.259   5.253
15168SOL    HW146945   4.946   5.194   5.320
15168SOL    HW246946   4.883   5.257   5.198
15169SOL     OW46947   4.039   4.648   3.914
15169SOL    HW146948   4.078   4.561   3.920
15169SOL    HW246949   3.950   4.637   3.948
15170SOL     OW46950   5.216   4.475   4.448
15170SOL    HW146951   5.182   4.411   4.510
15170SOL    HW246952   5.260   4.540   4.502
15171SOL     OW46953   4.853   5.507   3.939
15171SOL    HW146954   4.775   5.481   3.987
15171SOL    HW246955   4.871   5.434   3.880
15172SOL     OW46956   3.933   4.030   5.192
15172SOL    HW146957   3.855   4.078   5.165
15172SOL    HW246958   3.909   3.989   5.275
15173SOL     OW46959   5.320   5.133   3.847
15173SOL    HW146960   5.295   5.207   3.791
15173SOL    HW246961   5.266   5.060   3.815
15174SOL     OW46962   4.190   5.451   4.043
15174SOL    HW146963   4.249   5.495   4.104
15174SOL    HW246964   4.249   5.406   3.982
15175SOL     OW46965   5.151   3.840   4.153
15175SOL    HW146966   5.146   3.812   4.061
15175SOL    HW246967   5.245   3.835   4.174
15176SOL     OW46968   3.997   5.529   4.929
15176SOL    HW146969   4.027   5.454   4.980
15176SOL    HW246970   3.956   5.491   4.852
15177SOL     OW46971   4.650   5.426   4.613
15177SOL    HW146972   4.663   5.359   4.680
15177SOL    HW246973   4.616   5.379   4.537
15178SOL     OW46974   5.254   3.909   5.446
15178SOL    HW146975   5.253   3.946   5.534
15178SOL    HW246976   5.178   3.851   5.443
15179SOL     OW46977   4.480   4.005   5.481
15179SOL    HW146978   4.566   3.964   5.475
15179SOL    HW246979   4.437   3.961   5.553
15180SOL     OW46980   4.610   5.261   4.938
15180SOL    HW146981   4.590   5.218   4.854
15180SOL    HW246982   4.667   5.199   4.983
15181SOL     OW46983   5.178   4.342   5.152
15181SOL    HW146984   5.195   4.286   5.228
15181SOL    HW246985   5.083   4.356   5.153
15182SOL     OW46986   4.559   5.157   4.688
15182SOL    HW146987   4.629   5.116   4.637
15182SOL    HW246988   4.482   5.103   4.671
15183SOL     OW46989   5.155   4.938   3.765
15183SOL    HW146990   5.188   4.858   3.806
15183SOL    HW246991   5.063   4.944   3.793
15184SOL     OW46992   4.974   5.271   4.499
15184SOL    HW146993   4.965   5.362   4.471
15184SOL    HW246994   4.987   5.276   4.594
15185SOL     OW46995   4.982   5.520   4.342
15185SOL    HW146996   5.011   5.593   4.287
15185SOL    HW246997   4.899   5.550   4.380
15186SOL     OW46998   5.161   4.906   4.544
15186SOL    HW146999   5.132   4.832   4.598
15186SOL    HW247000   5.128   4.886   4.456
15187SOL     OW47001   5.225   4.289   4.689
15187SOL    HW147002   5.178   4.215   4.728
15187SOL    HW247003   5.275   4.326   4.762
15188SOL     OW47004   5.572   4.533   4.106
15188SOL    HW147005   5.623   4.482   4.170
15188SOL    HW247006   5.538   4.468   4.045
15189SOL     OW47007   5.430   5.049   4.305
15189SOL    HW147008   5.512   5.017   4.342
15189SOL    HW247009   5.368   5.050   4.378
15190SOL     OW47010   5.125   4.278   3.778
15190SOL    HW147011   5.053   4.274   3.841
15190SOL    HW247012   5.185   4.208   3.806
15191SOL     OW47013   5.465   4.971   5.289
15191SOL    HW147014   5.518   4.900   5.326
15191SOL    HW247015   5.494   5.049   5.336
15192SOL     OW47016   4.768   5.100   5.102
15192SOL    HW147017   4.719   5.071   5.179
15192SOL    HW247018   4.853   5.057   5.110
15193SOL     OW47019   5.345   5.390   5.394
15193SOL    HW147020   5.323   5.392   5.301
15193SOL    HW247021   5.415   5.325   5.400
15194SOL     OW47022   4.849   4.951   4.828
15194SOL    HW147023   4.775   4.931   4.885
15194SOL    HW247024   4.810   4.965   4.742
15195SOL     OW47025   5.357   4.858   4.812
15195SOL    HW147026   5.376   4.908   4.892
15195SOL    HW247027   5.264   4.835   4.820
15196SOL     OW47028   4.637   3.809   5.156
15196SOL    HW147029   4.670   3.827   5.068
15196SOL    HW247030   4.702   3.848   5.214
15197SOL     OW47031   3.809   5.347   5.120
15197SOL    HW147032   3.763   5.347   5.036
15197SOL    HW247033   3.897   5.315   5.099
15198SOL     OW47034   4.976   5.079   4.114
15198SOL    HW147035   5.036   5.130   4.167
15198SOL    HW247036   4.889   5.105   4.144
15199SOL     OW47037   5.004   5.184   4.862
15199SOL    HW147038   5.052   5.182   4.945
15199SOL    HW247039   4.947   5.107   4.866
15200SOL     OW47040   5.291   4.365   4.197
15200SOL    HW147041   5.268   4.388   4.287
15200SOL    HW247042   5.221   4.403   4.144
15201SOL     OW47043   4.058   5.279   5.030
15201SOL    HW147044   4.039   5.240   4.945
15201SOL    HW247045   4.151   5.263   5.044
15202SOL     OW47046   5.338   4.517   5.399
15202SOL    HW147047   5.256   4.562   5.418
15202SOL    HW247048   5.318   4.457   5.327
15203SOL     OW47049   4.717   3.874   5.479
15203SOL    HW147050   4.797   3.911   5.441
15203SOL    HW247051   4.745   3.791   5.518
15204SOL     OW47052   4.203   3.760   5.496
15204SOL    HW147053   4.168   3.708   5.424
15204SOL    HW247054   4.148   3.838   5.498
15205SOL     OW47055   5.112   4.584   4.700
15205SOL    HW147056   5.027   4.607   4.738
15205SOL    HW247057   5.158   4.537   4.769
15206SOL     OW47058   4.956   4.258   3.983
15206SOL    HW147059   4.964   4.182   4.041
15206SOL    HW247060   4.887   4.311   4.024
15207SOL     OW47061   4.044   3.930   4.956
15207SOL    HW147062   3.997   3.967   5.031
15207SOL    HW247063   4.026   3.836   4.961
15208SOL     OW47064   3.753   5.046   4.977
15208SOL    HW147065   3.739   4.952   4.963
15208SOL    HW247066   3.762   5.055   5.072
15209SOL     OW47067   5.460   4.703   5.570
15209SOL    HW147068   5.423   4.632   5.519
15209SOL    HW247069   5.402   4.712   5.646
15210SOL     OW47070   5.370   4.122   4.080
15210SOL    HW147071   5.381   4.051   4.143
15210SOL    HW247072   5.337   4.195   4.131
15211SOL     OW47073   4.719   5.317   5.445
15211SOL    HW147074   4.695   5.335   5.354
15211SOL    HW247075   4.674   5.235   5.465
15212SOL     OW47076   5.575   5.237   5.344
15212SOL    HW147077   5.603   5.271   5.259
15212SOL    HW247078   5.656   5.234   5.396
15213SOL     OW47079   5.257   4.020   3.844
15213SOL    HW147080   5.197   3.950   3.869
15213SOL    HW247081   5.294   4.051   3.926
15214SOL     OW47082   5.097   4.553   3.781
15214SOL    HW147083   5.107   4.458   3.778
15214SOL    HW247084   5.089   4.579   3.690
15215SOL     OW47085   4.781   5.066   4.559
15215SOL    HW147086   4.785   4.987   4.505
15215SOL    HW247087   4.850   5.123   4.524
15216SOL     OW47088   4.880   4.158   5.370
15216SOL    HW147089   4.831   4.178   5.449
15216SOL    HW247090   4.871   4.236   5.315
15217SOL     OW47091   4.900   3.916   5.240
15217SOL    HW147092   4.888   4.006   5.271
15217SOL    HW247093   4.925   3.926   5.148
15218SOL     OW47094   3.818   5.513   4.676
15218SOL    HW147095   3.781   5.435   4.635
15218SOL    HW247096   3.907   5.519   4.640
15219SOL     OW47097   4.220   5.298   4.619
15219SOL    HW147098   4.291   5.357   4.647
15219SOL    HW247099   4.266   5.223   4.580
15220SOL     OW47100   5.109   4.660   5.409
15220SOL    HW147101   5.093   4.754   5.413
15220SOL    HW247102   5.060   4.631   5.332
15221SOL     OW47103   5.352   4.359   4.917
15221SOL    HW147104   5.311   4.320   4.995
15221SOL    HW247105   5.431   4.306   4.903
15222SOL     OW47106   3.949   5.316   5.480
15222SOL    HW147107   3.903   5.357   5.554
15222SOL    HW247108   3.987   5.236   5.516
15223SOL     OW47109   4.412   4.173   5.048
15223SOL    HW147110   4.348   4.115   5.090
15223SOL    HW247111   4.363   4.253   5.028
15224SOL     OW47112   4.665   5.409   5.176
15224SOL    HW147113   4.643   5.358   5.098
15224SOL    HW247114   4.604   5.482   5.175
15225SOL     OW47115   5.094   4.822   4.878
15225SOL    HW147116   5.086   4.746   4.937
15225SOL    HW247117   5.005   4.857   4.873
15226SOL     OW47118   5.028   4.591   4.060
15226SOL    HW147119   4.957   4.544   4.104
15226SOL    HW247120   5.012   4.576   3.967
15227SOL     OW47121   5.515   5.451   4.884
15227SOL    HW147122   5.567   5.475   4.808
15227SOL    HW247123   5.478   5.365   4.863
15228SOL     OW47124   4.959   5.461   4.830
15228SOL    HW147125   5.048   5.480   4.801
15228SOL    HW247126   4.960   5.369   4.855
15229SOL     OW47127   4.421   5.426   5.480
15229SOL    HW147128   4.350   5.482   5.450
15229SOL    HW247129   4.431   5.359   5.412
15230SOL     OW47130   5.448   3.886   4.227
15230SOL    HW147131   5.518   3.866   4.165
15230SOL    HW247132   5.431   3.803   4.272
15231SOL     OW47133   5.134   5.290   4.225
15231SOL    HW147134   5.136   5.330   4.139
15231SOL    HW247135   5.063   5.336   4.271
15232SOL     OW47136   3.844   5.603   5.575
15232SOL    HW147137   3.798   5.524   5.605
15232SOL    HW247138   3.915   5.615   5.639
15233SOL     OW47139   4.992   4.645   4.401
15233SOL    HW147140   5.063   4.583   4.420
15233SOL    HW247141   5.031   4.708   4.341
15234SOL     OW47142   4.368   5.342   3.868
15234SOL    HW147143   4.398   5.365   3.780
15234SOL    HW247144   4.350   5.248   3.864
15235SOL     OW47145   5.342   5.454   5.111
15235SOL    HW147146   5.402   5.453   5.036
15235SOL    HW247147   5.338   5.546   5.138
15236SOL     OW47148   5.563   3.888   4.685
15236SOL    HW147149   5.592   3.799   4.663
15236SOL    HW247150   5.475   3.895   4.647
15237SOL     OW47151   3.944   3.965   4.443
15237SOL    HW147152   3.902   4.046   4.414
15237SOL    HW247153   3.950   3.975   4.538
15238SOL     OW47154   4.937   5.320   3.751
15238SOL    HW147155   4.927   5.231   3.784
15238SOL    HW247156   4.869   5.329   3.684
15239SOL     OW47157   5.197   5.402   3.759
15239SOL    HW147158   5.109   5.367   3.745
15239SOL    HW247159   5.240   5.393   3.673
15240SOL     OW47160   5.380   5.036   5.036
15240SOL    HW147161   5.400   4.995   5.120
15240SOL    HW247162   5.297   5.082   5.052
15241SOL     OW47163   4.790   4.833   4.426
15241SOL    HW147164   4.716   4.798   4.476
15241SOL    HW247165   4.850   4.759   4.417
15242SOL     OW47166   4.407   5.238   4.174
15242SOL    HW147167   4.417   5.146   4.149
15242SOL    HW247168   4.313   5.256   4.165
15243SOL     OW47169   5.458   4.141   5.087
15243SOL    HW147170   5.539   4.190   5.093
15243SOL    HW247171   5.482   4.060   5.042
15244SOL     OW47172   4.390   3.920   5.233
15244SOL    HW147173   4.474   3.894   5.195
15244SOL    HW247174   4.412   3.953   5.320
15245SOL     OW47175   3.763   4.027   3.729
15245SOL    HW147176   3.706   4.068   3.794
15245SOL    HW247177   3.824   4.097   3.704
15246SOL     OW47178   5.225   4.609   5.057
15246SOL    HW147179   5.144   4.625   5.106
15246SOL    HW247180   5.239   4.514   5.064
15247SOL     OW47181   4.887   5.065   3.843
15247SOL    HW147182   4.793   5.084   3.843
15247SOL    HW247183   4.910   5.055   3.935
15248SOL     OW47184   5.213   5.515   4.740
15248SOL    HW147185   5.242   5.525   4.649
15248SOL    HW247186   5.269   5.446   4.775
15249SOL     OW47187   4.461   4.281   5.474
15249SOL    HW147188   4.410   4.299   5.553
15249SOL    HW247189   4.466   4.185   5.471
15250SOL     OW47190   5.182   4.952   5.351
15250SOL    HW147191   5.167   4.948   5.445
15250SOL    HW247192   5.276   4.943   5.341
15251SOL     OW47193   4.098   5.468   5.302
15251SOL    HW147194   4.018   5.512   5.271
15251SOL    HW247195   4.067   5.397   5.358
15252SOL     OW47196   5.490   4.601   4.935
15252SOL    HW147197   5.451   4.514   4.929
15252SOL    HW247198   5.415   4.661   4.925
15253SOL     OW47199   4.995   4.065   4.171
15253SOL    HW147200   5.040   3.980   4.169
15253SOL    HW247201   5.023   4.106   4.253
15254SOL     OW47202   5.476   4.064   5.352
15254SOL    HW147203   5.444   4.093   5.267
15254SOL    HW247204   5.403   4.013   5.389
15255SOL     OW47205   5.519   4.674   5.205
15255SOL    HW147206   5.435   4.675   5.250
15255SOL    HW247207   5.499   4.648   5.116
15256SOL     OW47208   4.635   5.174   3.783
15256SOL    HW147209   4.545   5.141   3.772
15256SOL    HW247210   4.646   5.237   3.712
15257SOL     OW47211   4.385   5.521   4.657
15257SOL    HW147212   4.373   5.615   4.642
15257SOL    HW247213   4.479   5.507   4.647
15258SOL     OW47214   4.599   4.748   4.602
15258SOL    HW147215   4.547   4.669   4.593
15258SOL    HW247216   4.574   4.784   4.687
15259SOL     OW47217   5.570   5.270   4.560
15259SOL    HW147218   5.480   5.262   4.529
15259SOL    HW247219   5.580   5.198   4.623
15260SOL     OW47220   5.567   3.919   4.964
15260SOL    HW147221   5.523   3.842   5.002
15260SOL    HW247222   5.555   3.908   4.869
15261SOL     OW47223   5.412   5.214   4.824
15261SOL    HW147224   5.339   5.183   4.770
15261SOL    HW247225   5.413   5.153   4.898
15262SOL     OW47226   4.544   5.284   4.405
15262SOL    HW147227   4.496   5.283   4.322
15262SOL    HW247228   4.499   5.219   4.459
15263SOL     OW47229   5.224   3.945   4.840
15263SOL    HW147230   5.267   3.872   4.885
15263SOL    HW247231   5.139   3.954   4.882
15264SOL     OW47232   4.337   5.280   5.012
15264SOL    HW147233   4.337   5.364   5.057
15264SOL    HW247234   4.429   5.266   4.988
15265SOL     OW47235   5.109   3.788   3.881
15265SOL    HW147236   5.133   3.713   3.826
15265SOL    HW247237   5.019   3.770   3.907
15266SOL     OW47238   5.064   4.191   4.406
15266SOL    HW147239   5.005   4.265   4.397
15266SOL    HW247240   5.031   4.143   4.482
15267SOL     OW47241   5.309   3.916   4.588
15267SOL    HW147242   5.269   3.934   4.672
15267SOL    HW247243   5.311   4.000   4.543
15268SOL     OW47244   4.622   5.411   4.054
15268SOL    HW147245   4.548   5.358   4.026
15268SOL    HW247246   4.589   5.461   4.129
15269SOL     OW47247   3.958   4.306   5.700
15269SOL    HW147248   3.890   4.298   5.767
15269SOL    HW247249   3.913   4.340   5.623
15270SOL     OW47250   3.917   4.069   6.598
15270SOL    HW147251   3.955   4.033   6.678
15270SOL    HW247252   3.841   4.015   6.580
15271SOL     OW47253   3.751   4.135   6.260
15271SOL    HW147254   3.710   4.170   6.340
15271SOL    HW247255   3.677   4.108   6.205
15272SOL     OW47256   5.302   5.254   6.312
15272SOL    HW147257   5.255   5.213   6.385
15272SOL    HW247258   5.240   5.251   6.239
15273SOL     OW47259   5.536   4.304   5.800
15273SOL    HW147260   5.496   4.300   5.714
15273SOL    HW247261   5.471   4.265   5.859
15274SOL     OW47262   4.442   4.725   6.236
15274SOL    HW147263   4.512   4.713   6.300
15274SOL    HW247264   4.373   4.771   6.284
15275SOL     OW47265   3.994   5.239   6.647
15275SOL    HW147266   3.922   5.176   6.651
15275SOL    HW247267   4.067   5.189   6.608
15276SOL     OW47268   5.184   5.225   6.959
15276SOL    HW147269   5.235   5.305   6.971
15276SOL    HW247270   5.113   5.233   7.022
15277SOL     OW47271   5.331   4.149   6.312
15277SOL    HW147272   5.265   4.125   6.246
15277SOL    HW247273   5.313   4.240   6.332
15278SOL     OW47274   3.954   5.473   6.009
15278SOL    HW147275   3.983   5.521   6.087
15278SOL    HW247276   3.963   5.381   6.033
15279SOL     OW47277   4.858   5.059   7.287
15279SOL    HW147278   4.892   5.053   7.377
15279SOL    HW247279   4.820   4.973   7.270
15280SOL     OW47280   3.964   5.213   6.100
15280SOL    HW147281   3.958   5.165   6.017
15280SOL    HW247282   3.933   5.150   6.166
15281SOL     OW47283   3.998   4.804   6.490
15281SOL    HW147284   4.006   4.710   6.504
15281SOL    HW247285   3.993   4.841   6.578
15282SOL     OW47286   4.389   5.520   7.074
15282SOL    HW147287   4.350   5.446   7.028
15282SOL    HW247288   4.347   5.597   7.035
15283SOL     OW47289   4.330   4.703   5.715
15283SOL    HW147290   4.389   4.746   5.653
15283SOL    HW247291   4.349   4.744   5.799
15284SOL     OW47292   5.313   3.853   7.047
15284SOL    HW147293   5.286   3.911   6.976
15284SOL    HW247294   5.288   3.900   7.127
15285SOL     OW47295   3.853   4.397   6.143
15285SOL    HW147296   3.829   4.309   6.171
15285SOL    HW247297   3.843   4.451   6.221
15286SOL     OW47298   5.571   5.475   5.883
15286SOL    HW147299   5.633   5.439   5.946
15286SOL    HW247300   5.585   5.570   5.887
15287SOL     OW47301   3.777   5.375   5.699
15287SOL    HW147302   3.837   5.308   5.732
15287SOL    HW247303   3.726   5.402   5.775
15288SOL     OW47304   5.445   4.665   6.230
15288SOL    HW147305   5.444   4.576   6.195
15288SOL    HW247306   5.391   4.715   6.169
15289SOL     OW47307   5.374   4.828   6.002
15289SOL    HW147308   5.465   4.822   5.972
15289SOL    HW247309   5.371   4.906   6.057
15290SOL     OW47310   3.855   4.445   7.148
15290SOL    HW147311   3.939   4.482   7.175
15290SOL    HW247312   3.801   4.521   7.126
15291SOL     OW47313   4.307   5.121   6.313
15291SOL    HW147314   4.278   5.032   6.335
15291SOL    HW247315   4.297   5.127   6.219
15292SOL     OW47316   5.017   4.952   6.994
15292SOL    HW147317   5.044   4.887   6.929
15292SOL    HW247318   5.074   4.938   7.069
15293SOL     OW47319   3.929   4.702   6.785
15293SOL    HW147320   3.958   4.629   6.730
15293SOL    HW247321   3.869   4.663   6.848
15294SOL     OW47322   5.260   4.722   5.777
15294SOL    HW147323   5.191   4.659   5.800
15294SOL    HW247324   5.292   4.754   5.861
15295SOL     OW47325   4.932   5.538   7.212
15295SOL    HW147326   4.914   5.590   7.134
15295SOL    HW247327   4.941   5.449   7.180
15296SOL     OW47328   4.040   3.988   7.425
15296SOL    HW147329   4.067   4.072   7.387
15296SOL    HW247330   3.949   4.001   7.449
15297SOL     OW47331   5.202   5.126   6.534
15297SOL    HW147332   5.128   5.155   6.588
15297SOL    HW247333   5.174   5.042   6.498
15298SOL     OW47334   5.369   5.497   6.156
15298SOL    HW147335   5.339   5.456   6.074
15298SOL    HW247336   5.359   5.429   6.222
15299SOL     OW47337   4.310   4.442   5.859
15299SOL    HW147338   4.302   4.527   5.815
15299SOL    HW247339   4.242   4.444   5.927
15300SOL     OW47340   5.292   5.436   5.891
15300SOL    HW147341   5.387   5.434   5.880
15300SOL    HW247342   5.257   5.407   5.806
15301SOL     OW47343   5.120   4.218   7.265
15301SOL    HW147344   5.034   4.214   7.305
15301SOL    HW247345   5.161   4.134   7.286
15302SOL     OW47346   4.785   4.425   6.006
15302SOL    HW147347   4.819   4.359   6.066
15302SOL    HW247348   4.697   4.393   5.983
15303SOL     OW47349   3.833   4.546   6.369
15303SOL    HW147350   3.898   4.532   6.438
15303SOL    HW247351   3.797   4.633   6.388
15304SOL     OW47352   3.856   5.600   7.156
15304SOL    HW147353   3.835   5.572   7.245
15304SOL    HW247354   3.819   5.531   7.101
15305SOL     OW47355   4.623   4.066   5.788
15305SOL    HW147356   4.661   4.115   5.715
15305SOL    HW247357   4.590   3.985   5.749
15306SOL     OW47358   5.461   4.307   7.414
15306SOL    HW147359   5.414   4.374   7.365
15306SOL    HW247360   5.461   4.231   7.356
15307SOL     OW47361   5.119   4.921   6.157
15307SOL    HW147362   5.141   4.830   6.137
15307SOL    HW247363   5.054   4.945   6.090
15308SOL     OW47364   4.742   5.207   6.070
15308SOL    HW147365   4.704   5.271   6.011
15308SOL    HW247366   4.684   5.207   6.147
15309SOL     OW47367   4.079   5.527   6.454
15309SOL    HW147368   4.131   5.448   6.466
15309SOL    HW247369   4.140   5.599   6.476
15310SOL     OW47370   5.533   4.812   6.445
15310SOL    HW147371   5.495   4.765   6.371
15310SOL    HW247372   5.466   4.808   6.513
15311SOL     OW47373   4.958   5.266   7.117
15311SOL    HW147374   4.950   5.192   7.177
15311SOL    HW247375   4.893   5.248   7.049
15312SOL     OW47376   4.078   4.646   5.866
15312SOL    HW147377   4.118   4.667   5.782
15312SOL    HW247378   3.998   4.599   5.843
15313SOL     OW47379   5.238   4.407   6.314
15313SOL    HW147380   5.155   4.359   6.317
15313SOL    HW247381   5.213   4.498   6.296
15314SOL     OW47382   4.858   5.506   5.800
15314SOL    HW147383   4.779   5.481   5.849
15314SOL    HW247384   4.876   5.430   5.743
15315SOL     OW47385   3.903   4.021   7.101
15315SOL    HW147386   3.813   3.988   7.106
15315SOL    HW247387   3.957   3.951   7.137
15316SOL     OW47388   5.347   5.114   5.661
15316SOL    HW147389   5.289   5.190   5.666
15316SOL    HW247390   5.287   5.040   5.650
15317SOL     OW47391   4.271   5.511   5.871
15317SOL    HW147392   4.243   5.473   5.955
15317SOL    HW247393   4.312   5.438   5.825
15318SOL     OW47394   4.014   5.505   6.777
15318SOL    HW147395   3.961   5.464   6.845
15318SOL    HW247396   4.028   5.435   6.712
15319SOL     OW47397   4.660   5.427   6.464
15319SOL    HW147398   4.666   5.347   6.517
15319SOL    HW247399   4.615   5.400   6.384
15320SOL     OW47400   4.126   4.403   6.064
15320SOL    HW147401   4.139   4.308   6.075
15320SOL    HW247402   4.032   4.416   6.081
15321SOL     OW47403   5.232   3.960   7.318
15321SOL    HW147404   5.261   3.964   7.409
15321SOL    HW247405   5.167   3.890   7.317
15322SOL     OW47406   4.387   3.838   5.678
15322SOL    HW147407   4.429   3.757   5.709
15322SOL    HW247408   4.318   3.808   5.619
15323SOL     OW47409   4.600   5.254   6.816
15323SOL    HW147410   4.548   5.199   6.758
15323SOL    HW247411   4.673   5.198   6.843
15324SOL     OW47412   5.163   4.301   7.002
15324SOL    HW147413   5.151   4.267   7.090
15324SOL    HW247414   5.110   4.380   6.999
15325SOL     OW47415   4.592   5.164   6.491
15325SOL    HW147416   4.649   5.093   6.463
15325SOL    HW247417   4.527   5.123   6.548
15326SOL     OW47418   5.154   4.922   5.620
15326SOL    HW147419   5.182   4.845   5.670
15326SOL    HW247420   5.065   4.938   5.652
15327SOL     OW47421   4.661   4.006   6.061
15327SOL    HW147422   4.633   4.017   5.970
15327SOL    HW247423   4.756   4.023   6.059
15328SOL     OW47424   4.988   5.280   6.364
15328SOL    HW147425   4.968   5.358   6.312
15328SOL    HW247426   4.955   5.300   6.451
15329SOL     OW47427   4.201   4.869   6.308
15329SOL    HW147428   4.130   4.846   6.369
15329SOL    HW247429   4.162   4.858   6.222
15330SOL     OW47430   4.977   5.522   6.208
15330SOL    HW147431   5.006   5.587   6.144
15330SOL    HW247432   4.896   5.558   6.244
15331SOL     OW47433   4.759   4.248   5.612
15331SOL    HW147434   4.714   4.332   5.604
15331SOL    HW247435   4.812   4.256   5.691
15332SOL     OW47436   3.835   4.256   6.957
15332SOL    HW147437   3.882   4.182   6.995
15332SOL    HW247438   3.841   4.325   7.023
15333SOL     OW47439   4.601   4.219   6.231
15333SOL    HW147440   4.538   4.272   6.183
15333SOL    HW247441   4.616   4.143   6.174
15334SOL     OW47442   5.124   4.888   6.432
15334SOL    HW147443   5.052   4.824   6.438
15334SOL    HW247444   5.135   4.904   6.338
15335SOL     OW47445   5.632   4.539   5.935
15335SOL    HW147446   5.659   4.488   6.012
15335SOL    HW247447   5.568   4.483   5.890
15336SOL     OW47448   5.435   5.034   6.167
15336SOL    HW147449   5.518   5.016   6.212
15336SOL    HW247450   5.381   5.079   6.233
15337SOL     OW47451   5.127   4.273   5.657
15337SOL    HW147452   5.052   4.272   5.717
15337SOL    HW247453   5.173   4.191   5.673
15338SOL     OW47454   4.299   4.001   5.889
15338SOL    HW147455   4.324   3.943   5.817
15338SOL    HW247456   4.256   4.076   5.847
15339SOL     OW47457   5.466   4.964   7.156
15339SOL    HW147458   5.538   4.913   7.192
15339SOL    HW247459   5.490   5.055   7.174
15340SOL     OW47460   4.788   5.096   6.972
15340SOL    HW147461   4.733   5.049   7.034
15340SOL    HW247462   4.871   5.048   6.971
15341SOL     OW47463   5.343   5.365   7.262
15341SOL    HW147464   5.327   5.392   7.171
15341SOL    HW247465   5.417   5.306   7.257
15342SOL     OW47466   4.898   4.998   6.668
15342SOL    HW147467   4.819   4.961   6.708
15342SOL    HW247468   4.879   4.997   6.574
15343SOL     OW47469   5.348   4.830   6.650
15343SOL    HW147470   5.338   4.888   6.725
15343SOL    HW247471   5.262   4.828   6.609
15344SOL     OW47472   4.716   4.817   7.269
15344SOL    HW147473   4.627   4.852   7.268
15344SOL    HW247474   4.716   4.748   7.203
15345SOL     OW47475   4.445   4.802   5.957
15345SOL    HW147476   4.421   4.775   6.046
15345SOL    HW247477   4.526   4.753   5.939
15346SOL     OW47478   3.820   5.408   6.948
15346SOL    HW147479   3.760   5.420   6.874
15346SOL    HW247480   3.832   5.314   6.955
15347SOL     OW47481   4.107   4.855   6.047
15347SOL    HW147482   4.096   4.910   5.969
15347SOL    HW247483   4.093   4.765   6.015
15348SOL     OW47484   4.295   4.248   6.411
15348SOL    HW147485   4.287   4.318   6.345
15348SOL    HW247486   4.389   4.241   6.426
15349SOL     OW47487   4.968   5.093   5.968
15349SOL    HW147488   5.034   5.139   6.019
15349SOL    HW247489   4.885   5.121   6.005
15350SOL     OW47490   5.026   5.223   6.730
15350SOL    HW147491   5.077   5.207   6.810
15350SOL    HW247492   4.974   5.144   6.719
15351SOL     OW47493   5.345   4.430   6.056
15351SOL    HW147494   5.313   4.397   6.140
15351SOL    HW247495   5.267   4.434   6.001
15352SOL     OW47496   5.342   4.511   7.276
15352SOL    HW147497   5.249   4.531   7.266
15352SOL    HW247498   5.380   4.526   7.190
15353SOL     OW47499   4.194   3.761   7.396
15353SOL    HW147500   4.189   3.703   7.320
15353SOL    HW247501   4.129   3.830   7.377
15354SOL     OW47502   4.277   4.649   6.630
15354SOL    HW147503   4.348   4.656   6.566
15354SOL    HW247504   4.258   4.739   6.655
15355SOL     OW47505   4.925   4.265   5.837
15355SOL    HW147506   4.938   4.202   5.909
15355SOL    HW247507   4.872   4.335   5.875
15356SOL     OW47508   3.978   3.971   6.838
15356SOL    HW147509   3.965   3.978   6.933
15356SOL    HW247510   4.055   3.914   6.829
15357SOL     OW47511   5.470   4.698   7.432
15357SOL    HW147512   5.433   4.625   7.382
15357SOL    HW247513   5.409   4.711   7.505
15358SOL     OW47514   5.342   4.077   5.956
15358SOL    HW147515   5.390   4.017   6.013
15358SOL    HW247516   5.262   4.098   6.006
15359SOL     OW47517   4.700   5.287   7.295
15359SOL    HW147518   4.693   5.330   7.209
15359SOL    HW247519   4.749   5.207   7.276
15360SOL     OW47520   5.574   5.220   7.197
15360SOL    HW147521   5.593   5.254   7.110
15360SOL    HW247522   5.657   5.228   7.244
15361SOL     OW47523   5.241   4.002   5.709
15361SOL    HW147524   5.174   3.936   5.727
15361SOL    HW247525   5.276   4.025   5.795
15362SOL     OW47526   5.029   4.545   5.647
15362SOL    HW147527   5.049   4.452   5.637
15362SOL    HW247528   5.047   4.583   5.561
15363SOL     OW47529   4.811   5.010   6.413
15363SOL    HW147530   4.803   4.923   6.376
15363SOL    HW247531   4.863   5.059   6.349
15364SOL     OW47532   4.035   4.538   6.572
15364SOL    HW147533   4.124   4.569   6.588
15364SOL    HW247534   4.042   4.443   6.582
15365SOL     OW47535   4.102   4.274   6.602
15365SOL    HW147536   4.037   4.205   6.596
15365SOL    HW247537   4.159   4.260   6.526
15366SOL     OW47538   3.799   5.504   6.505
15366SOL    HW147539   3.770   5.417   6.477
15366SOL    HW247540   3.894   5.502   6.495
15367SOL     OW47541   4.273   5.323   6.492
15367SOL    HW147542   4.303   5.273   6.568
15367SOL    HW247543   4.277   5.261   6.419
15368SOL     OW47544   3.763   4.278   6.695
15368SOL    HW147545   3.812   4.210   6.649
15368SOL    HW247546   3.799   4.277   6.784
15369SOL     OW47547   3.898   4.215   7.293
15369SOL    HW147548   3.909   4.152   7.222
15369SOL    HW247549   3.880   4.298   7.250
15370SOL     OW47550   5.098   4.653   7.252
15370SOL    HW147551   5.115   4.747   7.248
15370SOL    HW247552   5.096   4.625   7.161
15371SOL     OW47553   4.552   4.321   5.917
15371SOL    HW147554   4.544   4.230   5.887
15371SOL    HW247555   4.466   4.359   5.901
15372SOL     OW47556   5.362   4.366   6.792
15372SOL    HW147557   5.308   4.308   6.847
15372SOL    HW247558   5.419   4.307   6.743
15373SOL     OW47559   4.651   5.404   7.050
15373SOL    HW147560   4.641   5.357   6.967
15373SOL    HW247561   4.576   5.464   7.052
15374SOL     OW47562   4.210   4.216   5.733
15374SOL    HW147563   4.250   4.288   5.781
15374SOL    HW247564   4.118   4.242   5.723
15375SOL     OW47565   5.053   4.787   6.765
15375SOL    HW147566   5.001   4.711   6.739
15375SOL    HW247567   5.015   4.860   6.716
15376SOL     OW47568   5.025   4.572   5.920
15376SOL    HW147569   4.944   4.535   5.955
15376SOL    HW247570   5.016   4.564   5.825
15377SOL     OW47571   5.525   5.446   6.757
15377SOL    HW147572   5.570   5.473   6.678
15377SOL    HW247573   5.479   5.366   6.733
15378SOL     OW47574   4.964   5.487   6.705
15378SOL    HW147575   5.048   5.506   6.663
15378SOL    HW247576   4.967   5.394   6.724
15379SOL     OW47577   3.788   5.030   6.615
15379SOL    HW147578   3.793   4.983   6.699
15379SOL    HW247579   3.761   4.964   6.552
15380SOL     OW47580   4.427   5.417   7.346
15380SOL    HW147581   4.383   5.462   7.273
15380SOL    HW247582   4.501   5.372   7.305
15381SOL     OW47583   5.484   3.883   6.110
15381SOL    HW147584   5.540   3.863   6.035
15381SOL    HW247585   5.445   3.798   6.133
15382SOL     OW47586   5.138   5.297   6.088
15382SOL    HW147587   5.164   5.338   6.006
15382SOL    HW247588   5.064   5.349   6.119
15383SOL     OW47589   3.838   5.554   7.429
15383SOL    HW147590   3.801   5.467   7.446
15383SOL    HW247591   3.900   5.569   7.500
15384SOL     OW47592   5.100   4.631   6.218
15384SOL    HW147593   5.053   4.605   6.139
15384SOL    HW247594   5.032   4.661   6.278
15385SOL     OW47595   4.417   5.321   5.747
15385SOL    HW147596   4.430   5.329   5.653
15385SOL    HW247597   4.414   5.226   5.763
15386SOL     OW47598   5.345   5.451   6.990
15386SOL    HW147599   5.400   5.448   6.911
15386SOL    HW247600   5.332   5.544   7.006
15387SOL     OW47601   5.536   3.893   6.582
15387SOL    HW147602   5.589   3.831   6.532
15387SOL    HW247603   5.455   3.901   6.533
15388SOL     OW47604   4.015   4.098   6.340
15388SOL    HW147605   3.928   4.115   6.302
15388SOL    HW247606   3.997   4.068   6.429
15389SOL     OW47607   4.932   5.304   5.618
15389SOL    HW147608   4.924   5.214   5.651
15389SOL    HW247609   4.859   5.313   5.556
15390SOL     OW47610   4.676   4.668   5.893
15390SOL    HW147611   4.685   4.639   5.803
15390SOL    HW247612   4.697   4.591   5.946
15391SOL     OW47613   5.196   5.386   5.635
15391SOL    HW147614   5.108   5.351   5.621
15391SOL    HW247615   5.237   5.382   5.549
15392SOL     OW47616   5.350   5.019   6.880
15392SOL    HW147617   5.382   4.977   6.960
15392SOL    HW247618   5.280   5.077   6.909
15393SOL     OW47619   4.309   5.246   6.047
15393SOL    HW147620   4.363   5.187   5.996
15393SOL    HW247621   4.219   5.213   6.035
15394SOL     OW47622   5.480   4.109   6.993
15394SOL    HW147623   5.534   4.183   6.967
15394SOL    HW247624   5.503   4.039   6.932
15395SOL     OW47625   5.137   4.600   6.991
15395SOL    HW147626   5.068   4.607   6.925
15395SOL    HW247627   5.218   4.605   6.941
15396SOL     OW47628   4.908   5.038   5.701
15396SOL    HW147629   4.855   4.959   5.690
15396SOL    HW247630   4.920   5.046   5.795
15397SOL     OW47631   5.213   5.525   6.593
15397SOL    HW147632   5.227   5.540   6.499
15397SOL    HW247633   5.256   5.441   6.611
15398SOL     OW47634   5.192   4.919   7.213
15398SOL    HW147635   5.180   4.936   7.306
15398SOL    HW247636   5.285   4.936   7.198
15399SOL     OW47637   4.102   5.473   7.166
15399SOL    HW147638   4.014   5.510   7.154
15399SOL    HW247639   4.098   5.388   7.123
15400SOL     OW47640   5.388   4.625   6.848
15400SOL    HW147641   5.382   4.533   6.821
15400SOL    HW247642   5.376   4.674   6.767
15401SOL     OW47643   4.322   4.465   6.245
15401SOL    HW147644   4.360   4.550   6.226
15401SOL    HW247645   4.253   4.454   6.179
15402SOL     OW47646   5.468   4.083   7.260
15402SOL    HW147647   5.469   4.096   7.165
15402SOL    HW247648   5.387   4.036   7.277
15403SOL     OW47649   5.505   4.656   7.088
15403SOL    HW147650   5.458   4.735   7.116
15403SOL    HW247651   5.474   4.640   7.000
15404SOL     OW47652   4.440   5.593   6.591
15404SOL    HW147653   4.375   5.617   6.525
15404SOL    HW247654   4.470   5.506   6.564
15405SOL     OW47655   4.824   4.788   5.616
15405SOL    HW147656   4.735   4.791   5.581
15405SOL    HW247657   4.845   4.694   5.619
15406SOL     OW47658   5.566   5.273   6.422
15406SOL    HW147659   5.479   5.261   6.383
15406SOL    HW247660   5.584   5.190   6.466
15407SOL     OW47661   3.819   5.008   6.243
15407SOL    HW147662   3.828   4.948   6.317
15407SOL    HW247663   3.765   4.960   6.179
15408SOL     OW47664   5.586   3.908   6.845
15408SOL    HW147665   5.548   3.823   6.868
15408SOL    HW247666   5.575   3.915   6.750
15409SOL     OW47667   4.158   4.141   6.106
15409SOL    HW147668   4.192   4.062   6.064
15409SOL    HW247669   4.121   4.110   6.189
15410SOL     OW47670   5.401   5.217   6.692
15410SOL    HW147671   5.338   5.188   6.627
15410SOL    HW247672   5.402   5.147   6.758
15411SOL     OW47673   4.527   5.305   6.247
15411SOL    HW147674   4.451   5.299   6.189
15411SOL    HW247675   4.510   5.240   6.315
15412SOL     OW47676   5.160   3.907   6.756
15412SOL    HW147677   5.115   3.824   6.773
15412SOL    HW247678   5.100   3.956   6.700
15413SOL     OW47679   4.468   5.074   5.908
15413SOL    HW147680   4.426   4.988   5.913
15413SOL    HW247681   4.562   5.056   5.921
15414SOL     OW47682   4.334   5.306   6.908
15414SOL    HW147683   4.421   5.308   6.869
15414SOL    HW247684   4.296   5.223   6.879
15415SOL     OW47685   5.055   3.796   5.736
15415SOL    HW147686   5.064   3.712   5.691
15415SOL    HW247687   4.971   3.790   5.781
15416SOL     OW47688   5.290   3.918   6.460
15416SOL    HW147689   5.231   3.954   6.526
15416SOL    HW247690   5.306   3.991   6.400
15417SOL     OW47691   4.624   5.411   5.920
15417SOL    HW147692   4.550   5.374   5.872
15417SOL    HW247693   4.584   5.461   5.991
15418SOL     OW47694   5.297   5.238   8.169
15418SOL    HW147695   5.254   5.201   8.246
15418SOL    HW247696   5.233   5.229   8.099
15419SOL     OW47697   5.519   4.323   7.673
15419SOL    HW147698   5.492   4.317   7.581
15419SOL    HW247699   5.479   4.247   7.714
15420SOL     OW47700   4.585   4.508   9.252
15420SOL    HW147701   4.537   4.582   9.289
15420SOL    HW247702   4.615   4.540   9.167
15421SOL     OW47703   4.435   4.895   9.280
15421SOL    HW147704   4.481   4.975   9.307
15421SOL    HW247705   4.371   4.925   9.215
15422SOL     OW47706   5.183   5.222   8.827
15422SOL    HW147707   5.230   5.305   8.836
15422SOL    HW247708   5.110   5.229   8.887
15423SOL     OW47709   4.145   4.059   8.938
15423SOL    HW147710   4.226   4.050   8.888
15423SOL    HW247711   4.105   3.972   8.935
15424SOL     OW47712   5.338   4.183   8.200
15424SOL    HW147713   5.273   4.190   8.129
15424SOL    HW247714   5.303   4.239   8.270
15425SOL     OW47715   3.935   5.439   7.912
15425SOL    HW147716   3.970   5.513   7.962
15425SOL    HW247717   4.004   5.419   7.848
15426SOL     OW47718   4.888   5.064   9.161
15426SOL    HW147719   4.894   5.050   9.256
15426SOL    HW247720   4.831   4.993   9.130
15427SOL     OW47721   3.961   5.166   8.024
15427SOL    HW147722   3.919   5.249   8.002
15427SOL    HW247723   3.889   5.108   8.048
15428SOL     OW47724   4.358   5.514   8.938
15428SOL    HW147725   4.267   5.488   8.948
15428SOL    HW247726   4.353   5.606   8.911
15429SOL     OW47727   5.297   3.857   8.899
15429SOL    HW147728   5.297   3.892   8.810
15429SOL    HW247729   5.204   3.850   8.923
15430SOL     OW47730   5.555   5.493   7.784
15430SOL    HW147731   5.633   5.463   7.830
15430SOL    HW247732   5.579   5.579   7.749
15431SOL     OW47733   3.757   5.330   7.565
15431SOL    HW147734   3.764   5.236   7.582
15431SOL    HW247735   3.728   5.367   7.648
15432SOL     OW47736   5.466   4.670   8.099
15432SOL    HW147737   5.460   4.578   8.075
15432SOL    HW247738   5.421   4.716   8.028
15433SOL     OW47739   5.360   4.813   7.877
15433SOL    HW147740   5.441   4.805   7.828
15433SOL    HW247741   5.370   4.893   7.928
15434SOL     OW47742   3.838   4.522   9.075
15434SOL    HW147743   3.919   4.525   9.024
15434SOL    HW247744   3.794   4.605   9.054
15435SOL     OW47745   5.016   4.961   8.860
15435SOL    HW147746   5.033   4.889   8.800
15435SOL    HW247747   5.074   4.945   8.935
15436SOL     OW47748   4.548   3.733   8.006
15436SOL    HW147749   4.593   3.752   7.924
15436SOL    HW247750   4.457   3.758   7.989
15437SOL     OW47751   5.262   4.720   7.619
15437SOL    HW147752   5.191   4.658   7.606
15437SOL    HW247753   5.268   4.730   7.714
15438SOL     OW47754   4.975   5.552   9.067
15438SOL    HW147755   4.930   5.592   8.993
15438SOL    HW247756   4.964   5.458   9.055
15439SOL     OW47757   4.067   4.061   9.277
15439SOL    HW147758   4.160   4.056   9.301
15439SOL    HW247759   4.043   3.971   9.256
15440SOL     OW47760   5.191   5.121   8.393
15440SOL    HW147761   5.120   5.144   8.453
15440SOL    HW247762   5.172   5.031   8.366
15441SOL     OW47763   5.375   5.472   8.045
15441SOL    HW147764   5.366   5.454   7.951
15441SOL    HW247765   5.346   5.391   8.087
15442SOL     OW47766   5.048   4.075   8.379
15442SOL    HW147767   4.998   4.097   8.300
15442SOL    HW247768   4.982   4.045   8.442
15443SOL     OW47769   5.288   5.430   7.767
15443SOL    HW147770   5.382   5.441   7.754
15443SOL    HW247771   5.255   5.406   7.681
15444SOL     OW47772   4.526   4.330   8.905
15444SOL    HW147773   4.479   4.304   8.984
15444SOL    HW247774   4.492   4.272   8.837
15445SOL     OW47775   5.152   4.233   9.116
15445SOL    HW147776   5.122   4.266   9.201
15445SOL    HW247777   5.103   4.152   9.104
15446SOL     OW47778   4.680   4.616   9.014
15446SOL    HW147779   4.731   4.539   8.988
15446SOL    HW247780   4.640   4.647   8.934
15447SOL     OW47781   4.729   4.133   8.679
15447SOL    HW147782   4.636   4.139   8.703
15447SOL    HW247783   4.727   4.110   8.586
15448SOL     OW47784   3.837   5.595   9.026
15448SOL    HW147785   3.828   5.580   9.120
15448SOL    HW247786   3.801   5.516   8.986
15449SOL     OW47787   5.421   4.290   9.282
15449SOL    HW147788   5.392   4.365   9.231
15449SOL    HW247789   5.422   4.217   9.220
15450SOL     OW47790   5.116   4.917   8.027
15450SOL    HW147791   5.169   4.854   7.979
15450SOL    HW247792   5.061   4.958   7.960
15451SOL     OW47793   4.261   3.894   8.344
15451SOL    HW147794   4.273   3.955   8.417
15451SOL    HW247795   4.266   3.949   8.266
15452SOL     OW47796   4.744   5.197   7.948
15452SOL    HW147797   4.705   5.251   7.878
15452SOL    HW247798   4.686   5.209   8.023
15453SOL     OW47799   4.077   5.539   8.324
15453SOL    HW147800   4.137   5.465   8.333
15453SOL    HW247801   4.133   5.616   8.335
15454SOL     OW47802   5.539   4.813   8.319
15454SOL    HW147803   5.503   4.768   8.242
15454SOL    HW247804   5.471   4.803   8.386
15455SOL     OW47805   4.955   5.265   8.983
15455SOL    HW147806   4.947   5.198   9.051
15455SOL    HW247807   4.894   5.237   8.915
15456SOL     OW47808   4.196   4.986   9.131
15456SOL    HW147809   4.170   4.952   9.045
15456SOL    HW247810   4.115   4.989   9.181
15457SOL     OW47811   4.851   5.502   7.682
15457SOL    HW147812   4.772   5.467   7.723
15457SOL    HW247813   4.872   5.441   7.612
15458SOL     OW47814   5.350   5.116   7.548
15458SOL    HW147815   5.306   5.198   7.526
15458SOL    HW247816   5.286   5.048   7.529
15459SOL     OW47817   4.192   5.473   7.764
15459SOL    HW147818   4.241   5.461   7.845
15459SOL    HW247819   4.240   5.423   7.699
15460SOL     OW47820   4.024   5.496   8.671
15460SOL    HW147821   4.049   5.419   8.722
15460SOL    HW247822   4.004   5.461   8.584
15461SOL     OW47823   4.662   5.406   8.341
15461SOL    HW147824   4.699   5.334   8.392
15461SOL    HW247825   4.619   5.363   8.266
15462SOL     OW47826   4.627   5.238   8.647
15462SOL    HW147827   4.614   5.165   8.586
15462SOL    HW247828   4.691   5.205   8.711
15463SOL     OW47829   5.071   4.315   8.864
15463SOL    HW147830   5.105   4.292   8.950
15463SOL    HW247831   5.094   4.407   8.853
15464SOL     OW47832   4.689   4.231   8.359
15464SOL    HW147833   4.752   4.268   8.297
15464SOL    HW247834   4.710   4.138   8.363
15465SOL     OW47835   4.284   3.808   7.939
15465SOL    HW147836   4.199   3.797   7.981
15465SOL    HW247837   4.274   3.885   7.883
15466SOL     OW47838   5.152   4.932   7.486
15466SOL    HW147839   5.193   4.856   7.529
15466SOL    HW247840   5.059   4.920   7.502
15467SOL     OW47841   4.022   3.780   7.630
15467SOL    HW147842   4.059   3.835   7.561
15467SOL    HW247843   4.082   3.705   7.635
15468SOL     OW47844   4.793   4.354   8.966
15468SOL    HW147845   4.708   4.330   8.931
15468SOL    HW247846   4.854   4.341   8.893
15469SOL     OW47847   5.010   5.368   8.295
15469SOL    HW147848   4.994   5.401   8.207
15469SOL    HW247849   4.962   5.286   8.300
15470SOL     OW47850   4.986   5.525   8.058
15470SOL    HW147851   5.014   5.587   7.991
15470SOL    HW247852   4.903   5.560   8.090
15471SOL     OW47853   4.291   3.945   8.633
15471SOL    HW147854   4.340   3.865   8.613
15471SOL    HW247855   4.208   3.914   8.668
15472SOL     OW47856   4.731   3.760   8.222
15472SOL    HW147857   4.676   3.765   8.144
15472SOL    HW247858   4.698   3.685   8.271
15473SOL     OW47859   5.139   4.859   8.296
15473SOL    HW147860   5.118   4.765   8.296
15473SOL    HW247861   5.132   4.885   8.204
15474SOL     OW47862   5.210   4.303   8.423
15474SOL    HW147863   5.139   4.241   8.406
15474SOL    HW247864   5.230   4.291   8.515
15475SOL     OW47865   5.594   4.537   7.817
15475SOL    HW147866   5.639   4.487   7.884
15475SOL    HW247867   5.560   4.471   7.756
15476SOL     OW47868   4.216   5.128   7.588
15476SOL    HW147869   4.140   5.128   7.647
15476SOL    HW247870   4.188   5.073   7.514
15477SOL     OW47871   5.432   5.019   8.035
15477SOL    HW147872   5.523   5.010   8.065
15477SOL    HW247873   5.390   5.075   8.100
15478SOL     OW47874   5.472   4.968   9.002
15478SOL    HW147875   5.558   4.933   8.980
15478SOL    HW247876   5.489   5.057   9.032
15479SOL     OW47877   4.780   5.108   8.831
15479SOL    HW147878   4.701   5.054   8.838
15479SOL    HW247879   4.852   5.045   8.834
15480SOL     OW47880   5.346   5.367   9.124
15480SOL    HW147881   5.323   5.393   9.035
15480SOL    HW247882   5.421   5.309   9.114
15481SOL     OW47883   4.894   4.949   8.546
15481SOL    HW147884   4.800   4.967   8.556
15481SOL    HW247885   4.900   4.900   8.464
15482SOL     OW47886   5.350   4.816   8.523
15482SOL    HW147887   5.335   4.882   8.591
15482SOL    HW247888   5.266   4.807   8.479
15483SOL     OW47889   4.682   3.839   8.844
15483SOL    HW147890   4.655   3.834   8.753
15483SOL    HW247891   4.767   3.796   8.846
15484SOL     OW47892   4.710   4.834   9.178
15484SOL    HW147893   4.619   4.859   9.191
15484SOL    HW247894   4.707   4.764   9.112
15485SOL     OW47895   5.005   4.115   8.690
15485SOL    HW147896   5.027   4.188   8.748
15485SOL    HW247897   4.909   4.116   8.686
15486SOL     OW47898   3.812   5.340   8.829
15486SOL    HW147899   3.784   5.362   8.740
15486SOL    HW247900   3.887   5.282   8.817
15487SOL     OW47901   4.971   5.078   7.852
15487SOL    HW147902   5.031   5.148   7.880
15487SOL    HW247903   4.885   5.107   7.882
15488SOL     OW47904   5.014   5.192   8.600
15488SOL    HW147905   5.062   5.177   8.682
15488SOL    HW247906   4.960   5.114   8.589
15489SOL     OW47907   5.324   4.387   7.955
15489SOL    HW147908   5.239   4.413   7.991
15489SOL    HW247909   5.335   4.443   7.878
15490SOL     OW47910   4.119   4.472   9.020
15490SOL    HW147911   4.200   4.513   8.989
15490SOL    HW247912   4.100   4.404   8.955
15491SOL     OW47913   5.347   4.516   9.146
15491SOL    HW147914   5.256   4.543   9.132
15491SOL    HW247915   5.393   4.542   9.067
15492SOL     OW47916   5.112   4.571   8.476
15492SOL    HW147917   5.071   4.578   8.390
15492SOL    HW247918   5.155   4.486   8.476
15493SOL     OW47919   4.495   4.366   8.506
15493SOL    HW147920   4.561   4.319   8.454
15493SOL    HW247921   4.508   4.458   8.483
15494SOL     OW47922   5.476   4.683   9.321
15494SOL    HW147923   5.437   4.621   9.259
15494SOL    HW247924   5.406   4.702   9.383
15495SOL     OW47925   4.031   3.800   8.057
15495SOL    HW147926   3.954   3.857   8.057
15495SOL    HW247927   4.032   3.761   8.145
15496SOL     OW47928   5.390   4.124   7.821
15496SOL    HW147929   5.329   4.058   7.854
15496SOL    HW247930   5.382   4.196   7.883
15497SOL     OW47931   4.753   4.516   8.418
15497SOL    HW147932   4.788   4.495   8.504
15497SOL    HW247933   4.798   4.457   8.358
15498SOL     OW47934   4.718   5.360   9.170
15498SOL    HW147935   4.711   5.356   9.074
15498SOL    HW247936   4.694   5.272   9.199
15499SOL     OW47937   5.573   5.225   9.056
15499SOL    HW147938   5.596   5.251   8.967
15499SOL    HW247939   5.654   5.237   9.106
15500SOL     OW47940   4.088   4.609   9.266
15500SOL    HW147941   4.179   4.636   9.277
15500SOL    HW247942   4.087   4.558   9.185
15501SOL     OW47943   5.306   3.983   7.581
15501SOL    HW147944   5.231   3.946   7.628
15501SOL    HW247945   5.353   4.034   7.648
15502SOL     OW47946   5.049   4.570   7.510
15502SOL    HW147947   5.030   4.476   7.511
15502SOL    HW247948   5.065   4.590   7.418
15503SOL     OW47949   4.835   5.130   8.283
15503SOL    HW147950   4.775   5.077   8.336
15503SOL    HW247951   4.850   5.078   8.204
15504SOL     OW47952   4.843   4.171   9.165
15504SOL    HW147953   4.788   4.205   9.235
15504SOL    HW247954   4.830   4.233   9.092
15505SOL     OW47955   4.950   3.965   8.971
15505SOL    HW147956   4.873   4.018   8.950
15505SOL    HW247957   4.943   3.888   8.915
15506SOL     OW47958   3.711   5.082   7.707
15506SOL    HW147959   3.622   5.113   7.689
15506SOL    HW247960   3.714   4.994   7.670
15507SOL     OW47961   3.808   5.505   8.387
15507SOL    HW147962   3.774   5.427   8.344
15507SOL    HW247963   3.899   5.510   8.358
15508SOL     OW47964   4.746   4.501   8.701
15508SOL    HW147965   4.692   4.445   8.757
15508SOL    HW247966   4.684   4.551   8.648
15509SOL     OW47967   3.891   4.269   9.183
15509SOL    HW147968   3.977   4.233   9.161
15509SOL    HW247969   3.882   4.346   9.127
15510SOL     OW47970   5.107   4.654   9.107
15510SOL    HW147971   5.128   4.746   9.095
15510SOL    HW247972   5.099   4.619   9.018
15511SOL     OW47973   5.363   4.335   8.668
15511SOL    HW147974   5.326   4.260   8.716
15511SOL    HW247975   5.438   4.298   8.621
15512SOL     OW47976   3.967   5.284   9.204
15512SOL    HW147977   3.923   5.304   9.287
15512SOL    HW247978   3.987   5.190   9.210
15513SOL     OW47979   4.443   4.174   8.701
15513SOL    HW147980   4.388   4.102   8.670
15513SOL    HW247981   4.442   4.238   8.630
15514SOL     OW47982   4.641   5.410   8.903
15514SOL    HW147983   4.641   5.349   8.830
15514SOL    HW247984   4.557   5.457   8.896
15515SOL     OW47985   3.951   4.883   9.009
15515SOL    HW147986   3.863   4.846   9.013
15515SOL    HW247987   3.968   4.894   8.915
15516SOL     OW47988   5.049   4.756   8.669
15516SOL    HW147989   5.062   4.689   8.602
15516SOL    HW247990   4.982   4.814   8.631
15517SOL     OW47991   5.516   5.455   8.613
15517SOL    HW147992   5.562   5.480   8.533
15517SOL    HW247993   5.472   5.373   8.591
15518SOL     OW47994   4.971   5.467   8.552
15518SOL    HW147995   4.978   5.447   8.458
15518SOL    HW247996   4.978   5.381   8.595
15519SOL     OW47997   4.429   5.410   9.194
15519SOL    HW147998   4.390   5.449   9.115
15519SOL    HW247999   4.520   5.392   9.170
15520SOL     OW48000   5.515   3.880   8.003
15520SOL    HW148001   5.543   3.884   7.912
15520SOL    HW248002   5.425   3.849   7.999
15521SOL     OW48003   5.124   5.295   7.952
15521SOL    HW148004   5.172   5.330   7.877
15521SOL    HW248005   5.062   5.364   7.975
15522SOL     OW48006   3.819   5.572   9.304
15522SOL    HW148007   3.793   5.481   9.321
15522SOL    HW248008   3.890   5.589   9.366
15523SOL     OW48009   4.511   4.999   8.858
15523SOL    HW148010   4.485   5.047   8.936
15523SOL    HW248011   4.431   4.992   8.806
15524SOL     OW48012   4.380   5.348   7.604
15524SOL    HW148013   4.396   5.369   7.512
15524SOL    HW248014   4.330   5.267   7.602
15525SOL     OW48015   5.345   5.451   8.852
15525SOL    HW148016   5.398   5.444   8.773
15525SOL    HW248017   5.341   5.545   8.871
15526SOL     OW48018   5.559   3.895   8.418
15526SOL    HW148019   5.572   3.814   8.369
15526SOL    HW248020   5.470   3.923   8.395
15527SOL     OW48021   4.930   5.339   7.477
15527SOL    HW148022   4.921   5.249   7.510
15527SOL    HW248023   4.865   5.344   7.407
15528SOL     OW48024   4.559   4.732   8.785
15528SOL    HW148025   4.573   4.733   8.690
15528SOL    HW248026   4.549   4.824   8.809
15529SOL     OW48027   5.203   5.385   7.501
15529SOL    HW148028   5.113   5.359   7.481
15529SOL    HW248029   5.247   5.381   7.416
15530SOL     OW48030   5.336   5.014   8.732
15530SOL    HW148031   5.378   4.980   8.811
15530SOL    HW248032   5.268   5.073   8.764
15531SOL     OW48033   4.760   3.968   8.414
15531SOL    HW148034   4.756   3.918   8.332
15531SOL    HW248035   4.744   3.903   8.482
15532SOL     OW48036   4.337   5.256   7.922
15532SOL    HW148037   4.390   5.193   7.872
15532SOL    HW248038   4.251   5.216   7.927
15533SOL     OW48039   5.500   4.105   8.860
15533SOL    HW148040   5.539   4.181   8.817
15533SOL    HW248041   5.502   4.036   8.793
15534SOL     OW48042   3.992   5.126   7.751
15534SOL    HW148043   3.901   5.108   7.727
15534SOL    HW248044   3.994   5.120   7.846
15535SOL     OW48045   3.860   4.773   9.289
15535SOL    HW148046   3.814   4.774   9.205
15535SOL    HW248047   3.932   4.712   9.276
15536SOL     OW48048   3.781   4.064   7.499
15536SOL    HW148049   3.717   4.055   7.429
15536SOL    HW248050   3.828   4.145   7.479
15537SOL     OW48051   5.154   4.581   8.849
15537SOL    HW148052   5.098   4.634   8.793
15537SOL    HW248053   5.239   4.579   8.805
15538SOL     OW48054   3.792   3.876   7.736
15538SOL    HW148055   3.769   3.948   7.678
15538SOL    HW248056   3.878   3.847   7.706
15539SOL     OW48057   4.899   5.092   7.571
15539SOL    HW148058   4.807   5.066   7.567
15539SOL    HW248059   4.929   5.059   7.656
15540SOL     OW48060   4.356   4.568   8.912
15540SOL    HW148061   4.398   4.638   8.863
15540SOL    HW248062   4.405   4.489   8.888
15541SOL     OW48063   5.258   5.479   8.374
15541SOL    HW148064   5.175   5.449   8.337
15541SOL    HW248065   5.271   5.424   8.451
15542SOL     OW48066   4.455   4.273   9.171
15542SOL    HW148067   4.490   4.357   9.203
15542SOL    HW248068   4.515   4.208   9.205
15543SOL     OW48069   5.203   4.911   9.073
15543SOL    HW148070   5.190   4.938   9.163
15543SOL    HW248071   5.294   4.933   9.054
15544SOL     OW48072   4.099   5.467   9.020
15544SOL    HW148073   4.015   5.495   8.983
15544SOL    HW248074   4.080   5.383   9.060
15545SOL     OW48075   5.399   4.603   8.710
15545SOL    HW148076   5.386   4.514   8.679
15545SOL    HW248077   5.379   4.658   8.633
15546SOL     OW48078   5.456   4.053   9.122
15546SOL    HW148079   5.475   4.085   9.034
15546SOL    HW248080   5.382   3.993   9.110
15547SOL     OW48081   5.498   4.649   8.957
15547SOL    HW148082   5.467   4.738   8.973
15547SOL    HW248083   5.472   4.630   8.867
15548SOL     OW48084   4.623   5.120   7.518
15548SOL    HW148085   4.528   5.114   7.526
15548SOL    HW248086   4.637   5.182   7.446
15549SOL     OW48087   4.436   5.607   8.453
15549SOL    HW148088   4.414   5.610   8.360
15549SOL    HW248089   4.451   5.514   8.471
15550SOL     OW48090   4.891   4.802   7.507
15550SOL    HW148091   4.818   4.789   7.446
15550SOL    HW248092   4.927   4.715   7.520
15551SOL     OW48093   5.556   5.290   8.302
15551SOL    HW148094   5.482   5.258   8.251
15551SOL    HW248095   5.591   5.212   8.345
15552SOL     OW48096   3.974   5.026   9.302
15552SOL    HW148097   3.929   4.951   9.263
15552SOL    HW248098   3.969   5.010   9.396
15553SOL     OW48099   3.781   4.941   8.075
15553SOL    HW148100   3.810   4.868   8.129
15553SOL    HW248101   3.779   4.906   7.985
15554SOL     OW48102   4.413   5.138   9.076
15554SOL    HW148103   4.330   5.091   9.080
15554SOL    HW248104   4.401   5.213   9.135
15555SOL     OW48105   5.570   3.894   8.693
15555SOL    HW148106   5.528   3.808   8.703
15555SOL    HW248107   5.562   3.913   8.600
15556SOL     OW48108   5.389   5.225   8.555
15556SOL    HW148109   5.327   5.192   8.490
15556SOL    HW248110   5.396   5.154   8.620
15557SOL     OW48111   4.065   4.292   8.813
15557SOL    HW148112   4.077   4.204   8.849
15557SOL    HW248113   4.034   4.278   8.724
15558SOL     OW48114   4.532   5.289   8.127
15558SOL    HW148115   4.491   5.331   8.052
15558SOL    HW248116   4.482   5.208   8.139
15559SOL     OW48117   5.182   3.912   8.660
15559SOL    HW148118   5.126   3.840   8.631
15559SOL    HW248119   5.123   3.988   8.665
15560SOL     OW48120   4.725   3.747   8.572
15560SOL    HW148121   4.650   3.701   8.534
15560SOL    HW248122   4.799   3.688   8.559
15561SOL     OW48123   4.470   5.056   7.789
15561SOL    HW148124   4.405   5.002   7.744
15561SOL    HW248125   4.554   5.025   7.756
15562SOL     OW48126   4.382   5.379   8.664
15562SOL    HW148127   4.349   5.369   8.753
15562SOL    HW248128   4.447   5.310   8.654
15563SOL     OW48129   5.300   3.946   8.348
15563SOL    HW148130   5.213   3.974   8.377
15563SOL    HW248131   5.321   4.005   8.275
15564SOL     OW48132   4.615   5.391   7.786
15564SOL    HW148133   4.542   5.362   7.732
15564SOL    HW248134   4.575   5.454   7.847
15565SOL     OW48135   3.937   4.355   9.448
15565SOL    HW148136   3.863   4.295   9.455
15565SOL    HW248137   3.950   4.366   9.354
15566SOL     OW48138   3.939   4.022  10.309
15566SOL    HW148139   3.972   3.978  10.387
15566SOL    HW248140   3.851   3.985  10.297
15567SOL     OW48141   3.722   4.064   9.920
15567SOL    HW148142   3.648   4.103   9.873
15567SOL    HW248143   3.710   3.970   9.910
15568SOL     OW48144   4.294   5.026  10.502
15568SOL    HW148145   4.215   5.029  10.448
15568SOL    HW248146   4.311   5.117  10.525
15569SOL     OW48147   5.306   5.249  10.018
15569SOL    HW148148   5.257   5.218  10.095
15569SOL    HW248149   5.241   5.254   9.949
15570SOL     OW48150   4.868   4.416  10.009
15570SOL    HW148151   4.914   4.497   9.988
15570SOL    HW248152   4.816   4.437  10.087
15571SOL     OW48153   5.499   4.332   9.536
15571SOL    HW148154   5.474   4.332   9.444
15571SOL    HW248155   5.468   4.248   9.569
15572SOL     OW48156   4.495   4.874  10.383
15572SOL    HW148157   4.419   4.904  10.433
15572SOL    HW248158   4.519   4.949  10.328
15573SOL     OW48159   4.608   4.482  11.133
15573SOL    HW148160   4.622   4.554  11.194
15573SOL    HW248161   4.621   4.521  11.047
15574SOL     OW48162   4.413   4.710   9.961
15574SOL    HW148163   4.477   4.715  10.033
15574SOL    HW248164   4.345   4.773   9.985
15575SOL     OW48165   4.436   4.875  11.140
15575SOL    HW148166   4.489   4.950  11.168
15575SOL    HW248167   4.364   4.915  11.089
15576SOL     OW48168   4.054   5.135  10.374
15576SOL    HW148169   3.983   5.091  10.327
15576SOL    HW248170   4.098   5.188  10.308
15577SOL     OW48171   5.180   5.223  10.678
15577SOL    HW148172   5.233   5.302  10.686
15577SOL    HW248173   5.108   5.236  10.740
15578SOL     OW48174   4.163   4.108  10.847
15578SOL    HW148175   4.238   4.054  10.823
15578SOL    HW248176   4.087   4.055  10.821
15579SOL     OW48177   5.313   4.160  10.050
15579SOL    HW148178   5.232   4.158   9.999
15579SOL    HW248179   5.331   4.254  10.063
15580SOL     OW48180   3.934   5.435   9.770
15580SOL    HW148181   3.959   5.507   9.828
15580SOL    HW248182   4.008   5.427   9.709
15581SOL     OW48183   4.867   5.067  11.009
15581SOL    HW148184   4.908   5.054  11.095
15581SOL    HW248185   4.816   4.986  10.995
15582SOL     OW48186   3.962   5.173   9.850
15582SOL    HW148187   3.941   5.265   9.836
15582SOL    HW248188   3.894   5.142   9.910
15583SOL     OW48189   4.000   4.816  10.198
15583SOL    HW148190   4.000   4.725  10.228
15583SOL    HW248191   3.936   4.860  10.255
15584SOL     OW48192   4.319   5.522  10.740
15584SOL    HW148193   4.238   5.505  10.788
15584SOL    HW248194   4.344   5.611  10.765
15585SOL     OW48195   4.320   4.710   9.453
15585SOL    HW148196   4.357   4.767   9.386
15585SOL    HW248197   4.358   4.743   9.535
15586SOL     OW48198   5.326   3.857  10.770
15586SOL    HW148199   5.354   3.941  10.734
15586SOL    HW248200   5.292   3.878  10.857
15587SOL     OW48201   3.835   4.368   9.871
15587SOL    HW148202   3.821   4.274   9.883
15587SOL    HW248203   3.828   4.405   9.959
15588SOL     OW48204   5.569   5.478   9.632
15588SOL    HW148205   5.641   5.456   9.691
15588SOL    HW248206   5.585   5.569   9.608
15589SOL     OW48207   3.784   5.320   9.424
15589SOL    HW148208   3.770   5.226   9.438
15589SOL    HW248209   3.745   5.361   9.501
15590SOL     OW48210   5.429   4.647   9.947
15590SOL    HW148211   5.482   4.591   9.891
15590SOL    HW248212   5.387   4.709   9.888
15591SOL     OW48213   5.367   4.828   9.744
15591SOL    HW148214   5.451   4.828   9.698
15591SOL    HW248215   5.376   4.897   9.809
15592SOL     OW48216   3.846   4.470  10.893
15592SOL    HW148217   3.934   4.506  10.881
15592SOL    HW248218   3.787   4.542  10.869
15593SOL     OW48219   4.323   5.110  10.063
15593SOL    HW148220   4.283   5.023  10.054
15593SOL    HW248221   4.321   5.147   9.974
15594SOL     OW48222   5.002   4.953  10.735
15594SOL    HW148223   5.028   4.887  10.671
15594SOL    HW248224   5.067   4.946  10.805
15595SOL     OW48225   4.549   3.731   9.873
15595SOL    HW148226   4.590   3.801   9.822
15595SOL    HW248227   4.455   3.744   9.859
15596SOL     OW48228   3.898   4.683  10.599
15596SOL    HW148229   3.985   4.644  10.590
15596SOL    HW248230   3.854   4.663  10.517
15597SOL     OW48231   5.262   4.720   9.507
15597SOL    HW148232   5.190   4.662   9.529
15597SOL    HW248233   5.291   4.755   9.592
15598SOL     OW48234   4.899   5.538  10.938
15598SOL    HW148235   4.904   5.601  10.866
15598SOL    HW248236   4.918   5.453  10.897
15599SOL     OW48237   4.070   3.973  11.148
15599SOL    HW148238   4.094   4.040  11.083
15599SOL    HW248239   3.978   3.989  11.166
15600SOL     OW48240   5.191   5.144  10.247
15600SOL    HW148241   5.122   5.161  10.312
15600SOL    HW248242   5.176   5.054  10.219
15601SOL     OW48243   5.371   5.499   9.879
15601SOL    HW148244   5.353   5.464   9.792
15601SOL    HW248245   5.356   5.425   9.938
15602SOL     OW48246   4.329   4.457   9.592
15602SOL    HW148247   4.326   4.534   9.535
15602SOL    HW248248   4.253   4.468   9.650
15603SOL     OW48249   5.008   4.103  10.252
15603SOL    HW148250   4.917   4.074  10.257
15603SOL    HW248251   5.055   4.045  10.312
15604SOL     OW48252   5.300   5.411   9.623
15604SOL    HW148253   5.394   5.425   9.609
15604SOL    HW248254   5.265   5.395   9.536
15605SOL     OW48255   4.514   4.333  10.771
15605SOL    HW148256   4.480   4.306  10.856
15605SOL    HW248257   4.483   4.266  10.710
15606SOL     OW48258   5.116   4.200  10.989
15606SOL    HW148259   5.121   4.244  11.074
15606SOL    HW248260   5.169   4.121  10.999
15607SOL     OW48261   4.669   4.609  10.894
15607SOL    HW148262   4.723   4.541  10.854
15607SOL    HW248263   4.622   4.649  10.820
15608SOL     OW48264   4.717   4.127  10.538
15608SOL    HW148265   4.627   4.141  10.565
15608SOL    HW248266   4.712   4.108  10.445
15609SOL     OW48267   4.784   4.405   9.729
15609SOL    HW148268   4.788   4.400   9.825
15609SOL    HW248269   4.699   4.366   9.707
15610SOL     OW48270   3.802   4.499  10.113
15610SOL    HW148271   3.887   4.522  10.150
15610SOL    HW248272   3.753   4.582  10.110
15611SOL     OW48273   3.840   5.594  10.894
15611SOL    HW148274   3.845   5.573  10.988
15611SOL    HW248275   3.770   5.538  10.861
15612SOL     OW48276   5.425   4.291  11.141
15612SOL    HW148277   5.393   4.367  11.092
15612SOL    HW248278   5.449   4.227  11.074
15613SOL     OW48279   5.110   4.863   9.862
15613SOL    HW148280   5.179   4.844   9.799
15613SOL    HW248281   5.054   4.926   9.817
15614SOL     OW48282   4.285   3.896  10.202
15614SOL    HW148283   4.271   3.966  10.265
15614SOL    HW248284   4.269   3.937  10.117
15615SOL     OW48285   4.751   5.193   9.809
15615SOL    HW148286   4.721   5.260   9.748
15615SOL    HW248287   4.678   5.132   9.816
15616SOL     OW48288   4.086   5.541  10.184
15616SOL    HW148289   4.130   5.457  10.191
15616SOL    HW248290   4.157   5.606  10.192
15617SOL     OW48291   5.538   4.775  10.171
15617SOL    HW148292   5.489   4.749  10.093
15617SOL    HW248293   5.472   4.784  10.240
15618SOL     OW48294   4.945   5.266  10.826
15618SOL    HW148295   4.938   5.194  10.889
15618SOL    HW248296   4.885   5.241  10.755
15619SOL     OW48297   4.057   4.662   9.564
15619SOL    HW148298   4.134   4.688   9.512
15619SOL    HW248299   4.012   4.599   9.509
15620SOL     OW48300   5.224   4.473  10.032
15620SOL    HW148301   5.215   4.442  10.122
15620SOL    HW248302   5.301   4.530  10.034
15621SOL     OW48303   4.194   5.001  11.048
15621SOL    HW148304   4.171   5.005  10.955
15621SOL    HW248305   4.111   5.001  11.094
15622SOL     OW48306   4.858   5.498   9.545
15622SOL    HW148307   4.777   5.466   9.585
15622SOL    HW248308   4.877   5.435   9.476
15623SOL     OW48309   3.922   3.986  10.808
15623SOL    HW148310   3.840   4.035  10.795
15623SOL    HW248311   3.893   3.901  10.840
15624SOL     OW48312   5.361   5.123   9.419
15624SOL    HW148313   5.319   5.204   9.391
15624SOL    HW248314   5.299   5.054   9.394
15625SOL     OW48315   4.173   5.466   9.634
15625SOL    HW148316   4.231   5.507   9.698
15625SOL    HW248317   4.233   5.428   9.569
15626SOL     OW48318   5.130   3.819   9.710
15626SOL    HW148319   5.106   3.797   9.620
15626SOL    HW248320   5.211   3.869   9.702
15627SOL     OW48321   3.988   5.516  10.526
15627SOL    HW148322   4.036   5.436  10.547
15627SOL    HW248323   3.947   5.498  10.442
15628SOL     OW48324   4.671   5.418  10.201
15628SOL    HW148325   4.756   5.375  10.196
15628SOL    HW248326   4.618   5.377  10.132
15629SOL     OW48327   4.127   4.416   9.802
15629SOL    HW148328   4.144   4.322   9.811
15629SOL    HW248329   4.035   4.422   9.779
15630SOL     OW48330   5.240   3.944  11.029
15630SOL    HW148331   5.255   3.963  11.122
15630SOL    HW248332   5.167   3.882  11.028
15631SOL     OW48333   4.492   4.002  11.072
15631SOL    HW148334   4.574   3.953  11.064
15631SOL    HW248335   4.443   3.958  11.141
15632SOL     OW48336   4.594   5.245  10.509
15632SOL    HW148337   4.582   5.215  10.419
15632SOL    HW248338   4.670   5.198  10.541
15633SOL     OW48339   5.057   4.313  10.742
15633SOL    HW148340   5.090   4.287  10.828
15633SOL    HW248341   5.092   4.402  10.730
15634SOL     OW48342   4.540   5.115  10.255
15634SOL    HW148343   4.624   5.107  10.212
15634SOL    HW248344   4.476   5.123  10.184
15635SOL     OW48345   4.651   4.236  10.202
15635SOL    HW148346   4.626   4.231  10.110
15635SOL    HW248347   4.681   4.148  10.224
15636SOL     OW48348   4.294   3.794   9.834
15636SOL    HW148349   4.206   3.775   9.865
15636SOL    HW248350   4.282   3.862   9.768
15637SOL     OW48351   5.166   4.943   9.352
15637SOL    HW148352   5.180   4.856   9.392
15637SOL    HW248353   5.075   4.964   9.372
15638SOL     OW48354   4.667   3.956   9.773
15638SOL    HW148355   4.632   3.983   9.688
15638SOL    HW248356   4.759   3.980   9.770
15639SOL     OW48357   4.798   4.408  10.767
15639SOL    HW148358   4.732   4.339  10.768
15639SOL    HW248359   4.881   4.362  10.757
15640SOL     OW48360   4.923   5.319  10.120
15640SOL    HW148361   4.935   5.367  10.039
15640SOL    HW248362   5.008   5.325  10.164
15641SOL     OW48363   4.198   4.870  10.022
15641SOL    HW148364   4.128   4.852  10.085
15641SOL    HW248365   4.156   4.860   9.937
15642SOL     OW48366   4.979   5.519   9.926
15642SOL    HW148367   5.024   5.578   9.865
15642SOL    HW248368   4.902   5.568   9.954
15643SOL     OW48369   4.734   4.320   9.380
15643SOL    HW148370   4.679   4.386   9.338
15643SOL    HW248371   4.822   4.355   9.375
15644SOL     OW48372   3.819   4.270  10.706
15644SOL    HW148373   3.910   4.272  10.675
15644SOL    HW248374   3.813   4.341  10.770
15645SOL     OW48375   4.281   3.963  10.491
15645SOL    HW148376   4.314   3.874  10.477
15645SOL    HW248377   4.189   3.952  10.511
15646SOL     OW48378   4.588   4.179   9.940
15646SOL    HW148379   4.540   4.235   9.879
15646SOL    HW248380   4.607   4.100   9.891
15647SOL     OW48381   4.733   3.778  10.080
15647SOL    HW148382   4.689   3.806   9.999
15647SOL    HW248383   4.676   3.710  10.115
15648SOL     OW48384   5.165   4.883  10.159
15648SOL    HW148385   5.087   4.827  10.156
15648SOL    HW248386   5.191   4.893  10.067
15649SOL     OW48387   5.182   4.346  10.278
15649SOL    HW148388   5.129   4.267  10.270
15649SOL    HW248389   5.241   4.329  10.351
15650SOL     OW48390   5.564   4.534   9.712
15650SOL    HW148391   5.626   4.479   9.759
15650SOL    HW248392   5.534   4.480   9.639
15651SOL     OW48393   4.218   5.155   9.493
15651SOL    HW148394   4.137   5.118   9.528
15651SOL    HW248395   4.234   5.106   9.413
15652SOL     OW48396   5.404   4.994   9.954
15652SOL    HW148397   5.500   4.997   9.960
15652SOL    HW248398   5.376   5.085   9.967
15653SOL     OW48399   5.117   4.310   9.385
15653SOL    HW148400   5.072   4.278   9.463
15653SOL    HW248401   5.207   4.278   9.394
15654SOL     OW48402   4.261   4.011   9.660
15654SOL    HW148403   4.290   3.953   9.589
15654SOL    HW248404   4.228   4.089   9.615
15655SOL     OW48405   5.472   4.968  10.861
15655SOL    HW148406   5.560   4.930  10.857
15655SOL    HW248407   5.487   5.056  10.896
15656SOL     OW48408   4.779   5.099  10.665
15656SOL    HW148409   4.701   5.055  10.698
15656SOL    HW248410   4.851   5.041  10.690
15657SOL     OW48411   5.337   5.350  10.976
15657SOL    HW148412   5.329   5.382  10.886
15657SOL    HW248413   5.420   5.303  10.978
15658SOL     OW48414   4.867   4.952  10.414
15658SOL    HW148415   4.781   4.953  10.457
15658SOL    HW248416   4.848   4.982  10.325
15659SOL     OW48417   5.350   4.820  10.376
15659SOL    HW148418   5.338   4.884  10.447
15659SOL    HW248419   5.277   4.836  10.317
15660SOL     OW48420   4.644   3.814  10.701
15660SOL    HW148421   4.662   3.806  10.608
15660SOL    HW248422   4.722   3.855  10.738
15661SOL     OW48423   4.709   4.839  11.033
15661SOL    HW148424   4.618   4.858  11.053
15661SOL    HW248425   4.706   4.762  10.976
15662SOL     OW48426   4.442   4.781   9.691
15662SOL    HW148427   4.423   4.749   9.780
15662SOL    HW248428   4.523   4.737   9.667
15663SOL     OW48429   4.133   4.549  10.579
15663SOL    HW148430   4.212   4.557  10.632
15663SOL    HW248431   4.109   4.457  10.584
15664SOL     OW48432   4.982   4.095  10.598
15664SOL    HW148433   5.013   4.176  10.639
15664SOL    HW248434   4.892   4.114  10.572
15665SOL     OW48435   3.806   5.294  10.668
15665SOL    HW148436   3.774   5.360  10.606
15665SOL    HW248437   3.901   5.292  10.653
15666SOL     OW48438   4.060   4.838   9.786
15666SOL    HW148439   4.054   4.910   9.723
15666SOL    HW248440   4.059   4.759   9.732
15667SOL     OW48441   4.271   4.254  10.189
15667SOL    HW148442   4.272   4.303  10.107
15667SOL    HW248443   4.350   4.282  10.235
15668SOL     OW48444   4.981   5.067   9.729
15668SOL    HW148445   5.040   5.141   9.745
15668SOL    HW248446   4.894   5.099   9.753
15669SOL     OW48447   5.018   5.188  10.454
15669SOL    HW148448   5.066   5.186  10.536
15669SOL    HW248449   4.960   5.111  10.458
15670SOL     OW48450   5.317   4.342   9.801
15670SOL    HW148451   5.259   4.391   9.859
15670SOL    HW248452   5.328   4.399   9.724
15671SOL     OW48453   4.072   5.255  10.611
15671SOL    HW148454   4.062   5.209  10.528
15671SOL    HW248455   4.167   5.269  10.619
15672SOL     OW48456   4.141   4.473  10.915
15672SOL    HW148457   4.206   4.514  10.858
15672SOL    HW248458   4.168   4.381  10.919
15673SOL     OW48459   5.339   4.506  10.999
15673SOL    HW148460   5.252   4.546  10.993
15673SOL    HW248461   5.390   4.547  10.929
15674SOL     OW48462   4.724   3.861  11.068
15674SOL    HW148463   4.782   3.934  11.047
15674SOL    HW248464   4.774   3.783  11.045
15675SOL     OW48465   4.215   3.752  11.072
15675SOL    HW148466   4.170   3.702  11.005
15675SOL    HW248467   4.161   3.831  11.084
15676SOL     OW48468   4.338   4.592  10.372
15676SOL    HW148469   4.346   4.674  10.323
15676SOL    HW248470   4.250   4.596  10.411
15677SOL     OW48471   5.061   4.587  10.330
15677SOL    HW148472   4.986   4.586  10.271
15677SOL    HW248473   5.104   4.503  10.315
15678SOL     OW48474   4.975   4.243   9.609
15678SOL    HW148475   4.932   4.160   9.627
15678SOL    HW248476   4.913   4.309   9.639
15679SOL     OW48477   4.022   3.917  10.556
15679SOL    HW148478   3.980   3.943  10.638
15679SOL    HW248479   4.005   3.823  10.549
15680SOL     OW48480   3.726   5.040  10.594
15680SOL    HW148481   3.775   4.981  10.651
15680SOL    HW248482   3.756   5.127  10.618
15681SOL     OW48483   4.463   4.352  10.380
15681SOL    HW148484   4.528   4.344  10.311
15681SOL    HW248485   4.426   4.440  10.368
15682SOL     OW48486   5.468   4.680  11.175
15682SOL    HW148487   5.422   4.614  11.124
15682SOL    HW248488   5.407   4.704  11.244
15683SOL     OW48489   4.048   3.772   9.965
15683SOL    HW148490   4.026   3.865   9.974
15683SOL    HW248491   3.971   3.733   9.925
15684SOL     OW48492   5.329   4.094   9.694
15684SOL    HW148493   5.379   4.041   9.757
15684SOL    HW248494   5.317   4.178   9.737
15685SOL     OW48495   4.751   4.485  10.262
15685SOL    HW148496   4.744   4.498  10.356
15685SOL    HW248497   4.723   4.394  10.248
15686SOL     OW48498   4.702   5.283  11.036
15686SOL    HW148499   4.683   5.330  10.954
15686SOL    HW248500   4.751   5.206  11.009
15687SOL     OW48501   5.581   5.218  10.927
15687SOL    HW148502   5.604   5.252  10.840
15687SOL    HW248503   5.663   5.221  10.976
15688SOL     OW48504   4.071   4.621  11.135
15688SOL    HW148505   4.156   4.655  11.163
15688SOL    HW248506   4.090   4.565  11.060
15689SOL     OW48507   5.250   3.933   9.485
15689SOL    HW148508   5.197   3.965   9.413
15689SOL    HW248509   5.274   4.011   9.535
15690SOL     OW48510   5.019   4.558   9.345
15690SOL    HW148511   5.056   4.470   9.346
15690SOL    HW248512   5.044   4.593   9.259
15691SOL     OW48513   4.799   5.068  10.175
15691SOL    HW148514   4.797   4.997  10.111
15691SOL    HW248515   4.840   5.141  10.129
15692SOL     OW48516   4.047   4.538  10.242
15692SOL    HW148517   4.119   4.532  10.179
15692SOL    HW248518   4.043   4.451  10.282
15693SOL     OW48519   4.049   4.265  10.333
15693SOL    HW148520   4.006   4.181  10.316
15693SOL    HW248521   4.128   4.263  10.279
15694SOL     OW48522   4.861   4.093  11.000
15694SOL    HW148523   4.812   4.148  11.062
15694SOL    HW248524   4.946   4.136  10.991
15695SOL     OW48525   4.886   3.918  10.786
15695SOL    HW148526   4.873   3.980  10.857
15695SOL    HW248527   4.924   3.970  10.715
15696SOL     OW48528   3.717   5.057   9.528
15696SOL    HW148529   3.635   5.069   9.480
15696SOL    HW248530   3.723   4.963   9.543
15697SOL     OW48531   3.845   5.486  10.291
15697SOL    HW148532   3.802   5.419  10.238
15697SOL    HW248533   3.924   5.509  10.242
15698SOL     OW48534   4.219   5.303  10.226
15698SOL    HW148535   4.294   5.358  10.250
15698SOL    HW248536   4.255   5.239  10.164
15699SOL     OW48537   4.695   4.505  10.527
15699SOL    HW148538   4.742   4.487  10.608
15699SOL    HW248539   4.609   4.463  10.540
15700SOL     OW48540   3.731   4.282  10.432
15700SOL    HW148541   3.798   4.279  10.363
15700SOL    HW248542   3.781   4.279  10.513
15701SOL     OW48543   3.930   4.247  11.037
15701SOL    HW148544   3.975   4.204  10.964
15701SOL    HW248545   3.889   4.324  10.998
15702SOL     OW48546   5.108   4.651  10.965
15702SOL    HW148547   5.130   4.744  10.961
15702SOL    HW248548   5.101   4.623  10.873
15703SOL     OW48549   4.543   4.294   9.658
15703SOL    HW148550   4.562   4.258   9.571
15703SOL    HW248551   4.467   4.350   9.644
15704SOL     OW48552   5.361   4.321  10.487
15704SOL    HW148553   5.346   4.262  10.561
15704SOL    HW248554   5.449   4.299  10.456
15705SOL     OW48555   3.954   5.268  11.034
15705SOL    HW148556   3.937   5.330  11.106
15705SOL    HW248557   3.962   5.183  11.077
15706SOL     OW48558   4.442   4.166  10.573
15706SOL    HW148559   4.385   4.094  10.544
15706SOL    HW248560   4.438   4.229  10.502
15707SOL     OW48561   4.624   5.405  10.796
15707SOL    HW148562   4.616   5.355  10.715
15707SOL    HW248563   4.623   5.497  10.768
15708SOL     OW48564   4.173   4.227   9.533
15708SOL    HW148565   4.232   4.301   9.518
15708SOL    HW248566   4.090   4.255   9.494
15709SOL     OW48567   3.853   4.872  10.786
15709SOL    HW148568   3.867   4.830  10.871
15709SOL    HW248569   3.869   4.803  10.722
15710SOL     OW48570   5.038   4.769  10.528
15710SOL    HW148571   5.053   4.704  10.460
15710SOL    HW248572   4.979   4.833  10.488
15711SOL     OW48573   5.042   4.581   9.618
15711SOL    HW148574   4.960   4.556   9.662
15711SOL    HW248575   5.022   4.574   9.524
15712SOL     OW48576   5.511   5.445  10.481
15712SOL    HW148577   5.567   5.474  10.409
15712SOL    HW248578   5.475   5.362  10.451
15713SOL     OW48579   4.968   5.464  10.433
15713SOL    HW148580   5.047   5.487  10.384
15713SOL    HW248581   4.972   5.369  10.442
15714SOL     OW48582   3.813   4.969  10.330
15714SOL    HW148583   3.772   4.986  10.415
15714SOL    HW248584   3.749   4.915  10.283
15715SOL     OW48585   4.412   5.399  11.051
15715SOL    HW148586   4.352   5.472  11.034
15715SOL    HW248587   4.483   5.411  10.988
15716SOL     OW48588   5.481   3.891   9.830
15716SOL    HW148589   5.530   3.878   9.749
15716SOL    HW248590   5.450   3.803   9.853
15717SOL     OW48591   5.130   5.295   9.812
15717SOL    HW148592   5.177   5.327   9.735
15717SOL    HW248593   5.062   5.360   9.827
15718SOL     OW48594   3.861   5.526  11.154
15718SOL    HW148595   3.815   5.454  11.199
15718SOL    HW248596   3.911   5.569  11.223
15719SOL     OW48597   5.013   4.645   9.992
15719SOL    HW148598   5.089   4.587   9.990
15719SOL    HW248599   5.039   4.719   9.937
15720SOL     OW48600   4.524   5.003  10.728
15720SOL    HW148601   4.493   5.047  10.807
15720SOL    HW248602   4.458   5.025  10.662
15721SOL     OW48603   4.371   5.387   9.464
15721SOL    HW148604   4.403   5.389   9.374
15721SOL    HW248605   4.342   5.297   9.478
15722SOL     OW48606   5.339   5.450  10.708
15722SOL    HW148607   5.393   5.452  10.629
15722SOL    HW248608   5.324   5.542  10.730
15723SOL     OW48609   5.564   3.890  10.275
15723SOL    HW148610   5.591   3.806  10.237
15723SOL    HW248611   5.479   3.909  10.236
15724SOL     OW48612   3.973   4.027  10.024
15724SOL    HW148613   3.888   4.053   9.990
15724SOL    HW248614   3.965   4.036  10.119
15725SOL     OW48615   4.939   5.326   9.346
15725SOL    HW148616   4.926   5.234   9.370
15725SOL    HW248617   4.874   5.342   9.278
15726SOL     OW48618   4.544   4.733  10.683
15726SOL    HW148619   4.568   4.725  10.591
15726SOL    HW248620   4.539   4.827  10.698
15727SOL     OW48621   4.670   4.653   9.633
15727SOL    HW148622   4.713   4.684   9.553
15727SOL    HW248623   4.703   4.564   9.644
15728SOL     OW48624   5.210   5.379   9.363
15728SOL    HW148625   5.119   5.353   9.345
15728SOL    HW248626   5.252   5.378   9.277
15729SOL     OW48627   4.084   5.036  10.805
15729SOL    HW148628   4.085   5.105  10.739
15729SOL    HW248629   4.008   4.982  10.782
15730SOL     OW48630   5.337   5.013  10.591
15730SOL    HW148631   5.388   4.990  10.669
15730SOL    HW248632   5.272   5.076  10.623
15731SOL     OW48633   4.781   4.843  10.031
15731SOL    HW148634   4.708   4.791  10.063
15731SOL    HW248635   4.820   4.790   9.962
15732SOL     OW48636   4.754   3.976  10.280
15732SOL    HW148637   4.743   3.931  10.196
15732SOL    HW248638   4.741   3.908  10.346
15733SOL     OW48639   4.333   5.222   9.813
15733SOL    HW148640   4.392   5.163   9.767
15733SOL    HW248641   4.260   5.237   9.753
15734SOL     OW48642   5.466   4.094  10.689
15734SOL    HW148643   5.529   4.166  10.689
15734SOL    HW248644   5.503   4.030  10.628
15735SOL     OW48645   3.983   5.058   9.607
15735SOL    HW148646   3.891   5.059   9.581
15735SOL    HW248647   3.985   5.101   9.693
15736SOL     OW48648   3.852   4.780  11.062
15736SOL    HW148649   3.769   4.745  11.096
15736SOL    HW248650   3.918   4.715  11.088
15737SOL     OW48651   4.398   3.914  10.818
15737SOL    HW148652   4.479   3.897  10.770
15737SOL    HW248653   4.428   3.952  10.901
15738SOL     OW48654   3.785   4.096   9.402
15738SOL    HW148655   3.766   4.007   9.373
15738SOL    HW248656   3.830   4.136   9.328
15739SOL     OW48657   5.143   4.578  10.702
15739SOL    HW148658   5.091   4.638  10.650
15739SOL    HW248659   5.231   4.582  10.663
15740SOL     OW48660   4.914   5.056   9.441
15740SOL    HW148661   4.819   5.067   9.436
15740SOL    HW248662   4.932   5.039   9.533
15741SOL     OW48663   4.348   4.551  10.749
15741SOL    HW148664   4.404   4.626  10.728
15741SOL    HW248665   4.409   4.477  10.756
15742SOL     OW48666   5.202   5.522  10.300
15742SOL    HW148667   5.222   5.582  10.228
15742SOL    HW248668   5.283   5.472  10.312
15743SOL     OW48669   4.434   4.278  11.027
15743SOL    HW148670   4.491   4.337  11.076
15743SOL    HW248671   4.461   4.190  11.052
15744SOL     OW48672   5.201   4.910  10.935
15744SOL    HW148673   5.189   4.930  11.028
15744SOL    HW248674   5.291   4.936  10.917
15745SOL     OW48675   4.090   5.469  10.883
15745SOL    HW148676   4.007   5.511  10.862
15745SOL    HW248677   4.066   5.382  10.915
15746SOL     OW48678   5.382   4.602  10.559
15746SOL    HW148679   5.376   4.517  10.515
15746SOL    HW248680   5.371   4.667  10.489
15747SOL     OW48681   4.933   4.008   9.793
15747SOL    HW148682   5.009   3.964   9.754
15747SOL    HW248683   4.972   4.076   9.848
15748SOL     OW48684   4.284   4.473  10.015
15748SOL    HW148685   4.339   4.546   9.988
15748SOL    HW248686   4.232   4.451   9.938
15749SOL     OW48687   5.473   4.081  10.966
15749SOL    HW148688   5.468   4.094  10.871
15749SOL    HW248689   5.397   4.028  10.988
15750SOL     OW48690   5.474   4.654  10.814
15750SOL    HW148691   5.459   4.747  10.827
15750SOL    HW248692   5.452   4.639  10.722
15751SOL     OW48693   4.401   5.510  10.271
15751SOL    HW148694   4.379   5.591  10.226
15751SOL    HW248695   4.488   5.487  10.238
15752SOL     OW48696   4.589   4.702  10.177
15752SOL    HW148697   4.642   4.628  10.206
15752SOL    HW248698   4.564   4.747  10.258
15753SOL     OW48699   4.806   4.718   9.409
15753SOL    HW148700   4.774   4.767   9.333
15753SOL    HW248701   4.877   4.664   9.374
15754SOL     OW48702   5.557   5.289  10.153
15754SOL    HW148703   5.484   5.279  10.092
15754SOL    HW248704   5.542   5.221  10.219
15755SOL     OW48705   3.951   5.017  11.163
15755SOL    HW148706   3.905   4.943  11.124
15755SOL    HW248707   3.949   5.000  11.257
15756SOL     OW48708   3.795   4.959   9.964
15756SOL    HW148709   3.843   4.912  10.033
15756SOL    HW248710   3.835   4.928   9.883
15757SOL     OW48711   4.415   5.132  10.944
15757SOL    HW148712   4.332   5.097  10.977
15757SOL    HW248713   4.416   5.222  10.977
15758SOL     OW48714   5.575   3.881  10.543
15758SOL    HW148715   5.528   3.799  10.555
15758SOL    HW248716   5.567   3.901  10.450
15759SOL     OW48717   4.176   4.157   9.877
15759SOL    HW148718   4.207   4.104   9.804
15759SOL    HW248719   4.106   4.104   9.916
15760SOL     OW48720   5.413   5.205  10.399
15760SOL    HW148721   5.337   5.189  10.343
15760SOL    HW248722   5.408   5.138  10.467
15761SOL     OW48723   4.069   4.281  10.604
15761SOL    HW148724   4.133   4.219  10.637
15761SOL    HW248725   4.070   4.269  10.509
15762SOL     OW48726   4.530   5.336   9.986
15762SOL    HW148727   4.570   5.388   9.916
15762SOL    HW248728   4.460   5.287   9.942
15763SOL     OW48729   5.147   3.953  10.437
15763SOL    HW148730   5.167   3.873  10.484
15763SOL    HW248731   5.094   4.005  10.498
15764SOL     OW48732   4.729   3.739  10.437
15764SOL    HW148733   4.658   3.678  10.419
15764SOL    HW248734   4.809   3.687  10.425
15765SOL     OW48735   4.503   5.051   9.697
15765SOL    HW148736   4.478   4.959   9.688
15765SOL    HW248737   4.536   5.075   9.610
15766SOL     OW48738   4.343   5.285  10.603
15766SOL    HW148739   4.344   5.369  10.648
15766SOL    HW248740   4.430   5.277  10.564
15767SOL     OW48741   5.032   4.184   9.988
15767SOL    HW148742   4.982   4.265   9.978
15767SOL    HW248743   5.020   4.159  10.079
15768SOL     OW48744   5.302   3.923  10.201
15768SOL    HW148745   5.248   3.955  10.273
15768SOL    HW248746   5.304   3.995  10.138
15769SOL     OW48747   3.762   4.795   9.615
15769SOL    HW148748   3.823   4.782   9.542
15769SOL    HW248749   3.747   4.707   9.650
15770SOL     OW48750   4.623   5.373   9.637
15770SOL    HW148751   4.626   5.305   9.569
15770SOL    HW248752   4.535   5.409   9.630
15771SOL     OW48753   3.960   4.309  11.311
15771SOL    HW148754   3.868   4.320  11.334
15771SOL    HW248755   3.961   4.301  11.216
15772SOL     OW48756   3.953   4.007  12.160
15772SOL    HW148757   3.983   3.973  12.244
15772SOL    HW248758   3.862   3.976  12.154
15773SOL     OW48759   3.718   4.118  11.807
15773SOL    HW148760   3.640   4.140  11.857
15773SOL    HW248761   3.694   4.040  11.758
15774SOL     OW48762   4.276   4.992  12.321
15774SOL    HW148763   4.195   5.037  12.297
15774SOL    HW248764   4.317   5.049  12.386
15775SOL     OW48765   5.305   5.243  11.884
15775SOL    HW148766   5.262   5.218  11.966
15775SOL    HW248767   5.234   5.245  11.819
15776SOL     OW48768   4.855   4.425  11.864
15776SOL    HW148769   4.903   4.507  11.857
15776SOL    HW248770   4.809   4.431  11.948
15777SOL     OW48771   5.525   4.311  11.390
15777SOL    HW148772   5.489   4.311  11.301
15777SOL    HW248773   5.474   4.245  11.437
15778SOL     OW48774   4.482   4.850  12.223
15778SOL    HW148775   4.403   4.879  12.270
15778SOL    HW248776   4.515   4.929  12.180
15779SOL     OW48777   4.408   4.712  11.823
15779SOL    HW148778   4.478   4.707  11.888
15779SOL    HW248779   4.345   4.773  11.861
15780SOL     OW48780   4.064   5.146  12.239
15780SOL    HW148781   3.983   5.110  12.201
15780SOL    HW248782   4.101   5.199  12.168
15781SOL     OW48783   5.321   4.171  11.925
15781SOL    HW148784   5.251   4.184  11.861
15781SOL    HW248785   5.302   4.234  11.995
15782SOL     OW48786   3.951   5.432  11.637
15782SOL    HW148787   3.968   5.506  11.695
15782SOL    HW248788   4.027   5.430  11.578
15783SOL     OW48789   3.890   5.167  11.692
15783SOL    HW148790   3.908   5.260  11.681
15783SOL    HW248791   3.899   5.152  11.786
15784SOL     OW48792   3.982   4.813  12.053
15784SOL    HW148793   3.996   4.731  12.099
15784SOL    HW248794   3.942   4.871  12.118
15785SOL     OW48795   4.303   4.713  11.321
15785SOL    HW148796   4.350   4.758  11.250
15785SOL    HW248797   4.348   4.741  11.400
15786SOL     OW48798   3.830   4.387  11.741
15786SOL    HW148799   3.799   4.299  11.761
15786SOL    HW248800   3.826   4.433  11.825
15787SOL     OW48801   5.564   5.475  11.503
15787SOL    HW148802   5.636   5.451  11.561
15787SOL    HW248803   5.581   5.567  11.480
15788SOL     OW48804   3.770   5.311  11.292
15788SOL    HW148805   3.718   5.231  11.295
15788SOL    HW248806   3.744   5.360  11.370
15789SOL     OW48807   5.411   4.641  11.820
15789SOL    HW148808   5.499   4.606  11.813
15789SOL    HW248809   5.398   4.692  11.740
15790SOL     OW48810   5.376   4.826  11.603
15790SOL    HW148811   5.462   4.827  11.560
15790SOL    HW248812   5.384   4.891  11.673
15791SOL     OW48813   3.906   4.458   0.237
15791SOL    HW148814   3.941   4.454   0.326
15791SOL    HW248815   3.828   4.514   0.244
15792SOL     OW48816   4.342   5.121  11.896
15792SOL    HW148817   4.299   5.036  11.909
15792SOL    HW248818   4.321   5.144  11.805
15793SOL     OW48819   4.550   3.733  11.685
15793SOL    HW148820   4.591   3.817  11.662
15793SOL    HW248821   4.456   3.753  11.688
15794SOL     OW48822   3.897   4.704  12.383
15794SOL    HW148823   3.988   4.683  12.404
15794SOL    HW248824   3.846   4.635  12.425
15795SOL     OW48825   5.257   4.730  11.372
15795SOL    HW148826   5.188   4.672  11.405
15795SOL    HW248827   5.301   4.763  11.450
15796SOL     OW48828   5.188   5.140  12.111
15796SOL    HW148829   5.124   5.156  12.180
15796SOL    HW248830   5.175   5.048  12.086
15797SOL     OW48831   5.366   5.496  11.746
15797SOL    HW148832   5.354   5.454  11.661
15797SOL    HW248833   5.361   5.424  11.809
15798SOL     OW48834   4.303   4.431  11.433
15798SOL    HW148835   4.326   4.497  11.368
15798SOL    HW248836   4.277   4.481  11.510
15799SOL     OW48837   5.013   4.088  12.095
15799SOL    HW148838   4.921   4.060  12.099
15799SOL    HW248839   5.056   4.038  12.164
15800SOL     OW48840   5.300   5.398  11.485
15800SOL    HW148841   5.393   5.418  11.478
15800SOL    HW248842   5.272   5.381  11.395
15801SOL     OW48843   4.703   4.081  12.389
15801SOL    HW148844   4.720   4.143  12.460
15801SOL    HW248845   4.608   4.088  12.374
15802SOL     OW48846   4.777   4.419  11.599
15802SOL    HW148847   4.803   4.418  11.691
15802SOL    HW248848   4.694   4.372  11.597
15803SOL     OW48849   3.813   4.569  11.957
15803SOL    HW148850   3.896   4.550  12.001
15803SOL    HW248851   3.781   4.648  12.001
15804SOL     OW48852   4.611   4.079  11.365
15804SOL    HW148853   4.659   4.139  11.307
15804SOL    HW248854   4.615   3.994  11.320
15805SOL     OW48855   5.107   4.865  11.707
15805SOL    HW148856   5.189   4.855  11.659
15805SOL    HW248857   5.057   4.929  11.656
15806SOL     OW48858   4.279   3.911  12.056
15806SOL    HW148859   4.280   3.937  12.148
15806SOL    HW248860   4.281   3.994  12.008
15807SOL     OW48861   4.719   5.168  11.639
15807SOL    HW148862   4.693   5.246  11.591
15807SOL    HW248863   4.701   5.189  11.730
15808SOL     OW48864   4.078   5.541  12.039
15808SOL    HW148865   4.122   5.456  12.049
15808SOL    HW248866   4.145   5.605  12.063
15809SOL     OW48867   5.517   4.779  12.053
15809SOL    HW148868   5.462   4.761  11.977
15809SOL    HW248869   5.455   4.784  12.126
15810SOL     OW48870   4.039   4.694  11.413
15810SOL    HW148871   4.130   4.713  11.392
15810SOL    HW248872   4.008   4.639  11.341
15811SOL     OW48873   5.201   4.478  11.887
15811SOL    HW148874   5.203   4.436  11.973
15811SOL    HW248875   5.281   4.531  11.885
15812SOL     OW48876   4.851   5.504  11.397
15812SOL    HW148877   4.776   5.464  11.441
15812SOL    HW248878   4.876   5.440  11.330
15813SOL     OW48879   5.354   5.107  11.271
15813SOL    HW148880   5.317   5.193  11.251
15813SOL    HW248881   5.286   5.045  11.244
15814SOL     OW48882   4.190   5.456  11.490
15814SOL    HW148883   4.234   5.514  11.551
15814SOL    HW248884   4.258   5.428  11.429
15815SOL     OW48885   5.125   3.832  11.618
15815SOL    HW148886   5.118   3.803  11.527
15815SOL    HW248887   5.219   3.834  11.636
15816SOL     OW48888   3.954   5.523  12.382
15816SOL    HW148889   4.002   5.451  12.425
15816SOL    HW248890   3.915   5.483  12.304
15817SOL     OW48891   4.668   5.421  12.070
15817SOL    HW148892   4.747   5.370  12.087
15817SOL    HW248893   4.622   5.373  12.001
15818SOL     OW48894   4.092   4.412  11.642
15818SOL    HW148895   4.110   4.329  11.685
15818SOL    HW248896   4.002   4.433  11.665
15819SOL     OW48897   4.373   3.839  11.275
15819SOL    HW148898   4.426   3.763  11.299
15819SOL    HW248899   4.317   3.807  11.204
15820SOL     OW48900   4.536   5.084  12.101
15820SOL    HW148901   4.625   5.091  12.067
15820SOL    HW248902   4.480   5.104  12.025
15821SOL     OW48903   4.650   4.236  12.069
15821SOL    HW148904   4.624   4.220  11.979
15821SOL    HW248905   4.687   4.152  12.099
15822SOL     OW48906   4.283   3.795  11.659
15822SOL    HW148907   4.205   3.791  11.714
15822SOL    HW248908   4.267   3.870  11.601
15823SOL     OW48909   5.153   4.928  11.207
15823SOL    HW148910   5.183   4.855  11.260
15823SOL    HW248911   5.069   4.953  11.245
15824SOL     OW48912   4.011   3.781  11.356
15824SOL    HW148913   4.064   3.832  11.294
15824SOL    HW248914   4.072   3.717  11.392
15825SOL     OW48915   4.668   3.978  11.621
15825SOL    HW148916   4.654   4.015  11.534
15825SOL    HW248917   4.762   3.988  11.635
15826SOL     OW48918   4.940   5.300  11.966
15826SOL    HW148919   4.956   5.365  11.898
15826SOL    HW248920   5.017   5.305  12.022
15827SOL     OW48921   4.199   4.881  11.896
15827SOL    HW148922   4.134   4.860  11.963
15827SOL    HW248923   4.154   4.864  11.813
15828SOL     OW48924   4.983   5.515  11.785
15828SOL    HW148925   5.034   5.577  11.732
15828SOL    HW248926   4.915   5.568  11.826
15829SOL     OW48927   4.748   4.253  11.202
15829SOL    HW148928   4.711   4.338  11.178
15829SOL    HW248929   4.816   4.273  11.266
15830SOL     OW48930   4.280   3.930  12.331
15830SOL    HW148931   4.308   3.839  12.338
15830SOL    HW248932   4.189   3.929  12.361
15831SOL     OW48933   4.582   4.179  11.807
15831SOL    HW148934   4.548   4.233  11.735
15831SOL    HW248935   4.614   4.100  11.763
15832SOL     OW48936   4.743   3.761  11.907
15832SOL    HW148937   4.681   3.752  11.835
15832SOL    HW248938   4.721   3.690  11.967
15833SOL     OW48939   5.159   4.877  12.029
15833SOL    HW148940   5.095   4.806  12.027
15833SOL    HW248941   5.185   4.888  11.937
15834SOL     OW48942   5.187   4.332  12.128
15834SOL    HW148943   5.127   4.259  12.142
15834SOL    HW248944   5.247   4.327  12.202
15835SOL     OW48945   5.569   4.530  11.551
15835SOL    HW148946   5.623   4.484  11.615
15835SOL    HW248947   5.549   4.464  11.485
15836SOL     OW48948   4.214   5.149  11.320
15836SOL    HW148949   4.133   5.120  11.361
15836SOL    HW248950   4.220   5.097  11.240
15837SOL     OW48951   5.402   4.989  11.814
15837SOL    HW148952   5.496   4.984  11.832
15837SOL    HW248953   5.378   5.079  11.835
15838SOL     OW48954   5.116   4.298  11.244
15838SOL    HW148955   5.056   4.275  11.315
15838SOL    HW248956   5.203   4.274  11.277
15839SOL     OW48957   4.295   4.024  11.471
15839SOL    HW148958   4.302   3.964  11.397
15839SOL    HW248959   4.385   4.050  11.490
15840SOL     OW48960   4.834   4.958  12.286
15840SOL    HW148961   4.751   4.967  12.335
15840SOL    HW248962   4.813   4.989  12.198
15841SOL     OW48963   5.328   4.817  12.252
15841SOL    HW148964   5.297   4.851  12.336
15841SOL    HW248965   5.259   4.840  12.190
15842SOL     OW48966   4.436   4.781  11.552
15842SOL    HW148967   4.425   4.762  11.645
15842SOL    HW248968   4.511   4.728  11.525
15843SOL     OW48969   4.113   4.442  12.445
15843SOL    HW148970   4.154   4.518  12.486
15843SOL    HW248971   4.182   4.402  12.393
15844SOL     OW48972   4.986   4.111  12.393
15844SOL    HW148973   5.006   4.175  12.462
15844SOL    HW248974   4.892   4.097  12.400
15845SOL     OW48975   4.064   4.843  11.656
15845SOL    HW148976   4.084   4.917  11.597
15845SOL    HW248977   4.058   4.768  11.597
15846SOL     OW48978   4.263   4.246  12.013
15846SOL    HW148979   4.283   4.308  11.943
15846SOL    HW248980   4.322   4.271  12.084
15847SOL     OW48981   4.970   5.075  11.564
15847SOL    HW148982   5.027   5.145  11.597
15847SOL    HW248983   4.883   5.096  11.597
15848SOL     OW48984   5.008   5.172  12.313
15848SOL    HW148985   5.063   5.171  12.392
15848SOL    HW248986   4.952   5.096  12.322
15849SOL     OW48987   5.296   4.351  11.652
15849SOL    HW148988   5.246   4.387  11.726
15849SOL    HW248989   5.343   4.427  11.616
15850SOL     OW48990   4.094   5.302  12.463
15850SOL    HW148991   4.076   5.241  12.391
15850SOL    HW248992   4.126   5.247  12.534
15851SOL     OW48993   4.299   4.616  12.233
15851SOL    HW148994   4.349   4.692  12.203
15851SOL    HW248995   4.287   4.630  12.327
15852SOL     OW48996   5.044   4.578  12.167
15852SOL    HW148997   4.957   4.546  12.145
15852SOL    HW248998   5.100   4.501  12.163
15853SOL     OW48999   4.919   4.249  11.433
15853SOL    HW149000   4.932   4.171  11.488
15853SOL    HW249001   4.881   4.314  11.491
15854SOL     OW49002   4.023   3.907  12.411
15854SOL    HW149003   4.005   3.936  12.501
15854SOL    HW249004   3.999   3.815  12.410
15855SOL     OW49005   3.807   5.035  12.434
15855SOL    HW149006   3.840   4.964  12.490
15855SOL    HW249007   3.735   5.074  12.484
15856SOL     OW49008   4.421   4.346  12.210
15856SOL    HW149009   4.509   4.334  12.174
15856SOL    HW249010   4.411   4.441  12.216
15857SOL     OW49011   4.043   3.792  11.794
15857SOL    HW149012   4.013   3.880  11.817
15857SOL    HW249013   4.050   3.746  11.877
15858SOL     OW49014   5.350   4.120  11.518
15858SOL    HW149015   5.376   4.052  11.581
15858SOL    HW249016   5.322   4.193  11.572
15859SOL     OW49017   4.756   4.476  12.139
15859SOL    HW149018   4.752   4.485  12.234
15859SOL    HW249019   4.724   4.387  12.122
15860SOL     OW49020   5.252   3.993  11.292
15860SOL    HW149021   5.190   3.927  11.325
15860SOL    HW249022   5.285   4.036  11.371
15861SOL     OW49023   5.004   4.546  11.196
15861SOL    HW149024   5.048   4.461  11.202
15861SOL    HW249025   5.038   4.585  11.116
15862SOL     OW49026   4.795   5.068  12.027
15862SOL    HW149027   4.805   4.995  11.966
15862SOL    HW249028   4.853   5.136  11.993
15863SOL     OW49029   4.046   4.541  12.109
15863SOL    HW149030   4.133   4.564  12.144
15863SOL    HW249031   4.034   4.450  12.136
15864SOL     OW49032   4.028   4.266  12.148
15864SOL    HW149033   4.003   4.174  12.160
15864SOL    HW249034   4.111   4.262  12.100
15865SOL     OW49035   4.880   3.960   0.144
15865SOL    HW149036   4.911   3.972   0.235
15865SOL    HW249037   4.956   3.925   0.098
15866SOL     OW49038   3.699   5.032  11.402
15866SOL    HW149039   3.620   5.065  11.358
15866SOL    HW249040   3.707   4.942  11.371
15867SOL     OW49041   3.816   5.500  12.114
15867SOL    HW149042   3.788   5.421  12.068
15867SOL    HW249043   3.905   5.515  12.083
15868SOL     OW49044   4.216   5.305  12.067
15868SOL    HW149045   4.285   5.361  12.103
15868SOL    HW249046   4.263   5.239  12.016
15869SOL     OW49047   4.739   4.505  12.413
15869SOL    HW149048   4.821   4.526  12.457
15869SOL    HW249049   4.680   4.576  12.438
15870SOL     OW49050   3.780   4.287  12.282
15870SOL    HW149051   3.855   4.289  12.222
15870SOL    HW249052   3.820   4.287  12.369
15871SOL     OW49053   4.535   4.284  11.542
15871SOL    HW149054   4.561   4.221  11.475
15871SOL    HW249055   4.472   4.342  11.498
15872SOL     OW49056   5.375   4.325  12.326
15872SOL    HW149057   5.369   4.278  12.409
15872SOL    HW249058   5.466   4.313  12.299
15873SOL     OW49059   4.438   4.145  12.398
15873SOL    HW149060   4.371   4.083  12.370
15873SOL    HW249061   4.423   4.223  12.344
15874SOL     OW49062   4.611   5.382   0.038
15874SOL    HW149063   4.615   5.446  -0.033
15874SOL    HW249064   4.654   5.425   0.112
15875SOL     OW49065   5.015   4.760  12.369
15875SOL    HW149066   5.033   4.705  12.293
15875SOL    HW249067   4.956   4.828  12.337
15876SOL     OW49068   5.045   4.583  11.469
15876SOL    HW149069   4.974   4.551  11.524
15876SOL    HW249070   5.016   4.567  11.380
15877SOL     OW49071   5.470   5.474  12.296
15877SOL    HW149072   5.545   5.490  12.239
15877SOL    HW249073   5.459   5.379  12.294
15878SOL     OW49074   4.970   5.444  12.275
15878SOL    HW149075   5.051   5.478  12.237
15878SOL    HW249076   4.985   5.350  12.283
15879SOL     OW49077   3.821   5.011  12.169
15879SOL    HW149078   3.815   5.023  12.264
15879SOL    HW249079   3.750   4.950  12.149
15880SOL     OW49080   5.455   3.905  11.665
15880SOL    HW149081   5.518   3.891  11.595
15880SOL    HW249082   5.476   3.838  11.730
15881SOL     OW49083   5.118   5.290  11.668
15881SOL    HW149084   5.176   5.324  11.600
15881SOL    HW249085   5.068   5.367  11.696
15882SOL     OW49086   5.000   4.656  11.839
15882SOL    HW149087   5.073   4.595  11.853
15882SOL    HW249088   5.036   4.726  11.785
15883SOL     OW49089   4.392   5.355  11.326
15883SOL    HW149090   4.410   5.370  11.233
15883SOL    HW249091   4.338   5.276  11.328
15884SOL     OW49092   5.342   5.515   0.037
15884SOL    HW149093   5.394   5.507  -0.043
15884SOL    HW249094   5.394   5.573   0.093
15885SOL     OW49095   5.564   3.875  12.143
15885SOL    HW149096   5.583   3.812  12.073
15885SOL    HW249097   5.475   3.904  12.125
15886SOL     OW49098   3.977   4.044  11.879
15886SOL    HW149099   3.888   4.074  11.863
15886SOL    HW249100   3.984   4.038  11.974
15887SOL     OW49101   4.930   5.321  11.207
15887SOL    HW149102   4.922   5.229  11.231
15887SOL    HW249103   4.866   5.335  11.137
15888SOL     OW49104   4.587   4.732  12.468
15888SOL    HW149105   4.558   4.784  12.393
15888SOL    HW249106   4.507   4.715  12.518
15889SOL     OW49107   4.634   4.622  11.468
15889SOL    HW149108   4.689   4.656  11.397
15889SOL    HW249109   4.691   4.561  11.514
15890SOL     OW49110   5.210   5.362  11.221
15890SOL    HW149111   5.117   5.346  11.202
15890SOL    HW249112   5.252   5.364  11.135
15891SOL     OW49113   4.789   4.835  11.885
15891SOL    HW149114   4.719   4.783  11.924
15891SOL    HW249115   4.857   4.772  11.862
15892SOL     OW49116   4.759   3.975  12.102
15892SOL    HW149117   4.755   3.902  12.040
15892SOL    HW249118   4.742   3.934  12.187
15893SOL     OW49119   4.311   5.205  11.640
15893SOL    HW149120   4.371   5.155  11.585
15893SOL    HW249121   4.260   5.258  11.578
15894SOL     OW49122   5.508   4.171   0.041
15894SOL    HW149123   5.603   4.182   0.048
15894SOL    HW249124   5.497   4.083   0.005
15895SOL     OW49125   3.973   5.066  11.450
15895SOL    HW149126   3.884   5.079  11.418
15895SOL    HW249127   3.974   5.108  11.536
15896SOL     OW49128   3.805   4.051  11.194
15896SOL    HW149129   3.726   4.025  11.147
15896SOL    HW249130   3.836   4.129  11.147
15897SOL     OW49131   3.779   3.877  11.462
15897SOL    HW149132   3.762   3.948  11.400
15897SOL    HW249133   3.865   3.844  11.438
15898SOL     OW49134   4.905   5.051  11.292
15898SOL    HW149135   4.813   5.025  11.294
15898SOL    HW249136   4.930   5.055  11.385
15899SOL     OW49137   5.214   5.515  12.162
15899SOL    HW149138   5.239   5.584  12.100
15899SOL    HW249139   5.296   5.491  12.206
15900SOL     OW49140   5.413   4.594  12.408
15900SOL    HW149141   5.389   4.509  12.371
15900SOL    HW249142   5.385   4.658  12.343
15901SOL     OW49143   4.940   4.043  11.627
15901SOL    HW149144   5.002   3.970  11.623
15901SOL    HW249145   4.969   4.094  11.703
15902SOL     OW49146   4.306   4.450  11.827
15902SOL    HW149147   4.353   4.533  11.832
15902SOL    HW249148   4.231   4.469  11.771
15903SOL     OW49149   5.554   4.616   0.137
15903SOL    HW149150   5.526   4.696   0.181
15903SOL    HW249151   5.493   4.607   0.064
15904SOL     OW49152   4.591   5.088  11.220
15904SOL    HW149153   4.556   5.127  11.300
15904SOL    HW249154   4.611   5.163  11.164
15905SOL     OW49155   4.388   5.518  12.120
15905SOL    HW149156   4.375   5.607  12.086
15905SOL    HW249157   4.482   5.502  12.112
15906SOL     OW49158   4.598   4.689  12.027
15906SOL    HW149159   4.648   4.617  12.066
15906SOL    HW249160   4.564   4.738  12.101
15907SOL     OW49161   4.783   4.696  11.256
15907SOL    HW149162   4.769   4.757  11.184
15907SOL    HW249163   4.863   4.649  11.233
15908SOL     OW49164   5.575   5.274  12.011
15908SOL    HW149165   5.489   5.262  11.971
15908SOL    HW249166   5.584   5.200  12.071
15909SOL     OW49167   3.845   4.893  11.816
15909SOL    HW149168   3.853   4.872  11.909
15909SOL    HW249169   3.928   4.864  11.777
15910SOL     OW49170   5.573   3.916  12.431
15910SOL    HW149171   5.535   3.839  12.474
15910SOL    HW249172   5.560   3.901  12.338
15911SOL     OW49173   4.120   4.143  11.662
15911SOL    HW149174   4.182   4.074  11.641
15911SOL    HW249175   4.076   4.112  11.741
15912SOL     OW49176   5.431   5.210  12.280
15912SOL    HW149177   5.353   5.168  12.243
15912SOL    HW249178   5.466   5.145  12.342
15913SOL     OW49179   4.551   5.309  11.850
15913SOL    HW149180   4.525   5.369  11.781
15913SOL    HW249181   4.478   5.247  11.856
15914SOL     OW49182   5.161   3.940  12.291
15914SOL    HW149183   5.176   3.869  12.353
15914SOL    HW249184   5.106   4.002  12.339
15915SOL     OW49185   4.723   3.710  12.300
15915SOL    HW149186   4.691   3.660  12.225
15915SOL    HW249187   4.816   3.689  12.305
15916SOL     OW49188   4.496   5.056  11.505
15916SOL    HW149189   4.479   4.963  11.512
15916SOL    HW249190   4.580   5.068  11.549
15917SOL     OW49191   5.085   3.776  11.348
15917SOL    HW149192   5.125   3.698  11.309
15917SOL    HW249193   4.994   3.750  11.364
15918SOL     OW49194   5.021   4.191  11.843
15918SOL    HW149195   4.969   4.271  11.852
15918SOL    HW249196   5.019   4.151  11.930
15919SOL     OW49197   5.310   3.922  12.064
15919SOL    HW149198   5.253   3.938  12.140
15919SOL    HW249199   5.302   4.002  12.012
15920SOL     OW49200   3.784   4.780  11.505
15920SOL    HW149201   3.871   4.759  11.472
15920SOL    HW249202   3.742   4.695  11.518
15921SOL     OW49203   4.614   5.389  11.511
15921SOL    HW149204   4.539   5.378  11.451
15921SOL    HW249205   4.589   5.463  11.566
15922SOL     OW49206   3.996   6.185   0.023
15922SOL    HW149207   3.959   6.234   0.096
15922SOL    HW249208   3.929   6.190  -0.046
15923SOL     OW49209   3.928   5.883   0.989
15923SOL    HW149210   3.956   5.849   1.074
15923SOL    HW249211   3.841   5.845   0.975
15924SOL     OW49212   3.720   5.972   0.636
15924SOL    HW149213   3.643   5.998   0.687
15924SOL    HW249214   3.694   5.890   0.592
15925SOL     OW49215   4.297   6.888   1.196
15925SOL    HW149216   4.211   6.887   1.154
15925SOL    HW249217   4.312   6.979   1.220
15926SOL     OW49218   5.303   7.113   0.716
15926SOL    HW149219   5.258   7.079   0.794
15926SOL    HW249220   5.236   7.109   0.647
15927SOL     OW49221   4.853   6.293   0.692
15927SOL    HW149222   4.904   6.374   0.684
15927SOL    HW249223   4.808   6.302   0.776
15928SOL     OW49224   5.459   6.203   0.263
15928SOL    HW149225   5.453   6.188   0.168
15928SOL    HW249226   5.432   6.120   0.302
15929SOL     OW49227   4.464   6.721   1.053
15929SOL    HW149228   4.402   6.760   1.114
15929SOL    HW249229   4.505   6.796   1.009
15930SOL     OW49230   4.607   6.333   1.831
15930SOL    HW149231   4.587   6.401   1.896
15930SOL    HW249232   4.627   6.381   1.751
15931SOL     OW49233   4.409   6.583   0.644
15931SOL    HW149234   4.476   6.574   0.712
15931SOL    HW249235   4.341   6.638   0.683
15932SOL     OW49236   4.449   6.737   1.827
15932SOL    HW149237   4.487   6.815   1.869
15932SOL    HW249238   4.368   6.769   1.786
15933SOL     OW49239   4.055   6.997   1.065
15933SOL    HW149240   3.980   6.957   1.022
15933SOL    HW249241   4.098   7.048   0.996
15934SOL     OW49242   5.172   7.079   1.362
15934SOL    HW149243   5.217   7.163   1.356
15934SOL    HW249244   5.109   7.091   1.434
15935SOL     OW49245   4.166   5.996   1.501
15935SOL    HW149246   4.247   5.944   1.505
15935SOL    HW249247   4.096   5.932   1.513
15936SOL     OW49248   5.318   6.017   0.747
15936SOL    HW149249   5.267   6.057   0.677
15936SOL    HW249250   5.406   6.010   0.711
15937SOL     OW49251   3.937   7.308   0.475
15937SOL    HW149252   3.960   7.383   0.529
15937SOL    HW249253   4.013   7.293   0.419
15938SOL     OW49254   4.854   6.930   1.704
15938SOL    HW149255   4.892   6.923   1.792
15938SOL    HW249256   4.804   6.849   1.693
15939SOL     OW49257   3.951   7.039   0.545
15939SOL    HW149258   3.927   7.132   0.547
15939SOL    HW249259   3.895   6.999   0.612
15940SOL     OW49260   3.996   6.676   0.893
15940SOL    HW149261   3.998   6.584   0.922
15940SOL    HW249262   3.938   6.719   0.955
15941SOL     OW49263   4.332   7.368   1.447
15941SOL    HW149264   4.240   7.363   1.473
15941SOL    HW249265   4.378   7.312   1.509
15942SOL     OW49266   4.300   6.552   0.157
15942SOL    HW149267   4.366   6.572   0.091
15942SOL    HW249268   4.331   6.596   0.236
15943SOL     OW49269   5.319   5.710   1.464
15943SOL    HW149270   5.344   5.790   1.418
15943SOL    HW249271   5.291   5.740   1.550
15944SOL     OW49272   3.840   6.236   0.561
15944SOL    HW149273   3.815   6.146   0.584
15944SOL    HW249274   3.835   6.284   0.644
15945SOL     OW49275   5.573   7.330   0.311
15945SOL    HW149276   5.640   7.302   0.374
15945SOL    HW249277   5.592   7.422   0.293
15946SOL     OW49278   3.756   7.105   0.133
15946SOL    HW149279   3.667   7.070   0.125
15946SOL    HW249280   3.747   7.184   0.185
15947SOL     OW49281   5.416   6.524   0.661
15947SOL    HW149282   5.479   6.466   0.619
15947SOL    HW249283   5.380   6.577   0.589
15948SOL     OW49284   5.370   6.698   0.437
15948SOL    HW149285   5.457   6.693   0.397
15948SOL    HW249286   5.379   6.764   0.505
15949SOL     OW49287   3.856   6.330   1.582
15949SOL    HW149288   3.948   6.356   1.586
15949SOL    HW249289   3.807   6.412   1.592
15950SOL     OW49290   4.344   6.981   0.736
15950SOL    HW149291   4.300   6.896   0.745
15950SOL    HW249292   4.329   7.005   0.644
15951SOL     OW49293   4.999   6.815   1.422
15951SOL    HW149294   5.030   6.748   1.361
15951SOL    HW249295   5.060   6.811   1.496
15952SOL     OW49296   4.549   5.598   0.529
15952SOL    HW149297   4.586   5.682   0.501
15952SOL    HW249298   4.454   5.614   0.531
15953SOL     OW49299   3.913   6.544   1.277
15953SOL    HW149300   4.000   6.506   1.266
15953SOL    HW249301   3.856   6.487   1.227
15954SOL     OW49302   5.221   6.598   0.230
15954SOL    HW149303   5.153   6.542   0.267
15954SOL    HW249304   5.275   6.623   0.304
15955SOL     OW49305   4.869   7.383   1.585
15955SOL    HW149306   4.934   7.444   1.549
15955SOL    HW249307   4.911   7.297   1.578
15956SOL     OW49308   4.072   5.834   1.848
15956SOL    HW149309   4.112   5.920   1.862
15956SOL    HW249310   3.978   5.849   1.862
15957SOL     OW49311   5.181   7.009   0.937
15957SOL    HW149312   5.120   7.023   1.009
15957SOL    HW249313   5.171   6.917   0.913
15958SOL     OW49314   5.364   7.354   0.577
15958SOL    HW149315   5.350   7.311   0.492
15958SOL    HW249316   5.358   7.283   0.641
15959SOL     OW49317   4.304   6.296   0.276
15959SOL    HW149318   4.313   6.384   0.239
15959SOL    HW249319   4.239   6.306   0.346
15960SOL     OW49320   5.001   5.957   0.927
15960SOL    HW149321   4.913   5.922   0.938
15960SOL    HW249322   5.055   5.904   0.986
15961SOL     OW49323   5.311   7.248   0.324
15961SOL    HW149324   5.402   7.275   0.312
15961SOL    HW249325   5.294   7.189   0.250
15962SOL     OW49326   4.517   6.200   1.450
15962SOL    HW149327   4.492   6.171   1.538
15962SOL    HW249328   4.485   6.132   1.391
15963SOL     OW49329   5.121   6.061   1.678
15963SOL    HW149330   5.127   6.103   1.764
15963SOL    HW249331   5.170   5.979   1.687
15964SOL     OW49332   4.672   6.466   1.595
15964SOL    HW149333   4.726   6.400   1.552
15964SOL    HW249334   4.620   6.504   1.525
15965SOL     OW49335   4.717   5.991   1.225
15965SOL    HW149336   4.627   6.005   1.253
15965SOL    HW249337   4.710   5.941   1.144
15966SOL     OW49338   4.777   6.291   0.427
15966SOL    HW149339   4.794   6.285   0.521
15966SOL    HW249340   4.692   6.248   0.415
15967SOL     OW49341   3.815   6.405   0.776
15967SOL    HW149342   3.896   6.398   0.828
15967SOL    HW249343   3.770   6.481   0.813
15968SOL     OW49344   3.844   7.462   1.588
15968SOL    HW149345   3.849   7.445   1.682
15968SOL    HW249346   3.770   7.410   1.558
15969SOL     OW49347   4.603   5.951   0.223
15969SOL    HW149348   4.634   6.020   0.164
15969SOL    HW249349   4.609   5.871   0.171
15970SOL     OW49350   5.437   6.158   1.831
15970SOL    HW149351   5.400   6.231   1.781
15970SOL    HW249352   5.453   6.091   1.765
15971SOL     OW49353   5.110   6.731   0.543
15971SOL    HW149354   5.188   6.719   0.490
15971SOL    HW249355   5.053   6.786   0.490
15972SOL     OW49356   4.226   5.769   0.895
15972SOL    HW149357   4.265   5.767   0.982
15972SOL    HW249358   4.254   5.853   0.858
15973SOL     OW49359   4.722   7.030   0.475
15973SOL    HW149360   4.688   7.104   0.425
15973SOL    HW249361   4.693   7.045   0.564
15974SOL     OW49362   4.078   7.400   0.875
15974SOL    HW149363   4.121   7.315   0.880
15974SOL    HW249364   4.147   7.463   0.895
15975SOL     OW49365   5.534   6.650   0.876
15975SOL    HW149366   5.485   6.618   0.800
15975SOL    HW249367   5.470   6.651   0.947
15976SOL     OW49368   4.937   7.116   1.514
15976SOL    HW149369   4.928   7.052   1.585
15976SOL    HW249370   4.884   7.080   1.443
15977SOL     OW49371   4.033   6.570   0.262
15977SOL    HW149372   4.115   6.577   0.212
15977SOL    HW249373   4.000   6.483   0.240
15978SOL     OW49374   5.206   6.347   0.726
15978SOL    HW149375   5.207   6.292   0.804
15978SOL    HW249376   5.288   6.396   0.730
15979SOL     OW49377   4.219   6.839   1.716
15979SOL    HW149378   4.165   6.850   1.638
15979SOL    HW249379   4.161   6.859   1.789
15980SOL     OW49380   4.827   7.378   0.236
15980SOL    HW149381   4.767   7.334   0.297
15980SOL    HW249382   4.862   7.307   0.182
15981SOL     OW49383   3.925   5.857   1.522
15981SOL    HW149384   3.844   5.905   1.540
15981SOL    HW249385   3.908   5.768   1.553
15982SOL     OW49386   5.368   7.005   0.117
15982SOL    HW149387   5.309   7.061   0.068
15982SOL    HW249388   5.332   6.917   0.108
15983SOL     OW49389   4.174   7.317   0.331
15983SOL    HW149390   4.223   7.373   0.391
15983SOL    HW249391   4.241   7.276   0.276
15984SOL     OW49392   5.128   5.683   0.450
15984SOL    HW149393   5.127   5.655   0.359
15984SOL    HW249394   5.220   5.702   0.469
15985SOL     OW49395   3.986   7.375   1.220
15985SOL    HW149396   4.025   7.297   1.260
15985SOL    HW249397   3.970   7.350   1.129
15986SOL     OW49398   4.663   7.288   0.892
15986SOL    HW149399   4.743   7.241   0.916
15986SOL    HW249400   4.624   7.235   0.823
15987SOL     OW49401   4.113   6.282   0.478
15987SOL    HW149402   4.132   6.188   0.487
15987SOL    HW249403   4.023   6.291   0.508
15988SOL     OW49404   5.241   5.804   1.722
15988SOL    HW149405   5.250   5.828   1.814
15988SOL    HW249406   5.178   5.732   1.722
15989SOL     OW49407   4.357   5.696   0.130
15989SOL    HW149408   4.451   5.679   0.131
15989SOL    HW249409   4.339   5.725   0.040
15990SOL     OW49410   4.511   5.888   1.835
15990SOL    HW149411   4.564   5.831   1.781
15990SOL    HW249412   4.441   5.832   1.868
15991SOL     OW49413   4.606   7.118   1.196
15991SOL    HW149414   4.585   7.076   1.113
15991SOL    HW249415   4.668   7.058   1.238
15992SOL     OW49416   5.057   6.176   1.435
15992SOL    HW149417   5.092   6.145   1.518
15992SOL    HW249418   5.096   6.262   1.423
15993SOL     OW49419   4.541   6.976   0.956
15993SOL    HW149420   4.626   6.963   0.914
15993SOL    HW249421   4.479   6.981   0.883
15994SOL     OW49422   4.651   6.101   0.895
15994SOL    HW149423   4.627   6.090   0.803
15994SOL    HW249424   4.681   6.015   0.923
15995SOL     OW49425   4.279   5.641   0.504
15995SOL    HW149426   4.201   5.641   0.559
15995SOL    HW249427   4.270   5.720   0.450
15996SOL     OW49428   5.199   6.798   0.048
15996SOL    HW149429   5.213   6.722   0.104
15996SOL    HW249430   5.103   6.804   0.040
15997SOL     OW49431   4.037   5.676   0.200
15997SOL    HW149432   4.115   5.721   0.231
15997SOL    HW249433   4.058   5.583   0.207
15998SOL     OW49434   4.671   5.837   0.462
15998SOL    HW149435   4.642   5.876   0.380
15998SOL    HW249436   4.766   5.846   0.461
15999SOL     OW49437   4.800   6.275   1.450
15999SOL    HW149438   4.733   6.207   1.453
15999SOL    HW249439   4.883   6.228   1.445
16000SOL     OW49440   4.931   7.159   0.799
16000SOL    HW149441   4.953   7.224   0.732
16000SOL    HW249442   5.011   7.150   0.850
16001SOL     OW49443   4.201   6.747   0.728
16001SOL    HW149444   4.136   6.722   0.794
16001SOL    HW249445   4.155   6.737   0.645
16002SOL     OW49446   4.985   7.375   0.614
16002SOL    HW149447   5.034   7.442   0.567
16002SOL    HW249448   4.909   7.421   0.650
16003SOL     OW49449   4.729   6.171   0.101
16003SOL    HW149450   4.758   6.155   0.012
16003SOL    HW249451   4.807   6.157   0.155
16004SOL     OW49452   3.815   6.142   1.388
16004SOL    HW149453   3.907   6.137   1.362
16004SOL    HW249454   3.812   6.210   1.455
16005SOL     OW49455   4.590   6.047   0.635
16005SOL    HW149456   4.552   6.101   0.566
16005SOL    HW249457   4.615   5.966   0.591
16006SOL     OW49458   4.743   5.642   0.743
16006SOL    HW149459   4.679   5.637   0.672
16006SOL    HW249460   4.720   5.570   0.801
16007SOL     OW49461   5.159   6.746   0.856
16007SOL    HW149462   5.098   6.673   0.865
16007SOL    HW249463   5.178   6.750   0.762
16008SOL     OW49464   5.180   6.213   0.974
16008SOL    HW149465   5.146   6.127   0.952
16008SOL    HW249466   5.242   6.197   1.045
16009SOL     OW49467   5.534   6.412   0.424
16009SOL    HW149468   5.598   6.356   0.469
16009SOL    HW249469   5.497   6.355   0.356
16010SOL     OW49470   4.210   6.991   0.172
16010SOL    HW149471   4.147   6.943   0.225
16010SOL    HW249472   4.158   7.033   0.103
16011SOL     OW49473   5.405   6.865   0.640
16011SOL    HW149474   5.500   6.860   0.654
16011SOL    HW249475   5.382   6.954   0.665
16012SOL     OW49476   5.116   6.133   0.080
16012SOL    HW149477   5.064   6.135   0.160
16012SOL    HW249478   5.170   6.055   0.088
16013SOL     OW49479   4.245   5.843   0.325
16013SOL    HW149480   4.301   5.796   0.264
16013SOL    HW249481   4.225   5.925   0.281
16014SOL     OW49482   5.467   6.816   1.546
16014SOL    HW149483   5.554   6.777   1.538
16014SOL    HW249484   5.484   6.905   1.578
16015SOL     OW49485   4.774   6.947   1.341
16015SOL    HW149486   4.696   6.911   1.382
16015SOL    HW249487   4.847   6.895   1.376
16016SOL     OW49488   4.869   6.815   1.102
16016SOL    HW149489   4.797   6.835   1.161
16016SOL    HW249490   4.838   6.840   1.015
16017SOL     OW49491   5.350   6.682   1.076
16017SOL    HW149492   5.342   6.745   1.148
16017SOL    HW249493   5.272   6.697   1.023
16018SOL     OW49494   4.651   5.656   1.411
16018SOL    HW149495   4.638   5.664   1.317
16018SOL    HW249496   4.731   5.706   1.429
16019SOL     OW49497   4.706   6.700   1.726
16019SOL    HW149498   4.617   6.715   1.755
16019SOL    HW249499   4.702   6.620   1.674
16020SOL     OW49500   4.437   6.651   0.376
16020SOL    HW149501   4.423   6.627   0.468
16020SOL    HW249502   4.515   6.602   0.350
16021SOL     OW49503   4.149   6.405   1.253
16021SOL    HW149504   4.216   6.413   1.321
16021SOL    HW249505   4.117   6.316   1.262
16022SOL     OW49506   4.983   5.961   1.282
16022SOL    HW149507   5.013   6.040   1.326
16022SOL    HW249508   4.892   5.980   1.257
16023SOL     OW49509   3.800   7.160   1.364
16023SOL    HW149510   3.770   7.227   1.302
16023SOL    HW249511   3.895   7.157   1.352
16024SOL     OW49512   4.054   6.715   0.499
16024SOL    HW149513   4.045   6.788   0.438
16024SOL    HW249514   4.060   6.638   0.443
16025SOL     OW49515   4.265   6.117   0.858
16025SOL    HW149516   4.282   6.178   0.786
16025SOL    HW249517   4.335   6.135   0.921
16026SOL     OW49518   4.969   6.933   0.399
16026SOL    HW149519   5.025   7.002   0.435
16026SOL    HW249520   4.881   6.954   0.430
16027SOL     OW49521   5.013   7.053   1.144
16027SOL    HW149522   5.064   7.054   1.225
16027SOL    HW249523   4.961   6.973   1.150
16028SOL     OW49524   5.266   6.190   0.502
16028SOL    HW149525   5.229   6.248   0.569
16028SOL    HW249526   5.312   6.249   0.443
16029SOL     OW49527   4.067   7.121   1.302
16029SOL    HW149528   4.056   7.071   1.221
16029SOL    HW249529   4.162   7.128   1.313
16030SOL     OW49530   4.141   6.328   1.604
16030SOL    HW149531   4.208   6.370   1.550
16030SOL    HW249532   4.169   6.237   1.612
16031SOL     OW49533   5.343   6.371   1.691
16031SOL    HW149534   5.256   6.410   1.684
16031SOL    HW249535   5.393   6.410   1.619
16032SOL     OW49536   4.748   5.748   1.799
16032SOL    HW149537   4.796   5.806   1.740
16032SOL    HW249538   4.779   5.660   1.776
16033SOL     OW49539   4.217   5.616   1.764
16033SOL    HW149540   4.174   5.573   1.691
16033SOL    HW249541   4.166   5.695   1.780
16034SOL     OW49542   4.308   6.462   1.031
16034SOL    HW149543   4.345   6.549   1.041
16034SOL    HW249544   4.254   6.450   1.109
16035SOL     OW49545   5.054   6.454   1.011
16035SOL    HW149546   4.969   6.433   0.974
16035SOL    HW249547   5.105   6.373   1.002
16036SOL     OW49548   4.934   6.118   0.282
16036SOL    HW149549   4.950   6.043   0.339
16036SOL    HW249550   4.886   6.180   0.338
16037SOL     OW49551   3.955   5.792   1.248
16037SOL    HW149552   3.966   5.823   1.337
16037SOL    HW249553   3.996   5.706   1.247
16038SOL     OW49554   3.775   6.899   1.267
16038SOL    HW149555   3.800   6.838   1.336
16038SOL    HW249556   3.774   6.985   1.310
16039SOL     OW49557   4.444   6.212   1.048
16039SOL    HW149558   4.519   6.195   0.991
16039SOL    HW249559   4.417   6.301   1.026
16040SOL     OW49560   5.471   6.549   1.863
16040SOL    HW149561   5.431   6.479   1.812
16040SOL    HW249562   5.407   6.568   1.932
16041SOL     OW49563   4.033   5.644   0.632
16041SOL    HW149564   4.013   5.736   0.650
16041SOL    HW249565   4.042   5.604   0.718
16042SOL     OW49566   5.338   5.968   0.357
16042SOL    HW149567   5.378   5.900   0.412
16042SOL    HW249568   5.305   6.032   0.420
16043SOL     OW49569   4.751   6.349   0.955
16043SOL    HW149570   4.739   6.364   1.049
16043SOL    HW249571   4.725   6.257   0.943
16044SOL     OW49572   4.691   7.154   1.712
16044SOL    HW149573   4.687   7.183   1.621
16044SOL    HW249574   4.729   7.066   1.708
16045SOL     OW49575   5.592   7.054   1.601
16045SOL    HW149576   5.603   7.103   1.519
16045SOL    HW249577   5.659   7.088   1.659
16046SOL     OW49578   4.071   6.503   1.809
16046SOL    HW149579   4.151   6.527   1.857
16046SOL    HW249580   4.101   6.439   1.745
16047SOL     OW49581   5.208   5.880   0.136
16047SOL    HW149582   5.178   5.791   0.155
16047SOL    HW249583   5.261   5.904   0.213
16048SOL     OW49584   5.018   6.390   0.055
16048SOL    HW149585   5.062   6.306   0.049
16048SOL    HW249586   5.070   6.449   0.001
16049SOL     OW49587   4.787   6.926   0.859
16049SOL    HW149588   4.795   6.853   0.798
16049SOL    HW249589   4.841   6.996   0.821
16050SOL     OW49590   4.036   6.398   0.942
16050SOL    HW149591   4.130   6.415   0.941
16050SOL    HW249592   4.028   6.308   0.972
16051SOL     OW49593   4.040   6.124   1.004
16051SOL    HW149594   4.004   6.036   0.994
16051SOL    HW249595   4.120   6.123   0.951
16052SOL     OW49596   4.862   5.969   1.676
16052SOL    HW149597   4.814   6.025   1.737
16052SOL    HW249598   4.950   6.007   1.672
16053SOL     OW49599   4.887   5.785   1.472
16053SOL    HW149600   4.874   5.853   1.539
16053SOL    HW249601   4.926   5.832   1.398
16054SOL     OW49602   3.813   7.363   0.943
16054SOL    HW149603   3.783   7.285   0.897
16054SOL    HW249604   3.902   7.377   0.910
16055SOL     OW49605   4.215   7.163   0.903
16055SOL    HW149606   4.285   7.222   0.929
16055SOL    HW249607   4.257   7.100   0.845
16056SOL     OW49608   4.684   6.377   1.220
16056SOL    HW149609   4.743   6.358   1.293
16056SOL    HW249610   4.606   6.324   1.236
16057SOL     OW49611   3.762   6.148   1.114
16057SOL    HW149612   3.841   6.134   1.063
16057SOL    HW249613   3.791   6.142   1.205
16058SOL     OW49614   3.914   6.106   1.732
16058SOL    HW149615   3.969   6.060   1.668
16058SOL    HW249616   3.884   6.184   1.685
16059SOL     OW49617   5.110   6.512   1.656
16059SOL    HW149618   5.127   6.607   1.651
16059SOL    HW249619   5.103   6.485   1.565
16060SOL     OW49620   4.533   6.167   0.385
16060SOL    HW149621   4.546   6.091   0.327
16060SOL    HW249622   4.458   6.212   0.347
16061SOL     OW49623   5.362   6.193   1.186
16061SOL    HW149624   5.350   6.125   1.252
16061SOL    HW249625   5.449   6.176   1.149
16062SOL     OW49626   3.959   7.139   1.719
16062SOL    HW149627   3.937   7.189   1.798
16062SOL    HW249628   3.973   7.049   1.751
16063SOL     OW49629   4.443   6.029   1.254
16063SOL    HW149630   4.406   5.945   1.230
16063SOL    HW249631   4.427   6.085   1.178
16064SOL     OW49632   4.639   7.253   1.458
16064SOL    HW149633   4.637   7.222   1.368
16064SOL    HW249634   4.712   7.316   1.461
16065SOL     OW49635   4.186   6.062   0.183
16065SOL    HW149636   4.237   6.139   0.209
16065SOL    HW249637   4.122   6.096   0.121
16066SOL     OW49638   3.858   6.727   1.470
16066SOL    HW149639   3.862   6.683   1.555
16066SOL    HW249640   3.879   6.659   1.407
16067SOL     OW49641   5.042   6.632   1.215
16067SOL    HW149642   5.056   6.566   1.146
16067SOL    HW249643   4.982   6.695   1.176
16068SOL     OW49644   5.015   6.440   0.327
16068SOL    HW149645   4.944   6.396   0.372
16068SOL    HW249646   5.010   6.408   0.237
16069SOL     OW49647   5.529   7.314   1.164
16069SOL    HW149648   5.580   7.339   1.087
16069SOL    HW249649   5.486   7.233   1.139
16070SOL     OW49650   4.953   7.324   1.108
16070SOL    HW149651   5.039   7.351   1.076
16070SOL    HW249652   4.963   7.231   1.127
16071SOL     OW49653   3.806   6.866   0.999
16071SOL    HW149654   3.790   6.874   1.094
16071SOL    HW249655   3.746   6.797   0.971
16072SOL     OW49656   4.452   7.304   1.691
16072SOL    HW149657   4.419   7.296   1.781
16072SOL    HW249658   4.532   7.253   1.690
16073SOL     OW49659   4.628   5.681   0.105
16073SOL    HW149660   4.677   5.707   0.027
16073SOL    HW249661   4.695   5.650   0.166
16074SOL     OW49662   5.397   5.726   0.505
16074SOL    HW149663   5.467   5.781   0.541
16074SOL    HW249664   5.411   5.640   0.545
16075SOL     OW49665   5.119   7.151   0.506
16075SOL    HW149666   5.176   7.184   0.436
16075SOL    HW249667   5.066   7.227   0.531
16076SOL     OW49668   3.859   7.399   1.848
16076SOL    HW149669   3.816   7.324   1.889
16076SOL    HW249670   3.913   7.436   1.918
16077SOL     OW49671   5.003   6.522   0.681
16077SOL    HW149672   5.075   6.460   0.694
16077SOL    HW249673   5.038   6.588   0.621
16078SOL     OW49674   4.519   6.862   1.406
16078SOL    HW149675   4.493   6.908   1.487
16078SOL    HW249676   4.441   6.866   1.351
16079SOL     OW49677   4.382   7.197   0.195
16079SOL    HW149678   4.442   7.196   0.120
16079SOL    HW249679   4.333   7.115   0.188
16080SOL     OW49680   5.298   7.317   1.347
16080SOL    HW149681   5.389   7.331   1.320
16080SOL    HW249682   5.299   7.333   1.441
16081SOL     OW49683   5.567   5.753   0.969
16081SOL    HW149684   5.592   5.667   0.937
16081SOL    HW249685   5.482   5.771   0.927
16082SOL     OW49686   3.978   5.899   0.711
16082SOL    HW149687   3.891   5.932   0.693
16082SOL    HW249688   3.983   5.893   0.807
16083SOL     OW49689   4.919   7.197   0.064
16083SOL    HW149690   4.917   7.104   0.085
16083SOL    HW249691   4.901   7.201  -0.030
16084SOL     OW49692   4.548   6.589   1.384
16084SOL    HW149693   4.592   6.572   1.301
16084SOL    HW249694   4.544   6.684   1.390
16085SOL     OW49695   4.657   6.517   0.298
16085SOL    HW149696   4.714   6.535   0.223
16085SOL    HW249697   4.696   6.440   0.340
16086SOL     OW49698   5.187   7.171   0.018
16086SOL    HW149699   5.097   7.196   0.036
16086SOL    HW249700   5.234   7.254   0.010
16087SOL     OW49701   4.076   6.898   1.493
16087SOL    HW149702   4.061   6.971   1.433
16087SOL    HW249703   4.001   6.840   1.479
16088SOL     OW49704   5.337   6.876   1.282
16088SOL    HW149705   5.385   6.849   1.360
16088SOL    HW249706   5.271   6.938   1.313
16089SOL     OW49707   4.789   6.700   0.716
16089SOL    HW149708   4.716   6.648   0.749
16089SOL    HW249709   4.856   6.635   0.694
16090SOL     OW49710   4.748   5.836   0.961
16090SOL    HW149711   4.745   5.791   0.877
16090SOL    HW249712   4.737   5.767   1.026
16091SOL     OW49713   4.334   7.066   0.477
16091SOL    HW149714   4.382   7.016   0.412
16091SOL    HW249715   4.253   7.091   0.433
16092SOL     OW49716   5.458   5.972   1.383
16092SOL    HW149717   5.529   6.036   1.380
16092SOL    HW249718   5.486   5.902   1.325
16093SOL     OW49719   3.991   6.912   0.315
16093SOL    HW149720   3.909   6.924   0.266
16093SOL    HW249721   3.978   6.963   0.395
16094SOL     OW49722   3.837   6.619   1.722
16094SOL    HW149723   3.762   6.595   1.776
16094SOL    HW249724   3.912   6.577   1.764
16095SOL     OW49725   4.382   5.817   1.493
16095SOL    HW149726   4.376   5.799   1.399
16095SOL    HW249727   4.465   5.777   1.520
16096SOL     OW49728   5.146   6.443   1.394
16096SOL    HW149729   5.094   6.502   1.339
16096SOL    HW249730   5.233   6.444   1.355
16097SOL     OW49731   3.794   5.742   0.308
16097SOL    HW149732   3.806   5.836   0.319
16097SOL    HW249733   3.877   5.711   0.271
16098SOL     OW49734   4.916   6.931   0.117
16098SOL    HW149735   4.822   6.913   0.107
16098SOL    HW249736   4.934   6.912   0.209
16099SOL     OW49737   4.345   6.413   1.439
16099SOL    HW149738   4.404   6.488   1.427
16099SOL    HW249739   4.404   6.338   1.445
16100SOL     OW49740   5.207   7.393   1.014
16100SOL    HW149741   5.247   7.410   0.929
16100SOL    HW249742   5.269   7.336   1.059
16101SOL     OW49743   4.451   6.137   1.705
16101SOL    HW149744   4.491   6.202   1.762
16101SOL    HW249745   4.461   6.054   1.752
16102SOL     OW49746   5.194   6.776   1.627
16102SOL    HW149747   5.184   6.796   1.720
16102SOL    HW249748   5.285   6.795   1.608
16103SOL     OW49749   4.090   7.337   1.568
16103SOL    HW149750   4.007   7.383   1.558
16103SOL    HW249751   4.066   7.255   1.612
16104SOL     OW49752   5.386   6.463   1.258
16104SOL    HW149753   5.381   6.376   1.218
16104SOL    HW249754   5.377   6.523   1.184
16105SOL     OW49755   4.949   5.894   0.442
16105SOL    HW149756   5.011   5.821   0.447
16105SOL    HW249757   4.964   5.945   0.522
16106SOL     OW49758   4.306   6.322   0.676
16106SOL    HW149759   4.349   6.406   0.659
16106SOL    HW249760   4.243   6.312   0.605
16107SOL     OW49761   5.471   5.948   1.658
16107SOL    HW149762   5.462   5.963   1.563
16107SOL    HW249763   5.398   5.890   1.680
16108SOL     OW49764   5.485   6.516   1.507
16108SOL    HW149765   5.458   6.607   1.522
16108SOL    HW249766   5.460   6.498   1.417
16109SOL     OW49767   4.643   6.945   0.064
16109SOL    HW149768   4.581   6.924   0.134
16109SOL    HW249769   4.621   7.035   0.040
16110SOL     OW49770   4.390   7.374   0.939
16110SOL    HW149771   4.377   7.465   0.913
16110SOL    HW249772   4.484   7.359   0.928
16111SOL     OW49773   4.593   6.560   0.853
16111SOL    HW149774   4.642   6.485   0.886
16111SOL    HW249775   4.551   6.598   0.930
16112SOL     OW49776   4.808   6.567   0.065
16112SOL    HW149777   4.853   6.635   0.015
16112SOL    HW249778   4.876   6.501   0.080
16113SOL     OW49779   5.572   7.137   0.836
16113SOL    HW149780   5.487   7.124   0.794
16113SOL    HW249781   5.582   7.061   0.894
16114SOL     OW49782   3.958   6.892   1.839
16114SOL    HW149783   3.903   6.816   1.823
16114SOL    HW249784   3.969   6.895   1.934
16115SOL     OW49785   3.817   6.817   0.670
16115SOL    HW149786   3.836   6.772   0.753
16115SOL    HW249787   3.878   6.779   0.607
16116SOL     OW49788   4.410   7.002   1.614
16116SOL    HW149789   4.345   6.942   1.651
16116SOL    HW249790   4.394   7.086   1.658
16117SOL     OW49791   5.542   5.761   1.240
16117SOL    HW149792   5.535   5.666   1.250
16117SOL    HW249793   5.550   5.775   1.145
16118SOL     OW49794   4.143   6.021   0.522
16118SOL    HW149795   4.185   5.952   0.471
16118SOL    HW249796   4.100   5.975   0.594
16119SOL     OW49797   5.406   7.081   1.094
16119SOL    HW149798   5.332   7.056   1.037
16119SOL    HW249799   5.409   7.012   1.160
16120SOL     OW49800   4.068   6.145   1.292
16120SOL    HW149801   4.118   6.091   1.353
16120SOL    HW249802   4.086   6.107   1.206
16121SOL     OW49803   4.554   7.161   0.678
16121SOL    HW149804   4.521   7.223   0.612
16121SOL    HW249805   4.483   7.097   0.688
16122SOL     OW49806   5.146   5.818   1.118
16122SOL    HW149807   5.150   5.731   1.156
16122SOL    HW249808   5.095   5.870   1.180
16123SOL     OW49809   4.735   5.616   1.128
16123SOL    HW149810   4.679   5.547   1.092
16123SOL    HW249811   4.823   5.578   1.128
16124SOL     OW49812   4.509   6.912   0.315
16124SOL    HW149813   4.476   6.823   0.328
16124SOL    HW249814   4.588   6.916   0.370
16125SOL     OW49815   4.344   7.150   1.276
16125SOL    HW149816   4.344   7.232   1.325
16125SOL    HW249817   4.435   7.138   1.249
16126SOL     OW49818   5.094   5.628   0.184
16126SOL    HW149819   5.114   5.574   0.108
16126SOL    HW249820   4.999   5.641   0.180
16127SOL     OW49821   4.986   6.044   0.664
16127SOL    HW149822   4.943   6.129   0.676
16127SOL    HW249823   5.001   6.013   0.754
16128SOL     OW49824   5.305   5.782   0.892
16128SOL    HW149825   5.251   5.809   0.967
16128SOL    HW249826   5.303   5.858   0.834
16129SOL     OW49827   3.764   6.659   0.338
16129SOL    HW149828   3.856   6.659   0.312
16129SOL    HW249829   3.750   6.573   0.376
16130SOL     OW49830   4.607   7.250   0.352
16130SOL    HW149831   4.525   7.222   0.312
16130SOL    HW249832   4.583   7.319   0.413
16131SOL     OW49833   3.941   6.205   1.996
16131SOL    HW149834   3.853   6.197   2.034
16131SOL    HW249835   3.929   6.184   1.903
16132SOL     OW49836   3.942   5.879   2.857
16132SOL    HW149837   3.975   5.840   2.938
16132SOL    HW249838   3.857   5.838   2.844
16133SOL     OW49839   3.717   5.980   2.501
16133SOL    HW149840   3.637   6.005   2.548
16133SOL    HW249841   3.694   5.901   2.454
16134SOL     OW49842   4.297   6.888   3.057
16134SOL    HW149843   4.214   6.891   3.011
16134SOL    HW249844   4.312   6.977   3.088
16135SOL     OW49845   5.302   7.108   2.576
16135SOL    HW149846   5.258   7.079   2.656
16135SOL    HW249847   5.233   7.107   2.509
16136SOL     OW49848   4.860   6.283   2.550
16136SOL    HW149849   4.903   6.368   2.539
16136SOL    HW249850   4.809   6.291   2.631
16137SOL     OW49851   5.520   6.182   2.084
16137SOL    HW149852   5.490   6.180   1.993
16137SOL    HW249853   5.471   6.113   2.127
16138SOL     OW49854   4.467   6.723   2.916
16138SOL    HW149855   4.401   6.761   2.975
16138SOL    HW249856   4.506   6.798   2.872
16139SOL     OW49857   4.605   6.348   3.696
16139SOL    HW149858   4.565   6.420   3.744
16139SOL    HW249859   4.626   6.384   3.610
16140SOL     OW49860   4.409   6.575   2.507
16140SOL    HW149861   4.475   6.573   2.577
16140SOL    HW249862   4.341   6.633   2.542
16141SOL     OW49863   4.437   6.736   3.691
16141SOL    HW149864   4.487   6.812   3.722
16141SOL    HW249865   4.362   6.774   3.646
16142SOL     OW49866   4.066   6.986   2.930
16142SOL    HW149867   3.988   6.946   2.891
16142SOL    HW249868   4.101   7.043   2.862
16143SOL     OW49869   5.181   7.089   3.228
16143SOL    HW149870   5.234   7.168   3.239
16143SOL    HW249871   5.109   7.100   3.290
16144SOL     OW49872   4.169   5.977   3.340
16144SOL    HW149873   4.247   5.921   3.346
16144SOL    HW249874   4.097   5.921   3.368
16145SOL     OW49875   5.332   6.049   2.611
16145SOL    HW149876   5.270   6.058   2.538
16145SOL    HW249877   5.295   6.103   2.680
16146SOL     OW49878   3.933   7.311   2.335
16146SOL    HW149879   3.956   7.383   2.393
16146SOL    HW249880   4.012   7.293   2.285
16147SOL     OW49881   4.861   6.926   3.556
16147SOL    HW149882   4.901   6.921   3.643
16147SOL    HW249883   4.809   6.845   3.549
16148SOL     OW49884   3.949   7.030   2.395
16148SOL    HW149885   3.926   7.121   2.411
16148SOL    HW249886   3.900   6.981   2.462
16149SOL     OW49887   4.002   6.675   2.757
16149SOL    HW149888   3.990   6.585   2.786
16149SOL    HW249889   3.937   6.725   2.806
16150SOL     OW49890   4.330   7.371   3.297
16150SOL    HW149891   4.245   7.355   3.338
16150SOL    HW249892   4.351   7.462   3.319
16151SOL     OW49893   4.296   6.575   2.006
16151SOL    HW149894   4.345   6.621   1.937
16151SOL    HW249895   4.334   6.608   2.088
16152SOL     OW49896   5.332   5.723   3.338
16152SOL    HW149897   5.295   5.780   3.270
16152SOL    HW249898   5.267   5.726   3.408
16153SOL     OW49899   3.844   6.242   2.421
16153SOL    HW149900   3.811   6.155   2.444
16153SOL    HW249901   3.835   6.293   2.502
16154SOL     OW49902   5.560   7.335   2.190
16154SOL    HW149903   5.632   7.313   2.248
16154SOL    HW249904   5.575   7.427   2.166
16155SOL     OW49905   3.769   7.176   1.973
16155SOL    HW149906   3.755   7.083   1.988
16155SOL    HW249907   3.741   7.218   2.054
16156SOL     OW49908   5.420   6.511   2.505
16156SOL    HW149909   5.488   6.457   2.464
16156SOL    HW249910   5.388   6.568   2.434
16157SOL     OW49911   5.376   6.690   2.290
16157SOL    HW149912   5.462   6.687   2.248
16157SOL    HW249913   5.384   6.758   2.357
16158SOL     OW49914   4.347   6.977   2.598
16158SOL    HW149915   4.301   6.893   2.605
16158SOL    HW249916   4.329   7.006   2.508
16159SOL     OW49917   5.003   6.819   3.279
16159SOL    HW149918   5.034   6.751   3.218
16159SOL    HW249919   5.064   6.813   3.353
16160SOL     OW49920   4.532   5.678   2.327
16160SOL    HW149921   4.561   5.596   2.368
16160SOL    HW249922   4.437   5.678   2.336
16161SOL     OW49923   3.911   6.540   3.152
16161SOL    HW149924   3.996   6.501   3.134
16161SOL    HW249925   3.859   6.523   3.074
16162SOL     OW49926   5.258   6.590   2.060
16162SOL    HW149927   5.189   6.531   2.091
16162SOL    HW249928   5.298   6.623   2.141
16163SOL     OW49929   4.915   7.403   3.496
16163SOL    HW149930   4.914   7.466   3.424
16163SOL    HW249931   4.930   7.318   3.454
16164SOL     OW49932   4.056   5.908   3.661
16164SOL    HW149933   4.112   5.939   3.731
16164SOL    HW249934   3.973   5.888   3.703
16165SOL     OW49935   5.198   6.999   2.806
16165SOL    HW149936   5.131   7.018   2.871
16165SOL    HW249937   5.180   6.910   2.778
16166SOL     OW49938   5.358   7.361   2.439
16166SOL    HW149939   5.356   7.313   2.355
16166SOL    HW249940   5.349   7.292   2.505
16167SOL     OW49941   4.312   6.312   2.133
16167SOL    HW149942   4.309   6.398   2.090
16167SOL    HW249943   4.247   6.318   2.203
16168SOL     OW49944   5.005   5.965   2.800
16168SOL    HW149945   4.915   5.931   2.803
16168SOL    HW249946   5.055   5.904   2.855
16169SOL     OW49947   5.284   7.282   2.173
16169SOL    HW149948   5.379   7.292   2.163
16169SOL    HW249949   5.254   7.255   2.086
16170SOL     OW49950   4.524   6.198   3.304
16170SOL    HW149951   4.500   6.169   3.392
16170SOL    HW249952   4.489   6.131   3.247
16171SOL     OW49953   4.674   6.468   3.454
16171SOL    HW149954   4.725   6.397   3.415
16171SOL    HW249955   4.625   6.506   3.381
16172SOL     OW49956   4.726   5.998   3.088
16172SOL    HW149957   4.635   6.005   3.118
16172SOL    HW249958   4.722   5.938   3.013
16173SOL     OW49959   4.776   6.277   2.278
16173SOL    HW149960   4.791   6.270   2.372
16173SOL    HW249961   4.692   6.235   2.263
16174SOL     OW49962   3.813   6.410   2.633
16174SOL    HW149963   3.890   6.399   2.690
16174SOL    HW249964   3.765   6.483   2.672
16175SOL     OW49965   3.853   7.459   3.444
16175SOL    HW149966   3.849   7.432   3.536
16175SOL    HW249967   3.775   7.420   3.405
16176SOL     OW49968   5.432   6.147   3.691
16176SOL    HW149969   5.399   6.223   3.644
16176SOL    HW249970   5.438   6.079   3.623
16177SOL     OW49971   5.111   6.731   2.407
16177SOL    HW149972   5.187   6.720   2.350
16177SOL    HW249973   5.053   6.790   2.358
16178SOL     OW49974   4.267   5.780   2.754
16178SOL    HW149975   4.277   5.797   2.848
16178SOL    HW249976   4.265   5.867   2.714
16179SOL     OW49977   4.725   7.036   2.331
16179SOL    HW149978   4.699   7.110   2.276
16179SOL    HW249979   4.690   7.058   2.418
16180SOL     OW49980   4.092   7.394   2.716
16180SOL    HW149981   4.125   7.306   2.735
16180SOL    HW249982   4.157   7.453   2.755
16181SOL     OW49983   5.529   6.636   2.732
16181SOL    HW149984   5.479   6.611   2.654
16181SOL    HW249985   5.464   6.643   2.801
16182SOL     OW49986   4.948   7.128   3.375
16182SOL    HW149987   4.935   7.054   3.435
16182SOL    HW249988   4.870   7.129   3.321
16183SOL     OW49989   4.032   6.553   2.119
16183SOL    HW149990   4.114   6.574   2.074
16183SOL    HW249991   4.006   6.468   2.085
16184SOL     OW49992   5.205   6.349   2.581
16184SOL    HW149993   5.205   6.301   2.663
16184SOL    HW249994   5.287   6.399   2.582
16185SOL     OW49995   4.193   6.856   3.599
16185SOL    HW149996   4.168   6.862   3.507
16185SOL    HW249997   4.111   6.853   3.647
16186SOL     OW49998   4.874   7.363   2.095
16186SOL    HW149999   4.793   7.337   2.139
16186SOL    HW250000   4.886   7.298   2.026
16187SOL     OW50001   3.919   5.829   3.355
16187SOL    HW150002   3.831   5.865   3.345
16187SOL    HW250003   3.905   5.740   3.389
16188SOL     OW50004   5.358   6.976   1.964
16188SOL    HW150005   5.316   7.060   1.942
16188SOL    HW250006   5.292   6.910   1.941
16189SOL     OW50007   4.175   7.313   2.196
16189SOL    HW150008   4.225   7.366   2.257
16189SOL    HW250009   4.237   7.289   2.128
16190SOL     OW50010   5.126   5.686   2.305
16190SOL    HW150011   5.114   5.660   2.213
16190SOL    HW250012   5.214   5.656   2.327
16191SOL     OW50013   3.975   7.385   3.083
16191SOL    HW150014   4.013   7.299   3.104
16191SOL    HW250015   3.888   7.365   3.049
16192SOL     OW50016   4.663   7.284   2.757
16192SOL    HW150017   4.733   7.230   2.791
16192SOL    HW250018   4.625   7.233   2.685
16193SOL     OW50019   4.121   6.279   2.336
16193SOL    HW150020   4.137   6.186   2.351
16193SOL    HW250021   4.027   6.290   2.353
16194SOL     OW50022   5.192   5.753   3.587
16194SOL    HW150023   5.242   5.734   3.666
16194SOL    HW250024   5.143   5.673   3.569
16195SOL     OW50025   4.371   5.694   1.977
16195SOL    HW150026   4.404   5.616   2.021
16195SOL    HW250027   4.317   5.659   1.905
16196SOL     OW50028   4.509   5.867   3.638
16196SOL    HW150029   4.589   5.816   3.623
16196SOL    HW250030   4.455   5.810   3.692
16197SOL     OW50031   4.601   7.114   3.053
16197SOL    HW150032   4.578   7.072   2.970
16197SOL    HW250033   4.666   7.056   3.093
16198SOL     OW50034   5.075   6.177   3.285
16198SOL    HW150035   5.158   6.153   3.325
16198SOL    HW250036   5.081   6.272   3.270
16199SOL     OW50037   4.545   6.972   2.812
16199SOL    HW150038   4.629   6.961   2.769
16199SOL    HW250039   4.482   6.979   2.740
16200SOL     OW50040   4.663   6.100   2.762
16200SOL    HW150041   4.639   6.090   2.670
16200SOL    HW250042   4.682   6.012   2.792
16201SOL     OW50043   4.261   5.655   2.346
16201SOL    HW150044   4.189   5.651   2.409
16201SOL    HW250045   4.243   5.735   2.295
16202SOL     OW50046   5.156   6.795   1.902
16202SOL    HW150047   5.183   6.718   1.952
16202SOL    HW250048   5.068   6.814   1.935
16203SOL     OW50049   4.000   5.635   2.042
16203SOL    HW150050   4.055   5.698   1.994
16203SOL    HW250051   4.063   5.577   2.084
16204SOL     OW50052   4.690   5.871   2.223
16204SOL    HW150053   4.637   5.803   2.265
16204SOL    HW250054   4.771   5.873   2.273
16205SOL     OW50055   4.794   6.257   3.326
16205SOL    HW150056   4.710   6.212   3.315
16205SOL    HW250057   4.858   6.198   3.285
16206SOL     OW50058   4.949   7.151   2.662
16206SOL    HW150059   4.955   7.218   2.594
16206SOL    HW250060   5.009   7.180   2.730
16207SOL     OW50061   4.202   6.741   2.585
16207SOL    HW150062   4.138   6.721   2.653
16207SOL    HW250063   4.153   6.732   2.503
16208SOL     OW50064   4.972   7.363   2.484
16208SOL    HW150065   5.017   7.429   2.431
16208SOL    HW250066   4.897   7.409   2.521
16209SOL     OW50067   4.749   6.103   1.898
16209SOL    HW150068   4.699   6.182   1.876
16209SOL    HW250069   4.811   6.131   1.965
16210SOL     OW50070   3.800   6.156   3.234
16210SOL    HW150071   3.895   6.147   3.228
16210SOL    HW250072   3.786   6.245   3.266
16211SOL     OW50073   4.290   5.811   3.030
16211SOL    HW150074   4.328   5.727   3.056
16211SOL    HW250075   4.199   5.807   3.061
16212SOL     OW50076   4.593   6.068   2.502
16212SOL    HW150077   4.514   6.114   2.475
16212SOL    HW250078   4.610   6.005   2.432
16213SOL     OW50079   4.756   5.626   2.616
16213SOL    HW150080   4.697   5.592   2.549
16213SOL    HW250081   4.746   5.567   2.690
16214SOL     OW50082   5.159   6.741   2.715
16214SOL    HW150083   5.086   6.680   2.726
16214SOL    HW250084   5.170   6.749   2.620
16215SOL     OW50085   5.189   6.190   2.815
16215SOL    HW150086   5.125   6.120   2.823
16215SOL    HW250087   5.244   6.182   2.894
16216SOL     OW50088   5.568   6.394   2.251
16216SOL    HW150089   5.626   6.344   2.309
16216SOL    HW250090   5.542   6.332   2.183
16217SOL     OW50091   4.221   6.947   1.998
16217SOL    HW150092   4.146   6.950   2.057
16217SOL    HW250093   4.262   7.034   2.006
16218SOL     OW50094   5.413   6.862   2.489
16218SOL    HW150095   5.506   6.859   2.511
16218SOL    HW250096   5.384   6.947   2.522
16219SOL     OW50097   5.118   6.152   1.937
16219SOL    HW150098   5.052   6.132   2.004
16219SOL    HW250099   5.197   6.107   1.966
16220SOL     OW50100   4.251   5.862   2.170
16220SOL    HW150101   4.296   5.808   2.106
16220SOL    HW250102   4.223   5.940   2.122
16221SOL     OW50103   5.468   6.829   3.409
16221SOL    HW150104   5.555   6.793   3.394
16221SOL    HW250105   5.483   6.917   3.444
16222SOL     OW50106   4.769   6.936   3.189
16222SOL    HW150107   4.693   6.905   3.238
16222SOL    HW250108   4.845   6.897   3.233
16223SOL     OW50109   5.335   7.215   3.525
16223SOL    HW150110   5.325   7.250   3.437
16223SOL    HW250111   5.416   7.164   3.521
16224SOL     OW50112   4.867   6.807   2.961
16224SOL    HW150113   4.804   6.840   3.025
16224SOL    HW250114   4.836   6.841   2.877
16225SOL     OW50115   5.346   6.681   2.935
16225SOL    HW150116   5.339   6.745   3.006
16225SOL    HW250117   5.272   6.699   2.878
16226SOL     OW50118   4.626   5.722   3.237
16226SOL    HW150119   4.650   5.671   3.159
16226SOL    HW250120   4.708   5.735   3.284
16227SOL     OW50121   4.709   6.696   3.596
16227SOL    HW150122   4.618   6.716   3.617
16227SOL    HW250123   4.705   6.618   3.541
16228SOL     OW50124   4.434   6.646   2.236
16228SOL    HW150125   4.419   6.622   2.328
16228SOL    HW250126   4.509   6.593   2.209
16229SOL     OW50127   4.151   6.407   3.113
16229SOL    HW150128   4.216   6.414   3.183
16229SOL    HW250129   4.116   6.318   3.123
16230SOL     OW50130   4.987   5.951   3.153
16230SOL    HW150131   5.020   6.033   3.188
16230SOL    HW250132   4.898   5.971   3.123
16231SOL     OW50133   3.794   7.148   3.230
16231SOL    HW150134   3.747   7.204   3.169
16231SOL    HW250135   3.886   7.159   3.206
16232SOL     OW50136   4.054   6.713   2.353
16232SOL    HW150137   4.056   6.789   2.295
16232SOL    HW250138   4.050   6.638   2.294
16233SOL     OW50139   4.272   6.109   2.718
16233SOL    HW150140   4.287   6.168   2.644
16233SOL    HW250141   4.337   6.136   2.784
16234SOL     OW50142   4.970   6.933   2.259
16234SOL    HW150143   5.026   7.002   2.293
16234SOL    HW250144   4.882   6.956   2.290
16235SOL     OW50145   5.021   7.049   3.008
16235SOL    HW150146   5.071   7.054   3.089
16235SOL    HW250147   4.965   6.972   3.019
16236SOL     OW50148   5.289   6.218   2.347
16236SOL    HW150149   5.243   6.256   2.421
16236SOL    HW250150   5.301   6.290   2.286
16237SOL     OW50151   4.065   7.122   3.161
16237SOL    HW150152   4.057   7.071   3.081
16237SOL    HW250153   4.159   7.136   3.172
16238SOL     OW50154   4.130   6.314   3.463
16238SOL    HW150155   4.197   6.354   3.407
16238SOL    HW250156   4.138   6.220   3.446
16239SOL     OW50157   5.336   6.362   3.552
16239SOL    HW150158   5.251   6.405   3.545
16239SOL    HW250159   5.389   6.403   3.483
16240SOL     OW50160   4.736   5.712   3.610
16240SOL    HW150161   4.788   5.692   3.532
16240SOL    HW250162   4.717   5.627   3.649
16241SOL     OW50163   4.212   5.672   3.611
16241SOL    HW150164   4.172   5.601   3.561
16241SOL    HW250165   4.145   5.741   3.612
16242SOL     OW50166   4.311   6.459   2.893
16242SOL    HW150167   4.339   6.551   2.895
16242SOL    HW250168   4.253   6.450   2.968
16243SOL     OW50169   5.054   6.436   2.877
16243SOL    HW150170   4.966   6.416   2.845
16243SOL    HW250171   5.105   6.356   2.860
16244SOL     OW50172   4.918   6.102   2.121
16244SOL    HW150173   4.939   6.031   2.181
16244SOL    HW250174   4.875   6.169   2.175
16245SOL     OW50175   4.027   5.786   3.103
16245SOL    HW150176   3.991   5.808   3.189
16245SOL    HW250177   4.009   5.692   3.093
16246SOL     OW50178   3.784   6.889   3.145
16246SOL    HW150179   3.805   6.837   3.222
16246SOL    HW250180   3.778   6.979   3.178
16247SOL     OW50181   4.443   6.213   2.908
16247SOL    HW150182   4.521   6.203   2.854
16247SOL    HW250183   4.413   6.302   2.892
16248SOL     OW50184   5.469   6.542   3.724
16248SOL    HW150185   5.423   6.475   3.672
16248SOL    HW250186   5.407   6.565   3.793
16249SOL     OW50187   4.029   5.648   2.493
16249SOL    HW150188   4.006   5.738   2.517
16249SOL    HW250189   4.045   5.605   2.577
16250SOL     OW50190   5.348   5.992   2.204
16250SOL    HW150191   5.381   5.923   2.263
16250SOL    HW250192   5.318   6.061   2.263
16251SOL     OW50193   4.762   6.346   2.822
16251SOL    HW150194   4.744   6.362   2.914
16251SOL    HW250195   4.734   6.256   2.807
16252SOL     OW50196   4.708   7.153   3.588
16252SOL    HW150197   4.689   7.195   3.504
16252SOL    HW250198   4.747   7.069   3.564
16253SOL     OW50199   5.573   7.081   3.466
16253SOL    HW150200   5.594   7.111   3.377
16253SOL    HW250201   5.653   7.096   3.516
16254SOL     OW50202   4.107   6.480   3.686
16254SOL    HW150203   4.177   6.514   3.740
16254SOL    HW250204   4.151   6.444   3.609
16255SOL     OW50205   5.240   5.869   1.983
16255SOL    HW150206   5.185   5.796   2.013
16255SOL    HW250207   5.278   5.904   2.063
16256SOL     OW50208   5.012   6.405   1.889
16256SOL    HW150209   5.054   6.320   1.895
16256SOL    HW250210   5.045   6.442   1.807
16257SOL     OW50211   4.795   6.929   2.721
16257SOL    HW150212   4.801   6.857   2.658
16257SOL    HW250213   4.853   6.997   2.686
16258SOL     OW50214   4.029   6.393   2.807
16258SOL    HW150215   4.123   6.411   2.802
16258SOL    HW250216   4.024   6.303   2.839
16259SOL     OW50217   4.053   6.120   2.875
16259SOL    HW150218   4.014   6.032   2.867
16259SOL    HW250219   4.129   6.118   2.818
16260SOL     OW50220   4.899   6.013   3.543
16260SOL    HW150221   4.829   6.028   3.606
16260SOL    HW250222   4.896   6.089   3.485
16261SOL     OW50223   4.871   5.794   3.353
16261SOL    HW150224   4.873   5.863   3.419
16261SOL    HW250225   4.915   5.833   3.277
16262SOL     OW50226   3.727   6.905   2.055
16262SOL    HW150227   3.640   6.921   2.019
16262SOL    HW250228   3.724   6.816   2.088
16263SOL     OW50229   3.816   7.404   2.715
16263SOL    HW150230   3.779   7.316   2.722
16263SOL    HW250231   3.910   7.391   2.724
16264SOL     OW50232   4.220   7.155   2.769
16264SOL    HW150233   4.287   7.220   2.790
16264SOL    HW250234   4.264   7.094   2.710
16265SOL     OW50235   4.688   6.369   3.083
16265SOL    HW150236   4.743   6.357   3.161
16265SOL    HW250237   4.609   6.319   3.102
16266SOL     OW50238   3.754   6.138   2.962
16266SOL    HW150239   3.832   6.116   2.910
16266SOL    HW250240   3.784   6.132   3.053
16267SOL     OW50241   3.899   6.110   3.533
16267SOL    HW150242   3.961   6.039   3.550
16267SOL    HW250243   3.815   6.066   3.516
16268SOL     OW50244   5.110   6.513   3.515
16268SOL    HW150245   5.130   6.607   3.512
16268SOL    HW250246   5.100   6.488   3.424
16269SOL     OW50247   4.535   6.162   2.204
16269SOL    HW150248   4.488   6.080   2.211
16269SOL    HW250249   4.469   6.226   2.175
16270SOL     OW50250   5.366   6.187   3.030
16270SOL    HW150251   5.361   6.122   3.101
16270SOL    HW250252   5.455   6.179   2.996
16271SOL     OW50253   3.962   7.135   3.583
16271SOL    HW150254   3.940   7.208   3.642
16271SOL    HW250255   3.976   7.061   3.641
16272SOL     OW50256   4.447   6.028   3.111
16272SOL    HW150257   4.392   5.951   3.094
16272SOL    HW250258   4.431   6.086   3.037
16273SOL     OW50259   4.655   7.256   3.331
16273SOL    HW150260   4.620   7.217   3.251
16273SOL    HW250261   4.645   7.350   3.319
16274SOL     OW50262   4.185   6.085   2.032
16274SOL    HW150263   4.241   6.158   2.058
16274SOL    HW250264   4.097   6.123   2.027
16275SOL     OW50265   3.858   6.714   3.353
16275SOL    HW150266   3.858   6.659   3.431
16275SOL    HW250267   3.876   6.654   3.281
16276SOL     OW50268   5.041   6.628   3.071
16276SOL    HW150269   5.054   6.562   3.003
16276SOL    HW250270   4.979   6.690   3.033
16277SOL     OW50271   5.049   6.439   2.163
16277SOL    HW150272   4.975   6.411   2.217
16277SOL    HW250273   5.019   6.427   2.073
16278SOL     OW50274   5.496   7.320   3.015
16278SOL    HW150275   5.560   7.344   2.948
16278SOL    HW250276   5.473   7.229   2.996
16279SOL     OW50277   4.962   7.315   2.955
16279SOL    HW150278   5.047   7.342   2.920
16279SOL    HW250279   4.975   7.223   2.981
16280SOL     OW50280   3.827   6.844   2.884
16280SOL    HW150281   3.817   6.851   2.979
16280SOL    HW250282   3.744   6.876   2.848
16281SOL     OW50283   4.400   7.261   3.604
16281SOL    HW150284   4.335   7.332   3.602
16281SOL    HW250285   4.464   7.286   3.537
16282SOL     OW50286   5.473   5.797   2.350
16282SOL    HW150287   5.532   5.775   2.277
16282SOL    HW250288   5.478   5.721   2.408
16283SOL     OW50289   5.120   7.149   2.363
16283SOL    HW150290   5.166   7.189   2.289
16283SOL    HW250291   5.058   7.216   2.392
16284SOL     OW50292   3.865   7.367   3.706
16284SOL    HW150293   3.811   7.308   3.759
16284SOL    HW250294   3.913   7.420   3.770
16285SOL     OW50295   4.998   6.518   2.531
16285SOL    HW150296   5.072   6.459   2.545
16285SOL    HW250297   5.035   6.589   2.478
16286SOL     OW50298   4.516   6.864   3.282
16286SOL    HW150299   4.490   6.909   3.363
16286SOL    HW250300   4.444   6.880   3.222
16287SOL     OW50301   5.340   7.316   3.256
16287SOL    HW150302   5.393   7.320   3.176
16287SOL    HW250303   5.325   7.407   3.279
16288SOL     OW50304   5.579   5.752   2.819
16288SOL    HW150305   5.598   5.661   2.793
16288SOL    HW250306   5.489   5.767   2.789
16289SOL     OW50307   3.977   5.904   2.577
16289SOL    HW150308   3.890   5.938   2.556
16289SOL    HW250309   3.978   5.897   2.672
16290SOL     OW50310   4.920   7.184   1.895
16290SOL    HW150311   4.911   7.094   1.925
16290SOL    HW250312   4.850   7.195   1.830
16291SOL     OW50313   4.544   6.592   3.245
16291SOL    HW150314   4.574   6.584   3.154
16291SOL    HW250315   4.536   6.686   3.259
16292SOL     OW50316   4.644   6.497   2.155
16292SOL    HW150317   4.703   6.531   2.088
16292SOL    HW250318   4.693   6.427   2.197
16293SOL     OW50319   5.203   7.216   1.917
16293SOL    HW150320   5.110   7.200   1.900
16293SOL    HW250321   5.235   7.258   1.836
16294SOL     OW50322   4.086   6.893   3.355
16294SOL    HW150323   4.072   6.967   3.295
16294SOL    HW250324   4.011   6.836   3.340
16295SOL     OW50325   5.332   6.874   3.142
16295SOL    HW150326   5.384   6.852   3.219
16295SOL    HW250327   5.270   6.940   3.172
16296SOL     OW50328   4.791   6.699   2.579
16296SOL    HW150329   4.716   6.652   2.614
16296SOL    HW250330   4.853   6.631   2.554
16297SOL     OW50331   4.754   5.829   2.826
16297SOL    HW150332   4.747   5.784   2.742
16297SOL    HW250333   4.745   5.760   2.892
16298SOL     OW50334   4.335   7.077   2.345
16298SOL    HW150335   4.385   7.027   2.281
16298SOL    HW250336   4.266   7.119   2.294
16299SOL     OW50337   5.452   5.994   3.230
16299SOL    HW150338   5.532   6.047   3.235
16299SOL    HW250339   5.477   5.916   3.182
16300SOL     OW50340   3.984   6.940   2.145
16300SOL    HW150341   3.892   6.932   2.118
16300SOL    HW250342   3.980   6.978   2.233
16301SOL     OW50343   3.840   6.560   3.596
16301SOL    HW150344   3.754   6.568   3.637
16301SOL    HW250345   3.900   6.600   3.659
16302SOL     OW50346   4.390   5.797   3.360
16302SOL    HW150347   4.472   5.776   3.315
16302SOL    HW250348   4.415   5.802   3.452
16303SOL     OW50349   3.807   5.910   1.891
16303SOL    HW150350   3.719   5.893   1.857
16303SOL    HW250351   3.836   5.988   1.844
16304SOL     OW50352   5.139   6.446   3.251
16304SOL    HW150353   5.090   6.508   3.197
16304SOL    HW250354   5.228   6.448   3.216
16305SOL     OW50355   3.775   5.739   2.159
16305SOL    HW150356   3.764   5.819   2.108
16305SOL    HW250357   3.860   5.705   2.133
16306SOL     OW50358   4.893   6.921   1.983
16306SOL    HW150359   4.799   6.904   1.982
16306SOL    HW250360   4.918   6.915   2.076
16307SOL     OW50361   4.343   6.409   3.307
16307SOL    HW150362   4.400   6.484   3.293
16307SOL    HW250363   4.402   6.334   3.309
16308SOL     OW50364   5.211   7.373   2.848
16308SOL    HW150365   5.233   7.448   2.792
16308SOL    HW250366   5.295   7.349   2.888
16309SOL     OW50367   4.467   6.129   3.557
16309SOL    HW150368   4.494   6.182   3.632
16309SOL    HW250369   4.471   6.039   3.588
16310SOL     OW50370   5.197   6.774   3.486
16310SOL    HW150371   5.185   6.795   3.579
16310SOL    HW250372   5.288   6.799   3.468
16311SOL     OW50373   4.094   7.326   3.426
16311SOL    HW150374   4.014   7.374   3.407
16311SOL    HW250375   4.064   7.243   3.463
16312SOL     OW50376   5.382   6.463   3.118
16312SOL    HW150377   5.379   6.378   3.073
16312SOL    HW250378   5.373   6.527   3.047
16313SOL     OW50379   4.959   5.910   2.314
16313SOL    HW150380   5.015   5.832   2.312
16313SOL    HW250381   4.986   5.957   2.393
16314SOL     OW50382   4.325   6.306   2.526
16314SOL    HW150383   4.358   6.396   2.519
16314SOL    HW250384   4.253   6.302   2.463
16315SOL     OW50385   5.449   5.946   3.504
16315SOL    HW150386   5.447   5.970   3.411
16315SOL    HW250387   5.416   5.857   3.506
16316SOL     OW50388   5.476   6.512   3.373
16316SOL    HW150389   5.462   6.606   3.387
16316SOL    HW250390   5.454   6.498   3.281
16317SOL     OW50391   4.596   6.960   1.933
16317SOL    HW150392   4.548   6.962   2.016
16317SOL    HW250393   4.579   7.045   1.893
16318SOL     OW50394   4.391   7.370   2.792
16318SOL    HW150395   4.374   7.463   2.778
16318SOL    HW250396   4.486   7.361   2.787
16319SOL     OW50397   4.595   6.561   2.718
16319SOL    HW150398   4.645   6.488   2.755
16319SOL    HW250399   4.552   6.602   2.794
16320SOL     OW50400   4.805   6.574   1.953
16320SOL    HW150401   4.781   6.626   1.876
16320SOL    HW250402   4.876   6.518   1.923
16321SOL     OW50403   5.557   7.137   2.700
16321SOL    HW150404   5.477   7.128   2.650
16321SOL    HW250405   5.541   7.087   2.780
16322SOL     OW50406   3.956   6.888   3.730
16322SOL    HW150407   3.862   6.874   3.716
16322SOL    HW250408   3.966   6.896   3.824
16323SOL     OW50409   3.821   6.808   2.531
16323SOL    HW150410   3.818   6.759   2.613
16323SOL    HW250411   3.890   6.765   2.480
16324SOL     OW50412   4.414   6.996   3.501
16324SOL    HW150413   4.332   6.957   3.530
16324SOL    HW250414   4.412   7.086   3.534
16325SOL     OW50415   5.556   5.776   3.096
16325SOL    HW150416   5.537   5.685   3.117
16325SOL    HW250417   5.561   5.779   3.001
16326SOL     OW50418   4.160   6.020   2.392
16326SOL    HW150419   4.184   5.950   2.331
16326SOL    HW250420   4.106   5.976   2.458
16327SOL     OW50421   5.426   7.064   2.946
16327SOL    HW150422   5.345   7.046   2.898
16327SOL    HW250423   5.428   6.999   3.016
16328SOL     OW50424   4.066   6.151   3.159
16328SOL    HW150425   4.109   6.086   3.214
16328SOL    HW250426   4.075   6.117   3.070
16329SOL     OW50427   4.562   7.165   2.533
16329SOL    HW150428   4.535   7.237   2.476
16329SOL    HW250429   4.486   7.106   2.535
16330SOL     OW50430   5.137   5.799   2.969
16330SOL    HW150431   5.130   5.704   2.978
16330SOL    HW250432   5.088   5.833   3.043
16331SOL     OW50433   4.736   5.609   2.995
16331SOL    HW150434   4.679   5.543   2.956
16331SOL    HW250435   4.821   5.566   3.003
16332SOL     OW50436   4.499   6.914   2.192
16332SOL    HW150437   4.469   6.824   2.200
16332SOL    HW250438   4.581   6.917   2.242
16333SOL     OW50439   4.346   7.142   3.152
16333SOL    HW150440   4.344   7.223   3.203
16333SOL    HW250441   4.432   7.141   3.112
16334SOL     OW50442   5.087   5.642   2.032
16334SOL    HW150443   5.135   5.561   2.014
16334SOL    HW250444   4.996   5.614   2.041
16335SOL     OW50445   5.028   6.056   2.539
16335SOL    HW150446   4.971   6.133   2.539
16335SOL    HW250447   5.018   6.019   2.627
16336SOL     OW50448   5.325   5.803   2.758
16336SOL    HW150449   5.255   5.805   2.823
16336SOL    HW250450   5.304   5.875   2.699
16337SOL     OW50451   3.763   6.647   2.167
16337SOL    HW150452   3.857   6.640   2.150
16337SOL    HW250453   3.736   6.558   2.188
16338SOL     OW50454   4.634   7.261   2.197
16338SOL    HW150455   4.565   7.252   2.131
16338SOL    HW250456   4.598   7.321   2.262
16339SOL     OW50457   3.902   6.221   3.814
16339SOL    HW150458   3.828   6.228   3.875
16339SOL    HW250459   3.901   6.130   3.785
16340SOL     OW50460   3.971   5.831   4.686
16340SOL    HW150461   4.000   5.834   4.777
16340SOL    HW250462   3.878   5.808   4.692
16341SOL     OW50463   3.714   5.987   4.354
16341SOL    HW150464   3.636   6.011   4.405
16341SOL    HW250465   3.690   5.904   4.313
16342SOL     OW50466   4.304   6.886   4.921
16342SOL    HW150467   4.214   6.877   4.891
16342SOL    HW250468   4.312   6.977   4.948
16343SOL     OW50469   4.789   6.310   4.397
16343SOL    HW150470   4.856   6.378   4.384
16343SOL    HW250471   4.787   6.298   4.492
16344SOL     OW50472   5.528   6.174   3.943
16344SOL    HW150473   5.491   6.170   3.855
16344SOL    HW250474   5.479   6.107   3.992
16345SOL     OW50475   4.476   6.735   4.771
16345SOL    HW150476   4.413   6.767   4.834
16345SOL    HW250477   4.511   6.814   4.729
16346SOL     OW50478   4.614   6.341   5.566
16346SOL    HW150479   4.583   6.407   5.628
16346SOL    HW250480   4.625   6.390   5.484
16347SOL     OW50481   4.414   6.596   4.373
16347SOL    HW150482   4.475   6.586   4.447
16347SOL    HW250483   4.342   6.649   4.408
16348SOL     OW50484   4.438   6.732   5.542
16348SOL    HW150485   4.481   6.811   5.576
16348SOL    HW250486   4.356   6.764   5.504
16349SOL     OW50487   4.055   7.003   4.792
16349SOL    HW150488   3.978   6.964   4.750
16349SOL    HW250489   4.098   7.052   4.722
16350SOL     OW50490   5.180   7.092   5.082
16350SOL    HW150491   5.232   7.171   5.098
16350SOL    HW250492   5.109   7.097   5.146
16351SOL     OW50493   4.178   5.975   5.205
16351SOL    HW150494   4.253   5.916   5.213
16351SOL    HW250495   4.103   5.920   5.227
16352SOL     OW50496   5.313   6.046   4.466
16352SOL    HW150497   5.230   6.044   4.418
16352SOL    HW250498   5.292   6.090   4.548
16353SOL     OW50499   3.955   7.306   4.203
16353SOL    HW150500   3.979   7.382   4.256
16353SOL    HW250501   4.027   7.296   4.141
16354SOL     OW50502   4.857   6.928   5.417
16354SOL    HW150503   4.891   6.923   5.506
16354SOL    HW250504   4.804   6.849   5.406
16355SOL     OW50505   3.954   7.024   4.252
16355SOL    HW150506   3.944   7.116   4.275
16355SOL    HW250507   3.907   6.976   4.321
16356SOL     OW50508   3.995   6.692   4.611
16356SOL    HW150509   3.999   6.600   4.635
16356SOL    HW250510   3.939   6.732   4.678
16357SOL     OW50511   4.324   7.370   5.161
16357SOL    HW150512   4.241   7.353   5.207
16357SOL    HW250513   4.347   7.460   5.185
16358SOL     OW50514   4.301   6.575   3.874
16358SOL    HW150515   4.348   6.624   3.807
16358SOL    HW250516   4.341   6.603   3.957
16359SOL     OW50517   5.328   5.719   5.186
16359SOL    HW150518   5.247   5.760   5.154
16359SOL    HW250519   5.314   5.709   5.280
16360SOL     OW50520   3.846   6.240   4.284
16360SOL    HW150521   3.812   6.153   4.302
16360SOL    HW250522   3.838   6.287   4.367
16361SOL     OW50523   5.567   7.334   4.078
16361SOL    HW150524   5.648   7.313   4.123
16361SOL    HW250525   5.581   7.423   4.045
16362SOL     OW50526   3.755   7.182   3.871
16362SOL    HW150527   3.735   7.089   3.878
16362SOL    HW250528   3.739   7.217   3.959
16363SOL     OW50529   5.414   6.515   4.365
16363SOL    HW150530   5.487   6.466   4.325
16363SOL    HW250531   5.386   6.575   4.296
16364SOL     OW50532   5.372   6.713   4.163
16364SOL    HW150533   5.458   6.702   4.122
16364SOL    HW250534   5.383   6.788   4.222
16365SOL     OW50535   3.852   6.325   5.301
16365SOL    HW150536   3.945   6.347   5.310
16365SOL    HW250537   3.806   6.408   5.312
16366SOL     OW50538   4.348   6.982   4.457
16366SOL    HW150539   4.302   6.899   4.467
16366SOL    HW250540   4.330   7.009   4.367
16367SOL     OW50541   5.011   6.823   5.134
16367SOL    HW150542   5.046   6.751   5.081
16367SOL    HW250543   5.058   6.816   5.217
16368SOL     OW50544   4.554   5.603   4.247
16368SOL    HW150545   4.582   5.691   4.220
16368SOL    HW250546   4.459   5.609   4.252
16369SOL     OW50547   3.910   6.540   4.996
16369SOL    HW150548   3.998   6.503   4.987
16369SOL    HW250549   3.852   6.470   4.966
16370SOL     OW50550   5.263   6.593   3.927
16370SOL    HW150551   5.195   6.533   3.959
16370SOL    HW250552   5.299   6.632   4.007
16371SOL     OW50553   4.935   7.408   5.364
16371SOL    HW150554   4.925   7.470   5.292
16371SOL    HW250555   4.939   7.322   5.322
16372SOL     OW50556   4.068   5.863   5.543
16372SOL    HW150557   4.115   5.923   5.600
16372SOL    HW250558   4.010   5.814   5.601
16373SOL     OW50559   5.204   7.016   4.635
16373SOL    HW150560   5.141   7.029   4.706
16373SOL    HW250561   5.190   6.926   4.607
16374SOL     OW50562   5.365   7.258   4.323
16374SOL    HW150563   5.337   7.261   4.232
16374SOL    HW250564   5.461   7.252   4.319
16375SOL     OW50565   4.313   6.300   3.989
16375SOL    HW150566   4.308   6.389   3.954
16375SOL    HW250567   4.251   6.300   4.062
16376SOL     OW50568   5.010   5.946   4.651
16376SOL    HW150569   4.921   5.911   4.657
16376SOL    HW250570   5.060   5.894   4.714
16377SOL     OW50571   5.298   7.251   4.046
16377SOL    HW150572   5.388   7.282   4.039
16377SOL    HW250573   5.269   7.240   3.956
16378SOL     OW50574   4.519   6.194   5.173
16378SOL    HW150575   4.496   6.164   5.260
16378SOL    HW250576   4.485   6.128   5.114
16379SOL     OW50577   5.137   6.059   5.405
16379SOL    HW150578   5.132   6.094   5.494
16379SOL    HW250579   5.169   5.969   5.417
16380SOL     OW50580   4.677   6.467   5.316
16380SOL    HW150581   4.727   6.395   5.278
16380SOL    HW250582   4.620   6.498   5.246
16381SOL     OW50583   4.720   5.998   4.939
16381SOL    HW150584   4.633   6.030   4.962
16381SOL    HW250585   4.706   5.904   4.921
16382SOL     OW50586   3.816   6.428   4.490
16382SOL    HW150587   3.898   6.411   4.537
16382SOL    HW250588   3.770   6.492   4.545
16383SOL     OW50589   3.842   7.456   5.309
16383SOL    HW150590   3.847   7.440   5.403
16383SOL    HW250591   3.756   7.423   5.283
16384SOL     OW50592   4.604   5.947   3.928
16384SOL    HW150593   4.645   5.979   3.848
16384SOL    HW250594   4.552   5.872   3.900
16385SOL     OW50595   5.491   6.151   5.521
16385SOL    HW150596   5.437   6.225   5.492
16385SOL    HW250597   5.464   6.079   5.464
16386SOL     OW50598   5.106   6.730   4.270
16386SOL    HW150599   5.188   6.727   4.219
16386SOL    HW250600   5.051   6.792   4.222
16387SOL     OW50601   4.300   5.791   4.637
16387SOL    HW150602   4.308   5.800   4.731
16387SOL    HW250603   4.220   5.839   4.615
16388SOL     OW50604   4.718   7.033   4.189
16388SOL    HW150605   4.693   7.107   4.133
16388SOL    HW250606   4.684   7.057   4.276
16389SOL     OW50607   4.068   7.401   4.602
16389SOL    HW150608   4.116   7.318   4.605
16389SOL    HW250609   4.133   7.467   4.627
16390SOL     OW50610   5.514   6.630   4.598
16390SOL    HW150611   5.463   6.596   4.524
16390SOL    HW250612   5.449   6.643   4.668
16391SOL     OW50613   4.952   7.128   5.239
16391SOL    HW150614   4.936   7.056   5.300
16391SOL    HW250615   4.871   7.133   5.187
16392SOL     OW50616   4.029   6.552   3.981
16392SOL    HW150617   4.113   6.565   3.937
16392SOL    HW250618   4.006   6.461   3.963
16393SOL     OW50619   5.198   6.339   4.438
16393SOL    HW150620   5.192   6.290   4.520
16393SOL    HW250621   5.279   6.390   4.447
16394SOL     OW50622   4.202   6.859   5.460
16394SOL    HW150623   4.174   6.863   5.368
16394SOL    HW250624   4.121   6.847   5.509
16395SOL     OW50625   4.857   7.357   3.955
16395SOL    HW150626   4.775   7.326   3.992
16395SOL    HW250627   4.878   7.295   3.886
16396SOL     OW50628   3.926   5.847   5.221
16396SOL    HW150629   3.840   5.888   5.224
16396SOL    HW250630   3.912   5.758   5.253
16397SOL     OW50631   5.353   6.970   3.817
16397SOL    HW150632   5.313   7.056   3.804
16397SOL    HW250633   5.284   6.907   3.793
16398SOL     OW50634   4.189   7.318   4.044
16398SOL    HW150635   4.231   7.377   4.105
16398SOL    HW250636   4.260   7.288   3.987
16399SOL     OW50637   5.126   5.702   4.151
16399SOL    HW150638   5.114   5.654   4.069
16399SOL    HW250639   5.202   5.659   4.192
16400SOL     OW50640   3.978   7.370   4.950
16400SOL    HW150641   4.024   7.299   4.996
16400SOL    HW250642   3.981   7.344   4.858
16401SOL     OW50643   4.649   7.280   4.621
16401SOL    HW150644   4.657   7.214   4.689
16401SOL    HW250645   4.622   7.231   4.543
16402SOL     OW50646   4.120   6.272   4.188
16402SOL    HW150647   4.139   6.180   4.208
16402SOL    HW250648   4.030   6.285   4.218
16403SOL     OW50649   5.242   5.796   5.455
16403SOL    HW150650   5.248   5.817   5.548
16403SOL    HW250651   5.178   5.724   5.451
16404SOL     OW50652   4.381   5.695   3.820
16404SOL    HW150653   4.409   5.608   3.848
16404SOL    HW250654   4.319   5.678   3.749
16405SOL     OW50655   4.496   5.861   5.486
16405SOL    HW150656   4.578   5.813   5.476
16405SOL    HW250657   4.447   5.811   5.551
16406SOL     OW50658   4.606   7.118   4.905
16406SOL    HW150659   4.577   7.064   4.831
16406SOL    HW250660   4.667   7.061   4.953
16407SOL     OW50661   5.086   6.168   5.153
16407SOL    HW150662   5.105   6.134   5.241
16407SOL    HW250663   5.094   6.263   5.162
16408SOL     OW50664   4.547   6.986   4.666
16408SOL    HW150665   4.629   6.967   4.621
16408SOL    HW250666   4.481   6.986   4.597
16409SOL     OW50667   4.688   6.092   4.606
16409SOL    HW150668   4.594   6.084   4.589
16409SOL    HW250669   4.711   6.008   4.646
16410SOL     OW50670   4.287   5.650   4.218
16410SOL    HW150671   4.211   5.644   4.276
16410SOL    HW250672   4.263   5.718   4.155
16411SOL     OW50673   5.150   6.791   3.760
16411SOL    HW150674   5.178   6.717   3.814
16411SOL    HW250675   5.064   6.815   3.795
16412SOL     OW50676   4.033   5.652   3.922
16412SOL    HW150677   4.103   5.710   3.952
16412SOL    HW250678   4.058   5.566   3.954
16413SOL     OW50679   4.668   5.846   4.178
16413SOL    HW150680   4.651   5.879   4.090
16413SOL    HW250681   4.764   5.847   4.186
16414SOL     OW50682   4.785   6.258   5.170
16414SOL    HW150683   4.698   6.219   5.176
16414SOL    HW250684   4.844   6.190   5.201
16415SOL     OW50685   4.956   7.178   4.528
16415SOL    HW150686   4.928   7.245   4.466
16415SOL    HW250687   4.931   7.212   4.614
16416SOL     OW50688   4.200   6.751   4.444
16416SOL    HW150689   4.137   6.732   4.513
16416SOL    HW250690   4.152   6.737   4.363
16417SOL     OW50691   4.998   7.389   4.344
16417SOL    HW150692   5.043   7.452   4.288
16417SOL    HW250693   4.924   7.438   4.380
16418SOL     OW50694   4.760   6.124   3.757
16418SOL    HW150695   4.709   6.202   3.740
16418SOL    HW250696   4.803   6.140   3.842
16419SOL     OW50697   3.805   6.145   5.104
16419SOL    HW150698   3.898   6.135   5.082
16419SOL    HW250699   3.804   6.209   5.175
16420SOL     OW50700   4.296   5.797   4.912
16420SOL    HW150701   4.320   5.719   4.963
16420SOL    HW250702   4.203   5.809   4.929
16421SOL     OW50703   4.538   6.027   4.336
16421SOL    HW150704   4.476   5.998   4.404
16421SOL    HW250705   4.573   5.946   4.300
16422SOL     OW50706   4.745   5.620   4.450
16422SOL    HW150707   4.679   5.609   4.381
16422SOL    HW250708   4.721   5.555   4.516
16423SOL     OW50709   5.158   6.760   4.542
16423SOL    HW150710   5.105   6.695   4.587
16423SOL    HW250711   5.135   6.751   4.450
16424SOL     OW50712   5.184   6.182   4.680
16424SOL    HW150713   5.120   6.112   4.693
16424SOL    HW250714   5.237   6.181   4.760
16425SOL     OW50715   5.575   6.385   4.117
16425SOL    HW150716   5.628   6.333   4.177
16425SOL    HW250717   5.550   6.324   4.048
16426SOL     OW50718   4.218   7.006   3.872
16426SOL    HW150719   4.142   6.981   3.924
16426SOL    HW250720   4.212   6.954   3.793
16427SOL     OW50721   5.413   6.886   4.380
16427SOL    HW150722   5.504   6.857   4.388
16427SOL    HW250723   5.368   6.846   4.454
16428SOL     OW50724   5.109   6.144   3.790
16428SOL    HW150725   5.051   6.144   3.866
16428SOL    HW250726   5.197   6.156   3.827
16429SOL     OW50727   4.240   5.833   4.015
16429SOL    HW150728   4.299   5.791   3.952
16429SOL    HW250729   4.222   5.919   3.977
16430SOL     OW50730   5.458   6.826   5.293
16430SOL    HW150731   5.516   6.776   5.352
16430SOL    HW250732   5.486   6.917   5.305
16431SOL     OW50733   4.772   6.941   5.049
16431SOL    HW150734   4.696   6.908   5.096
16431SOL    HW250735   4.847   6.903   5.095
16432SOL     OW50736   5.346   7.223   5.376
16432SOL    HW150737   5.336   7.256   5.286
16432SOL    HW250738   5.422   7.166   5.372
16433SOL     OW50739   4.875   6.812   4.824
16433SOL    HW150740   4.816   6.840   4.894
16433SOL    HW250741   4.826   6.831   4.744
16434SOL     OW50742   5.345   6.690   4.811
16434SOL    HW150743   5.359   6.754   4.881
16434SOL    HW250744   5.250   6.679   4.808
16435SOL     OW50745   4.630   5.711   5.101
16435SOL    HW150746   4.661   5.669   5.021
16435SOL    HW250747   4.709   5.736   5.148
16436SOL     OW50748   4.704   6.702   5.443
16436SOL    HW150749   4.613   6.715   5.472
16436SOL    HW250750   4.701   6.620   5.393
16437SOL     OW50751   4.447   6.645   4.100
16437SOL    HW150752   4.428   6.634   4.193
16437SOL    HW250753   4.523   6.590   4.083
16438SOL     OW50754   4.149   6.409   4.979
16438SOL    HW150755   4.213   6.410   5.050
16438SOL    HW250756   4.117   6.319   4.977
16439SOL     OW50757   4.993   5.971   4.987
16439SOL    HW150758   5.024   6.043   5.042
16439SOL    HW250759   4.902   5.994   4.967
16440SOL     OW50760   3.803   7.161   5.088
16440SOL    HW150761   3.780   7.239   5.036
16440SOL    HW250762   3.898   7.153   5.079
16441SOL     OW50763   4.056   6.711   4.213
16441SOL    HW150764   4.050   6.785   4.152
16441SOL    HW250765   4.050   6.634   4.158
16442SOL     OW50766   4.396   6.132   4.563
16442SOL    HW150767   4.356   6.187   4.496
16442SOL    HW250768   4.324   6.110   4.622
16443SOL     OW50769   4.967   6.934   4.125
16443SOL    HW150770   5.020   7.007   4.156
16443SOL    HW250771   4.878   6.955   4.153
16444SOL     OW50772   5.038   7.040   4.852
16444SOL    HW150773   5.081   7.046   4.938
16444SOL    HW250774   4.982   6.963   4.858
16445SOL     OW50775   5.289   6.215   4.191
16445SOL    HW150776   5.245   6.234   4.275
16445SOL    HW250777   5.314   6.302   4.158
16446SOL     OW50778   4.070   7.119   5.033
16446SOL    HW150779   4.058   7.071   4.951
16446SOL    HW250780   4.165   7.129   5.042
16447SOL     OW50781   4.134   6.329   5.331
16447SOL    HW150782   4.205   6.362   5.275
16447SOL    HW250783   4.155   6.237   5.344
16448SOL     OW50784   5.357   6.368   5.413
16448SOL    HW150785   5.266   6.395   5.414
16448SOL    HW250786   5.396   6.417   5.340
16449SOL     OW50787   4.720   5.703   5.467
16449SOL    HW150788   4.808   5.686   5.432
16449SOL    HW250789   4.692   5.619   5.502
16450SOL     OW50790   4.227   5.648   5.459
16450SOL    HW150791   4.174   5.585   5.410
16450SOL    HW250792   4.168   5.722   5.474
16451SOL     OW50793   4.288   6.491   4.758
16451SOL    HW150794   4.338   6.565   4.792
16451SOL    HW250795   4.238   6.459   4.833
16452SOL     OW50796   5.050   6.432   4.731
16452SOL    HW150797   4.959   6.408   4.714
16452SOL    HW250798   5.098   6.349   4.727
16453SOL     OW50799   4.933   6.131   3.995
16453SOL    HW150800   4.931   6.050   4.046
16453SOL    HW250801   4.946   6.200   4.060
16454SOL     OW50802   4.027   5.794   4.962
16454SOL    HW150803   3.989   5.817   5.047
16454SOL    HW250804   4.013   5.700   4.954
16455SOL     OW50805   3.788   6.900   4.989
16455SOL    HW150806   3.811   6.838   5.058
16455SOL    HW250807   3.780   6.984   5.034
16456SOL     OW50808   4.494   6.302   4.770
16456SOL    HW150809   4.475   6.221   4.723
16456SOL    HW250810   4.412   6.351   4.768
16457SOL     OW50811   5.464   6.559   5.581
16457SOL    HW150812   5.425   6.484   5.536
16457SOL    HW250813   5.407   6.573   5.657
16458SOL     OW50814   4.048   5.655   4.352
16458SOL    HW150815   4.015   5.741   4.378
16458SOL    HW250816   4.052   5.605   4.433
16459SOL     OW50817   5.362   5.976   4.070
16459SOL    HW150818   5.381   5.905   4.132
16459SOL    HW250819   5.328   6.047   4.125
16460SOL     OW50820   4.793   6.333   4.687
16460SOL    HW150821   4.763   6.361   4.773
16460SOL    HW250822   4.756   6.245   4.676
16461SOL     OW50823   4.715   7.166   5.447
16461SOL    HW150824   4.693   7.204   5.362
16461SOL    HW250825   4.737   7.075   5.429
16462SOL     OW50826   5.573   7.077   5.320
16462SOL    HW150827   5.599   7.109   5.234
16462SOL    HW250828   5.650   7.089   5.375
16463SOL     OW50829   4.074   6.522   5.518
16463SOL    HW150830   4.145   6.523   5.583
16463SOL    HW250831   4.098   6.450   5.459
16464SOL     OW50832   5.216   5.864   3.857
16464SOL    HW150833   5.179   5.781   3.888
16464SOL    HW250834   5.265   5.897   3.933
16465SOL     OW50835   5.009   6.408   3.746
16465SOL    HW150836   5.039   6.318   3.741
16465SOL    HW250837   5.041   6.449   3.666
16466SOL     OW50838   4.790   6.929   4.567
16466SOL    HW150839   4.797   6.850   4.514
16466SOL    HW250840   4.858   6.987   4.532
16467SOL     OW50841   4.043   6.421   4.647
16467SOL    HW150842   4.130   6.453   4.668
16467SOL    HW250843   4.044   6.329   4.672
16468SOL     OW50844   4.863   6.022   5.355
16468SOL    HW150845   4.811   6.035   5.435
16468SOL    HW250846   4.954   6.030   5.385
16469SOL     OW50847   4.873   5.806   5.182
16469SOL    HW150848   4.859   5.870   5.252
16469SOL    HW250849   4.922   5.855   5.115
16470SOL     OW50850   3.726   6.897   3.915
16470SOL    HW150851   3.638   6.915   3.882
16470SOL    HW250852   3.721   6.808   3.948
16471SOL     OW50853   3.799   7.362   4.651
16471SOL    HW150854   3.778   7.278   4.610
16471SOL    HW250855   3.891   7.378   4.629
16472SOL     OW50856   4.210   7.162   4.621
16472SOL    HW150857   4.278   7.226   4.643
16472SOL    HW250858   4.255   7.098   4.566
16473SOL     OW50859   4.699   6.397   4.939
16473SOL    HW150860   4.732   6.348   5.015
16473SOL    HW250861   4.622   6.348   4.911
16474SOL     OW50862   3.776   6.157   4.826
16474SOL    HW150863   3.853   6.125   4.779
16474SOL    HW250864   3.797   6.145   4.918
16475SOL     OW50865   3.904   6.105   5.474
16475SOL    HW150866   3.956   6.036   5.432
16475SOL    HW250867   3.880   6.164   5.403
16476SOL     OW50868   5.117   6.507   5.385
16476SOL    HW150869   5.126   6.602   5.385
16476SOL    HW250870   5.110   6.483   5.293
16477SOL     OW50871   4.567   6.204   4.058
16477SOL    HW150872   4.578   6.115   4.026
16477SOL    HW250873   4.478   6.228   4.033
16478SOL     OW50874   5.363   6.204   4.889
16478SOL    HW150875   5.345   6.143   4.961
16478SOL    HW250876   5.455   6.190   4.867
16479SOL     OW50877   3.958   7.129   5.453
16479SOL    HW150878   3.928   7.176   5.531
16479SOL    HW250879   3.971   7.039   5.483
16480SOL     OW50880   4.435   6.035   4.964
16480SOL    HW150881   4.398   5.946   4.967
16480SOL    HW250882   4.372   6.085   4.912
16481SOL     OW50883   4.662   7.262   5.191
16481SOL    HW150884   4.620   7.221   5.116
16481SOL    HW250885   4.650   7.356   5.177
16482SOL     OW50886   4.175   6.072   3.894
16482SOL    HW150887   4.238   6.141   3.913
16482SOL    HW250888   4.091   6.108   3.923
16483SOL     OW50889   3.878   6.728   5.190
16483SOL    HW150890   3.871   6.685   5.274
16483SOL    HW250891   3.888   6.657   5.127
16484SOL     OW50892   5.066   6.634   4.912
16484SOL    HW150893   5.056   6.558   4.854
16484SOL    HW250894   4.995   6.693   4.887
16485SOL     OW50895   5.046   6.448   4.019
16485SOL    HW150896   4.969   6.478   4.066
16485SOL    HW250897   5.016   6.435   3.929
16486SOL     OW50898   5.498   7.321   4.876
16486SOL    HW150899   5.560   7.345   4.808
16486SOL    HW250900   5.476   7.230   4.857
16487SOL     OW50901   4.950   7.294   4.788
16487SOL    HW150902   5.033   7.342   4.788
16487SOL    HW250903   4.973   7.208   4.824
16488SOL     OW50904   3.802   6.882   4.720
16488SOL    HW150905   3.793   6.887   4.815
16488SOL    HW250906   3.742   6.812   4.693
16489SOL     OW50907   4.401   7.268   5.468
16489SOL    HW150908   4.335   7.338   5.465
16489SOL    HW250909   4.459   7.288   5.395
16490SOL     OW50910   5.461   5.753   4.230
16490SOL    HW150911   5.525   5.728   4.163
16490SOL    HW250912   5.431   5.670   4.266
16491SOL     OW50913   5.102   7.158   4.225
16491SOL    HW150914   5.163   7.184   4.156
16491SOL    HW250915   5.048   7.236   4.240
16492SOL     OW50916   3.858   7.403   5.570
16492SOL    HW150917   3.817   7.326   5.610
16492SOL    HW250918   3.912   7.440   5.640
16493SOL     OW50919   4.988   6.500   4.368
16493SOL    HW150920   5.059   6.442   4.395
16493SOL    HW250921   5.031   6.576   4.328
16494SOL     OW50922   4.519   6.866   5.133
16494SOL    HW150923   4.493   6.909   5.214
16494SOL    HW250924   4.440   6.865   5.080
16495SOL     OW50925   4.394   7.213   3.878
16495SOL    HW150926   4.405   7.231   3.785
16495SOL    HW250927   4.338   7.135   3.881
16496SOL     OW50928   5.339   7.319   5.112
16496SOL    HW150929   5.394   7.324   5.034
16496SOL    HW250930   5.325   7.410   5.137
16497SOL     OW50931   5.578   5.753   4.683
16497SOL    HW150932   5.601   5.662   4.667
16497SOL    HW250933   5.488   5.762   4.652
16498SOL     OW50934   3.981   5.916   4.427
16498SOL    HW150935   3.889   5.942   4.414
16498SOL    HW250936   3.988   5.901   4.522
16499SOL     OW50937   4.935   7.181   3.758
16499SOL    HW150938   4.921   7.091   3.785
16499SOL    HW250939   4.868   7.198   3.691
16500SOL     OW50940   4.544   6.585   5.106
16500SOL    HW150941   4.597   6.561   5.029
16500SOL    HW250942   4.547   6.680   5.108
16501SOL     OW50943   4.651   6.477   4.036
16501SOL    HW150944   4.705   6.508   3.964
16501SOL    HW250945   4.640   6.383   4.019
16502SOL     OW50946   5.213   7.217   3.775
16502SOL    HW150947   5.119   7.205   3.759
16502SOL    HW250948   5.251   7.223   3.688
16503SOL     OW50949   4.096   6.894   5.213
16503SOL    HW150950   4.074   6.971   5.161
16503SOL    HW250951   4.022   6.834   5.201
16504SOL     OW50952   5.347   6.882   5.014
16504SOL    HW150953   5.391   6.857   5.096
16504SOL    HW250954   5.280   6.944   5.041
16505SOL     OW50955   4.794   6.686   4.449
16505SOL    HW150956   4.721   6.640   4.490
16505SOL    HW250957   4.852   6.616   4.418
16506SOL     OW50958   4.766   5.814   4.665
16506SOL    HW150959   4.753   5.760   4.587
16506SOL    HW250960   4.752   5.754   4.739
16507SOL     OW50961   4.330   7.072   4.201
16507SOL    HW150962   4.377   7.023   4.134
16507SOL    HW250963   4.256   7.112   4.154
16508SOL     OW50964   5.438   6.010   5.073
16508SOL    HW150965   5.521   6.045   5.106
16508SOL    HW250966   5.460   5.924   5.037
16509SOL     OW50967   3.982   6.928   4.006
16509SOL    HW150968   3.889   6.919   3.986
16509SOL    HW250969   3.985   6.968   4.093
16510SOL     OW50970   3.836   6.642   5.453
16510SOL    HW150971   3.761   6.609   5.503
16510SOL    HW250972   3.911   6.592   5.486
16511SOL     OW50973   4.398   5.796   5.224
16511SOL    HW150974   4.480   5.771   5.183
16511SOL    HW250975   4.421   5.811   5.316
16512SOL     OW50976   3.802   5.931   3.774
16512SOL    HW150977   3.770   5.841   3.778
16512SOL    HW250978   3.726   5.982   3.747
16513SOL     OW50979   5.151   6.457   5.120
16513SOL    HW150980   5.102   6.510   5.058
16513SOL    HW250981   5.237   6.447   5.079
16514SOL     OW50982   3.792   5.741   4.027
16514SOL    HW150983   3.802   5.834   4.008
16514SOL    HW250984   3.875   5.702   4.002
16515SOL     OW50985   4.899   6.916   3.844
16515SOL    HW150986   4.805   6.897   3.840
16515SOL    HW250987   4.919   6.916   3.937
16516SOL     OW50988   4.345   6.406   5.167
16516SOL    HW150989   4.405   6.479   5.152
16516SOL    HW250990   4.402   6.329   5.172
16517SOL     OW50991   5.247   7.357   4.631
16517SOL    HW150992   5.253   7.450   4.609
16517SOL    HW250993   5.303   7.347   4.708
16518SOL     OW50994   4.458   6.130   5.425
16518SOL    HW150995   4.498   6.178   5.498
16518SOL    HW250996   4.463   6.038   5.451
16519SOL     OW50997   5.185   6.780   5.355
16519SOL    HW150998   5.172   6.790   5.449
16519SOL    HW250999   5.277   6.803   5.342
16520SOL     OW51000   4.086   7.326   5.296
16520SOL    HW151001   4.004   7.372   5.280
16520SOL    HW251002   4.060   7.244   5.339
16521SOL     OW51003   5.394   6.464   4.976
16521SOL    HW151004   5.379   6.378   4.937
16521SOL    HW251005   5.383   6.526   4.904
16522SOL     OW51006   4.958   5.920   4.170
16522SOL    HW151007   5.013   5.842   4.162
16522SOL    HW251008   4.982   5.958   4.254
16523SOL     OW51009   4.371   6.330   4.319
16523SOL    HW151010   4.368   6.423   4.344
16523SOL    HW251011   4.282   6.309   4.294
16524SOL     OW51012   5.463   5.941   5.347
16524SOL    HW151013   5.427   5.955   5.260
16524SOL    HW251014   5.404   5.879   5.388
16525SOL     OW51015   5.479   6.537   5.224
16525SOL    HW151016   5.444   6.625   5.236
16525SOL    HW251017   5.451   6.512   5.135
16526SOL     OW51018   4.602   6.946   3.781
16526SOL    HW151019   4.558   6.965   3.864
16526SOL    HW251020   4.604   7.030   3.735
16527SOL     OW51021   4.380   7.372   4.645
16527SOL    HW151022   4.359   7.465   4.637
16527SOL    HW251023   4.476   7.369   4.644
16528SOL     OW51024   4.591   6.556   4.587
16528SOL    HW151025   4.615   6.473   4.629
16528SOL    HW251026   4.548   6.606   4.657
16529SOL     OW51027   4.801   6.568   3.827
16529SOL    HW151028   4.774   6.624   3.754
16529SOL    HW251029   4.870   6.513   3.790
16530SOL     OW51030   5.578   7.123   4.571
16530SOL    HW151031   5.531   7.068   4.508
16530SOL    HW251032   5.550   7.090   4.656
16531SOL     OW51033   3.946   6.873   5.565
16531SOL    HW151034   3.906   6.797   5.523
16531SOL    HW251035   3.898   6.884   5.647
16532SOL     OW51036   3.816   6.813   4.386
16532SOL    HW151037   3.804   6.776   4.474
16532SOL    HW251038   3.887   6.762   4.348
16533SOL     OW51039   4.412   7.005   5.346
16533SOL    HW151040   4.342   6.953   5.384
16533SOL    HW251041   4.411   7.087   5.396
16534SOL     OW51042   5.552   5.792   4.959
16534SOL    HW151043   5.527   5.710   5.002
16534SOL    HW251044   5.556   5.770   4.866
16535SOL     OW51045   4.162   6.015   4.245
16535SOL    HW151046   4.189   5.934   4.200
16535SOL    HW251047   4.106   5.985   4.316
16536SOL     OW51048   5.429   7.062   4.805
16536SOL    HW151049   5.350   7.044   4.755
16536SOL    HW251050   5.425   7.002   4.879
16537SOL     OW51051   4.063   6.146   5.028
16537SOL    HW151052   4.111   6.084   5.083
16537SOL    HW251053   4.088   6.124   4.938
16538SOL     OW51054   4.563   7.169   4.387
16538SOL    HW151055   4.537   7.245   4.336
16538SOL    HW251056   4.485   7.115   4.392
16539SOL     OW51057   5.153   5.805   4.831
16539SOL    HW151058   5.146   5.712   4.853
16539SOL    HW251059   5.104   5.849   4.900
16540SOL     OW51060   4.733   5.613   4.858
16540SOL    HW151061   4.667   5.545   4.842
16540SOL    HW251062   4.817   5.566   4.858
16541SOL     OW51063   4.502   6.916   4.044
16541SOL    HW151064   4.479   6.824   4.058
16541SOL    HW251065   4.579   6.930   4.100
16542SOL     OW51066   4.345   7.148   5.004
16542SOL    HW151067   4.344   7.225   5.061
16542SOL    HW251068   4.434   7.145   4.970
16543SOL     OW51069   5.088   5.626   3.879
16543SOL    HW151070   5.126   5.549   3.837
16543SOL    HW251071   4.998   5.599   3.900
16544SOL     OW51072   5.028   6.052   4.404
16544SOL    HW151073   4.961   6.120   4.410
16544SOL    HW251074   5.022   6.004   4.487
16545SOL     OW51075   5.323   5.787   4.611
16545SOL    HW151076   5.263   5.784   4.685
16545SOL    HW251077   5.289   5.856   4.554
16546SOL     OW51078   3.765   6.645   4.027
16546SOL    HW151079   3.859   6.635   4.012
16546SOL    HW251080   3.736   6.557   4.051
16547SOL     OW51081   4.617   7.247   4.047
16547SOL    HW151082   4.541   7.232   3.991
16547SOL    HW251083   4.587   7.309   4.113
16548SOL     OW51084   3.948   6.232   5.715
16548SOL    HW151085   3.871   6.201   5.762
16548SOL    HW251086   3.937   6.199   5.626
16549SOL     OW51087   3.935   5.894   6.594
16549SOL    HW151088   3.979   5.844   6.663
16549SOL    HW251089   3.856   5.844   6.575
16550SOL     OW51090   3.729   5.979   6.217
16550SOL    HW151091   3.646   6.006   6.256
16550SOL    HW251092   3.711   5.893   6.180
16551SOL     OW51093   4.299   6.888   6.783
16551SOL    HW151094   4.213   6.887   6.739
16551SOL    HW251095   4.312   6.979   6.807
16552SOL     OW51096   5.307   7.125   6.324
16552SOL    HW151097   5.264   7.083   6.399
16552SOL    HW251098   5.277   7.076   6.248
16553SOL     OW51099   4.870   6.289   6.273
16553SOL    HW151100   4.909   6.376   6.268
16553SOL    HW251101   4.817   6.290   6.352
16554SOL     OW51102   5.539   6.167   5.799
16554SOL    HW151103   5.493   6.172   5.715
16554SOL    HW251104   5.484   6.113   5.854
16555SOL     OW51105   4.467   6.720   6.641
16555SOL    HW151106   4.404   6.759   6.702
16555SOL    HW251107   4.507   6.795   6.596
16556SOL     OW51108   4.640   6.369   7.440
16556SOL    HW151109   4.567   6.420   7.474
16556SOL    HW251110   4.643   6.390   7.346
16557SOL     OW51111   4.411   6.588   6.225
16557SOL    HW151112   4.475   6.573   6.295
16557SOL    HW251113   4.342   6.640   6.266
16558SOL     OW51114   4.437   6.735   7.413
16558SOL    HW151115   4.486   6.811   7.443
16558SOL    HW251116   4.360   6.771   7.370
16559SOL     OW51117   4.054   6.998   6.652
16559SOL    HW151118   3.979   6.958   6.610
16559SOL    HW251119   4.097   7.048   6.583
16560SOL     OW51120   5.180   7.086   6.953
16560SOL    HW151121   5.232   7.166   6.964
16560SOL    HW251122   5.109   7.095   7.017
16561SOL     OW51123   4.172   5.991   7.079
16561SOL    HW151124   4.251   5.937   7.079
16561SOL    HW251125   4.101   5.930   7.096
16562SOL     OW51126   5.313   6.047   6.326
16562SOL    HW151127   5.228   6.044   6.282
16562SOL    HW251128   5.296   6.096   6.407
16563SOL     OW51129   3.939   7.311   6.056
16563SOL    HW151130   3.964   7.385   6.112
16563SOL    HW251131   4.014   7.298   5.998
16564SOL     OW51132   4.859   6.925   7.281
16564SOL    HW151133   4.909   6.914   7.362
16564SOL    HW251134   4.808   6.845   7.273
16565SOL     OW51135   3.962   7.035   6.124
16565SOL    HW151136   3.932   7.125   6.134
16565SOL    HW251137   3.909   6.985   6.186
16566SOL     OW51138   4.001   6.673   6.483
16566SOL    HW151139   4.005   6.580   6.507
16566SOL    HW251140   3.941   6.711   6.546
16567SOL     OW51141   4.315   7.380   7.010
16567SOL    HW151142   4.236   7.361   7.061
16567SOL    HW251143   4.341   7.468   7.040
16568SOL     OW51144   4.291   6.573   5.733
16568SOL    HW151145   4.344   6.610   5.663
16568SOL    HW251146   4.334   6.603   5.814
16569SOL     OW51147   5.326   5.718   7.046
16569SOL    HW151148   5.325   5.801   6.999
16569SOL    HW251149   5.294   5.740   7.134
16570SOL     OW51150   3.838   6.242   6.141
16570SOL    HW151151   3.818   6.150   6.162
16570SOL    HW251152   3.834   6.287   6.226
16571SOL     OW51153   5.561   7.341   5.909
16571SOL    HW151154   5.626   7.312   5.973
16571SOL    HW251155   5.584   7.432   5.891
16572SOL     OW51156   3.781   7.173   5.695
16572SOL    HW151157   3.758   7.081   5.710
16572SOL    HW251158   3.748   7.219   5.772
16573SOL     OW51159   5.431   6.519   6.231
16573SOL    HW151160   5.491   6.456   6.191
16573SOL    HW251161   5.395   6.569   6.158
16574SOL     OW51162   5.359   6.685   6.018
16574SOL    HW151163   5.426   6.752   6.026
16574SOL    HW251164   5.281   6.724   6.057
16575SOL     OW51165   3.845   6.320   7.167
16575SOL    HW151166   3.935   6.352   7.172
16575SOL    HW251167   3.792   6.399   7.161
16576SOL     OW51168   4.344   6.981   6.318
16576SOL    HW151169   4.300   6.897   6.328
16576SOL    HW251170   4.329   7.006   6.227
16577SOL     OW51171   5.006   6.820   7.003
16577SOL    HW151172   5.033   6.750   6.943
16577SOL    HW251173   5.064   6.810   7.079
16578SOL     OW51174   4.555   5.622   6.109
16578SOL    HW151175   4.583   5.710   6.083
16578SOL    HW251176   4.461   5.630   6.123
16579SOL     OW51177   3.911   6.541   6.864
16579SOL    HW151178   3.999   6.504   6.852
16579SOL    HW251179   3.853   6.480   6.818
16580SOL     OW51180   5.265   6.584   5.783
16580SOL    HW151181   5.195   6.526   5.815
16580SOL    HW251182   5.307   6.616   5.863
16581SOL     OW51183   4.908   7.400   7.220
16581SOL    HW151184   4.909   7.461   7.146
16581SOL    HW251185   4.922   7.314   7.180
16582SOL     OW51186   4.054   5.833   7.442
16582SOL    HW151187   4.082   5.924   7.428
16582SOL    HW251188   3.960   5.839   7.459
16583SOL     OW51189   5.186   7.005   6.535
16583SOL    HW151190   5.122   7.020   6.604
16583SOL    HW251191   5.174   6.913   6.511
16584SOL     OW51192   5.360   7.348   6.157
16584SOL    HW151193   5.299   7.300   6.102
16584SOL    HW251194   5.376   7.291   6.232
16585SOL     OW51195   4.310   6.293   5.855
16585SOL    HW151196   4.307   6.381   5.817
16585SOL    HW251197   4.246   6.295   5.926
16586SOL     OW51198   5.000   5.961   6.519
16586SOL    HW151199   4.912   5.923   6.522
16586SOL    HW251200   5.053   5.903   6.575
16587SOL     OW51201   5.298   7.328   5.837
16587SOL    HW151202   5.384   7.332   5.879
16587SOL    HW251203   5.312   7.271   5.761
16588SOL     OW51204   4.512   6.201   7.035
16588SOL    HW151205   4.501   6.167   7.123
16588SOL    HW251206   4.482   6.130   6.978
16589SOL     OW51207   5.120   6.058   7.260
16589SOL    HW151208   5.137   6.104   7.342
16589SOL    HW251209   5.169   5.976   7.267
16590SOL     OW51210   4.673   6.461   7.180
16590SOL    HW151211   4.722   6.390   7.138
16590SOL    HW251212   4.620   6.498   7.110
16591SOL     OW51213   4.722   6.001   6.813
16591SOL    HW151214   4.631   6.006   6.842
16591SOL    HW251215   4.723   5.929   6.750
16592SOL     OW51216   4.776   6.295   6.006
16592SOL    HW151217   4.797   6.282   6.099
16592SOL    HW251218   4.695   6.247   5.993
16593SOL     OW51219   3.816   6.418   6.357
16593SOL    HW151220   3.895   6.398   6.407
16593SOL    HW251221   3.775   6.489   6.406
16594SOL     OW51222   3.847   7.458   7.169
16594SOL    HW151223   3.848   7.439   7.263
16594SOL    HW251224   3.768   7.415   7.136
16595SOL     OW51225   4.602   5.931   5.783
16595SOL    HW151226   4.650   5.958   5.705
16595SOL    HW251227   4.555   5.852   5.756
16596SOL     OW51228   5.403   6.154   7.427
16596SOL    HW151229   5.380   6.227   7.369
16596SOL    HW251230   5.439   6.087   7.369
16597SOL     OW51231   4.235   5.764   6.477
16597SOL    HW151232   4.262   5.801   6.561
16597SOL    HW251233   4.256   5.833   6.413
16598SOL     OW51234   4.720   7.033   6.050
16598SOL    HW151235   4.681   7.109   6.006
16598SOL    HW251236   4.694   7.041   6.141
16599SOL     OW51237   4.077   7.401   6.459
16599SOL    HW151238   4.120   7.316   6.464
16599SOL    HW251239   4.146   7.464   6.482
16600SOL     OW51240   5.532   6.663   6.444
16600SOL    HW151241   5.487   6.620   6.372
16600SOL    HW251242   5.470   6.660   6.517
16601SOL     OW51243   4.945   7.126   7.102
16601SOL    HW151244   4.937   7.056   7.166
16601SOL    HW251245   4.884   7.103   7.032
16602SOL     OW51246   4.026   6.541   5.840
16602SOL    HW151247   4.111   6.557   5.799
16602SOL    HW251248   4.003   6.453   5.812
16603SOL     OW51249   5.204   6.353   6.302
16603SOL    HW151250   5.198   6.298   6.380
16603SOL    HW251251   5.289   6.397   6.311
16604SOL     OW51252   4.195   6.864   7.331
16604SOL    HW151253   4.169   6.869   7.239
16604SOL    HW251254   4.113   6.850   7.378
16605SOL     OW51255   4.847   7.340   5.837
16605SOL    HW151256   4.773   7.335   5.898
16605SOL    HW251257   4.814   7.300   5.756
16606SOL     OW51258   3.918   5.862   7.113
16606SOL    HW151259   3.837   5.879   7.065
16606SOL    HW251260   3.911   5.770   7.140
16607SOL     OW51261   5.352   6.965   5.667
16607SOL    HW151262   5.305   7.046   5.646
16607SOL    HW251263   5.286   6.896   5.657
16608SOL     OW51264   4.177   7.329   5.901
16608SOL    HW151265   4.226   7.376   5.968
16608SOL    HW251266   4.244   7.282   5.851
16609SOL     OW51267   5.126   5.694   6.010
16609SOL    HW151268   5.111   5.660   5.923
16609SOL    HW251269   5.197   5.640   6.045
16610SOL     OW51270   3.983   7.373   6.807
16610SOL    HW151271   4.029   7.298   6.844
16610SOL    HW251272   3.968   7.349   6.715
16611SOL     OW51273   4.668   7.282   6.481
16611SOL    HW151274   4.751   7.237   6.495
16611SOL    HW251275   4.624   7.231   6.413
16612SOL     OW51276   4.118   6.275   6.058
16612SOL    HW151277   4.136   6.182   6.071
16612SOL    HW251278   4.025   6.284   6.076
16613SOL     OW51279   5.239   5.804   7.306
16613SOL    HW151280   5.245   5.825   7.400
16613SOL    HW251281   5.182   5.727   7.303
16614SOL     OW51282   4.376   5.700   5.686
16614SOL    HW151283   4.376   5.627   5.748
16614SOL    HW251284   4.329   5.667   5.609
16615SOL     OW51285   4.515   5.872   7.380
16615SOL    HW151286   4.587   5.814   7.355
16615SOL    HW251287   4.449   5.814   7.418
16616SOL     OW51288   4.600   7.116   6.784
16616SOL    HW151289   4.583   7.074   6.700
16616SOL    HW251290   4.668   7.063   6.825
16617SOL     OW51291   5.059   6.181   7.020
16617SOL    HW151292   5.095   6.144   7.101
16617SOL    HW251293   5.099   6.268   7.014
16618SOL     OW51294   4.544   6.973   6.540
16618SOL    HW151295   4.629   6.960   6.498
16618SOL    HW251296   4.481   6.978   6.468
16619SOL     OW51297   4.656   6.102   6.483
16619SOL    HW151298   4.632   6.089   6.391
16619SOL    HW251299   4.680   6.014   6.513
16620SOL     OW51300   4.290   5.698   6.123
16620SOL    HW151301   4.208   5.664   6.157
16620SOL    HW251302   4.268   5.728   6.034
16621SOL     OW51303   5.152   6.781   5.627
16621SOL    HW151304   5.186   6.707   5.678
16621SOL    HW251305   5.064   6.796   5.663
16622SOL     OW51306   4.022   5.633   5.786
16622SOL    HW151307   4.116   5.642   5.797
16622SOL    HW251308   3.998   5.557   5.840
16623SOL     OW51309   4.676   5.869   6.043
16623SOL    HW151310   4.651   5.885   5.952
16623SOL    HW251311   4.771   5.861   6.041
16624SOL     OW51312   4.799   6.263   7.039
16624SOL    HW151313   4.738   6.191   7.022
16624SOL    HW251314   4.886   6.225   7.028
16625SOL     OW51315   4.931   7.166   6.394
16625SOL    HW151316   4.955   7.234   6.330
16625SOL    HW251317   5.013   7.146   6.439
16626SOL     OW51318   4.197   6.749   6.309
16626SOL    HW151319   4.136   6.722   6.377
16626SOL    HW251320   4.149   6.735   6.227
16627SOL     OW51321   4.967   7.387   6.205
16627SOL    HW151322   5.001   7.460   6.153
16627SOL    HW251323   4.889   7.422   6.248
16628SOL     OW51324   4.764   6.111   5.603
16628SOL    HW151325   4.714   6.193   5.596
16628SOL    HW251326   4.810   6.118   5.686
16629SOL     OW51327   3.816   6.143   6.962
16629SOL    HW151328   3.909   6.138   6.940
16629SOL    HW251329   3.812   6.204   7.036
16630SOL     OW51330   4.303   5.813   6.743
16630SOL    HW151331   4.347   5.729   6.730
16630SOL    HW251332   4.218   5.790   6.779
16631SOL     OW51333   4.596   6.064   6.222
16631SOL    HW151334   4.534   6.107   6.162
16631SOL    HW251335   4.622   5.984   6.176
16632SOL     OW51336   4.742   5.638   6.316
16632SOL    HW151337   4.679   5.627   6.245
16632SOL    HW251338   4.721   5.567   6.378
16633SOL     OW51339   5.157   6.736   6.472
16633SOL    HW151340   5.102   6.658   6.477
16633SOL    HW251341   5.153   6.763   6.381
16634SOL     OW51342   5.187   6.192   6.543
16634SOL    HW151343   5.123   6.121   6.550
16634SOL    HW251344   5.240   6.184   6.623
16635SOL     OW51345   5.594   6.396   5.964
16635SOL    HW151346   5.641   6.342   6.029
16635SOL    HW251347   5.554   6.332   5.905
16636SOL     OW51348   4.214   7.011   5.737
16636SOL    HW151349   4.137   6.982   5.786
16636SOL    HW251350   4.216   6.954   5.660
16637SOL     OW51351   5.465   6.914   6.150
16637SOL    HW151352   5.527   6.879   6.213
16637SOL    HW251353   5.379   6.889   6.185
16638SOL     OW51354   5.120   6.135   5.668
16638SOL    HW151355   5.046   6.135   5.728
16638SOL    HW251356   5.172   6.059   5.693
16639SOL     OW51357   4.246   5.848   5.886
16639SOL    HW151358   4.296   5.796   5.823
16639SOL    HW251359   4.218   5.925   5.836
16640SOL     OW51360   5.464   6.825   7.150
16640SOL    HW151361   5.515   6.772   7.211
16640SOL    HW251362   5.489   6.916   7.169
16641SOL     OW51363   4.776   6.957   6.934
16641SOL    HW151364   4.699   6.915   6.972
16641SOL    HW251365   4.850   6.904   6.964
16642SOL     OW51366   5.334   7.225   7.256
16642SOL    HW151367   5.324   7.252   7.165
16642SOL    HW251368   5.410   7.166   7.255
16643SOL     OW51369   4.867   6.814   6.686
16643SOL    HW151370   4.787   6.821   6.738
16643SOL    HW251371   4.841   6.840   6.598
16644SOL     OW51372   5.360   6.688   6.659
16644SOL    HW151373   5.350   6.745   6.735
16644SOL    HW251374   5.281   6.702   6.608
16645SOL     OW51375   4.624   5.727   6.960
16645SOL    HW151376   4.638   5.681   6.877
16645SOL    HW251377   4.709   5.726   7.004
16646SOL     OW51378   4.708   6.693   7.319
16646SOL    HW151379   4.615   6.708   7.339
16646SOL    HW251380   4.708   6.615   7.265
16647SOL     OW51381   4.439   6.653   5.955
16647SOL    HW151382   4.425   6.629   6.047
16647SOL    HW251383   4.513   6.598   5.927
16648SOL     OW51384   4.152   6.410   6.838
16648SOL    HW151385   4.217   6.416   6.908
16648SOL    HW251386   4.120   6.320   6.844
16649SOL     OW51387   4.990   5.958   6.868
16649SOL    HW151388   5.021   6.036   6.913
16649SOL    HW251389   4.899   5.978   6.844
16650SOL     OW51390   3.801   7.160   6.949
16650SOL    HW151391   3.771   7.226   6.886
16650SOL    HW251392   3.896   7.156   6.936
16651SOL     OW51393   4.047   6.710   6.077
16651SOL    HW151394   4.048   6.776   6.007
16651SOL    HW251395   4.046   6.626   6.031
16652SOL     OW51396   4.274   6.122   6.443
16652SOL    HW151397   4.292   6.181   6.370
16652SOL    HW251398   4.350   6.131   6.500
16653SOL     OW51399   4.975   6.978   5.956
16653SOL    HW151400   5.025   6.923   6.017
16653SOL    HW251401   4.889   6.987   5.997
16654SOL     OW51402   5.013   7.050   6.735
16654SOL    HW151403   5.064   7.049   6.816
16654SOL    HW251404   4.958   6.972   6.740
16655SOL     OW51405   5.296   6.229   6.052
16655SOL    HW151406   5.260   6.243   6.140
16655SOL    HW251407   5.255   6.295   5.997
16656SOL     OW51408   4.069   7.118   6.891
16656SOL    HW151409   4.058   7.070   6.809
16656SOL    HW251410   4.164   7.130   6.899
16657SOL     OW51411   4.132   6.328   7.188
16657SOL    HW151412   4.203   6.362   7.135
16657SOL    HW251413   4.137   6.233   7.177
16658SOL     OW51414   5.328   6.347   7.256
16658SOL    HW151415   5.255   6.407   7.273
16658SOL    HW251416   5.393   6.401   7.212
16659SOL     OW51417   4.731   5.717   7.344
16659SOL    HW151418   4.798   5.773   7.305
16659SOL    HW251419   4.759   5.628   7.325
16660SOL     OW51420   4.230   5.662   7.320
16660SOL    HW151421   4.194   5.590   7.268
16660SOL    HW251422   4.154   5.713   7.347
16661SOL     OW51423   4.308   6.463   6.614
16661SOL    HW151424   4.345   6.550   6.629
16661SOL    HW251425   4.254   6.447   6.691
16662SOL     OW51426   5.057   6.445   6.595
16662SOL    HW151427   4.968   6.418   6.571
16662SOL    HW251428   5.108   6.364   6.586
16663SOL     OW51429   4.913   6.121   5.842
16663SOL    HW151430   4.928   6.044   5.897
16663SOL    HW251431   4.867   6.182   5.899
16664SOL     OW51432   4.039   5.768   6.822
16664SOL    HW151433   3.993   5.777   6.906
16664SOL    HW251434   4.032   5.675   6.801
16665SOL     OW51435   3.770   6.898   6.855
16665SOL    HW151436   3.802   6.838   6.923
16665SOL    HW251437   3.775   6.984   6.896
16666SOL     OW51438   4.457   6.219   6.641
16666SOL    HW151439   4.527   6.197   6.579
16666SOL    HW251440   4.422   6.302   6.608
16667SOL     OW51441   4.033   5.645   6.213
16667SOL    HW151442   4.015   5.733   6.246
16667SOL    HW251443   4.039   5.591   6.292
16668SOL     OW51444   5.374   5.980   5.942
16668SOL    HW151445   5.386   5.909   6.005
16668SOL    HW251446   5.339   6.052   5.995
16669SOL     OW51447   4.761   6.346   6.548
16669SOL    HW151448   4.743   6.361   6.640
16669SOL    HW251449   4.733   6.256   6.532
16670SOL     OW51450   4.704   7.148   7.313
16670SOL    HW151451   4.684   7.192   7.230
16670SOL    HW251452   4.748   7.067   7.288
16671SOL     OW51453   5.569   7.082   7.197
16671SOL    HW151454   5.594   7.119   7.112
16671SOL    HW251455   5.648   7.089   7.250
16672SOL     OW51456   4.075   6.511   7.387
16672SOL    HW151457   4.155   6.518   7.440
16672SOL    HW251458   4.095   6.443   7.323
16673SOL     OW51459   5.238   5.875   5.718
16673SOL    HW151460   5.183   5.800   5.738
16673SOL    HW251461   5.280   5.897   5.802
16674SOL     OW51462   5.008   6.401   5.617
16674SOL    HW151463   5.041   6.311   5.622
16674SOL    HW251464   5.042   6.435   5.534
16675SOL     OW51465   4.790   6.923   6.442
16675SOL    HW151466   4.794   6.850   6.380
16675SOL    HW251467   4.846   6.990   6.404
16676SOL     OW51468   4.035   6.397   6.527
16676SOL    HW151469   4.130   6.409   6.524
16676SOL    HW251470   4.024   6.307   6.559
16677SOL     OW51471   4.060   6.129   6.600
16677SOL    HW151472   4.017   6.044   6.593
16677SOL    HW251473   4.135   6.123   6.541
16678SOL     OW51474   4.868   5.955   7.241
16678SOL    HW151475   4.807   6.029   7.232
16678SOL    HW251476   4.954   5.996   7.248
16679SOL     OW51477   4.888   5.765   7.046
16679SOL    HW151478   4.881   5.830   7.116
16679SOL    HW251479   4.930   5.812   6.974
16680SOL     OW51480   3.742   6.896   5.769
16680SOL    HW151481   3.653   6.915   5.740
16680SOL    HW251482   3.736   6.809   5.808
16681SOL     OW51483   3.813   7.362   6.530
16681SOL    HW151484   3.783   7.284   6.484
16681SOL    HW251485   3.901   7.377   6.496
16682SOL     OW51486   4.213   7.161   6.487
16682SOL    HW151487   4.282   7.222   6.511
16682SOL    HW251488   4.255   7.097   6.430
16683SOL     OW51489   4.682   6.376   6.811
16683SOL    HW151490   4.735   6.352   6.886
16683SOL    HW251491   4.607   6.316   6.814
16684SOL     OW51492   3.756   6.149   6.691
16684SOL    HW151493   3.812   6.088   6.642
16684SOL    HW251494   3.787   6.143   6.782
16685SOL     OW51495   3.914   6.087   7.311
16685SOL    HW151496   3.925   6.017   7.246
16685SOL    HW251497   3.878   6.160   7.261
16686SOL     OW51498   5.098   6.514   7.253
16686SOL    HW151499   5.125   6.605   7.250
16686SOL    HW251500   5.099   6.485   7.162
16687SOL     OW51501   4.548   6.165   5.937
16687SOL    HW151502   4.554   6.082   5.890
16687SOL    HW251503   4.465   6.203   5.908
16688SOL     OW51504   5.358   6.194   6.764
16688SOL    HW151505   5.350   6.130   6.835
16688SOL    HW251506   5.445   6.179   6.728
16689SOL     OW51507   3.957   7.128   7.312
16689SOL    HW151508   3.936   7.180   7.389
16689SOL    HW251509   3.967   7.039   7.344
16690SOL     OW51510   4.445   6.029   6.839
16690SOL    HW151511   4.396   5.950   6.817
16690SOL    HW251512   4.432   6.087   6.764
16691SOL     OW51513   4.628   7.266   7.072
16691SOL    HW151514   4.616   7.217   6.990
16691SOL    HW251515   4.627   7.358   7.045
16692SOL     OW51516   4.176   6.072   5.738
16692SOL    HW151517   4.242   6.133   5.771
16692SOL    HW251518   4.095   6.122   5.739
16693SOL     OW51519   3.869   6.729   7.056
16693SOL    HW151520   3.870   6.685   7.140
16693SOL    HW251521   3.883   6.660   6.992
16694SOL     OW51522   5.046   6.633   6.795
16694SOL    HW151523   5.058   6.566   6.728
16694SOL    HW251524   4.985   6.695   6.755
16695SOL     OW51525   5.058   6.432   5.890
16695SOL    HW151526   4.986   6.407   5.949
16695SOL    HW251527   5.023   6.416   5.803
16696SOL     OW51528   5.520   7.312   6.757
16696SOL    HW151529   5.569   7.337   6.679
16696SOL    HW251530   5.478   7.229   6.733
16697SOL     OW51531   4.965   7.323   6.702
16697SOL    HW151532   5.048   7.345   6.659
16697SOL    HW251533   4.971   7.229   6.718
16698SOL     OW51534   3.802   6.871   6.585
16698SOL    HW151535   3.785   6.875   6.679
16698SOL    HW251536   3.746   6.800   6.553
16699SOL     OW51537   4.411   7.263   7.330
16699SOL    HW151538   4.347   7.332   7.310
16699SOL    HW251539   4.480   7.275   7.264
16700SOL     OW51540   5.470   5.753   6.100
16700SOL    HW151541   5.530   5.722   6.032
16700SOL    HW251542   5.432   5.674   6.137
16701SOL     OW51543   5.119   7.216   6.044
16701SOL    HW151544   5.102   7.122   6.049
16701SOL    HW251545   5.065   7.254   6.114
16702SOL     OW51546   3.855   7.393   7.430
16702SOL    HW151547   3.813   7.317   7.471
16702SOL    HW251548   3.906   7.433   7.500
16703SOL     OW51549   5.005   6.537   6.248
16703SOL    HW151550   5.076   6.475   6.259
16703SOL    HW251551   5.045   6.613   6.207
16704SOL     OW51552   4.521   6.865   6.997
16704SOL    HW151553   4.492   6.907   7.078
16704SOL    HW251554   4.445   6.872   6.938
16705SOL     OW51555   4.387   7.220   5.742
16705SOL    HW151556   4.400   7.234   5.648
16705SOL    HW251557   4.334   7.140   5.747
16706SOL     OW51558   5.338   7.314   6.985
16706SOL    HW151559   5.395   7.315   6.908
16706SOL    HW251560   5.323   7.406   7.005
16707SOL     OW51561   5.578   5.753   6.547
16707SOL    HW151562   5.599   5.661   6.530
16707SOL    HW251563   5.490   5.764   6.513
16708SOL     OW51564   3.987   5.907   6.307
16708SOL    HW151565   3.897   5.933   6.284
16708SOL    HW251566   3.985   5.895   6.402
16709SOL     OW51567   4.930   7.179   5.621
16709SOL    HW151568   4.914   7.088   5.645
16709SOL    HW251569   4.864   7.198   5.554
16710SOL     OW51570   4.545   6.588   6.973
16710SOL    HW151571   4.588   6.564   6.891
16710SOL    HW251572   4.545   6.683   6.974
16711SOL     OW51573   4.647   6.507   5.862
16711SOL    HW151574   4.717   6.542   5.807
16711SOL    HW251575   4.688   6.435   5.910
16712SOL     OW51576   5.204   7.202   5.605
16712SOL    HW151577   5.116   7.185   5.571
16712SOL    HW251578   5.256   7.218   5.526
16713SOL     OW51579   4.088   6.899   7.085
16713SOL    HW151580   4.078   6.970   7.022
16713SOL    HW251581   4.017   6.839   7.066
16714SOL     OW51582   5.347   6.877   6.877
16714SOL    HW151583   5.388   6.845   6.957
16714SOL    HW251584   5.278   6.937   6.908
16715SOL     OW51585   4.778   6.698   6.295
16715SOL    HW151586   4.710   6.643   6.333
16715SOL    HW251587   4.848   6.637   6.270
16716SOL     OW51588   4.751   5.830   6.537
16716SOL    HW151589   4.742   5.782   6.454
16716SOL    HW251590   4.739   5.764   6.605
16717SOL     OW51591   4.330   7.069   6.058
16717SOL    HW151592   4.383   7.020   5.995
16717SOL    HW251593   4.243   7.072   6.019
16718SOL     OW51594   5.453   5.987   6.965
16718SOL    HW151595   5.528   6.046   6.964
16718SOL    HW251596   5.480   5.913   6.911
16719SOL     OW51597   3.995   6.929   5.882
16719SOL    HW151598   3.905   6.921   5.851
16719SOL    HW251599   3.987   6.970   5.968
16720SOL     OW51600   3.842   6.642   7.321
16720SOL    HW151601   3.764   6.608   7.366
16720SOL    HW251602   3.913   6.587   7.352
16721SOL     OW51603   4.390   5.819   7.087
16721SOL    HW151604   4.469   5.793   7.039
16721SOL    HW251605   4.388   5.761   7.163
16722SOL     OW51606   3.777   5.931   5.656
16722SOL    HW151607   3.747   5.861   5.599
16722SOL    HW251608   3.820   5.994   5.597
16723SOL     OW51609   5.142   6.454   6.988
16723SOL    HW151610   5.095   6.512   6.929
16723SOL    HW251611   5.231   6.450   6.952
16724SOL     OW51612   3.788   5.755   5.881
16724SOL    HW151613   3.785   5.823   5.814
16724SOL    HW251614   3.876   5.719   5.875
16725SOL     OW51615   4.900   6.918   5.699
16725SOL    HW151616   4.831   6.853   5.707
16725SOL    HW251617   4.929   6.934   5.789
16726SOL     OW51618   4.343   6.412   7.031
16726SOL    HW151619   4.403   6.485   7.017
16726SOL    HW251620   4.399   6.335   7.032
16727SOL     OW51621   5.207   7.379   6.583
16727SOL    HW151622   5.233   7.437   6.512
16727SOL    HW251623   5.275   7.312   6.586
16728SOL     OW51624   4.483   6.126   7.295
16728SOL    HW151625   4.415   6.153   7.357
16728SOL    HW251626   4.495   6.032   7.311
16729SOL     OW51627   5.193   6.778   7.213
16729SOL    HW151628   5.181   6.794   7.307
16729SOL    HW251629   5.286   6.793   7.197
16730SOL     OW51630   4.090   7.326   7.159
16730SOL    HW151631   4.008   7.372   7.141
16730SOL    HW251632   4.062   7.242   7.197
16731SOL     OW51633   5.382   6.462   6.847
16731SOL    HW151634   5.377   6.374   6.810
16731SOL    HW251635   5.379   6.520   6.771
16732SOL     OW51636   4.965   5.922   6.029
16732SOL    HW151637   5.017   5.841   6.023
16732SOL    HW251638   4.991   5.960   6.112
16733SOL     OW51639   4.313   6.322   6.256
16733SOL    HW151640   4.349   6.408   6.235
16733SOL    HW251641   4.246   6.307   6.189
16734SOL     OW51642   5.468   5.954   7.247
16734SOL    HW151643   5.461   5.971   7.153
16734SOL    HW251644   5.401   5.888   7.264
16735SOL     OW51645   5.489   6.514   7.095
16735SOL    HW151646   5.459   6.604   7.110
16735SOL    HW251647   5.459   6.493   7.007
16736SOL     OW51648   4.566   6.954   5.635
16736SOL    HW151649   4.542   6.954   5.728
16736SOL    HW251650   4.584   7.046   5.615
16737SOL     OW51651   4.388   7.370   6.515
16737SOL    HW151652   4.373   7.463   6.500
16737SOL    HW251653   4.483   7.360   6.515
16738SOL     OW51654   4.593   6.554   6.440
16738SOL    HW151655   4.642   6.479   6.474
16738SOL    HW251656   4.549   6.591   6.517
16739SOL     OW51657   4.829   6.608   5.675
16739SOL    HW151658   4.789   6.634   5.592
16739SOL    HW251659   4.884   6.533   5.653
16740SOL     OW51660   5.570   7.137   6.428
16740SOL    HW151661   5.487   7.127   6.381
16740SOL    HW251662   5.577   7.058   6.481
16741SOL     OW51663   3.935   6.876   7.429
16741SOL    HW151664   3.903   6.798   7.384
16741SOL    HW251665   3.877   6.886   7.504
16742SOL     OW51666   3.824   6.817   6.249
16742SOL    HW151667   3.826   6.770   6.332
16742SOL    HW251668   3.887   6.771   6.194
16743SOL     OW51669   4.412   6.997   7.214
16743SOL    HW151670   4.335   6.954   7.252
16743SOL    HW251671   4.413   7.083   7.255
16744SOL     OW51672   5.541   5.778   6.819
16744SOL    HW151673   5.531   5.687   6.847
16744SOL    HW251674   5.551   5.774   6.724
16745SOL     OW51675   4.152   6.014   6.104
16745SOL    HW151676   4.190   5.942   6.053
16745SOL    HW251677   4.107   5.972   6.177
16746SOL     OW51678   5.406   7.077   6.688
16746SOL    HW151679   5.334   7.053   6.629
16746SOL    HW251680   5.406   7.007   6.754
16747SOL     OW51681   4.074   6.151   6.880
16747SOL    HW151682   4.121   6.088   6.935
16747SOL    HW251683   4.085   6.118   6.791
16748SOL     OW51684   4.553   7.162   6.264
16748SOL    HW151685   4.517   7.225   6.201
16748SOL    HW251686   4.482   7.099   6.277
16749SOL     OW51687   5.149   5.806   6.685
16749SOL    HW151688   5.153   5.711   6.698
16749SOL    HW251689   5.101   5.838   6.762
16750SOL     OW51690   4.726   5.624   6.717
16750SOL    HW151691   4.662   5.567   6.674
16750SOL    HW251692   4.807   5.572   6.720
16751SOL     OW51693   4.506   6.917   5.903
16751SOL    HW151694   4.478   6.826   5.916
16751SOL    HW251695   4.585   6.925   5.956
16752SOL     OW51696   4.343   7.148   6.871
16752SOL    HW151697   4.341   7.230   6.920
16752SOL    HW251698   4.432   7.141   6.839
16753SOL     OW51699   5.091   5.635   5.737
16753SOL    HW151700   5.133   5.556   5.703
16753SOL    HW251701   5.001   5.609   5.755
16754SOL     OW51702   5.039   6.058   6.265
16754SOL    HW151703   4.980   6.134   6.261
16754SOL    HW251704   5.018   6.016   6.349
16755SOL     OW51705   5.328   5.796   6.469
16755SOL    HW151706   5.262   5.796   6.538
16755SOL    HW251707   5.301   5.866   6.410
16756SOL     OW51708   3.766   6.644   5.892
16756SOL    HW151709   3.859   6.631   5.871
16756SOL    HW251710   3.734   6.557   5.914
16757SOL     OW51711   4.600   7.249   5.929
16757SOL    HW151712   4.524   7.233   5.873
16757SOL    HW251713   4.569   7.315   5.991
16758SOL     OW51714   3.950   6.209   7.563
16758SOL    HW151715   3.866   6.183   7.601
16758SOL    HW251716   3.945   6.180   7.472
16759SOL     OW51717   3.937   5.891   8.456
16759SOL    HW151718   3.979   5.841   8.526
16759SOL    HW251719   3.856   5.843   8.438
16760SOL     OW51720   3.723   5.970   8.094
16760SOL    HW151721   3.673   5.927   8.163
16760SOL    HW251722   3.711   5.914   8.017
16761SOL     OW51723   4.298   6.886   8.647
16761SOL    HW151724   4.217   6.882   8.597
16761SOL    HW251725   4.310   6.980   8.665
16762SOL     OW51726   5.304   7.116   8.158
16762SOL    HW151727   5.258   7.082   8.234
16762SOL    HW251728   5.239   7.115   8.088
16763SOL     OW51729   4.865   6.287   8.141
16763SOL    HW151730   4.910   6.372   8.131
16763SOL    HW251731   4.816   6.296   8.222
16764SOL     OW51732   5.482   6.189   7.685
16764SOL    HW151733   5.462   6.191   7.591
16764SOL    HW251734   5.468   6.099   7.712
16765SOL     OW51735   4.480   6.727   8.509
16765SOL    HW151736   4.413   6.764   8.568
16765SOL    HW251737   4.509   6.802   8.457
16766SOL     OW51738   4.636   6.374   9.289
16766SOL    HW151739   4.559   6.418   9.324
16766SOL    HW251740   4.636   6.398   9.196
16767SOL     OW51741   4.411   6.584   8.089
16767SOL    HW151742   4.475   6.574   8.159
16767SOL    HW251743   4.342   6.638   8.127
16768SOL     OW51744   4.432   6.734   9.271
16768SOL    HW151745   4.480   6.811   9.302
16768SOL    HW251746   4.354   6.770   9.229
16769SOL     OW51747   4.052   7.000   8.510
16769SOL    HW151748   3.979   6.956   8.466
16769SOL    HW251749   4.096   7.049   8.441
16770SOL     OW51750   5.181   7.081   8.815
16770SOL    HW151751   5.234   7.161   8.821
16770SOL    HW251752   5.114   7.092   8.881
16771SOL     OW51753   4.171   5.986   8.938
16771SOL    HW151754   4.251   5.933   8.936
16771SOL    HW251755   4.101   5.922   8.953
16772SOL     OW51756   5.323   6.026   8.188
16772SOL    HW151757   5.240   6.024   8.141
16772SOL    HW251758   5.341   6.119   8.202
16773SOL     OW51759   3.940   7.305   7.909
16773SOL    HW151760   3.968   7.377   7.966
16773SOL    HW251761   4.013   7.295   7.848
16774SOL     OW51762   4.857   6.929   9.155
16774SOL    HW151763   4.899   6.911   9.240
16774SOL    HW251764   4.805   6.850   9.138
16775SOL     OW51765   3.965   7.038   7.989
16775SOL    HW151766   3.936   7.129   7.986
16775SOL    HW251767   3.904   6.995   8.049
16776SOL     OW51768   4.006   6.674   8.352
16776SOL    HW151769   4.005   6.581   8.374
16776SOL    HW251770   3.934   6.711   8.404
16777SOL     OW51771   4.324   7.373   8.895
16777SOL    HW151772   4.239   7.357   8.936
16777SOL    HW251773   4.338   7.467   8.906
16778SOL     OW51774   4.294   6.572   7.592
16778SOL    HW151775   4.344   6.616   7.523
16778SOL    HW251776   4.333   6.604   7.674
16779SOL     OW51777   5.332   5.716   8.915
16779SOL    HW151778   5.285   5.775   8.856
16779SOL    HW251779   5.290   5.729   9.000
16780SOL     OW51780   3.843   6.239   8.007
16780SOL    HW151781   3.815   6.150   8.027
16780SOL    HW251782   3.835   6.286   8.090
16781SOL     OW51783   5.565   7.337   7.771
16781SOL    HW151784   5.637   7.315   7.830
16781SOL    HW251785   5.580   7.429   7.748
16782SOL     OW51786   3.774   7.173   7.565
16782SOL    HW151787   3.755   7.081   7.582
16782SOL    HW251788   3.741   7.219   7.642
16783SOL     OW51789   5.428   6.505   8.095
16783SOL    HW151790   5.486   6.448   8.045
16783SOL    HW251791   5.393   6.566   8.030
16784SOL     OW51792   5.373   6.692   7.902
16784SOL    HW151793   5.445   6.696   7.840
16784SOL    HW251794   5.391   6.762   7.964
16785SOL     OW51795   3.848   6.324   9.026
16785SOL    HW151796   3.938   6.354   9.024
16785SOL    HW251797   3.796   6.403   9.009
16786SOL     OW51798   4.332   6.979   8.192
16786SOL    HW151799   4.290   6.893   8.194
16786SOL    HW251800   4.324   7.008   8.101
16787SOL     OW51801   5.003   6.816   8.874
16787SOL    HW151802   5.026   6.750   8.809
16787SOL    HW251803   5.068   6.805   8.943
16788SOL     OW51804   4.554   5.607   7.980
16788SOL    HW151805   4.591   5.690   7.950
16788SOL    HW251806   4.460   5.623   7.982
16789SOL     OW51807   3.910   6.541   8.734
16789SOL    HW151808   3.997   6.505   8.720
16789SOL    HW251809   3.854   6.493   8.673
16790SOL     OW51810   5.209   6.592   7.641
16790SOL    HW151811   5.213   6.501   7.670
16790SOL    HW251812   5.296   6.611   7.606
16791SOL     OW51813   4.925   7.381   9.031
16791SOL    HW151814   4.993   7.416   8.973
16791SOL    HW251815   4.931   7.286   9.021
16792SOL     OW51816   4.066   5.844   9.308
16792SOL    HW151817   4.113   5.926   9.323
16792SOL    HW251818   3.974   5.867   9.322
16793SOL     OW51819   5.181   7.012   8.380
16793SOL    HW151820   5.119   7.022   8.453
16793SOL    HW251821   5.175   6.919   8.356
16794SOL     OW51822   5.371   7.358   8.020
16794SOL    HW151823   5.351   7.322   7.933
16794SOL    HW251824   5.360   7.283   8.079
16795SOL     OW51825   4.318   6.306   7.723
16795SOL    HW151826   4.310   6.391   7.679
16795SOL    HW251827   4.252   6.310   7.793
16796SOL     OW51828   5.006   5.958   8.383
16796SOL    HW151829   4.918   5.921   8.388
16796SOL    HW251830   5.060   5.897   8.433
16797SOL     OW51831   5.298   7.266   7.762
16797SOL    HW151832   5.392   7.280   7.751
16797SOL    HW251833   5.266   7.250   7.674
16798SOL     OW51834   4.514   6.200   8.900
16798SOL    HW151835   4.495   6.167   8.988
16798SOL    HW251836   4.486   6.131   8.841
16799SOL     OW51837   5.134   6.066   9.147
16799SOL    HW151838   5.146   6.061   9.242
16799SOL    HW251839   5.171   5.984   9.114
16800SOL     OW51840   4.676   6.469   9.034
16800SOL    HW151841   4.724   6.396   8.994
16800SOL    HW251842   4.622   6.504   8.963
16801SOL     OW51843   4.724   5.994   8.666
16801SOL    HW151844   4.636   5.995   8.703
16801SOL    HW251845   4.719   5.933   8.592
16802SOL     OW51846   4.764   6.314   7.878
16802SOL    HW151847   4.782   6.287   7.968
16802SOL    HW251848   4.696   6.253   7.848
16803SOL     OW51849   3.814   6.401   8.228
16803SOL    HW151850   3.894   6.392   8.280
16803SOL    HW251851   3.770   6.477   8.265
16804SOL     OW51852   3.823   7.420   9.012
16804SOL    HW151853   3.835   7.427   9.107
16804SOL    HW251854   3.746   7.362   9.003
16805SOL     OW51855   4.583   5.899   7.659
16805SOL    HW151856   4.629   5.885   7.576
16805SOL    HW251857   4.504   5.846   7.652
16806SOL     OW51858   5.422   6.166   9.274
16806SOL    HW151859   5.393   6.234   9.212
16806SOL    HW251860   5.442   6.090   9.219
16807SOL     OW51861   5.105   6.719   7.968
16807SOL    HW151862   5.188   6.704   7.923
16807SOL    HW251863   5.059   6.783   7.913
16808SOL     OW51864   4.223   5.775   8.333
16808SOL    HW151865   4.263   5.797   8.417
16808SOL    HW251866   4.245   5.849   8.276
16809SOL     OW51867   4.727   7.041   7.921
16809SOL    HW151868   4.696   7.110   7.863
16809SOL    HW251869   4.689   7.063   8.006
16810SOL     OW51870   4.080   7.406   8.328
16810SOL    HW151871   4.127   7.323   8.331
16810SOL    HW251872   4.148   7.473   8.336
16811SOL     OW51873   5.535   6.639   8.319
16811SOL    HW151874   5.492   6.609   8.240
16811SOL    HW251875   5.467   6.638   8.386
16812SOL     OW51876   4.950   7.117   8.970
16812SOL    HW151877   4.942   7.047   9.036
16812SOL    HW251878   4.895   7.087   8.898
16813SOL     OW51879   4.027   6.544   7.703
16813SOL    HW151880   4.108   6.563   7.656
16813SOL    HW251881   3.998   6.460   7.668
16814SOL     OW51882   5.199   6.366   8.190
16814SOL    HW151883   5.206   6.306   8.264
16814SOL    HW251884   5.289   6.394   8.173
16815SOL     OW51885   4.194   6.865   9.191
16815SOL    HW151886   4.166   6.872   9.099
16815SOL    HW251887   4.113   6.853   9.240
16816SOL     OW51888   4.855   7.361   7.676
16816SOL    HW151889   4.775   7.326   7.715
16816SOL    HW251890   4.877   7.297   7.608
16817SOL     OW51891   3.925   5.846   8.960
16817SOL    HW151892   3.842   5.873   8.920
16817SOL    HW251893   3.910   5.757   8.991
16818SOL     OW51894   5.362   6.992   7.548
16818SOL    HW151895   5.301   7.062   7.522
16818SOL    HW251896   5.318   6.911   7.523
16819SOL     OW51897   4.183   7.327   7.760
16819SOL    HW151898   4.234   7.373   7.826
16819SOL    HW251899   4.248   7.283   7.705
16820SOL     OW51900   5.123   5.690   7.868
16820SOL    HW151901   5.098   5.671   7.777
16820SOL    HW251902   5.197   5.631   7.885
16821SOL     OW51903   3.985   7.388   8.678
16821SOL    HW151904   4.029   7.306   8.701
16821SOL    HW251905   3.978   7.386   8.582
16822SOL     OW51906   4.670   7.283   8.338
16822SOL    HW151907   4.757   7.244   8.340
16822SOL    HW251908   4.623   7.235   8.270
16823SOL     OW51909   4.122   6.275   7.923
16823SOL    HW151910   4.141   6.182   7.935
16823SOL    HW251911   4.027   6.281   7.936
16824SOL     OW51912   5.221   5.794   9.163
16824SOL    HW151913   5.230   5.813   9.256
16824SOL    HW251914   5.160   5.721   9.158
16825SOL     OW51915   4.373   5.690   7.550
16825SOL    HW151916   4.411   5.605   7.570
16825SOL    HW251917   4.321   5.675   7.471
16826SOL     OW51918   4.519   5.870   9.230
16826SOL    HW151919   4.593   5.816   9.205
16826SOL    HW251920   4.460   5.811   9.277
16827SOL     OW51921   4.597   7.112   8.647
16827SOL    HW151922   4.582   7.076   8.559
16827SOL    HW251923   4.670   7.062   8.682
16828SOL     OW51924   5.063   6.177   8.882
16828SOL    HW151925   5.118   6.141   8.952
16828SOL    HW251926   5.103   6.261   8.860
16829SOL     OW51927   4.538   6.979   8.397
16829SOL    HW151928   4.624   6.967   8.356
16829SOL    HW251929   4.478   6.984   8.323
16830SOL     OW51930   4.651   6.098   8.345
16830SOL    HW151931   4.632   6.086   8.252
16830SOL    HW251932   4.680   6.011   8.374
16831SOL     OW51933   4.292   5.677   7.968
16831SOL    HW151934   4.204   5.655   7.999
16831SOL    HW251935   4.277   5.730   7.890
16832SOL     OW51936   5.145   6.811   7.481
16832SOL    HW151937   5.172   6.732   7.530
16832SOL    HW251938   5.062   6.836   7.520
16833SOL     OW51939   4.011   5.639   7.643
16833SOL    HW151940   4.060   5.690   7.579
16833SOL    HW251941   4.076   5.580   7.681
16834SOL     OW51942   4.675   5.854   7.913
16834SOL    HW151943   4.646   5.865   7.823
16834SOL    HW251944   4.771   5.859   7.908
16835SOL     OW51945   4.798   6.266   8.902
16835SOL    HW151946   4.728   6.200   8.905
16835SOL    HW251947   4.878   6.215   8.894
16836SOL     OW51948   4.925   7.178   8.255
16836SOL    HW151949   4.946   7.237   8.183
16836SOL    HW251950   5.010   7.158   8.295
16837SOL     OW51951   4.197   6.742   8.171
16837SOL    HW151952   4.133   6.718   8.238
16837SOL    HW251953   4.150   6.730   8.088
16838SOL     OW51954   4.982   7.380   8.067
16838SOL    HW151955   5.031   7.435   8.006
16838SOL    HW251956   4.912   7.436   8.099
16839SOL     OW51957   3.818   6.135   8.832
16839SOL    HW151958   3.910   6.134   8.806
16839SOL    HW251959   3.813   6.201   8.900
16840SOL     OW51960   4.302   5.813   8.602
16840SOL    HW151961   4.349   5.731   8.583
16840SOL    HW251962   4.219   5.785   8.639
16841SOL     OW51963   4.591   6.053   8.086
16841SOL    HW151964   4.514   6.084   8.037
16841SOL    HW251965   4.622   5.978   8.036
16842SOL     OW51966   4.735   5.630   8.196
16842SOL    HW151967   4.674   5.620   8.123
16842SOL    HW251968   4.718   5.555   8.253
16843SOL     OW51969   5.171   6.748   8.298
16843SOL    HW151970   5.102   6.683   8.279
16843SOL    HW251971   5.219   6.756   8.216
16844SOL     OW51972   5.183   6.201   8.418
16844SOL    HW151973   5.130   6.122   8.410
16844SOL    HW251974   5.242   6.183   8.491
16845SOL     OW51975   5.558   6.397   7.851
16845SOL    HW151976   5.621   6.341   7.897
16845SOL    HW251977   5.531   6.345   7.775
16846SOL     OW51978   4.215   7.010   7.595
16846SOL    HW151979   4.142   6.976   7.646
16846SOL    HW251980   4.214   6.958   7.514
16847SOL     OW51981   5.405   6.860   8.115
16847SOL    HW151982   5.501   6.857   8.114
16847SOL    HW251983   5.384   6.953   8.115
16848SOL     OW51984   5.135   6.162   7.520
16848SOL    HW151985   5.101   6.103   7.587
16848SOL    HW251986   5.229   6.144   7.517
16849SOL     OW51987   4.261   5.850   7.753
16849SOL    HW151988   4.287   5.788   7.685
16849SOL    HW251989   4.229   5.926   7.705
16850SOL     OW51990   5.468   6.829   9.011
16850SOL    HW151991   5.556   6.794   8.998
16850SOL    HW251992   5.483   6.920   9.039
16851SOL     OW51993   4.777   6.968   8.813
16851SOL    HW151994   4.698   6.919   8.835
16851SOL    HW251995   4.848   6.905   8.829
16852SOL     OW51996   5.331   7.223   9.113
16852SOL    HW151997   5.321   7.253   9.023
16852SOL    HW251998   5.411   7.170   9.112
16853SOL     OW51999   4.860   6.815   8.551
16853SOL    HW152000   4.774   6.784   8.580
16853SOL    HW252001   4.845   6.846   8.462
16854SOL     OW52002   5.343   6.670   8.518
16854SOL    HW152003   5.331   6.735   8.587
16854SOL    HW252004   5.271   6.687   8.456
16855SOL     OW52005   4.619   5.728   8.819
16855SOL    HW152006   4.639   5.677   8.741
16855SOL    HW252007   4.702   5.733   8.867
16856SOL     OW52008   4.699   6.703   9.168
16856SOL    HW152009   4.606   6.715   9.188
16856SOL    HW252010   4.701   6.625   9.113
16857SOL     OW52011   4.429   6.655   7.820
16857SOL    HW152012   4.417   6.629   7.911
16857SOL    HW252013   4.505   6.606   7.790
16858SOL     OW52014   4.149   6.411   8.705
16858SOL    HW152015   4.218   6.415   8.771
16858SOL    HW252016   4.118   6.320   8.708
16859SOL     OW52017   4.989   5.953   8.727
16859SOL    HW152018   5.016   6.034   8.770
16859SOL    HW252019   4.899   5.970   8.698
16860SOL     OW52020   3.803   7.159   8.811
16860SOL    HW152021   3.763   7.210   8.740
16860SOL    HW252022   3.896   7.155   8.788
16861SOL     OW52023   4.050   6.710   7.938
16861SOL    HW152024   4.054   6.779   7.871
16861SOL    HW252025   4.048   6.629   7.888
16862SOL     OW52026   4.273   6.126   8.311
16862SOL    HW152027   4.285   6.185   8.237
16862SOL    HW252028   4.358   6.125   8.355
16863SOL     OW52029   4.969   6.939   7.840
16863SOL    HW152030   5.028   7.005   7.875
16863SOL    HW252031   4.883   6.962   7.875
16864SOL     OW52032   5.014   7.047   8.594
16864SOL    HW152033   5.068   7.043   8.673
16864SOL    HW252034   4.958   6.970   8.598
16865SOL     OW52035   5.310   6.203   7.934
16865SOL    HW152036   5.236   6.263   7.948
16865SOL    HW252037   5.362   6.245   7.865
16866SOL     OW52038   4.069   7.127   8.743
16866SOL    HW152039   4.057   7.077   8.663
16866SOL    HW252040   4.164   7.134   8.753
16867SOL     OW52041   4.134   6.327   9.050
16867SOL    HW152042   4.205   6.363   8.996
16867SOL    HW252043   4.147   6.232   9.046
16868SOL     OW52044   5.320   6.371   9.112
16868SOL    HW152045   5.250   6.421   9.069
16868SOL    HW252046   5.399   6.393   9.062
16869SOL     OW52047   4.727   5.701   9.190
16869SOL    HW152048   4.799   5.708   9.128
16869SOL    HW252049   4.719   5.607   9.207
16870SOL     OW52050   4.220   5.654   9.186
16870SOL    HW152051   4.179   5.586   9.132
16870SOL    HW252052   4.148   5.714   9.207
16871SOL     OW52053   4.311   6.457   8.480
16871SOL    HW152054   4.342   6.548   8.488
16871SOL    HW252055   4.253   6.446   8.555
16872SOL     OW52056   5.057   6.440   8.480
16872SOL    HW152057   4.978   6.427   8.427
16872SOL    HW252058   5.110   6.362   8.463
16873SOL     OW52059   4.907   6.109   7.705
16873SOL    HW152060   4.910   6.027   7.754
16873SOL    HW252061   4.944   6.174   7.765
16874SOL     OW52062   4.035   5.767   8.689
16874SOL    HW152063   4.003   5.785   8.778
16874SOL    HW252064   4.030   5.672   8.682
16875SOL     OW52065   3.771   6.895   8.719
16875SOL    HW152066   3.803   6.834   8.786
16875SOL    HW252067   3.774   6.981   8.761
16876SOL     OW52068   4.468   6.224   8.515
16876SOL    HW152069   4.530   6.197   8.447
16876SOL    HW252070   4.424   6.300   8.478
16877SOL     OW52071   5.458   6.551   9.301
16877SOL    HW152072   5.414   6.486   9.247
16877SOL    HW252073   5.401   6.562   9.377
16878SOL     OW52074   4.037   5.645   8.070
16878SOL    HW152075   4.016   5.735   8.094
16878SOL    HW252076   4.041   5.598   8.154
16879SOL     OW52077   5.346   5.957   7.812
16879SOL    HW152078   5.365   5.889   7.876
16879SOL    HW252079   5.325   6.034   7.865
16880SOL     OW52080   4.752   6.346   8.404
16880SOL    HW152081   4.741   6.361   8.498
16880SOL    HW252082   4.727   6.255   8.391
16881SOL     OW52083   4.713   7.159   9.175
16881SOL    HW152084   4.683   7.194   9.090
16881SOL    HW252085   4.750   7.073   9.154
16882SOL     OW52086   5.568   7.090   9.055
16882SOL    HW152087   5.593   7.113   8.966
16882SOL    HW252088   5.648   7.099   9.106
16883SOL     OW52089   4.072   6.489   9.262
16883SOL    HW152090   4.156   6.510   9.302
16883SOL    HW252091   4.093   6.429   9.190
16884SOL     OW52092   5.230   5.865   7.572
16884SOL    HW152093   5.178   5.788   7.595
16884SOL    HW252094   5.273   5.889   7.654
16885SOL     OW52095   4.975   6.373   7.458
16885SOL    HW152096   5.044   6.312   7.484
16885SOL    HW252097   5.013   6.423   7.385
16886SOL     OW52098   4.791   6.931   8.309
16886SOL    HW152099   4.794   6.857   8.248
16886SOL    HW252100   4.841   7.000   8.266
16887SOL     OW52101   4.035   6.397   8.394
16887SOL    HW152102   4.129   6.407   8.379
16887SOL    HW252103   4.026   6.307   8.425
16888SOL     OW52104   4.056   6.128   8.465
16888SOL    HW152105   4.017   6.041   8.455
16888SOL    HW252106   4.133   6.125   8.408
16889SOL     OW52107   4.866   6.009   9.089
16889SOL    HW152108   4.818   6.046   9.163
16889SOL    HW252109   4.958   6.022   9.111
16890SOL     OW52110   4.871   5.789   8.928
16890SOL    HW152111   4.858   5.866   8.983
16890SOL    HW252112   4.913   5.823   8.849
16891SOL     OW52113   3.743   6.898   7.637
16891SOL    HW152114   3.654   6.916   7.608
16891SOL    HW252115   3.739   6.810   7.675
16892SOL     OW52116   3.819   7.363   8.403
16892SOL    HW152117   3.786   7.286   8.357
16892SOL    HW252118   3.906   7.378   8.365
16893SOL     OW52119   4.220   7.170   8.356
16893SOL    HW152120   4.294   7.223   8.386
16893SOL    HW252121   4.258   7.105   8.297
16894SOL     OW52122   4.679   6.377   8.672
16894SOL    HW152123   4.730   6.344   8.745
16894SOL    HW252124   4.607   6.314   8.663
16895SOL     OW52125   3.757   6.149   8.557
16895SOL    HW152126   3.819   6.105   8.499
16895SOL    HW252127   3.795   6.138   8.645
16896SOL     OW52128   3.918   6.087   9.160
16896SOL    HW152129   3.945   6.025   9.093
16896SOL    HW252130   3.885   6.163   9.112
16897SOL     OW52131   5.068   6.501   9.112
16897SOL    HW152132   5.093   6.593   9.125
16897SOL    HW252133   5.064   6.490   9.018
16898SOL     OW52134   4.572   6.170   7.744
16898SOL    HW152135   4.561   6.078   7.724
16898SOL    HW252136   4.483   6.207   7.740
16899SOL     OW52137   5.364   6.188   8.632
16899SOL    HW152138   5.362   6.121   8.700
16899SOL    HW252139   5.450   6.178   8.591
16900SOL     OW52140   3.961   7.126   9.183
16900SOL    HW152141   3.930   7.171   9.262
16900SOL    HW252142   3.970   7.035   9.209
16901SOL     OW52143   4.443   6.028   8.706
16901SOL    HW152144   4.394   5.950   8.678
16901SOL    HW252145   4.436   6.088   8.631
16902SOL     OW52146   4.626   7.273   8.934
16902SOL    HW152147   4.627   7.198   8.874
16902SOL    HW252148   4.610   7.349   8.878
16903SOL     OW52149   4.188   6.082   7.625
16903SOL    HW152150   4.242   6.156   7.656
16903SOL    HW252151   4.102   6.121   7.609
16904SOL     OW52152   3.865   6.729   8.924
16904SOL    HW152153   3.868   6.683   9.009
16904SOL    HW252154   3.880   6.660   8.860
16905SOL     OW52155   5.034   6.629   8.671
16905SOL    HW152156   5.051   6.561   8.606
16905SOL    HW252157   4.978   6.693   8.625
16906SOL     OW52158   5.011   6.381   7.772
16906SOL    HW152159   4.929   6.381   7.821
16906SOL    HW252160   5.012   6.465   7.727
16907SOL     OW52161   5.519   7.316   8.622
16907SOL    HW152162   5.575   7.340   8.548
16907SOL    HW252163   5.477   7.234   8.594
16908SOL     OW52164   4.967   7.323   8.575
16908SOL    HW152165   5.047   7.350   8.530
16908SOL    HW252166   4.974   7.227   8.582
16909SOL     OW52167   3.799   6.870   8.446
16909SOL    HW152168   3.781   6.873   8.540
16909SOL    HW252169   3.741   6.800   8.413
16910SOL     OW52170   4.411   7.269   9.180
16910SOL    HW152171   4.344   7.337   9.169
16910SOL    HW252172   4.459   7.269   9.097
16911SOL     OW52173   5.500   5.731   7.974
16911SOL    HW152174   5.556   5.739   7.897
16911SOL    HW252175   5.468   5.641   7.972
16912SOL     OW52176   5.122   7.154   7.949
16912SOL    HW152177   5.175   7.185   7.876
16912SOL    HW252178   5.065   7.228   7.970
16913SOL     OW52179   3.860   7.406   9.279
16913SOL    HW152180   3.818   7.330   9.320
16913SOL    HW252181   3.909   7.447   9.350
16914SOL     OW52182   5.000   6.533   8.131
16914SOL    HW152183   5.072   6.472   8.148
16914SOL    HW252184   5.034   6.593   8.065
16915SOL     OW52185   4.520   6.867   8.853
16915SOL    HW152186   4.489   6.908   8.933
16915SOL    HW252187   4.446   6.873   8.793
16916SOL     OW52188   4.391   7.215   7.603
16916SOL    HW152189   4.406   7.230   7.509
16916SOL    HW252190   4.336   7.137   7.606
16917SOL     OW52191   5.334   7.313   8.845
16917SOL    HW152192   5.394   7.312   8.770
16917SOL    HW252193   5.318   7.406   8.861
16918SOL     OW52194   3.987   5.903   8.164
16918SOL    HW152195   3.898   5.932   8.142
16918SOL    HW252196   3.987   5.894   8.259
16919SOL     OW52197   4.928   7.181   7.483
16919SOL    HW152198   4.920   7.090   7.511
16919SOL    HW252199   4.862   7.193   7.416
16920SOL     OW52200   4.544   6.588   8.829
16920SOL    HW152201   4.585   6.557   8.748
16920SOL    HW252202   4.545   6.683   8.823
16921SOL     OW52203   4.642   6.519   7.737
16921SOL    HW152204   4.710   6.547   7.675
16921SOL    HW252205   4.684   6.451   7.789
16922SOL     OW52206   5.200   7.244   7.498
16922SOL    HW152207   5.110   7.217   7.480
16922SOL    HW252208   5.244   7.241   7.413
16923SOL     OW52209   4.083   6.904   8.948
16923SOL    HW152210   4.080   6.968   8.877
16923SOL    HW252211   4.014   6.841   8.928
16924SOL     OW52212   5.323   6.864   8.717
16924SOL    HW152213   5.395   6.852   8.779
16924SOL    HW252214   5.266   6.930   8.759
16925SOL     OW52215   4.785   6.703   8.170
16925SOL    HW152216   4.713   6.648   8.199
16925SOL    HW252217   4.854   6.641   8.144
16926SOL     OW52218   4.752   5.826   8.410
16926SOL    HW152219   4.743   5.780   8.327
16926SOL    HW252220   4.742   5.758   8.477
16927SOL     OW52221   4.336   7.077   7.936
16927SOL    HW152222   4.389   7.026   7.875
16927SOL    HW252223   4.252   7.089   7.890
16928SOL     OW52224   5.455   5.994   8.829
16928SOL    HW152225   5.534   6.047   8.825
16928SOL    HW252226   5.476   5.915   8.779
16929SOL     OW52227   4.003   6.923   7.751
16929SOL    HW152228   3.914   6.918   7.714
16929SOL    HW252229   3.992   6.968   7.835
16930SOL     OW52230   3.848   6.634   9.191
16930SOL    HW152231   3.770   6.599   9.234
16930SOL    HW252232   3.919   6.576   9.219
16931SOL     OW52233   4.389   5.812   8.944
16931SOL    HW152234   4.465   5.790   8.891
16931SOL    HW252235   4.415   5.792   9.034
16932SOL     OW52236   3.788   5.913   7.496
16932SOL    HW152237   3.723   5.862   7.448
16932SOL    HW252238   3.811   5.984   7.436
16933SOL     OW52239   5.152   6.450   8.853
16933SOL    HW152240   5.097   6.504   8.797
16933SOL    HW252241   5.237   6.449   8.811
16934SOL     OW52242   3.788   5.757   7.740
16934SOL    HW152243   3.775   5.819   7.668
16934SOL    HW252244   3.871   5.714   7.721
16935SOL     OW52245   4.901   6.920   7.570
16935SOL    HW152246   4.817   6.874   7.568
16935SOL    HW252247   4.927   6.917   7.663
16936SOL     OW52248   4.345   6.412   8.894
16936SOL    HW152249   4.404   6.484   8.875
16936SOL    HW252250   4.400   6.334   8.895
16937SOL     OW52251   5.206   7.388   8.450
16937SOL    HW152252   5.229   7.437   8.371
16937SOL    HW252253   5.277   7.324   8.460
16938SOL     OW52254   4.464   6.129   9.157
16938SOL    HW152255   4.469   6.166   9.245
16938SOL    HW252256   4.473   6.035   9.169
16939SOL     OW52257   5.197   6.765   9.079
16939SOL    HW152258   5.191   6.785   9.172
16939SOL    HW252259   5.287   6.785   9.055
16940SOL     OW52260   4.086   7.326   9.029
16940SOL    HW152261   3.996   7.355   9.014
16940SOL    HW252262   4.076   7.239   9.069
16941SOL     OW52263   5.385   6.460   8.707
16941SOL    HW152264   5.382   6.373   8.668
16941SOL    HW252265   5.375   6.520   8.633
16942SOL     OW52266   4.952   5.912   7.897
16942SOL    HW152267   5.011   5.837   7.886
16942SOL    HW252268   4.983   5.955   7.977
16943SOL     OW52269   4.309   6.322   8.123
16943SOL    HW152270   4.349   6.406   8.101
16943SOL    HW252271   4.245   6.308   8.054
16944SOL     OW52272   5.455   5.953   9.105
16944SOL    HW152273   5.455   5.966   9.010
16944SOL    HW252274   5.398   5.878   9.120
16945SOL     OW52275   5.498   6.510   8.954
16945SOL    HW152276   5.481   6.603   8.967
16945SOL    HW252277   5.472   6.493   8.864
16946SOL     OW52278   4.582   6.953   7.495
16946SOL    HW152279   4.549   6.988   7.578
16946SOL    HW252280   4.607   7.031   7.444
16947SOL     OW52281   4.399   7.382   8.410
16947SOL    HW152282   4.379   7.465   8.366
16947SOL    HW252283   4.489   7.361   8.382
16948SOL     OW52284   4.591   6.558   8.303
16948SOL    HW152285   4.640   6.481   8.333
16948SOL    HW252286   4.553   6.595   8.383
16949SOL     OW52287   4.828   6.593   7.550
16949SOL    HW152288   4.788   6.633   7.473
16949SOL    HW252289   4.888   6.528   7.515
16950SOL     OW52290   5.573   7.138   8.291
16950SOL    HW152291   5.492   7.126   8.241
16950SOL    HW252292   5.590   7.052   8.330
16951SOL     OW52293   3.937   6.872   9.290
16951SOL    HW152294   3.905   6.793   9.248
16951SOL    HW252295   3.875   6.888   9.362
16952SOL     OW52296   3.816   6.820   8.108
16952SOL    HW152297   3.821   6.765   8.187
16952SOL    HW252298   3.877   6.781   8.047
16953SOL     OW52299   4.410   6.999   9.072
16953SOL    HW152300   4.336   6.951   9.108
16953SOL    HW252301   4.415   7.079   9.124
16954SOL     OW52302   5.537   5.776   8.684
16954SOL    HW152303   5.545   5.688   8.720
16954SOL    HW252304   5.504   5.763   8.596
16955SOL     OW52305   4.166   6.015   7.973
16955SOL    HW152306   4.195   5.948   7.912
16955SOL    HW252307   4.112   5.968   8.037
16956SOL     OW52308   5.396   7.086   8.549
16956SOL    HW152309   5.330   7.061   8.485
16956SOL    HW252310   5.406   7.008   8.605
16957SOL     OW52311   4.072   6.151   8.742
16957SOL    HW152312   4.121   6.088   8.795
16957SOL    HW252313   4.083   6.120   8.652
16958SOL     OW52314   4.550   7.183   8.114
16958SOL    HW152315   4.544   7.261   8.060
16958SOL    HW252316   4.476   7.129   8.087
16959SOL     OW52317   5.150   5.796   8.555
16959SOL    HW152318   5.124   5.704   8.565
16959SOL    HW252319   5.100   5.843   8.622
16960SOL     OW52320   4.735   5.611   8.584
16960SOL    HW152321   4.670   5.552   8.547
16960SOL    HW252322   4.816   5.560   8.585
16961SOL     OW52323   4.498   6.923   7.782
16961SOL    HW152324   4.468   6.832   7.782
16961SOL    HW252325   4.586   6.919   7.820
16962SOL     OW52326   4.342   7.150   8.735
16962SOL    HW152327   4.346   7.228   8.790
16962SOL    HW252328   4.430   7.140   8.700
16963SOL     OW52329   5.082   5.631   7.606
16963SOL    HW152330   5.123   5.558   7.560
16963SOL    HW252331   4.993   5.601   7.623
16964SOL     OW52332   5.034   6.053   8.126
16964SOL    HW152333   4.978   6.131   8.125
16964SOL    HW252334   5.020   6.015   8.212
16965SOL     OW52335   5.356   5.791   8.338
16965SOL    HW152336   5.288   5.794   8.405
16965SOL    HW252337   5.346   5.873   8.290
16966SOL     OW52338   3.767   6.650   7.763
16966SOL    HW152339   3.859   6.639   7.737
16966SOL    HW252340   3.737   6.562   7.783
16967SOL     OW52341   4.615   7.250   7.777
16967SOL    HW152342   4.539   7.232   7.722
16967SOL    HW252343   4.583   7.315   7.840
16968SOL     OW52344   3.917   6.191   9.440
16968SOL    HW152345   3.858   6.124   9.406
16968SOL    HW252346   3.975   6.211   9.366
16969SOL     OW52347   3.930   5.891  10.321
16969SOL    HW152348   3.979   5.833  10.378
16969SOL    HW252349   3.858   5.838  10.288
16970SOL     OW52350   3.706   5.999   9.931
16970SOL    HW152351   3.622   5.969   9.965
16970SOL    HW252352   3.759   5.920   9.923
16971SOL     OW52353   4.295   6.890  10.504
16971SOL    HW152354   4.211   6.895  10.459
16971SOL    HW252355   4.312   6.980  10.533
16972SOL     OW52356   5.307   7.104  10.019
16972SOL    HW152357   5.261   7.076  10.098
16972SOL    HW252358   5.239   7.105   9.951
16973SOL     OW52359   4.862   6.284  10.005
16973SOL    HW152360   4.906   6.367   9.990
16973SOL    HW252361   4.816   6.295  10.088
16974SOL     OW52362   5.494   6.184   9.534
16974SOL    HW152363   5.469   6.181   9.442
16974SOL    HW252364   5.460   6.102   9.571
16975SOL     OW52365   4.459   6.721  10.362
16975SOL    HW152366   4.397   6.762  10.423
16975SOL    HW252367   4.503   6.794  10.319
16976SOL     OW52368   4.603   6.338  11.135
16976SOL    HW152369   4.595   6.409  11.199
16976SOL    HW252370   4.624   6.383  11.053
16977SOL     OW52371   4.423   6.607   9.947
16977SOL    HW152372   4.485   6.591  10.018
16977SOL    HW252373   4.349   6.652   9.990
16978SOL     OW52374   4.437   6.734  11.134
16978SOL    HW152375   4.486   6.810  11.166
16978SOL    HW252376   4.360   6.771  11.093
16979SOL     OW52377   4.058   6.995  10.377
16979SOL    HW152378   3.982   6.955  10.335
16979SOL    HW252379   4.098   7.047  10.308
16980SOL     OW52380   5.180   7.088  10.677
16980SOL    HW152381   5.234   7.166  10.686
16980SOL    HW252382   5.110   7.100  10.741
16981SOL     OW52383   4.171   5.972  10.790
16981SOL    HW152384   4.258   5.931  10.789
16981SOL    HW252385   4.114   5.907  10.831
16982SOL     OW52386   5.320   6.025  10.057
16982SOL    HW152387   5.248   6.032   9.994
16982SOL    HW252388   5.309   6.099  10.115
16983SOL     OW52389   3.938   7.310   9.775
16983SOL    HW152390   3.964   7.381   9.833
16983SOL    HW252391   4.012   7.300   9.715
16984SOL     OW52392   4.862   6.928  11.007
16984SOL    HW152393   4.904   6.918  11.092
16984SOL    HW252394   4.810   6.849  10.996
16985SOL     OW52395   3.961   7.039   9.850
16985SOL    HW152396   3.934   7.131   9.851
16985SOL    HW252397   3.905   6.997   9.915
16986SOL     OW52398   3.994   6.679  10.194
16986SOL    HW152399   4.003   6.590  10.229
16986SOL    HW252400   3.939   6.724  10.258
16987SOL     OW52401   4.313   7.381  10.730
16987SOL    HW152402   4.235   7.361  10.782
16987SOL    HW252403   4.342   7.467  10.761
16988SOL     OW52404   4.294   6.579   9.457
16988SOL    HW152405   4.343   6.622   9.387
16988SOL    HW252406   4.337   6.609   9.537
16989SOL     OW52407   5.319   5.715  10.772
16989SOL    HW152408   5.341   5.793  10.722
16989SOL    HW252409   5.295   5.747  10.859
16990SOL     OW52410   3.786   6.251   9.881
16990SOL    HW152411   3.757   6.164   9.910
16990SOL    HW252412   3.799   6.300   9.962
16991SOL     OW52413   5.567   7.339   9.640
16991SOL    HW152414   5.640   7.315   9.697
16991SOL    HW252415   5.585   7.429   9.613
16992SOL     OW52416   3.784   7.182   9.416
16992SOL    HW152417   3.762   7.090   9.435
16992SOL    HW252418   3.750   7.230   9.492
16993SOL     OW52419   5.424   6.511   9.961
16993SOL    HW152420   5.501   6.460   9.937
16993SOL    HW252421   5.399   6.557   9.881
16994SOL     OW52422   5.371   6.684   9.735
16994SOL    HW152423   5.456   6.678   9.691
16994SOL    HW252424   5.384   6.749   9.803
16995SOL     OW52425   3.847   6.336  10.904
16995SOL    HW152426   3.936   6.370  10.901
16995SOL    HW252427   3.792   6.413  10.895
16996SOL     OW52428   4.346   6.982  10.043
16996SOL    HW152429   4.301   6.898  10.050
16996SOL    HW252430   4.329   7.010   9.953
16997SOL     OW52431   5.004   6.819  10.729
16997SOL    HW152432   5.032   6.750  10.668
16997SOL    HW252433   5.065   6.812  10.802
16998SOL     OW52434   4.552   5.627   9.875
16998SOL    HW152435   4.583   5.699   9.821
16998SOL    HW252436   4.458   5.623   9.858
16999SOL     OW52437   3.910   6.549  10.597
16999SOL    HW152438   3.996   6.508  10.584
16999SOL    HW252439   3.857   6.517  10.525
17000SOL     OW52440   5.239   6.577   9.506
17000SOL    HW152441   5.172   6.515   9.535
17000SOL    HW252442   5.283   6.604   9.587
17001SOL     OW52443   4.906   7.399  10.942
17001SOL    HW152444   4.910   7.461  10.869
17001SOL    HW252445   4.922   7.314  10.902
17002SOL     OW52446   4.074   5.839  11.153
17002SOL    HW152447   4.116   5.918  11.187
17002SOL    HW252448   3.980   5.852  11.170
17003SOL     OW52449   5.188   7.007  10.246
17003SOL    HW152450   5.126   7.022  10.317
17003SOL    HW252451   5.176   6.915  10.223
17004SOL     OW52452   5.368   7.356   9.887
17004SOL    HW152453   5.352   7.320   9.799
17004SOL    HW252454   5.361   7.281   9.945
17005SOL     OW52455   4.304   6.306   9.561
17005SOL    HW152456   4.309   6.395   9.525
17005SOL    HW252457   4.251   6.315   9.640
17006SOL     OW52458   5.000   5.966  10.248
17006SOL    HW152459   4.912   5.928  10.252
17006SOL    HW252460   5.054   5.909  10.303
17007SOL     OW52461   5.301   7.265   9.623
17007SOL    HW152462   5.394   7.284   9.617
17007SOL    HW252463   5.273   7.248   9.533
17008SOL     OW52464   4.511   6.201  10.762
17008SOL    HW152465   4.484   6.171  10.848
17008SOL    HW252466   4.484   6.131  10.703
17009SOL     OW52467   5.116   6.061  10.987
17009SOL    HW152468   5.121   6.103  11.072
17009SOL    HW252469   5.168   5.981  10.996
17010SOL     OW52470   4.672   6.467  10.900
17010SOL    HW152471   4.726   6.400  10.857
17010SOL    HW252472   4.620   6.505  10.829
17011SOL     OW52473   4.721   5.993  10.532
17011SOL    HW152474   4.630   6.001  10.559
17011SOL    HW252475   4.717   5.946  10.449
17012SOL     OW52476   4.768   6.295   9.737
17012SOL    HW152477   4.781   6.278   9.830
17012SOL    HW252478   4.688   6.247   9.715
17013SOL     OW52479   3.812   6.419  10.094
17013SOL    HW152480   3.896   6.411  10.138
17013SOL    HW252481   3.771   6.496  10.134
17014SOL     OW52482   3.848   7.459  10.893
17014SOL    HW152483   3.851   7.438  10.986
17014SOL    HW252484   3.764   7.423  10.864
17015SOL     OW52485   4.590   5.912   9.509
17015SOL    HW152486   4.620   5.924   9.419
17015SOL    HW252487   4.532   5.836   9.506
17016SOL     OW52488   5.425   6.155  11.143
17016SOL    HW152489   5.394   6.229  11.092
17016SOL    HW252490   5.451   6.090  11.077
17017SOL     OW52491   5.110   6.726   9.845
17017SOL    HW152492   5.192   6.716   9.795
17017SOL    HW252493   5.060   6.790   9.795
17018SOL     OW52494   4.270   5.752  10.194
17018SOL    HW152495   4.280   5.815  10.265
17018SOL    HW252496   4.280   5.805  10.114
17019SOL     OW52497   4.725   7.037   9.778
17019SOL    HW152498   4.698   7.113   9.727
17019SOL    HW252499   4.695   7.056   9.867
17020SOL     OW52500   4.078   7.400  10.185
17020SOL    HW152501   4.122   7.315  10.190
17020SOL    HW252502   4.146   7.463  10.207
17021SOL     OW52503   5.530   6.640  10.189
17021SOL    HW152504   5.482   6.616  10.109
17021SOL    HW252505   5.462   6.643  10.257
17022SOL     OW52506   4.945   7.127  10.825
17022SOL    HW152507   4.936   7.057  10.889
17022SOL    HW252508   4.883   7.104  10.755
17023SOL     OW52509   4.021   6.555   9.555
17023SOL    HW152510   4.105   6.585   9.521
17023SOL    HW252511   4.004   6.473   9.508
17024SOL     OW52512   5.208   6.349  10.029
17024SOL    HW152513   5.206   6.302  10.112
17024SOL    HW252514   5.290   6.399  10.031
17025SOL     OW52515   4.197   6.860  11.051
17025SOL    HW152516   4.171   6.865  10.959
17025SOL    HW252517   4.115   6.854  11.099
17026SOL     OW52518   4.841   7.373   9.515
17026SOL    HW152519   4.770   7.335   9.566
17026SOL    HW252520   4.870   7.302   9.457
17027SOL     OW52521   3.894   5.845  10.814
17027SOL    HW152522   3.870   5.902  10.888
17027SOL    HW252523   3.874   5.757  10.845
17028SOL     OW52524   5.350   6.973   9.414
17028SOL    HW152525   5.311   7.056   9.385
17028SOL    HW252526   5.286   6.907   9.388
17029SOL     OW52527   4.177   7.331   9.623
17029SOL    HW152528   4.227   7.374   9.692
17029SOL    HW252529   4.243   7.282   9.572
17030SOL     OW52530   5.118   5.688   9.745
17030SOL    HW152531   5.104   5.661   9.654
17030SOL    HW252532   5.209   5.665   9.764
17031SOL     OW52533   3.980   7.374  10.533
17031SOL    HW152534   4.028   7.300  10.571
17031SOL    HW252535   3.970   7.352  10.441
17032SOL     OW52536   4.668   7.285  10.202
17032SOL    HW152537   4.749   7.238  10.222
17032SOL    HW252538   4.627   7.233  10.133
17033SOL     OW52539   4.045   6.287   9.736
17033SOL    HW152540   4.104   6.221   9.772
17033SOL    HW252541   4.024   6.343   9.811
17034SOL     OW52542   5.246   5.811  11.032
17034SOL    HW152543   5.254   5.833  11.125
17034SOL    HW252544   5.187   5.736  11.030
17035SOL     OW52545   4.385   5.684   9.394
17035SOL    HW152546   4.412   5.595   9.420
17035SOL    HW252547   4.328   5.670   9.318
17036SOL     OW52548   4.487   5.866  11.069
17036SOL    HW152549   4.569   5.818  11.063
17036SOL    HW252550   4.442   5.829  11.145
17037SOL     OW52551   4.600   7.115  10.507
17037SOL    HW152552   4.582   7.073  10.423
17037SOL    HW252553   4.668   7.061  10.547
17038SOL     OW52554   5.057   6.177  10.744
17038SOL    HW152555   5.089   6.144  10.828
17038SOL    HW252556   5.097   6.263  10.735
17039SOL     OW52557   4.542   6.972  10.264
17039SOL    HW152558   4.628   6.961  10.223
17039SOL    HW252559   4.480   6.978  10.191
17040SOL     OW52560   4.645   6.099  10.205
17040SOL    HW152561   4.620   6.088  10.113
17040SOL    HW252562   4.676   6.013  10.232
17041SOL     OW52563   4.283   5.647   9.820
17041SOL    HW152564   4.194   5.644   9.856
17041SOL    HW252565   4.279   5.716   9.753
17042SOL     OW52566   5.154   6.788   9.352
17042SOL    HW152567   5.182   6.711   9.401
17042SOL    HW252568   5.067   6.809   9.386
17043SOL     OW52569   4.010   5.639   9.498
17043SOL    HW152570   4.066   5.689   9.439
17043SOL    HW252571   4.068   5.575   9.539
17044SOL     OW52572   4.677   5.862   9.768
17044SOL    HW152573   4.650   5.877   9.678
17044SOL    HW252574   4.772   5.866   9.767
17045SOL     OW52575   4.799   6.273  10.756
17045SOL    HW152576   4.737   6.200  10.762
17045SOL    HW252577   4.885   6.231  10.752
17046SOL     OW52578   4.935   7.161  10.109
17046SOL    HW152579   4.954   7.225  10.039
17046SOL    HW252580   5.012   7.163  10.164
17047SOL     OW52581   4.197   6.751  10.029
17047SOL    HW152582   4.134   6.725  10.096
17047SOL    HW252583   4.152   6.735   9.946
17048SOL     OW52584   4.983   7.372   9.924
17048SOL    HW152585   5.031   7.434   9.869
17048SOL    HW252586   4.911   7.423   9.962
17049SOL     OW52587   4.851   6.208   9.313
17049SOL    HW152588   4.767   6.252   9.304
17049SOL    HW252589   4.846   6.163   9.397
17050SOL     OW52590   3.806   6.123  10.733
17050SOL    HW152591   3.891   6.145  10.695
17050SOL    HW252592   3.788   6.195  10.794
17051SOL     OW52593   4.279   5.820  10.479
17051SOL    HW152594   4.322   5.734  10.480
17051SOL    HW252595   4.191   5.804  10.512
17052SOL     OW52596   4.566   6.046   9.951
17052SOL    HW152597   4.480   6.063   9.912
17052SOL    HW252598   4.605   5.981   9.893
17053SOL     OW52599   4.739   5.650  10.069
17053SOL    HW152600   4.676   5.648   9.997
17053SOL    HW252601   4.721   5.569  10.118
17054SOL     OW52602   5.162   6.744  10.166
17054SOL    HW152603   5.094   6.677  10.170
17054SOL    HW252604   5.186   6.747  10.073
17055SOL     OW52605   5.188   6.199  10.267
17055SOL    HW152606   5.127   6.126  10.270
17055SOL    HW252607   5.243   6.189  10.345
17056SOL     OW52608   5.555   6.391   9.698
17056SOL    HW152609   5.616   6.344   9.754
17056SOL    HW252610   5.532   6.329   9.629
17057SOL     OW52611   4.217   7.016   9.460
17057SOL    HW152612   4.143   6.982   9.511
17057SOL    HW252613   4.220   6.962   9.382
17058SOL     OW52614   5.410   6.852   9.940
17058SOL    HW152615   5.504   6.846   9.957
17058SOL    HW252616   5.387   6.942   9.965
17059SOL     OW52617   5.133   6.156   9.410
17059SOL    HW152618   5.062   6.139   9.472
17059SOL    HW252619   5.202   6.095   9.435
17060SOL     OW52620   4.282   5.820   9.610
17060SOL    HW152621   4.309   5.775   9.530
17060SOL    HW252622   4.259   5.908   9.581
17061SOL     OW52623   5.467   6.830  10.860
17061SOL    HW152624   5.554   6.792  10.852
17061SOL    HW252625   5.482   6.919  10.893
17062SOL     OW52626   4.775   6.949  10.649
17062SOL    HW152627   4.699   6.912  10.693
17062SOL    HW252628   4.849   6.900  10.685
17063SOL     OW52629   5.333   7.219  10.974
17063SOL    HW152630   5.323   7.252  10.885
17063SOL    HW252631   5.413   7.166  10.971
17064SOL     OW52632   4.869   6.813  10.412
17064SOL    HW152633   4.800   6.840  10.473
17064SOL    HW252634   4.838   6.841  10.326
17065SOL     OW52635   5.342   6.678  10.386
17065SOL    HW152636   5.334   6.741  10.457
17065SOL    HW252637   5.268   6.697  10.329
17066SOL     OW52638   4.636   5.677  10.696
17066SOL    HW152639   4.657   5.654  10.605
17066SOL    HW252640   4.718   5.713  10.731
17067SOL     OW52641   4.707   6.701  11.031
17067SOL    HW152642   4.616   6.716  11.057
17067SOL    HW252643   4.704   6.621  10.978
17068SOL     OW52644   4.437   6.660   9.678
17068SOL    HW152645   4.426   6.642   9.772
17068SOL    HW252646   4.514   6.609   9.653
17069SOL     OW52647   4.139   6.405  10.567
17069SOL    HW152648   4.213   6.414  10.627
17069SOL    HW252649   4.108   6.315  10.581
17070SOL     OW52650   4.986   5.954  10.598
17070SOL    HW152651   5.017   6.034  10.641
17070SOL    HW252652   4.896   5.975  10.571
17071SOL     OW52653   3.801   7.158  10.670
17071SOL    HW152654   3.772   7.228  10.612
17071SOL    HW252655   3.897   7.157  10.661
17072SOL     OW52656   4.044   6.711   9.797
17072SOL    HW152657   4.046   6.782   9.733
17072SOL    HW252658   4.045   6.631   9.744
17073SOL     OW52659   4.269   6.087  10.186
17073SOL    HW152660   4.253   6.085  10.092
17073SOL    HW252661   4.353   6.131  10.196
17074SOL     OW52662   4.974   6.937   9.706
17074SOL    HW152663   5.030   7.007   9.740
17074SOL    HW252664   4.887   6.959   9.739
17075SOL     OW52665   5.021   7.050  10.455
17075SOL    HW152666   5.072   7.053  10.536
17075SOL    HW252667   4.969   6.970  10.463
17076SOL     OW52668   5.295   6.201   9.796
17076SOL    HW152669   5.249   6.250   9.864
17076SOL    HW252670   5.347   6.267   9.750
17077SOL     OW52671   4.070   7.117  10.616
17077SOL    HW152672   4.060   7.069  10.534
17077SOL    HW252673   4.164   7.130  10.625
17078SOL     OW52674   4.155   6.321  10.922
17078SOL    HW152675   4.209   6.369  10.859
17078SOL    HW252676   4.207   6.245  10.946
17079SOL     OW52677   5.342   6.371  11.001
17079SOL    HW152678   5.255   6.410  10.994
17079SOL    HW252679   5.392   6.410  10.930
17080SOL     OW52680   4.720   5.725  11.068
17080SOL    HW152681   4.779   5.797  11.045
17080SOL    HW252682   4.766   5.646  11.040
17081SOL     OW52683   4.219   5.620  11.069
17081SOL    HW152684   4.171   5.567  11.005
17081SOL    HW252685   4.164   5.697  11.083
17082SOL     OW52686   4.333   6.458  10.358
17082SOL    HW152687   4.357   6.550  10.356
17082SOL    HW252688   4.256   6.454  10.415
17083SOL     OW52689   5.056   6.443  10.324
17083SOL    HW152690   4.968   6.420  10.292
17083SOL    HW252691   5.108   6.364  10.310
17084SOL     OW52692   4.930   6.131   9.588
17084SOL    HW152693   4.939   6.049   9.636
17084SOL    HW252694   4.868   6.183   9.640
17085SOL     OW52695   4.011   5.778  10.568
17085SOL    HW152696   4.007   5.783  10.664
17085SOL    HW252697   4.004   5.685  10.549
17086SOL     OW52698   3.768   6.898  10.582
17086SOL    HW152699   3.800   6.842  10.652
17086SOL    HW252700   3.774   6.987  10.617
17087SOL     OW52701   4.472   6.225  10.390
17087SOL    HW152702   4.526   6.200  10.315
17087SOL    HW252703   4.427   6.305  10.362
17088SOL     OW52704   5.468   6.551  11.172
17088SOL    HW152705   5.429   6.479  11.122
17088SOL    HW252706   5.406   6.567  11.243
17089SOL     OW52707   4.027   5.633   9.933
17089SOL    HW152708   3.997   5.722   9.955
17089SOL    HW252709   4.041   5.591  10.018
17090SOL     OW52710   5.351   5.966   9.661
17090SOL    HW152711   5.383   5.898   9.721
17090SOL    HW252712   5.323   6.037   9.719
17091SOL     OW52713   4.759   6.344  10.266
17091SOL    HW152714   4.744   6.363  10.358
17091SOL    HW252715   4.727   6.255  10.254
17092SOL     OW52716   4.704   7.150  11.038
17092SOL    HW152717   4.685   7.194  10.955
17092SOL    HW252718   4.747   7.069  11.013
17093SOL     OW52719   5.570   7.085  10.914
17093SOL    HW152720   5.595   7.113  10.826
17093SOL    HW252721   5.650   7.095  10.966
17094SOL     OW52722   4.075   6.501  11.117
17094SOL    HW152723   4.152   6.522  11.171
17094SOL    HW252724   4.106   6.436  11.054
17095SOL     OW52725   5.220   5.874   9.432
17095SOL    HW152726   5.170   5.796   9.454
17095SOL    HW252727   5.270   5.894   9.511
17096SOL     OW52728   4.790   6.929  10.169
17096SOL    HW152729   4.798   6.856  10.108
17096SOL    HW252730   4.846   6.997  10.132
17097SOL     OW52731   4.045   6.404  10.239
17097SOL    HW152732   4.125   6.407  10.188
17097SOL    HW252733   4.046   6.318  10.281
17098SOL     OW52734   4.053   6.133  10.334
17098SOL    HW152735   4.009   6.049  10.321
17098SOL    HW252736   4.134   6.125  10.284
17099SOL     OW52737   4.859   5.957  10.996
17099SOL    HW152738   4.813   6.011  11.061
17099SOL    HW252739   4.945   5.997  10.989
17100SOL     OW52740   4.879   5.778  10.784
17100SOL    HW152741   4.869   5.842  10.855
17100SOL    HW252742   4.924   5.825  10.715
17101SOL     OW52743   3.745   6.909   9.490
17101SOL    HW152744   3.655   6.929   9.464
17101SOL    HW252745   3.739   6.821   9.529
17102SOL     OW52746   3.813   7.362  10.254
17102SOL    HW152747   3.782   7.286  10.205
17102SOL    HW252748   3.902   7.377  10.221
17103SOL     OW52749   4.214   7.160  10.213
17103SOL    HW152750   4.283   7.222  10.235
17103SOL    HW252751   4.256   7.097  10.154
17104SOL     OW52752   4.686   6.381  10.528
17104SOL    HW152753   4.735   6.353  10.605
17104SOL    HW252754   4.609   6.324  10.526
17105SOL     OW52755   3.763   6.096  10.433
17105SOL    HW152756   3.777   6.050  10.350
17105SOL    HW252757   3.828   6.166  10.433
17106SOL     OW52758   3.923   6.110  11.039
17106SOL    HW152759   4.006   6.099  10.994
17106SOL    HW252760   3.883   6.186  10.997
17107SOL     OW52761   5.109   6.515  10.966
17107SOL    HW152762   5.128   6.608  10.961
17107SOL    HW252763   5.103   6.486  10.875
17108SOL     OW52764   4.553   6.165   9.637
17108SOL    HW152765   4.554   6.076   9.601
17108SOL    HW252766   4.464   6.196   9.623
17109SOL     OW52767   5.360   6.188  10.485
17109SOL    HW152768   5.350   6.125  10.556
17109SOL    HW252769   5.448   6.173  10.452
17110SOL     OW52770   3.957   7.130  11.032
17110SOL    HW152771   3.937   7.190  11.104
17110SOL    HW252772   3.967   7.045  11.074
17111SOL     OW52773   4.442   6.025  10.569
17111SOL    HW152774   4.384   5.955  10.536
17111SOL    HW252775   4.439   6.092  10.500
17112SOL     OW52776   4.630   7.265  10.794
17112SOL    HW152777   4.615   7.219  10.711
17112SOL    HW252778   4.630   7.358  10.771
17113SOL     OW52779   4.196   6.065   9.477
17113SOL    HW152780   4.247   6.144   9.494
17113SOL    HW252781   4.115   6.077   9.527
17114SOL     OW52782   3.859   6.733  10.788
17114SOL    HW152783   3.864   6.690  10.874
17114SOL    HW252784   3.878   6.664  10.725
17115SOL     OW52785   5.040   6.628  10.524
17115SOL    HW152786   5.055   6.562  10.456
17115SOL    HW252787   4.980   6.691  10.484
17116SOL     OW52788   5.037   6.411   9.600
17116SOL    HW152789   4.965   6.434   9.658
17116SOL    HW252790   5.033   6.315   9.592
17117SOL     OW52791   5.516   7.318  10.478
17117SOL    HW152792   5.572   7.340  10.404
17117SOL    HW252793   5.478   7.233  10.454
17118SOL     OW52794   4.964   7.319  10.413
17118SOL    HW152795   5.047   7.346  10.374
17118SOL    HW252796   4.975   7.226  10.433
17119SOL     OW52797   3.815   6.853  10.318
17119SOL    HW152798   3.791   6.866  10.410
17119SOL    HW252799   3.748   6.794  10.284
17120SOL     OW52800   4.409   7.262  11.053
17120SOL    HW152801   4.347   7.334  11.040
17120SOL    HW252802   4.480   7.278  10.991
17121SOL     OW52803   5.467   5.756   9.814
17121SOL    HW152804   5.529   5.737   9.744
17121SOL    HW252805   5.441   5.670   9.847
17122SOL     OW52806   5.123   7.153   9.807
17122SOL    HW152807   5.179   7.188   9.738
17122SOL    HW252808   5.071   7.228   9.836
17123SOL     OW52809   3.862   7.385  11.152
17123SOL    HW152810   3.815   7.314  11.196
17123SOL    HW252811   3.909   7.430  11.222
17124SOL     OW52812   5.002   6.520   9.980
17124SOL    HW152813   5.074   6.459   9.994
17124SOL    HW252814   5.038   6.590   9.926
17125SOL     OW52815   4.520   6.866  10.723
17125SOL    HW152816   4.493   6.909  10.804
17125SOL    HW252817   4.445   6.875  10.665
17126SOL     OW52818   4.389   7.229   9.459
17126SOL    HW152819   4.409   7.236   9.366
17126SOL    HW252820   4.338   7.148   9.466
17127SOL     OW52821   5.339   7.314  10.705
17127SOL    HW152822   5.398   7.315  10.629
17127SOL    HW252823   5.324   7.407  10.725
17128SOL     OW52824   5.571   5.749  10.278
17128SOL    HW152825   5.598   5.661  10.253
17128SOL    HW252826   5.485   5.760  10.239
17129SOL     OW52827   3.972   5.885  10.026
17129SOL    HW152828   4.033   5.948   9.988
17129SOL    HW252829   3.976   5.901  10.120
17130SOL     OW52830   4.930   7.176   9.347
17130SOL    HW152831   4.926   7.085   9.378
17130SOL    HW252832   4.862   7.181   9.280
17131SOL     OW52833   4.545   6.591  10.692
17131SOL    HW152834   4.589   6.572  10.609
17131SOL    HW252835   4.544   6.687  10.697
17132SOL     OW52836   4.653   6.520   9.608
17132SOL    HW152837   4.715   6.547   9.540
17132SOL    HW252838   4.691   6.442   9.646
17133SOL     OW52839   5.204   7.239   9.358
17133SOL    HW152840   5.114   7.212   9.339
17133SOL    HW252841   5.248   7.237   9.273
17134SOL     OW52842   4.088   6.895  10.806
17134SOL    HW152843   4.079   6.969  10.746
17134SOL    HW252844   4.011   6.841  10.790
17135SOL     OW52845   5.328   6.870  10.591
17135SOL    HW152846   5.384   6.849  10.666
17135SOL    HW252847   5.267   6.936  10.625
17136SOL     OW52848   4.792   6.700  10.028
17136SOL    HW152849   4.719   6.650  10.062
17136SOL    HW252850   4.857   6.634  10.002
17137SOL     OW52851   4.747   5.832  10.280
17137SOL    HW152852   4.743   5.789  10.195
17137SOL    HW252853   4.742   5.760  10.344
17138SOL     OW52854   4.330   7.075   9.784
17138SOL    HW152855   4.386   7.026   9.724
17138SOL    HW252856   4.244   7.075   9.743
17139SOL     OW52857   5.456   5.979  10.689
17139SOL    HW152858   5.529   6.041  10.688
17139SOL    HW252859   5.484   5.907  10.633
17140SOL     OW52860   4.004   6.925   9.613
17140SOL    HW152861   3.917   6.924   9.573
17140SOL    HW252862   3.990   6.970   9.697
17141SOL     OW52863   3.843   6.633  11.046
17141SOL    HW152864   3.766   6.601  11.093
17141SOL    HW252865   3.916   6.582  11.081
17142SOL     OW52866   4.398   5.785  10.813
17142SOL    HW152867   4.478   5.761  10.767
17142SOL    HW252868   4.428   5.815  10.899
17143SOL     OW52869   3.800   5.939   9.354
17143SOL    HW152870   3.733   5.879   9.320
17143SOL    HW252871   3.827   5.989   9.277
17144SOL     OW52872   5.146   6.444  10.705
17144SOL    HW152873   5.094   6.503  10.650
17144SOL    HW252874   5.233   6.445  10.667
17145SOL     OW52875   3.786   5.745   9.609
17145SOL    HW152876   3.771   5.811   9.541
17145SOL    HW252877   3.870   5.706   9.587
17146SOL     OW52878   4.906   6.910   9.438
17146SOL    HW152879   4.832   6.850   9.441
17146SOL    HW252880   4.935   6.917   9.529
17147SOL     OW52881   4.344   6.415  10.745
17147SOL    HW152882   4.401   6.490  10.731
17147SOL    HW252883   4.403   6.340  10.749
17148SOL     OW52884   5.209   7.379  10.302
17148SOL    HW152885   5.238   7.442  10.235
17148SOL    HW252886   5.287   7.329  10.324
17149SOL     OW52887   4.430   6.140  11.014
17149SOL    HW152888   4.483   6.197  11.070
17149SOL    HW252889   4.452   6.051  11.042
17150SOL     OW52890   5.196   6.777  10.935
17150SOL    HW152891   5.187   6.793  11.029
17150SOL    HW252892   5.288   6.797  10.916
17151SOL     OW52893   4.089   7.325  10.879
17151SOL    HW152894   4.008   7.372  10.863
17151SOL    HW252895   4.062   7.242  10.918
17152SOL     OW52896   5.385   6.461  10.566
17152SOL    HW152897   5.380   6.375  10.524
17152SOL    HW252898   5.374   6.524  10.494
17153SOL     OW52899   4.955   5.915   9.761
17153SOL    HW152900   5.008   5.836   9.753
17153SOL    HW252901   4.987   5.958   9.841
17154SOL     OW52902   4.253   6.383  10.022
17154SOL    HW152903   4.325   6.430   9.979
17154SOL    HW252904   4.252   6.297   9.980
17155SOL     OW52905   5.476   5.951  10.963
17155SOL    HW152906   5.463   5.967  10.870
17155SOL    HW252907   5.404   5.893  10.988
17156SOL     OW52908   5.483   6.516  10.817
17156SOL    HW152909   5.463   6.609  10.829
17156SOL    HW252910   5.459   6.498  10.726
17157SOL     OW52911   4.565   6.955   9.356
17157SOL    HW152912   4.548   6.969   9.449
17157SOL    HW252913   4.603   7.037   9.325
17158SOL     OW52914   4.389   7.368  10.238
17158SOL    HW152915   4.373   7.462  10.225
17158SOL    HW252916   4.484   7.360  10.237
17159SOL     OW52917   4.596   6.560  10.164
17159SOL    HW152918   4.644   6.484  10.196
17159SOL    HW252919   4.550   6.594  10.241
17160SOL     OW52920   4.812   6.600   9.394
17160SOL    HW152921   4.776   6.645   9.317
17160SOL    HW252922   4.820   6.509   9.367
17161SOL     OW52923   5.570   7.135  10.151
17161SOL    HW152924   5.489   7.120  10.103
17161SOL    HW252925   5.584   7.054  10.201
17162SOL     OW52926   3.945   6.877  11.156
17162SOL    HW152927   3.901   6.802  11.116
17162SOL    HW252928   3.899   6.889  11.239
17163SOL     OW52929   3.831   6.812   9.974
17163SOL    HW152930   3.852   6.772  10.058
17163SOL    HW252931   3.893   6.775   9.913
17164SOL     OW52932   4.411   6.998  10.938
17164SOL    HW152933   4.335   6.955  10.977
17164SOL    HW252934   4.413   7.085  10.978
17165SOL     OW52935   5.540   5.768  10.548
17165SOL    HW152936   5.541   5.674  10.566
17165SOL    HW252937   5.550   5.774  10.453
17166SOL     OW52938   5.404   7.080  10.412
17166SOL    HW152939   5.335   7.056  10.350
17166SOL    HW252940   5.409   7.006  10.473
17167SOL     OW52941   4.046   6.140  10.609
17167SOL    HW152942   4.106   6.086  10.662
17167SOL    HW252943   4.074   6.125  10.519
17168SOL     OW52944   4.555   7.161   9.985
17168SOL    HW152945   4.517   7.218   9.918
17168SOL    HW252946   4.487   7.096  10.002
17169SOL     OW52947   5.146   5.814  10.420
17169SOL    HW152948   5.147   5.721  10.442
17169SOL    HW252949   5.099   5.855  10.492
17170SOL     OW52950   4.730   5.599  10.439
17170SOL    HW152951   4.680   5.537  10.386
17170SOL    HW252952   4.816   5.559  10.447
17171SOL     OW52953   4.506   6.926   9.633
17171SOL    HW152954   4.478   6.834   9.640
17171SOL    HW252955   4.587   6.929   9.684
17172SOL     OW52956   4.344   7.147  10.595
17172SOL    HW152957   4.341   7.229  10.643
17172SOL    HW252958   4.433   7.141  10.562
17173SOL     OW52959   5.088   5.630   9.476
17173SOL    HW152960   5.128   5.559   9.426
17173SOL    HW252961   4.999   5.601   9.492
17174SOL     OW52962   5.032   6.056   9.989
17174SOL    HW152963   4.975   6.132   9.987
17174SOL    HW252964   5.019   6.018  10.076
17175SOL     OW52965   5.315   5.781  10.197
17175SOL    HW152966   5.256   5.805  10.269
17175SOL    HW252967   5.312   5.856  10.137
17176SOL     OW52968   3.751   6.648   9.578
17176SOL    HW152969   3.843   6.622   9.583
17176SOL    HW252970   3.716   6.599   9.504
17177SOL     OW52971   4.618   7.257   9.644
17177SOL    HW152972   4.539   7.238   9.592
17177SOL    HW252973   4.589   7.323   9.706
17178SOL     OW52974   3.937   6.211  11.308
17178SOL    HW152975   3.849   6.202  11.344
17178SOL    HW252976   3.927   6.193  11.214
17179SOL     OW52977   3.943   5.875  12.171
17179SOL    HW152978   3.977   5.839  12.254
17179SOL    HW252979   3.858   5.833  12.160
17180SOL     OW52980   3.722   5.973  11.811
17180SOL    HW152981   3.642   5.999  11.856
17180SOL    HW252982   3.696   5.897  11.758
17181SOL     OW52983   4.269   6.834  12.329
17181SOL    HW152984   4.192   6.876  12.291
17181SOL    HW252985   4.284   6.881  12.411
17182SOL     OW52986   5.307   7.105  11.884
17182SOL    HW152987   5.262   7.077  11.964
17182SOL    HW252988   5.239   7.106  11.817
17183SOL     OW52989   4.859   6.288  11.861
17183SOL    HW152990   4.906   6.371  11.853
17183SOL    HW252991   4.811   6.296  11.944
17184SOL     OW52992   5.507   6.179  11.397
17184SOL    HW152993   5.478   6.175  11.306
17184SOL    HW252994   5.467   6.103  11.439
17185SOL     OW52995   4.488   6.717  12.227
17185SOL    HW152996   4.408   6.744  12.271
17185SOL    HW252997   4.517   6.794  12.179
17186SOL     OW52998   4.408   6.579  11.814
17186SOL    HW152999   4.475   6.573  11.882
17186SOL    HW253000   4.340   6.636  11.852
17187SOL     OW53001   4.059   6.993  12.228
17187SOL    HW153002   3.978   6.960  12.188
17187SOL    HW253003   4.099   7.047  12.160
17188SOL     OW53004   5.324   6.023  11.920
17188SOL    HW153005   5.258   6.039  11.853
17188SOL    HW253006   5.312   6.095  11.983
17189SOL     OW53007   3.942   7.305  11.636
17189SOL    HW153008   3.964   7.380  11.692
17189SOL    HW253009   4.016   7.297  11.576
17190SOL     OW53010   3.960   7.035  11.710
17190SOL    HW153011   3.937   7.128  11.711
17190SOL    HW253012   3.903   6.996  11.776
17191SOL     OW53013   3.991   6.675  12.062
17191SOL    HW153014   4.000   6.584  12.090
17191SOL    HW253015   3.945   6.718  12.134
17192SOL     OW53016   4.295   6.573  11.317
17192SOL    HW153017   4.346   6.615  11.248
17192SOL    HW253018   4.336   6.603  11.398
17193SOL     OW53019   3.843   6.246  11.736
17193SOL    HW153020   3.816   6.157  11.758
17193SOL    HW253021   3.836   6.295  11.818
17194SOL     OW53022   5.566   7.336  11.497
17194SOL    HW153023   5.637   7.314  11.556
17194SOL    HW253024   5.580   7.429  11.475
17195SOL     OW53025   3.769   7.171  11.287
17195SOL    HW153026   3.751   7.079  11.307
17195SOL    HW253027   3.741   7.219  11.365
17196SOL     OW53028   5.418   6.508  11.828
17196SOL    HW153029   5.501   6.462  11.814
17196SOL    HW253030   5.401   6.552  11.744
17197SOL     OW53031   5.377   6.686  11.603
17197SOL    HW153032   5.464   6.683  11.562
17197SOL    HW253033   5.387   6.751  11.673
17198SOL     OW53034   3.897   6.333   0.223
17198SOL    HW153035   3.879   6.301   0.311
17198SOL    HW253036   3.816   6.377   0.196
17199SOL     OW53037   4.334   6.982  11.901
17199SOL    HW153038   4.291   6.897  11.908
17199SOL    HW253039   4.320   7.008  11.810
17200SOL     OW53040   4.548   5.597  11.685
17200SOL    HW153041   4.589   5.679  11.661
17200SOL    HW253042   4.454   5.616  11.688
17201SOL     OW53043   3.917   6.583  12.404
17201SOL    HW153044   3.999   6.534  12.407
17201SOL    HW253045   3.852   6.524  12.442
17202SOL     OW53046   5.255   6.591  11.372
17202SOL    HW153047   5.186   6.533  11.404
17202SOL    HW253048   5.300   6.621  11.452
17203SOL     OW53049   5.178   7.006  12.105
17203SOL    HW153050   5.120   7.017  12.181
17203SOL    HW253051   5.168   6.913  12.081
17204SOL     OW53052   5.370   7.353  11.746
17204SOL    HW153053   5.352   7.313  11.660
17204SOL    HW253054   5.365   7.280  11.807
17205SOL     OW53055   4.316   6.294  11.443
17205SOL    HW153056   4.320   6.380  11.401
17205SOL    HW253057   4.251   6.304  11.513
17206SOL     OW53058   5.005   5.960  12.108
17206SOL    HW153059   4.917   5.923  12.117
17206SOL    HW253060   5.060   5.906  12.164
17207SOL     OW53061   5.300   7.261  11.486
17207SOL    HW153062   5.393   7.281  11.476
17207SOL    HW253063   5.269   7.245  11.397
17208SOL     OW53064   4.719   5.986  12.372
17208SOL    HW153065   4.628   5.999  12.398
17208SOL    HW253066   4.714   5.932  12.293
17209SOL     OW53067   4.780   6.286  11.593
17209SOL    HW153068   4.800   6.280  11.687
17209SOL    HW253069   4.696   6.240  11.585
17210SOL     OW53070   3.811   6.416  11.952
17210SOL    HW153071   3.894   6.406  11.998
17210SOL    HW253072   3.769   6.491  11.994
17211SOL     OW53073   4.624   5.935  11.368
17211SOL    HW153074   4.665   5.999  11.309
17211SOL    HW253075   4.632   5.852  11.322
17212SOL     OW53076   5.110   6.730  11.710
17212SOL    HW153077   5.189   6.715  11.658
17212SOL    HW253078   5.058   6.790  11.658
17213SOL     OW53079   4.277   5.773  12.061
17213SOL    HW153080   4.283   5.813  12.148
17213SOL    HW253081   4.274   5.847  12.000
17214SOL     OW53082   4.722   7.034  11.641
17214SOL    HW153083   4.693   7.107  11.587
17214SOL    HW253084   4.693   7.057  11.729
17215SOL     OW53085   4.081   7.402  12.038
17215SOL    HW153086   4.125   7.317  12.049
17215SOL    HW253087   4.148   7.467  12.061
17216SOL     OW53088   5.525   6.652  12.051
17216SOL    HW153089   5.476   6.623  11.974
17216SOL    HW253090   5.460   6.654  12.121
17217SOL     OW53091   4.031   6.548  11.429
17217SOL    HW153092   4.115   6.567  11.387
17217SOL    HW253093   4.006   6.461  11.395
17218SOL     OW53094   5.205   6.344  11.890
17218SOL    HW153095   5.205   6.300  11.975
17218SOL    HW253096   5.285   6.396  11.890
17219SOL     OW53097   4.850   7.363  11.396
17219SOL    HW153098   4.772   7.326  11.437
17219SOL    HW253099   4.875   7.298  11.330
17220SOL     OW53100   5.357   6.972  11.270
17220SOL    HW153101   5.314   7.056  11.253
17220SOL    HW253102   5.291   6.907  11.246
17221SOL     OW53103   4.184   7.327  11.485
17221SOL    HW153104   4.232   7.374  11.553
17221SOL    HW253105   4.252   7.286  11.431
17222SOL     OW53106   5.123   5.693  11.618
17222SOL    HW153107   5.118   5.666  11.527
17222SOL    HW253108   5.216   5.689  11.640
17223SOL     OW53109   3.972   7.367  12.389
17223SOL    HW153110   3.984   7.288  12.441
17223SOL    HW253111   3.922   7.339  12.312
17224SOL     OW53112   4.669   7.284  12.070
17224SOL    HW153113   4.754   7.240  12.076
17224SOL    HW253114   4.621   7.235  12.003
17225SOL     OW53115   4.120   6.279  11.643
17225SOL    HW153116   4.134   6.186  11.656
17225SOL    HW253117   4.027   6.292  11.661
17226SOL     OW53118   4.376   5.699  11.275
17226SOL    HW153119   4.438   5.627  11.290
17226SOL    HW253120   4.321   5.668  11.203
17227SOL     OW53121   4.530   6.955  12.103
17227SOL    HW153122   4.619   6.959  12.066
17227SOL    HW253123   4.472   6.969  12.028
17228SOL     OW53124   4.653   6.099  12.064
17228SOL    HW153125   4.626   6.087  11.972
17228SOL    HW253126   4.681   6.012  12.092
17229SOL     OW53127   4.278   5.649  11.662
17229SOL    HW153128   4.199   5.650  11.716
17229SOL    HW253129   4.269   5.726  11.606
17230SOL     OW53130   5.156   6.791  11.209
17230SOL    HW153131   5.186   6.716  11.260
17230SOL    HW253132   5.070   6.812  11.244
17231SOL     OW53133   4.014   5.632  11.359
17231SOL    HW153134   4.071   5.696  11.315
17231SOL    HW253135   4.075   5.570  11.400
17232SOL     OW53136   4.671   5.838  11.624
17232SOL    HW153137   4.648   5.874  11.538
17232SOL    HW253138   4.765   5.852  11.632
17233SOL     OW53139   4.933   7.173  11.975
17233SOL    HW153140   4.951   7.235  11.905
17233SOL    HW253141   5.019   7.158  12.016
17234SOL     OW53142   4.196   6.743  11.892
17234SOL    HW153143   4.132   6.720  11.960
17234SOL    HW253144   4.148   6.731  11.810
17235SOL     OW53145   4.986   7.380  11.787
17235SOL    HW153146   5.036   7.439  11.732
17235SOL    HW253147   4.916   7.434  11.824
17236SOL     OW53148   4.751   6.114  11.200
17236SOL    HW153149   4.708   6.197  11.181
17236SOL    HW253150   4.816   6.135  11.268
17237SOL     OW53151   4.285   5.792  12.347
17237SOL    HW153152   4.296   5.700  12.321
17237SOL    HW253153   4.193   5.799  12.371
17238SOL     OW53154   4.589   6.041  11.805
17238SOL    HW153155   4.550   6.098  11.738
17238SOL    HW253156   4.615   5.963  11.757
17239SOL     OW53157   4.740   5.637  11.913
17239SOL    HW153158   4.682   5.628  11.838
17239SOL    HW253159   4.720   5.561  11.968
17240SOL     OW53160   5.154   6.742  12.024
17240SOL    HW153161   5.090   6.671  12.023
17240SOL    HW253162   5.181   6.751  11.932
17241SOL     OW53163   5.190   6.199  12.130
17241SOL    HW153164   5.131   6.124  12.137
17241SOL    HW253165   5.252   6.189  12.203
17242SOL     OW53166   5.558   6.394  11.557
17242SOL    HW153167   5.616   6.347  11.617
17242SOL    HW253168   5.536   6.329  11.490
17243SOL     OW53169   4.214   7.010  11.323
17243SOL    HW153170   4.137   6.979  11.372
17243SOL    HW253171   4.215   6.955  11.245
17244SOL     OW53172   5.413   6.855  11.807
17244SOL    HW153173   5.507   6.849  11.825
17244SOL    HW253174   5.389   6.944  11.832
17245SOL     OW53175   5.117   6.158  11.243
17245SOL    HW153176   5.056   6.135  11.312
17245SOL    HW253177   5.201   6.120  11.271
17246SOL     OW53178   4.249   5.847  11.477
17246SOL    HW153179   4.303   5.804  11.411
17246SOL    HW253180   4.220   5.928  11.436
17247SOL     OW53181   4.824   6.832  12.283
17247SOL    HW153182   4.739   6.839  12.328
17247SOL    HW253183   4.806   6.859  12.193
17248SOL     OW53184   5.328   6.683  12.243
17248SOL    HW153185   5.293   6.709  12.328
17248SOL    HW253186   5.258   6.702  12.181
17249SOL     OW53187   4.436   6.649  11.544
17249SOL    HW153188   4.421   6.626  11.636
17249SOL    HW253189   4.511   6.596  11.518
17250SOL     OW53190   4.155   6.420  12.445
17250SOL    HW153191   4.204   6.452  12.521
17250SOL    HW253192   4.133   6.330  12.467
17251SOL     OW53193   4.978   5.948  12.430
17251SOL    HW153194   5.015   6.027  12.469
17251SOL    HW253195   4.887   5.970  12.410
17252SOL     OW53196   4.046   6.713  11.660
17252SOL    HW153197   4.048   6.785  11.597
17252SOL    HW253198   4.048   6.634  11.606
17253SOL     OW53199   4.263   6.108  12.029
17253SOL    HW153200   4.278   6.169  11.957
17253SOL    HW253201   4.326   6.135  12.096
17254SOL     OW53202   4.971   6.938  11.564
17254SOL    HW153203   5.027   7.007  11.599
17254SOL    HW253204   4.883   6.959  11.597
17255SOL     OW53205   5.010   7.032  12.321
17255SOL    HW153206   5.063   7.017  12.399
17255SOL    HW253207   4.947   6.960  12.319
17256SOL     OW53208   5.296   6.201  11.661
17256SOL    HW153209   5.246   6.248  11.728
17256SOL    HW253210   5.341   6.269  11.612
17257SOL     OW53211   4.099   7.124  12.461
17257SOL    HW153212   4.068   7.069  12.389
17257SOL    HW253213   4.169   7.177  12.423
17258SOL     OW53214   4.299   6.461  12.211
17258SOL    HW153215   4.334   6.550  12.213
17258SOL    HW253216   4.250   6.452  12.293
17259SOL     OW53217   5.044   6.443  12.178
17259SOL    HW153218   4.959   6.413  12.147
17259SOL    HW253219   5.101   6.367  12.169
17260SOL     OW53220   4.920   6.112  11.431
17260SOL    HW153221   4.931   6.034  11.486
17260SOL    HW253222   4.879   6.176  11.489
17261SOL     OW53223   4.022   5.776  12.420
17261SOL    HW153224   4.021   5.788  12.515
17261SOL    HW253225   3.999   5.685  12.406
17262SOL     OW53226   3.780   6.914  12.429
17262SOL    HW153227   3.820   6.838  12.472
17262SOL    HW253228   3.783   6.983  12.495
17263SOL     OW53229   4.433   6.211  12.217
17263SOL    HW153230   4.514   6.202  12.166
17263SOL    HW253231   4.408   6.302  12.206
17264SOL     OW53232   4.034   5.645  11.793
17264SOL    HW153233   4.009   5.735  11.814
17264SOL    HW253234   4.045   5.602  11.878
17265SOL     OW53235   5.353   5.969  11.525
17265SOL    HW153236   5.381   5.901  11.586
17265SOL    HW253237   5.325   6.041  11.581
17266SOL     OW53238   4.758   6.342  12.127
17266SOL    HW153239   4.742   6.359  12.220
17266SOL    HW253240   4.727   6.253  12.112
17267SOL     OW53241   5.240   5.864  11.295
17267SOL    HW153242   5.185   5.792  11.326
17267SOL    HW253243   5.281   5.898  11.375
17268SOL     OW53244   5.008   6.408  11.199
17268SOL    HW153245   5.050   6.322  11.205
17268SOL    HW253246   5.042   6.445  11.117
17269SOL     OW53247   4.790   6.933  12.027
17269SOL    HW153248   4.799   6.859  11.968
17269SOL    HW253249   4.846   7.001  11.990
17270SOL     OW53250   4.039   6.402  12.108
17270SOL    HW153251   4.133   6.418  12.119
17270SOL    HW253252   4.027   6.311  12.134
17271SOL     OW53253   4.026   6.130  12.157
17271SOL    HW153254   4.000   6.038  12.164
17271SOL    HW253255   4.111   6.128  12.112
17272SOL     OW53256   4.879   5.811   0.151
17272SOL    HW153257   4.906   5.857   0.231
17272SOL    HW253258   4.927   5.855   0.081
17273SOL     OW53259   3.738   6.898  11.361
17273SOL    HW153260   3.649   6.916  11.330
17273SOL    HW253261   3.732   6.810  11.399
17274SOL     OW53262   3.821   7.363  12.119
17274SOL    HW153263   3.790   7.286  12.071
17274SOL    HW253264   3.908   7.379  12.084
17275SOL     OW53265   4.222   7.168  12.076
17275SOL    HW153266   4.295   7.222  12.106
17275SOL    HW253267   4.262   7.103  12.018
17276SOL     OW53268   4.694   6.380  12.387
17276SOL    HW153269   4.737   6.439  12.448
17276SOL    HW253270   4.631   6.331  12.441
17277SOL     OW53271   3.796   6.157  12.308
17277SOL    HW153272   3.868   6.162  12.245
17277SOL    HW253273   3.789   6.064  12.329
17278SOL     OW53274   4.543   6.155  11.541
17278SOL    HW153275   4.551   6.081  11.481
17278SOL    HW253276   4.467   6.204  11.509
17279SOL     OW53277   5.384   6.189  12.329
17279SOL    HW153278   5.377   6.132  12.406
17279SOL    HW253279   5.478   6.192  12.311
17280SOL     OW53280   4.455   6.015  12.409
17280SOL    HW153281   4.385   5.950  12.395
17280SOL    HW253282   4.432   6.088  12.352
17281SOL     OW53283   4.601   7.220   0.029
17281SOL    HW153284   4.623   7.279  -0.044
17281SOL    HW253285   4.638   7.264   0.106
17282SOL     OW53286   4.174   6.073  11.341
17282SOL    HW153287   4.238   6.140  11.366
17282SOL    HW253288   4.090   6.119  11.340
17283SOL     OW53289   5.006   6.640  12.367
17283SOL    HW153290   5.025   6.574  12.300
17283SOL    HW253291   4.948   6.702  12.323
17284SOL     OW53292   5.041   6.446  11.472
17284SOL    HW153293   4.971   6.407  11.524
17284SOL    HW253294   5.016   6.429  11.382
17285SOL     OW53295   5.474   7.332  12.296
17285SOL    HW153296   5.547   7.345  12.236
17285SOL    HW253297   5.461   7.238  12.298
17286SOL     OW53298   4.970   7.305  12.287
17286SOL    HW153299   5.048   7.343  12.247
17286SOL    HW253300   4.985   7.210  12.283
17287SOL     OW53301   3.802   6.878  12.162
17287SOL    HW153302   3.791   6.887  12.257
17287SOL    HW253303   3.750   6.801  12.139
17288SOL     OW53304   5.452   5.753  11.673
17288SOL    HW153305   5.518   5.734  11.607
17288SOL    HW253306   5.432   5.668  11.713
17289SOL     OW53307   5.121   7.153  11.672
17289SOL    HW153308   5.176   7.186  11.601
17289SOL    HW253309   5.068   7.229  11.698
17290SOL     OW53310   5.003   6.521  11.845
17290SOL    HW153311   5.075   6.460  11.857
17290SOL    HW253312   5.038   6.590  11.788
17291SOL     OW53313   4.390   7.216  11.327
17291SOL    HW153314   4.405   7.230  11.234
17291SOL    HW253315   4.335   7.137  11.332
17292SOL     OW53316   5.334   7.398   0.023
17292SOL    HW153317   5.384   7.373  -0.055
17292SOL    HW253318   5.392   7.457   0.071
17293SOL     OW53319   5.570   5.752  12.136
17293SOL    HW153320   5.601   5.664  12.116
17293SOL    HW253321   5.483   5.757  12.097
17294SOL     OW53322   3.978   5.895  11.886
17294SOL    HW153323   3.893   5.932  11.863
17294SOL    HW253324   3.981   5.896  11.981
17295SOL     OW53325   4.932   7.180  11.207
17295SOL    HW153326   4.921   7.089  11.234
17295SOL    HW253327   4.865   7.194  11.140
17296SOL     OW53328   4.514   6.615  12.500
17296SOL    HW153329   4.529   6.636  12.408
17296SOL    HW253330   4.601   6.616  12.539
17297SOL     OW53331   4.643   6.499  11.464
17297SOL    HW153332   4.702   6.532  11.396
17297SOL    HW253333   4.694   6.431  11.509
17298SOL     OW53334   5.209   7.224  11.222
17298SOL    HW153335   5.117   7.206  11.205
17298SOL    HW253336   5.249   7.227  11.135
17299SOL     OW53337   4.792   6.701  11.890
17299SOL    HW153338   4.718   6.649  11.922
17299SOL    HW253339   4.857   6.636  11.865
17300SOL     OW53340   4.749   5.823  12.135
17300SOL    HW153341   4.747   5.781  12.049
17300SOL    HW253342   4.746   5.751  12.198
17301SOL     OW53343   4.331   7.077  11.646
17301SOL    HW153344   4.385   7.025  11.586
17301SOL    HW253345   4.251   7.094  11.597
17302SOL     OW53346   5.489   6.011   0.035
17302SOL    HW153347   5.526   5.987   0.120
17302SOL    HW253348   5.486   5.928  -0.014
17303SOL     OW53349   3.993   6.926  11.470
17303SOL    HW153350   3.902   6.922  11.440
17303SOL    HW253351   3.987   6.971  11.555
17304SOL     OW53352   3.809   5.914  11.199
17304SOL    HW153353   3.724   5.897  11.158
17304SOL    HW253354   3.842   5.992  11.154
17305SOL     OW53355   3.782   5.737  11.464
17305SOL    HW153356   3.769   5.814  11.409
17305SOL    HW253357   3.869   5.705  11.441
17306SOL     OW53358   4.904   6.913  11.292
17306SOL    HW153359   4.816   6.876  11.293
17306SOL    HW253360   4.930   6.916  11.384
17307SOL     OW53361   5.213   7.388  12.176
17307SOL    HW153362   5.236   7.439  12.099
17307SOL    HW253363   5.296   7.353  12.207
17308SOL     OW53364   5.384   6.456  12.410
17308SOL    HW153365   5.374   6.369  12.373
17308SOL    HW253366   5.373   6.515  12.335
17309SOL     OW53367   4.942   5.907  11.627
17309SOL    HW153368   5.002   5.833  11.622
17309SOL    HW253369   4.971   5.957  11.703
17310SOL     OW53370   4.306   6.316  11.848
17310SOL    HW153371   4.347   6.401  11.835
17310SOL    HW253372   4.242   6.309  11.777
17311SOL     OW53373   5.555   6.484   0.117
17311SOL    HW153374   5.518   6.556   0.168
17311SOL    HW253375   5.490   6.469   0.048
17312SOL     OW53376   4.584   6.950  11.220
17312SOL    HW153377   4.551   6.976  11.306
17312SOL    HW253378   4.604   7.032  11.175
17313SOL     OW53379   4.396   7.383  12.134
17313SOL    HW153380   4.377   7.469  12.095
17313SOL    HW253381   4.486   7.365  12.110
17314SOL     OW53382   4.596   6.556  12.022
17314SOL    HW153383   4.644   6.481  12.057
17314SOL    HW253384   4.560   6.600  12.099
17315SOL     OW53385   4.801   6.576  11.259
17315SOL    HW153386   4.779   6.625  11.180
17315SOL    HW253387   4.874   6.519  11.234
17316SOL     OW53388   5.580   7.131  12.016
17316SOL    HW153389   5.494   7.116  11.976
17316SOL    HW253390   5.600   7.050  12.061
17317SOL     OW53391   3.822   6.811  11.836
17317SOL    HW153392   3.843   6.772  11.921
17317SOL    HW253393   3.886   6.773  11.776
17318SOL     OW53394   5.527   5.773  12.406
17318SOL    HW153395   5.571   5.693  12.436
17318SOL    HW253396   5.536   5.770  12.311
17319SOL     OW53397   4.146   6.017  11.692
17319SOL    HW153398   4.181   5.947  11.638
17319SOL    HW253399   4.099   5.973  11.762
17320SOL     OW53400   5.420   7.072  12.292
17320SOL    HW153401   5.353   7.023  12.243
17320SOL    HW253402   5.468   7.005  12.340
17321SOL     OW53403   4.552   7.180  11.846
17321SOL    HW153404   4.537   7.253  11.786
17321SOL    HW253405   4.476   7.122  11.833
17322SOL     OW53406   5.168   5.824  12.285
17322SOL    HW153407   5.223   5.768  12.340
17322SOL    HW253408   5.105   5.862  12.346
17323SOL     OW53409   4.735   5.587  12.290
17323SOL    HW153410   4.694   5.530  12.225
17323SOL    HW253411   4.823   5.552  12.301
17324SOL     OW53412   4.502   6.919  11.498
17324SOL    HW153413   4.475   6.827  11.505
17324SOL    HW253414   4.584   6.924  11.546
17325SOL     OW53415   5.091   5.632  11.350
17325SOL    HW153416   5.131   5.558  11.304
17325SOL    HW253417   5.000   5.606  11.364
17326SOL     OW53418   5.019   6.053  11.847
17326SOL    HW153419   4.968   6.133  11.850
17326SOL    HW253420   5.015   6.018  11.936
17327SOL     OW53421   5.310   5.774  12.054
17327SOL    HW153422   5.256   5.799  12.128
17327SOL    HW253423   5.310   5.850  11.996
17328SOL     OW53424   3.765   6.646  11.481
17328SOL    HW153425   3.858   6.637  11.461
17328SOL    HW253426   3.736   6.558  11.503
17329SOL     OW53427   4.615   7.247  11.500
17329SOL    HW153428   4.538   7.230  11.445
17329SOL    HW253429   4.585   7.311  11.565
17330SOL     OW53430   3.956   7.722   0.996
17330SOL    HW153431   3.982   7.690   1.083
17330SOL    HW253432   3.867   7.690   0.985
17331SOL     OW53433   3.704   7.822   0.652
17331SOL    HW153434   3.622   7.864   0.676
17331SOL    HW253435   3.678   7.742   0.605
17332SOL     OW53436   5.420   8.024   0.231
17332SOL    HW153437   5.418   7.984   0.144
17332SOL    HW253438   5.391   7.955   0.290
17333SOL     OW53439   4.154   7.858   1.527
17333SOL    HW153440   4.211   7.841   1.452
17333SOL    HW253441   4.079   7.799   1.513
17334SOL     OW53442   5.333   7.935   0.734
17334SOL    HW153443   5.298   7.963   0.650
17334SOL    HW253444   5.332   8.015   0.788
17335SOL     OW53445   5.390   7.582   1.481
17335SOL    HW153446   5.313   7.613   1.432
17335SOL    HW253447   5.356   7.515   1.540
17336SOL     OW53448   3.796   0.081   0.595
17336SOL    HW153449   3.779  -0.012   0.609
17336SOL    HW253450   3.821   0.114   0.681
17337SOL     OW53451   4.544   7.449   0.527
17337SOL    HW153452   4.583   7.531   0.499
17337SOL    HW253453   4.450   7.466   0.528
17338SOL     OW53454   4.071   7.716   1.817
17338SOL    HW153455   4.113   7.802   1.829
17338SOL    HW253456   3.982   7.729   1.849
17339SOL     OW53457   5.143   7.925   1.693
17339SOL    HW153458   5.192   7.965   1.765
17339SOL    HW253459   5.170   7.833   1.695
17340SOL     OW53460   4.651   0.321   1.559
17340SOL    HW153461   4.727   0.311   1.502
17340SOL    HW253462   4.613   0.405   1.534
17341SOL     OW53463   4.716   7.837   1.273
17341SOL    HW153464   4.676   7.905   1.327
17341SOL    HW253465   4.645   7.775   1.256
17342SOL     OW53466   4.586   7.778   0.187
17342SOL    HW153467   4.678   7.760   0.207
17342SOL    HW253468   4.546   7.692   0.175
17343SOL     OW53469   5.415   7.999   1.810
17343SOL    HW153470   5.455   8.073   1.765
17343SOL    HW253471   5.439   7.922   1.758
17344SOL     OW53472   4.286   7.636   0.894
17344SOL    HW153473   4.282   7.650   0.989
17344SOL    HW253474   4.282   7.725   0.857
17345SOL     OW53475   3.914   7.712   1.500
17345SOL    HW153476   3.827   7.750   1.495
17345SOL    HW253477   3.901   7.625   1.538
17346SOL     OW53478   5.136   7.554   0.452
17346SOL    HW153479   5.126   7.527   0.361
17346SOL    HW253480   5.226   7.531   0.474
17347SOL     OW53481   5.222   7.675   1.754
17347SOL    HW153482   5.298   7.664   1.811
17347SOL    HW253483   5.208   7.587   1.717
17348SOL     OW53484   4.351   7.577   0.119
17348SOL    HW153485   4.432   7.528   0.114
17348SOL    HW253486   4.332   7.602   0.029
17349SOL     OW53487   4.499   7.708   1.743
17349SOL    HW153488   4.586   7.670   1.752
17349SOL    HW253489   4.453   7.683   1.824
17350SOL     OW53490   5.070   0.004   1.425
17350SOL    HW153491   5.099  -0.024   1.512
17350SOL    HW253492   5.006   0.073   1.442
17351SOL     OW53493   4.279   7.507   0.500
17351SOL    HW153494   4.199   7.509   0.553
17351SOL    HW253495   4.275   7.587   0.448
17352SOL     OW53496   4.030   7.525   0.214
17352SOL    HW153497   4.103   7.560   0.162
17352SOL    HW253498   4.064   7.443   0.249
17353SOL     OW53499   4.665   7.684   0.471
17353SOL    HW153500   4.629   7.772   0.481
17353SOL    HW253501   4.759   7.698   0.457
17354SOL     OW53502   3.815   0.001   1.383
17354SOL    HW153503   3.878  -0.006   1.455
17354SOL    HW253504   3.783   0.091   1.388
17355SOL     OW53505   4.276   7.646   1.167
17355SOL    HW153506   4.308   7.563   1.201
17355SOL    HW253507   4.186   7.652   1.197
17356SOL     OW53508   4.749   7.491   0.733
17356SOL    HW153509   4.684   7.493   0.663
17356SOL    HW253510   4.721   7.420   0.790
17357SOL     OW53511   5.147   7.957   0.999
17357SOL    HW153512   5.213   7.938   1.066
17357SOL    HW253513   5.147   8.052   0.991
17358SOL     OW53514   4.267   7.724   0.333
17358SOL    HW153515   4.293   7.672   0.257
17358SOL    HW253516   4.309   7.809   0.319
17359SOL     OW53517   4.630   7.558   1.414
17359SOL    HW153518   4.644   7.523   1.325
17359SOL    HW253519   4.716   7.590   1.441
17360SOL     OW53520   4.982   7.818   1.240
17360SOL    HW153521   5.019   7.887   1.295
17360SOL    HW253522   4.887   7.825   1.253
17361SOL     OW53523   4.264   7.940   0.856
17361SOL    HW153524   4.220   7.969   0.776
17361SOL    HW253525   4.291   8.021   0.899
17362SOL     OW53526   4.732   7.581   1.733
17362SOL    HW153527   4.797   7.650   1.719
17362SOL    HW253528   4.773   7.502   1.699
17363SOL     OW53529   4.242   7.541   1.688
17363SOL    HW153530   4.190   7.465   1.662
17363SOL    HW253531   4.177   7.605   1.720
17364SOL     OW53532   4.020   7.640   1.253
17364SOL    HW153533   3.977   7.670   1.333
17364SOL    HW253534   4.002   7.546   1.250
17365SOL     OW53535   4.486   0.074   1.057
17365SOL    HW153536   4.471   0.096   0.966
17365SOL    HW253537   4.424   0.128   1.106
17366SOL     OW53538   4.037   7.512   0.630
17366SOL    HW153539   4.007   7.600   0.654
17366SOL    HW253540   4.046   7.466   0.714
17367SOL     OW53541   5.334   7.815   0.379
17367SOL    HW153542   5.376   7.742   0.424
17367SOL    HW253543   5.247   7.821   0.418
17368SOL     OW53544   5.168   7.744   0.102
17368SOL    HW153545   5.142   7.659   0.137
17368SOL    HW253546   5.252   7.764   0.144
17369SOL     OW53547   4.022   7.981   1.038
17369SOL    HW153548   4.018   7.887   1.019
17369SOL    HW253549   4.092   8.015   0.982
17370SOL     OW53550   4.881   7.825   1.681
17370SOL    HW153551   4.829   7.904   1.692
17370SOL    HW253552   4.972   7.855   1.689
17371SOL     OW53553   4.887   7.654   1.466
17371SOL    HW153554   4.884   7.718   1.537
17371SOL    HW253555   4.931   7.701   1.394
17372SOL     OW53556   3.755   7.949   1.121
17372SOL    HW153557   3.838   7.945   1.074
17372SOL    HW253558   3.780   7.961   1.213
17373SOL     OW53559   3.907   8.013   1.659
17373SOL    HW153560   3.937   7.923   1.672
17373SOL    HW253561   3.838   8.024   1.724
17374SOL     OW53562   4.519   8.026   0.269
17374SOL    HW153563   4.540   7.934   0.254
17374SOL    HW253564   4.459   8.025   0.344
17375SOL     OW53565   5.350   8.013   1.187
17375SOL    HW153566   5.356   7.962   1.267
17375SOL    HW253567   5.428   7.989   1.137
17376SOL     OW53568   4.427   7.861   1.248
17376SOL    HW153569   4.372   7.794   1.208
17376SOL    HW253570   4.438   7.927   1.180
17377SOL     OW53571   4.626   7.512   0.090
17377SOL    HW153572   4.664   7.498   0.004
17377SOL    HW253573   4.697   7.493   0.151
17378SOL     OW53574   5.456   7.602   0.505
17378SOL    HW153575   5.526   7.581   0.443
17378SOL    HW253576   5.433   7.518   0.545
17379SOL     OW53577   5.573   7.614   0.964
17379SOL    HW153578   5.596   7.524   0.939
17379SOL    HW253579   5.490   7.630   0.920
17380SOL     OW53580   3.964   7.759   0.719
17380SOL    HW153581   3.872   7.782   0.707
17380SOL    HW253582   3.975   7.751   0.814
17381SOL     OW53583   4.795   7.657   0.957
17381SOL    HW153584   4.775   7.610   0.876
17381SOL    HW253585   4.760   7.601   1.026
17382SOL     OW53586   5.463   7.857   1.378
17382SOL    HW153587   5.544   7.909   1.380
17382SOL    HW253588   5.488   7.775   1.335
17383SOL     OW53589   3.783   7.595   0.307
17383SOL    HW153590   3.770   7.682   0.269
17383SOL    HW253591   3.872   7.571   0.280
17384SOL     OW53592   4.501   7.991   1.717
17384SOL    HW153593   4.408   8.014   1.718
17384SOL    HW253594   4.501   7.896   1.717
17385SOL     OW53595   4.938   7.744   0.442
17385SOL    HW153596   5.005   7.676   0.453
17385SOL    HW253597   4.959   7.809   0.510
17386SOL     OW53598   4.363   0.236   0.648
17386SOL    HW153599   4.337   0.327   0.631
17386SOL    HW253600   4.280   0.190   0.662
17387SOL     OW53601   5.485   7.789   1.644
17387SOL    HW153602   5.468   7.838   1.563
17387SOL    HW253603   5.451   7.701   1.625
17388SOL     OW53604   5.558   7.648   1.235
17388SOL    HW153605   5.535   7.560   1.267
17388SOL    HW253606   5.563   7.639   1.140
17389SOL     OW53607   4.083   7.863   0.491
17389SOL    HW153608   4.129   7.795   0.442
17389SOL    HW253609   4.044   7.817   0.565
17390SOL     OW53610   5.138   7.657   1.072
17390SOL    HW153611   5.155   7.563   1.079
17390SOL    HW253612   5.108   7.684   1.159
17391SOL     OW53613   4.719   7.459   1.149
17391SOL    HW153614   4.662   7.394   1.108
17391SOL    HW253615   4.806   7.420   1.147
17392SOL     OW53616   5.078   7.496   0.190
17392SOL    HW153617   5.117   7.434   0.128
17392SOL    HW253618   4.989   7.465   0.203
17393SOL     OW53619   4.987   7.896   0.756
17393SOL    HW153620   4.907   7.948   0.743
17393SOL    HW253621   5.058   7.960   0.748
17394SOL     OW53622   5.327   7.678   0.867
17394SOL    HW153623   5.260   7.679   0.936
17394SOL    HW253624   5.316   7.762   0.822
17395SOL     OW53625   3.945   7.736   2.863
17395SOL    HW153626   3.974   7.694   2.944
17395SOL    HW253627   3.862   7.693   2.843
17396SOL     OW53628   3.701   7.830   2.507
17396SOL    HW153629   3.619   7.866   2.541
17396SOL    HW253630   3.677   7.745   2.470
17397SOL     OW53631   5.403   0.011   2.088
17397SOL    HW153632   5.409  -0.005   1.994
17397SOL    HW253633   5.482   0.059   2.110
17398SOL     OW53634   4.141   7.856   3.410
17398SOL    HW153635   4.218   7.818   3.367
17398SOL    HW253636   4.070   7.795   3.389
17399SOL     OW53637   5.322   7.942   2.559
17399SOL    HW153638   5.234   7.923   2.524
17399SOL    HW253639   5.307   7.964   2.651
17400SOL     OW53640   5.317   7.579   3.323
17400SOL    HW153641   5.354   7.658   3.284
17400SOL    HW253642   5.288   7.607   3.410
17401SOL     OW53643   3.791   0.089   2.427
17401SOL    HW153644   3.776  -0.002   2.453
17401SOL    HW253645   3.834   0.128   2.503
17402SOL     OW53646   4.550   7.442   2.393
17402SOL    HW153647   4.589   7.523   2.361
17402SOL    HW253648   4.455   7.460   2.391
17403SOL     OW53649   4.067   7.690   3.700
17403SOL    HW153650   4.107   7.777   3.699
17403SOL    HW253651   3.974   7.707   3.716
17404SOL     OW53652   4.991   7.794   2.790
17404SOL    HW153653   4.901   7.760   2.801
17404SOL    HW253654   5.044   7.740   2.848
17405SOL     OW53655   5.130   7.925   3.552
17405SOL    HW153656   5.124   7.972   3.635
17405SOL    HW253657   5.185   7.849   3.571
17406SOL     OW53658   4.626   0.387   3.404
17406SOL    HW153659   4.716   0.390   3.436
17406SOL    HW253660   4.626   0.318   3.338
17407SOL     OW53661   4.718   7.816   3.111
17407SOL    HW153662   4.633   7.846   3.144
17407SOL    HW253663   4.697   7.749   3.046
17408SOL     OW53664   4.609   7.783   2.051
17408SOL    HW153665   4.661   7.793   1.971
17408SOL    HW253666   4.604   7.688   2.064
17409SOL     OW53667   5.471   0.016   3.676
17409SOL    HW153668   5.418   0.082   3.632
17409SOL    HW253669   5.477  -0.055   3.612
17410SOL     OW53670   4.292   7.633   2.769
17410SOL    HW153671   4.288   7.648   2.864
17410SOL    HW253672   4.282   7.720   2.731
17411SOL     OW53673   3.904   7.718   3.372
17411SOL    HW153674   3.840   7.761   3.429
17411SOL    HW253675   3.895   7.625   3.391
17412SOL     OW53676   5.149   7.504   2.309
17412SOL    HW153677   5.155   7.433   2.245
17412SOL    HW253678   5.221   7.487   2.371
17413SOL     OW53679   5.242   7.665   3.587
17413SOL    HW153680   5.248   7.687   3.680
17413SOL    HW253681   5.170   7.602   3.582
17414SOL     OW53682   4.357   7.572   1.946
17414SOL    HW153683   4.381   7.483   1.974
17414SOL    HW253684   4.305   7.558   1.866
17415SOL     OW53685   4.494   7.728   3.605
17415SOL    HW153686   4.575   7.677   3.607
17415SOL    HW253687   4.450   7.705   3.687
17416SOL     OW53688   5.066   0.003   3.293
17416SOL    HW153689   5.099  -0.020   3.380
17416SOL    HW253690   5.006   0.076   3.308
17417SOL     OW53691   4.285   7.506   2.359
17417SOL    HW153692   4.207   7.511   2.413
17417SOL    HW253693   4.278   7.582   2.300
17418SOL     OW53694   4.018   7.496   2.055
17418SOL    HW153695   4.088   7.555   2.025
17418SOL    HW253696   4.065   7.426   2.101
17419SOL     OW53697   4.677   7.674   2.317
17419SOL    HW153698   4.629   7.752   2.288
17419SOL    HW253699   4.769   7.701   2.319
17420SOL     OW53700   3.816  -0.007   3.245
17420SOL    HW153701   3.875  -0.062   3.296
17420SOL    HW253702   3.805   0.073   3.297
17421SOL     OW53703   4.282   7.668   3.042
17421SOL    HW153704   4.318   7.599   3.098
17421SOL    HW253705   4.189   7.671   3.065
17422SOL     OW53706   4.747   7.486   2.596
17422SOL    HW153707   4.680   7.483   2.527
17422SOL    HW253708   4.721   7.418   2.658
17423SOL     OW53709   5.232   7.939   2.816
17423SOL    HW153710   5.140   7.917   2.829
17423SOL    HW253711   5.260   7.976   2.899
17424SOL     OW53712   4.266   7.711   2.174
17424SOL    HW153713   4.303   7.670   2.095
17424SOL    HW253714   4.304   7.799   2.174
17425SOL     OW53715   4.647   7.530   3.255
17425SOL    HW153716   4.669   7.511   3.164
17425SOL    HW253717   4.726   7.570   3.291
17426SOL     OW53718   4.987   7.801   3.138
17426SOL    HW153719   5.018   7.876   3.188
17426SOL    HW253720   4.892   7.815   3.131
17427SOL     OW53721   4.271   7.924   2.733
17427SOL    HW153722   4.238   7.984   2.667
17427SOL    HW253723   4.344   7.971   2.774
17428SOL     OW53724   4.729   7.588   3.616
17428SOL    HW153725   4.788   7.660   3.596
17428SOL    HW253726   4.778   7.509   3.594
17429SOL     OW53727   4.216   7.476   3.618
17429SOL    HW153728   4.170   7.428   3.549
17429SOL    HW253729   4.160   7.551   3.636
17430SOL     OW53730   4.020   7.647   3.115
17430SOL    HW153731   3.968   7.674   3.191
17430SOL    HW253732   4.005   7.553   3.107
17431SOL     OW53733   4.475   0.062   2.879
17431SOL    HW153734   4.522   0.097   2.803
17431SOL    HW253735   4.415   0.131   2.905
17432SOL     OW53736   4.041   7.521   2.484
17432SOL    HW153737   4.005   7.604   2.514
17432SOL    HW253738   4.053   7.470   2.564
17433SOL     OW53739   5.310   7.792   2.244
17433SOL    HW153740   5.371   7.753   2.307
17433SOL    HW253741   5.352   7.873   2.216
17434SOL     OW53742   4.966   0.241   1.935
17434SOL    HW153743   5.053   0.274   1.954
17434SOL    HW253744   4.935   0.297   1.863
17435SOL     OW53745   4.044   7.982   2.900
17435SOL    HW153746   4.015   7.891   2.888
17435SOL    HW253747   4.122   7.990   2.846
17436SOL     OW53748   4.880   7.809   3.541
17436SOL    HW153749   4.825   7.885   3.563
17436SOL    HW253750   4.969   7.843   3.540
17437SOL     OW53751   4.892   7.629   3.335
17437SOL    HW153752   4.881   7.694   3.405
17437SOL    HW253753   4.935   7.677   3.264
17438SOL     OW53754   3.745   7.958   2.982
17438SOL    HW153755   3.814   7.913   2.932
17438SOL    HW253756   3.779   7.962   3.071
17439SOL     OW53757   3.910   7.976   3.545
17439SOL    HW153758   3.993   7.942   3.513
17439SOL    HW253759   3.934   8.055   3.594
17440SOL     OW53760   4.521   0.037   2.103
17440SOL    HW153761   4.559  -0.050   2.093
17440SOL    HW253762   4.463   0.029   2.179
17441SOL     OW53763   5.351   8.023   3.056
17441SOL    HW153764   5.335   8.004   3.148
17441SOL    HW253765   5.425   7.967   3.032
17442SOL     OW53766   4.452   7.882   3.094
17442SOL    HW153767   4.386   7.814   3.080
17442SOL    HW253768   4.441   7.942   3.019
17443SOL     OW53769   5.478   7.610   2.383
17443SOL    HW153770   5.537   7.592   2.310
17443SOL    HW253771   5.449   7.523   2.412
17444SOL     OW53772   5.567   7.617   2.817
17444SOL    HW153773   5.591   7.526   2.796
17444SOL    HW253774   5.478   7.627   2.783
17445SOL     OW53775   3.963   7.768   2.581
17445SOL    HW153776   3.870   7.787   2.571
17445SOL    HW253777   3.974   7.759   2.676
17446SOL     OW53778   4.753   7.665   2.819
17446SOL    HW153779   4.745   7.619   2.735
17446SOL    HW253780   4.743   7.597   2.885
17447SOL     OW53781   5.466   7.817   3.253
17447SOL    HW153782   5.532   7.886   3.250
17447SOL    HW253783   5.498   7.751   3.191
17448SOL     OW53784   4.405   7.630   3.356
17448SOL    HW153785   4.491   7.608   3.320
17448SOL    HW253786   4.424   7.669   3.441
17449SOL     OW53787   3.816   7.802   1.892
17449SOL    HW153788   3.746   7.779   1.830
17449SOL    HW253789   3.788   7.887   1.927
17450SOL     OW53790   3.784   7.595   2.158
17450SOL    HW153791   3.779   7.677   2.109
17450SOL    HW253792   3.869   7.558   2.134
17451SOL     OW53793   4.494   8.018   3.568
17451SOL    HW153794   4.401   8.024   3.589
17451SOL    HW253795   4.513   7.924   3.569
17452SOL     OW53796   4.978   7.748   2.313
17452SOL    HW153797   4.999   7.671   2.365
17452SOL    HW253798   4.992   7.822   2.372
17453SOL     OW53799   4.353   0.230   2.457
17453SOL    HW153800   4.387   0.311   2.495
17453SOL    HW253801   4.295   0.195   2.524
17454SOL     OW53802   5.481   7.790   3.525
17454SOL    HW153803   5.477   7.803   3.431
17454SOL    HW253804   5.403   7.738   3.546
17455SOL     OW53805   5.538   7.617   3.089
17455SOL    HW153806   5.539   7.522   3.097
17455SOL    HW253807   5.550   7.634   2.996
17456SOL     OW53808   4.091   7.855   2.354
17456SOL    HW153809   4.125   7.780   2.305
17456SOL    HW253810   4.048   7.816   2.431
17457SOL     OW53811   5.149   7.661   2.979
17457SOL    HW153812   5.171   7.583   3.030
17457SOL    HW253813   5.098   7.715   3.038
17458SOL     OW53814   4.731   7.456   2.999
17458SOL    HW153815   4.672   7.390   2.963
17458SOL    HW253816   4.817   7.416   2.995
17459SOL     OW53817   5.086   7.508   2.008
17459SOL    HW153818   5.120   7.456   1.935
17459SOL    HW253819   5.007   7.460   2.036
17460SOL     OW53820   5.036   7.899   2.538
17460SOL    HW153821   4.994   7.985   2.545
17460SOL    HW253822   5.022   7.859   2.623
17461SOL     OW53823   5.302   7.648   2.754
17461SOL    HW153824   5.253   7.658   2.835
17461SOL    HW253825   5.295   7.733   2.710
17462SOL     OW53826   3.956   7.713   4.718
17462SOL    HW153827   3.980   7.684   4.807
17462SOL    HW253828   3.864   7.687   4.709
17463SOL     OW53829   3.722   7.843   4.386
17463SOL    HW153830   3.638   7.878   4.415
17463SOL    HW253831   3.699   7.769   4.330
17464SOL     OW53832   5.401  -0.004   3.942
17464SOL    HW153833   5.423  -0.005   3.848
17464SOL    HW253834   5.472   0.047   3.982
17465SOL     OW53835   4.172   7.835   5.219
17465SOL    HW153836   4.242   7.772   5.204
17465SOL    HW253837   4.092   7.782   5.222
17466SOL     OW53838   5.323   7.897   4.440
17466SOL    HW153839   5.240   7.904   4.394
17466SOL    HW253840   5.307   7.935   4.526
17467SOL     OW53841   5.315   7.581   5.185
17467SOL    HW153842   5.357   7.659   5.150
17467SOL    HW253843   5.287   7.606   5.273
17468SOL     OW53844   3.783   0.115   4.326
17468SOL    HW153845   3.785   0.020   4.343
17468SOL    HW253846   3.869   0.145   4.356
17469SOL     OW53847   4.538   7.427   4.240
17469SOL    HW153848   4.584   7.507   4.216
17469SOL    HW253849   4.446   7.452   4.244
17470SOL     OW53850   4.079   7.716   5.550
17470SOL    HW153851   4.113   7.799   5.517
17470SOL    HW253852   3.990   7.737   5.579
17471SOL     OW53853   4.991   7.803   4.661
17471SOL    HW153854   4.901   7.770   4.668
17471SOL    HW253855   5.043   7.744   4.716
17472SOL     OW53856   5.125   7.927   5.419
17472SOL    HW153857   5.142   7.979   5.498
17472SOL    HW253858   5.180   7.849   5.430
17473SOL     OW53859   4.649   0.326   5.303
17473SOL    HW153860   4.731   0.368   5.329
17473SOL    HW253861   4.606   0.391   5.246
17474SOL     OW53862   4.728   7.820   4.988
17474SOL    HW153863   4.674   7.870   5.048
17474SOL    HW253864   4.666   7.778   4.929
17475SOL     OW53865   4.624   7.790   3.905
17475SOL    HW153866   4.679   7.806   3.829
17475SOL    HW253867   4.655   7.707   3.941
17476SOL     OW53868   5.454   0.011   5.539
17476SOL    HW153869   5.405   0.076   5.487
17476SOL    HW253870   5.483  -0.054   5.475
17477SOL     OW53871   4.276   7.629   4.631
17477SOL    HW153872   4.278   7.645   4.725
17477SOL    HW253873   4.270   7.716   4.591
17478SOL     OW53874   3.921   7.704   5.222
17478SOL    HW153875   3.840   7.753   5.232
17478SOL    HW253876   3.901   7.617   5.256
17479SOL     OW53877   5.129   7.555   4.164
17479SOL    HW153878   5.119   7.524   4.074
17479SOL    HW253879   5.191   7.627   4.157
17480SOL     OW53880   5.241   7.671   5.458
17480SOL    HW153881   5.246   7.684   5.553
17480SOL    HW253882   5.170   7.607   5.446
17481SOL     OW53883   4.370   7.578   3.821
17481SOL    HW153884   4.430   7.507   3.844
17481SOL    HW253885   4.315   7.541   3.751
17482SOL     OW53886   4.503   7.709   5.474
17482SOL    HW153887   4.585   7.660   5.475
17482SOL    HW253888   4.454   7.675   5.549
17483SOL     OW53889   5.071   0.003   5.155
17483SOL    HW153890   5.100  -0.021   5.244
17483SOL    HW253891   5.013   0.078   5.168
17484SOL     OW53892   4.277   7.507   4.217
17484SOL    HW153893   4.200   7.515   4.273
17484SOL    HW253894   4.280   7.589   4.169
17485SOL     OW53895   4.011   7.489   3.908
17485SOL    HW153896   4.063   7.560   3.869
17485SOL    HW253897   4.075   7.433   3.951
17486SOL     OW53898   4.666   7.662   4.186
17486SOL    HW153899   4.621   7.746   4.182
17486SOL    HW253900   4.759   7.685   4.191
17487SOL     OW53901   3.824  -0.006   5.111
17487SOL    HW153902   3.905  -0.017   5.161
17487SOL    HW253903   3.793   0.081   5.135
17488SOL     OW53904   4.277   7.662   4.903
17488SOL    HW153905   4.319   7.611   4.972
17488SOL    HW253906   4.184   7.664   4.927
17489SOL     OW53907   4.760   7.481   4.466
17489SOL    HW153908   4.694   7.496   4.398
17489SOL    HW253909   4.721   7.414   4.522
17490SOL     OW53910   5.227   7.945   4.688
17490SOL    HW153911   5.135   7.918   4.691
17490SOL    HW253912   5.231   8.021   4.746
17491SOL     OW53913   4.288   7.727   4.056
17491SOL    HW153914   4.321   7.696   3.971
17491SOL    HW253915   4.307   7.820   4.056
17492SOL     OW53916   4.648   7.533   5.117
17492SOL    HW153917   4.671   7.520   5.026
17492SOL    HW253918   4.725   7.575   5.156
17493SOL     OW53919   4.994   7.795   5.002
17493SOL    HW153920   5.024   7.873   5.048
17493SOL    HW253921   4.900   7.808   4.991
17494SOL     OW53922   4.271   7.927   4.598
17494SOL    HW153923   4.253   7.983   4.522
17494SOL    HW253924   4.344   7.970   4.643
17495SOL     OW53925   4.745   7.583   5.490
17495SOL    HW153926   4.797   7.660   5.467
17495SOL    HW253927   4.798   7.509   5.463
17496SOL     OW53928   4.215   7.486   5.479
17496SOL    HW153929   4.163   7.434   5.417
17496SOL    HW253930   4.163   7.565   5.492
17497SOL     OW53931   4.018   7.637   4.973
17497SOL    HW153932   3.979   7.671   5.054
17497SOL    HW253933   3.997   7.543   4.974
17498SOL     OW53934   4.470   0.065   4.741
17498SOL    HW153935   4.517   0.105   4.668
17498SOL    HW253936   4.418   0.137   4.779
17499SOL     OW53937   4.037   7.517   4.356
17499SOL    HW153938   4.013   7.608   4.374
17499SOL    HW253939   4.042   7.476   4.442
17500SOL     OW53940   5.296   7.772   4.113
17500SOL    HW153941   5.364   7.738   4.171
17500SOL    HW253942   5.316   7.865   4.105
17501SOL     OW53943   5.220   7.731   3.849
17501SOL    HW153944   5.164   7.656   3.871
17501SOL    HW253945   5.265   7.753   3.930
17502SOL     OW53946   5.019   0.207   3.691
17502SOL    HW153947   5.043   0.143   3.758
17502SOL    HW253948   4.981   0.280   3.740
17503SOL     OW53949   4.029   7.969   4.749
17503SOL    HW153950   4.012   7.875   4.738
17503SOL    HW253951   4.115   7.982   4.709
17504SOL     OW53952   4.870   7.821   5.407
17504SOL    HW153953   4.811   7.895   5.421
17504SOL    HW253954   4.958   7.858   5.410
17505SOL     OW53955   4.891   7.633   5.205
17505SOL    HW153956   4.879   7.702   5.271
17505SOL    HW253957   4.934   7.678   5.132
17506SOL     OW53958   3.762   7.951   4.844
17506SOL    HW153959   3.846   7.954   4.799
17506SOL    HW253960   3.785   7.959   4.937
17507SOL     OW53961   4.504   8.022   3.978
17507SOL    HW153962   4.549   7.941   3.956
17507SOL    HW253963   4.501   8.022   4.074
17508SOL     OW53964   5.357   0.036   4.937
17508SOL    HW153965   5.337  -0.018   5.013
17508SOL    HW253966   5.413  -0.018   4.882
17509SOL     OW53967   4.460   7.868   4.934
17509SOL    HW153968   4.384   7.811   4.927
17509SOL    HW253969   4.445   7.937   4.871
17510SOL     OW53970   5.483   7.612   4.242
17510SOL    HW153971   5.544   7.597   4.169
17510SOL    HW253972   5.451   7.524   4.263
17511SOL     OW53973   5.567   7.618   4.686
17511SOL    HW153974   5.593   7.530   4.661
17511SOL    HW253975   5.481   7.630   4.646
17512SOL     OW53976   3.978   7.772   4.449
17512SOL    HW153977   3.887   7.798   4.434
17512SOL    HW253978   3.982   7.754   4.543
17513SOL     OW53979   4.757   7.668   4.679
17513SOL    HW153980   4.757   7.614   4.600
17513SOL    HW253981   4.742   7.605   4.751
17514SOL     OW53982   5.460   7.815   5.117
17514SOL    HW153983   5.522   7.888   5.115
17514SOL    HW253984   5.495   7.752   5.053
17515SOL     OW53985   4.402   7.631   5.217
17515SOL    HW153986   4.487   7.612   5.179
17515SOL    HW253987   4.422   7.667   5.304
17516SOL     OW53988   3.808   7.772   3.745
17516SOL    HW153989   3.735   7.753   3.686
17516SOL    HW253990   3.823   7.867   3.735
17517SOL     OW53991   3.776   7.580   4.016
17517SOL    HW153992   3.765   7.663   3.969
17517SOL    HW253993   3.863   7.550   3.990
17518SOL     OW53994   4.401   7.975   5.471
17518SOL    HW153995   4.465   8.044   5.455
17518SOL    HW253996   4.449   7.893   5.456
17519SOL     OW53997   4.926   7.742   4.202
17519SOL    HW153998   4.996   7.678   4.187
17519SOL    HW253999   4.964   7.806   4.262
17520SOL     OW54000   4.370   0.225   4.358
17520SOL    HW154001   4.417   0.309   4.359
17520SOL    HW254002   4.321   0.225   4.440
17521SOL     OW54003   5.488   7.780   5.387
17521SOL    HW154004   5.474   7.802   5.295
17521SOL    HW254005   5.407   7.737   5.414
17522SOL     OW54006   5.537   7.614   4.957
17522SOL    HW154007   5.543   7.518   4.958
17522SOL    HW254008   5.550   7.637   4.865
17523SOL     OW54009   4.034   7.808   4.169
17523SOL    HW154010   4.126   7.791   4.150
17523SOL    HW254011   4.029   7.811   4.265
17524SOL     OW54012   5.156   7.653   4.843
17524SOL    HW154013   5.219   7.615   4.905
17524SOL    HW254014   5.096   7.704   4.898
17525SOL     OW54015   4.730   7.455   4.861
17525SOL    HW154016   4.663   7.392   4.836
17525SOL    HW254017   4.813   7.409   4.846
17526SOL     OW54018   5.083   7.496   3.895
17526SOL    HW154019   5.118   7.424   3.842
17526SOL    HW254020   4.995   7.467   3.919
17527SOL     OW54021   5.039   7.899   4.401
17527SOL    HW154022   5.011   7.990   4.397
17527SOL    HW254023   5.019   7.872   4.491
17528SOL     OW54024   5.302   7.638   4.604
17528SOL    HW154025   5.252   7.663   4.681
17528SOL    HW254026   5.300   7.715   4.547
17529SOL     OW54027   3.954   7.723   6.580
17529SOL    HW154028   3.981   7.688   6.665
17529SOL    HW254029   3.865   7.690   6.568
17530SOL     OW54030   3.708   7.819   6.244
17530SOL    HW154031   3.626   7.861   6.268
17530SOL    HW254032   3.682   7.738   6.200
17531SOL     OW54033   5.398   0.040   5.803
17531SOL    HW154034   5.431   0.023   5.715
17531SOL    HW254035   5.404  -0.045   5.848
17532SOL     OW54036   4.144   7.854   7.133
17532SOL    HW154037   4.222   7.817   7.091
17532SOL    HW254038   4.073   7.793   7.110
17533SOL     OW54039   5.319   7.935   6.284
17533SOL    HW154040   5.228   7.924   6.257
17533SOL    HW254041   5.314   7.971   6.372
17534SOL     OW54042   5.317   7.578   7.049
17534SOL    HW154043   5.350   7.659   7.008
17534SOL    HW254044   5.288   7.606   7.136
17535SOL     OW54045   3.787   0.089   6.181
17535SOL    HW154046   3.780  -0.003   6.206
17535SOL    HW254047   3.843   0.128   6.248
17536SOL     OW54048   4.542   7.446   6.111
17536SOL    HW154049   4.585   7.525   6.081
17536SOL    HW254050   4.449   7.468   6.112
17537SOL     OW54051   4.059   7.693   7.427
17537SOL    HW154052   4.087   7.775   7.386
17537SOL    HW254053   3.967   7.706   7.446
17538SOL     OW54054   4.994   7.799   6.516
17538SOL    HW154055   4.905   7.766   6.525
17538SOL    HW254056   5.047   7.744   6.574
17539SOL     OW54057   5.125   7.931   7.283
17539SOL    HW154058   5.111   7.956   7.374
17539SOL    HW254059   5.176   7.850   7.288
17540SOL     OW54060   4.640   0.345   7.160
17540SOL    HW154061   4.652   0.287   7.086
17540SOL    HW254062   4.614   0.428   7.122
17541SOL     OW54063   4.725   7.820   6.831
17541SOL    HW154064   4.640   7.846   6.866
17541SOL    HW254065   4.704   7.753   6.766
17542SOL     OW54066   4.618   7.797   5.773
17542SOL    HW154067   4.631   7.819   5.681
17542SOL    HW254068   4.628   7.702   5.776
17543SOL     OW54069   5.482   0.033   7.398
17543SOL    HW154070   5.414   0.091   7.364
17543SOL    HW254071   5.479  -0.044   7.342
17544SOL     OW54072   4.280   7.631   6.490
17544SOL    HW154073   4.282   7.648   6.585
17544SOL    HW254074   4.274   7.718   6.451
17545SOL     OW54075   3.916   7.709   7.088
17545SOL    HW154076   3.843   7.759   7.124
17545SOL    HW254077   3.899   7.619   7.114
17546SOL     OW54078   5.167   7.552   5.970
17546SOL    HW154079   5.200   7.463   5.963
17546SOL    HW254080   5.237   7.601   6.014
17547SOL     OW54081   5.240   7.671   7.314
17547SOL    HW154082   5.242   7.691   7.407
17547SOL    HW254083   5.180   7.596   7.307
17548SOL     OW54084   4.375   7.565   5.685
17548SOL    HW154085   4.408   7.483   5.722
17548SOL    HW254086   4.316   7.538   5.614
17549SOL     OW54087   4.491   7.715   7.339
17549SOL    HW154088   4.574   7.667   7.336
17549SOL    HW254089   4.443   7.674   7.411
17550SOL     OW54090   5.084   0.014   7.019
17550SOL    HW154091   5.105  -0.013   7.109
17550SOL    HW254092   5.018   0.082   7.029
17551SOL     OW54093   4.279   7.510   6.080
17551SOL    HW154094   4.201   7.513   6.135
17551SOL    HW254095   4.276   7.590   6.028
17552SOL     OW54096   4.015   7.508   5.771
17552SOL    HW154097   4.078   7.570   5.733
17552SOL    HW254098   4.070   7.442   5.814
17553SOL     OW54099   4.675   7.669   6.035
17553SOL    HW154100   4.639   7.748   5.996
17553SOL    HW254101   4.768   7.687   6.048
17554SOL     OW54102   3.815  -0.005   6.968
17554SOL    HW154103   3.895  -0.022   7.018
17554SOL    HW254104   3.787   0.082   6.996
17555SOL     OW54105   4.282   7.665   6.764
17555SOL    HW154106   4.320   7.595   6.817
17555SOL    HW254107   4.189   7.665   6.788
17556SOL     OW54108   4.739   7.491   6.324
17556SOL    HW154109   4.673   7.490   6.254
17556SOL    HW254110   4.714   7.419   6.382
17557SOL     OW54111   5.224   7.954   6.547
17557SOL    HW154112   5.137   7.913   6.545
17557SOL    HW254113   5.211   8.034   6.598
17558SOL     OW54114   4.274   7.726   5.910
17558SOL    HW154115   4.312   7.691   5.829
17558SOL    HW254116   4.303   7.817   5.914
17559SOL     OW54117   4.643   7.533   6.976
17559SOL    HW154118   4.665   7.510   6.886
17559SOL    HW254119   4.723   7.571   7.012
17560SOL     OW54120   4.995   7.800   6.872
17560SOL    HW154121   5.028   7.880   6.914
17560SOL    HW254122   4.903   7.817   6.855
17561SOL     OW54123   4.267   7.924   6.460
17561SOL    HW154124   4.237   7.981   6.389
17561SOL    HW254125   4.340   7.973   6.500
17562SOL     OW54126   4.731   7.589   7.348
17562SOL    HW154127   4.790   7.661   7.323
17562SOL    HW254128   4.777   7.510   7.321
17563SOL     OW54129   4.214   7.482   7.343
17563SOL    HW154130   4.168   7.428   7.279
17563SOL    HW254131   4.156   7.556   7.359
17564SOL     OW54132   4.020   7.640   6.836
17564SOL    HW154133   3.975   7.669   6.915
17564SOL    HW254134   4.003   7.545   6.833
17565SOL     OW54135   4.476   0.066   6.602
17565SOL    HW154136   4.511   0.101   6.520
17565SOL    HW254137   4.415   0.134   6.633
17566SOL     OW54138   4.038   7.516   6.215
17566SOL    HW154139   4.010   7.604   6.239
17566SOL    HW254140   4.047   7.469   6.298
17567SOL     OW54141   5.342   7.816   5.967
17567SOL    HW154142   5.391   7.751   6.018
17567SOL    HW254143   5.306   7.876   6.033
17568SOL     OW54144   5.223   7.712   5.731
17568SOL    HW154145   5.189   7.646   5.792
17568SOL    HW254146   5.279   7.768   5.785
17569SOL     OW54147   4.995   0.233   5.593
17569SOL    HW154148   5.068   0.225   5.654
17569SOL    HW254149   4.971   0.325   5.595
17570SOL     OW54150   4.029   7.977   6.627
17570SOL    HW154151   4.015   7.884   6.608
17570SOL    HW254152   4.107   8.000   6.577
17571SOL     OW54153   4.869   7.826   7.264
17571SOL    HW154154   4.816   7.903   7.286
17571SOL    HW254155   4.959   7.858   7.264
17572SOL     OW54156   4.885   7.634   7.064
17572SOL    HW154157   4.873   7.702   7.130
17572SOL    HW254158   4.933   7.677   6.993
17573SOL     OW54159   3.755   7.948   6.704
17573SOL    HW154160   3.839   7.943   6.659
17573SOL    HW254161   3.778   7.959   6.797
17574SOL     OW54162   3.928   7.956   7.302
17574SOL    HW154163   4.001   7.942   7.242
17574SOL    HW254164   3.937   8.048   7.329
17575SOL     OW54165   4.523   0.048   5.834
17575SOL    HW154166   4.564  -0.038   5.824
17575SOL    HW254167   4.485   0.047   5.922
17576SOL     OW54168   5.354   8.035   6.802
17576SOL    HW154169   5.331   7.974   6.872
17576SOL    HW254170   5.390   7.979   6.732
17577SOL     OW54171   4.454   7.879   6.815
17577SOL    HW154172   4.388   7.811   6.799
17577SOL    HW254173   4.444   7.940   6.742
17578SOL     OW54174   5.458   7.601   6.094
17578SOL    HW154175   5.526   7.585   6.029
17578SOL    HW254176   5.433   7.514   6.124
17579SOL     OW54177   5.574   7.616   6.548
17579SOL    HW154178   5.592   7.526   6.524
17579SOL    HW254179   5.486   7.633   6.513
17580SOL     OW54180   3.970   7.767   6.303
17580SOL    HW154181   3.877   7.786   6.292
17580SOL    HW254182   3.981   7.758   6.398
17581SOL     OW54183   4.759   7.665   6.547
17581SOL    HW154184   4.750   7.621   6.463
17581SOL    HW254185   4.747   7.595   6.612
17582SOL     OW54186   5.464   7.812   6.979
17582SOL    HW154187   5.522   7.888   6.970
17582SOL    HW254188   5.496   7.750   6.914
17583SOL     OW54189   4.402   7.633   7.083
17583SOL    HW154190   4.486   7.611   7.042
17583SOL    HW254191   4.426   7.668   7.169
17584SOL     OW54192   3.815   7.809   5.607
17584SOL    HW154193   3.783   7.734   5.556
17584SOL    HW254194   3.738   7.863   5.621
17585SOL     OW54195   3.790   7.596   5.898
17585SOL    HW154196   3.795   7.691   5.887
17585SOL    HW254197   3.871   7.563   5.859
17586SOL     OW54198   4.514   7.992   7.319
17586SOL    HW154199   4.424   8.022   7.304
17586SOL    HW254200   4.508   7.896   7.315
17587SOL     OW54201   4.944   7.731   6.054
17587SOL    HW154202   5.020   7.684   6.019
17587SOL    HW254203   4.980   7.791   6.119
17588SOL     OW54204   4.375   0.223   6.214
17588SOL    HW154205   4.378   0.319   6.221
17588SOL    HW254206   4.299   0.198   6.267
17589SOL     OW54207   5.480   7.802   7.254
17589SOL    HW154208   5.470   7.816   7.160
17589SOL    HW254209   5.407   7.745   7.277
17590SOL     OW54210   5.555   7.617   6.820
17590SOL    HW154211   5.538   7.523   6.828
17590SOL    HW254212   5.562   7.633   6.726
17591SOL     OW54213   4.051   7.845   6.047
17591SOL    HW154214   4.122   7.791   6.012
17591SOL    HW254215   4.031   7.806   6.132
17592SOL     OW54216   5.148   7.659   6.696
17592SOL    HW154217   5.147   7.567   6.723
17592SOL    HW254218   5.103   7.705   6.767
17593SOL     OW54219   4.728   7.453   6.723
17593SOL    HW154220   4.675   7.385   6.681
17593SOL    HW254221   4.816   7.415   6.727
17594SOL     OW54222   5.045   7.893   6.260
17594SOL    HW154223   5.000   7.977   6.254
17594SOL    HW254224   5.023   7.859   6.346
17595SOL     OW54225   5.314   7.660   6.477
17595SOL    HW154226   5.260   7.663   6.556
17595SOL    HW254227   5.296   7.743   6.433
17596SOL     OW54228   3.951   7.728   8.424
17596SOL    HW154229   3.957   7.747   8.518
17596SOL    HW254230   3.863   7.693   8.412
17597SOL     OW54231   3.698   7.820   8.103
17597SOL    HW154232   3.614   7.852   8.136
17597SOL    HW254233   3.676   7.737   8.060
17598SOL     OW54234   5.409   8.013   7.669
17598SOL    HW154235   5.438   8.044   7.583
17598SOL    HW254236   5.432   7.920   7.671
17599SOL     OW54237   4.169   7.849   8.993
17599SOL    HW154238   4.240   7.821   8.934
17599SOL    HW254239   4.093   7.799   8.964
17600SOL     OW54240   5.311   7.906   8.189
17600SOL    HW154241   5.221   7.901   8.158
17600SOL    HW254242   5.330   8.000   8.194
17601SOL     OW54243   5.300   7.577   8.905
17601SOL    HW154244   5.351   7.637   8.850
17601SOL    HW254245   5.285   7.627   8.985
17602SOL     OW54246   3.847   0.047   8.095
17602SOL    HW154247   3.792  -0.029   8.077
17602SOL    HW254248   3.810   0.117   8.041
17603SOL     OW54249   4.545   7.435   7.975
17603SOL    HW154250   4.590   7.513   7.944
17603SOL    HW254251   4.452   7.459   7.973
17604SOL     OW54252   4.059   7.706   9.275
17604SOL    HW154253   4.071   7.794   9.239
17604SOL    HW254254   3.970   7.706   9.309
17605SOL     OW54255   4.983   7.816   8.389
17605SOL    HW154256   4.899   7.771   8.400
17605SOL    HW254257   5.046   7.760   8.434
17606SOL     OW54258   5.139   7.933   9.153
17606SOL    HW154259   5.174   7.960   9.238
17606SOL    HW254260   5.185   7.851   9.134
17607SOL     OW54261   4.622   0.361   9.025
17607SOL    HW154262   4.699   0.318   8.989
17607SOL    HW254263   4.560   0.365   8.952
17608SOL     OW54264   4.715   7.793   8.689
17608SOL    HW154265   4.630   7.833   8.707
17608SOL    HW254266   4.706   7.755   8.602
17609SOL     OW54267   4.627   7.773   7.644
17609SOL    HW154268   4.629   7.829   7.566
17609SOL    HW254269   4.648   7.685   7.612
17610SOL     OW54270   5.437   0.026   9.256
17610SOL    HW154271   5.442   0.094   9.189
17610SOL    HW254272   5.467  -0.053   9.211
17611SOL     OW54273   4.273   7.627   8.343
17611SOL    HW154274   4.257   7.661   8.431
17611SOL    HW254275   4.279   7.706   8.288
17612SOL     OW54276   3.909   7.729   8.950
17612SOL    HW154277   3.878   7.816   8.925
17612SOL    HW254278   3.887   7.722   9.043
17613SOL     OW54279   5.119   7.539   7.887
17613SOL    HW154280   5.109   7.518   7.794
17613SOL    HW254281   5.214   7.541   7.901
17614SOL     OW54282   5.251   7.670   9.178
17614SOL    HW154283   5.240   7.697   9.269
17614SOL    HW254284   5.224   7.578   9.177
17615SOL     OW54285   4.376   7.553   7.546
17615SOL    HW154286   4.427   7.475   7.566
17615SOL    HW254287   4.317   7.526   7.475
17616SOL     OW54288   4.501   7.666   9.202
17616SOL    HW154289   4.465   7.617   9.276
17616SOL    HW254290   4.444   7.742   9.193
17617SOL     OW54291   5.052   0.009   8.876
17617SOL    HW154292   5.100  -0.002   8.958
17617SOL    HW254293   4.994   0.083   8.892
17618SOL     OW54294   4.284   7.505   7.946
17618SOL    HW154295   4.201   7.506   7.994
17618SOL    HW254296   4.279   7.580   7.887
17619SOL     OW54297   4.009   7.501   7.634
17619SOL    HW154298   4.060   7.561   7.580
17619SOL    HW254299   4.074   7.441   7.671
17620SOL     OW54300   4.675   7.662   7.904
17620SOL    HW154301   4.648   7.713   7.827
17620SOL    HW254302   4.765   7.691   7.921
17621SOL     OW54303   3.824  -0.019   8.885
17621SOL    HW154304   3.831  -0.020   8.790
17621SOL    HW254305   3.782   0.065   8.906
17622SOL     OW54306   4.284   7.644   8.631
17622SOL    HW154307   4.313   7.558   8.600
17622SOL    HW254308   4.299   7.643   8.725
17623SOL     OW54309   4.739   7.514   8.201
17623SOL    HW154310   4.687   7.517   8.121
17623SOL    HW254311   4.714   7.431   8.242
17624SOL     OW54312   5.133   0.041   8.472
17624SOL    HW154313   5.079  -0.033   8.444
17624SOL    HW254314   5.207   0.001   8.518
17625SOL     OW54315   4.273   7.702   7.757
17625SOL    HW154316   4.305   7.654   7.681
17625SOL    HW254317   4.310   7.790   7.747
17626SOL     OW54318   4.652   7.549   8.832
17626SOL    HW154319   4.664   7.502   8.750
17626SOL    HW254320   4.702   7.630   8.821
17627SOL     OW54321   4.990   7.797   8.723
17627SOL    HW154322   5.018   7.879   8.765
17627SOL    HW254323   4.897   7.809   8.706
17628SOL     OW54324   4.268   7.921   8.291
17628SOL    HW154325   4.228   7.955   8.211
17628SOL    HW254326   4.292   8.000   8.340
17629SOL     OW54327   4.216   7.493   9.203
17629SOL    HW154328   4.163   7.437   9.147
17629SOL    HW254329   4.160   7.569   9.220
17630SOL     OW54330   4.493   0.062   8.477
17630SOL    HW154331   4.520   0.055   8.385
17630SOL    HW254332   4.421   0.125   8.476
17631SOL     OW54333   4.040   7.502   8.072
17631SOL    HW154334   4.009   7.591   8.089
17631SOL    HW254335   4.045   7.462   8.158
17632SOL     OW54336   5.323   7.780   7.821
17632SOL    HW154337   5.377   7.725   7.879
17632SOL    HW254338   5.318   7.864   7.866
17633SOL     OW54339   5.212   7.732   7.579
17633SOL    HW154340   5.162   7.652   7.594
17633SOL    HW254341   5.257   7.748   7.662
17634SOL     OW54342   5.026   0.256   7.523
17634SOL    HW154343   5.009   0.162   7.520
17634SOL    HW254344   4.970   0.293   7.455
17635SOL     OW54345   4.045   7.997   8.473
17635SOL    HW154346   4.057   7.919   8.419
17635SOL    HW254347   4.099   8.064   8.432
17636SOL     OW54348   4.882   7.826   9.162
17636SOL    HW154349   4.828   7.905   9.169
17636SOL    HW254350   4.972   7.857   9.164
17637SOL     OW54351   4.886   7.671   8.942
17637SOL    HW154352   4.893   7.741   9.007
17637SOL    HW254353   4.935   7.703   8.866
17638SOL     OW54354   3.824   7.942   8.617
17638SOL    HW154355   3.898   7.955   8.558
17638SOL    HW254356   3.754   7.997   8.580
17639SOL     OW54357   3.925   7.949   9.169
17639SOL    HW154358   3.946   7.974   9.079
17639SOL    HW254359   3.873   8.021   9.203
17640SOL     OW54360   4.522   0.031   7.697
17640SOL    HW154361   4.570  -0.051   7.711
17640SOL    HW254362   4.469   0.042   7.776
17641SOL     OW54363   5.353   8.008   8.634
17641SOL    HW154364   5.343   7.973   8.723
17641SOL    HW254365   5.434   7.969   8.602
17642SOL     OW54366   4.452   7.871   8.671
17642SOL    HW154367   4.383   7.815   8.636
17642SOL    HW254368   4.455   7.946   8.610
17643SOL     OW54369   5.478   7.607   7.967
17643SOL    HW154370   5.539   7.590   7.895
17643SOL    HW254371   5.449   7.520   7.995
17644SOL     OW54372   5.573   7.615   8.416
17644SOL    HW154373   5.599   7.526   8.393
17644SOL    HW254374   5.488   7.627   8.373
17645SOL     OW54375   3.968   7.752   8.149
17645SOL    HW154376   3.881   7.788   8.135
17645SOL    HW254377   3.978   7.749   8.245
17646SOL     OW54378   4.753   7.667   8.433
17646SOL    HW154379   4.745   7.633   8.344
17646SOL    HW254380   4.746   7.589   8.489
17647SOL     OW54381   5.473   7.820   8.847
17647SOL    HW154382   5.537   7.891   8.837
17647SOL    HW254383   5.498   7.755   8.781
17648SOL     OW54384   4.391   7.641   8.914
17648SOL    HW154385   4.474   7.636   8.868
17648SOL    HW254386   4.414   7.670   9.002
17649SOL     OW54387   3.795   7.775   7.485
17649SOL    HW154388   3.731   7.757   7.416
17649SOL    HW254389   3.832   7.860   7.463
17650SOL     OW54390   3.779   7.605   7.735
17650SOL    HW154391   3.764   7.672   7.668
17650SOL    HW254392   3.866   7.570   7.714
17651SOL     OW54393   4.507   7.966   9.139
17651SOL    HW154394   4.460   8.046   9.160
17651SOL    HW254395   4.534   7.930   9.224
17652SOL     OW54396   4.938   7.743   7.936
17652SOL    HW154397   5.000   7.674   7.912
17652SOL    HW254398   4.989   7.803   7.990
17653SOL     OW54399   4.357   0.251   8.138
17653SOL    HW154400   4.342   0.337   8.100
17653SOL    HW254401   4.295   0.193   8.093
17654SOL     OW54402   5.486   7.795   9.117
17654SOL    HW154403   5.479   7.812   9.023
17654SOL    HW254404   5.410   7.741   9.137
17655SOL     OW54405   5.527   7.609   8.687
17655SOL    HW154406   5.534   7.513   8.689
17655SOL    HW254407   5.543   7.632   8.596
17656SOL     OW54408   4.117   7.857   7.936
17656SOL    HW154409   4.146   7.783   7.883
17656SOL    HW254410   4.067   7.817   8.007
17657SOL     OW54411   5.155   7.670   8.544
17657SOL    HW154412   5.166   7.577   8.564
17657SOL    HW254413   5.108   7.706   8.619
17658SOL     OW54414   4.722   7.437   8.591
17658SOL    HW154415   4.675   7.376   8.533
17658SOL    HW254416   4.811   7.403   8.594
17659SOL     OW54417   5.089   7.490   7.615
17659SOL    HW154418   5.130   7.415   7.573
17659SOL    HW254419   4.999   7.461   7.632
17660SOL     OW54420   5.045   7.915   8.138
17660SOL    HW154421   4.979   7.979   8.113
17660SOL    HW254422   5.013   7.880   8.222
17661SOL     OW54423   5.320   7.656   8.325
17661SOL    HW154424   5.262   7.671   8.400
17661SOL    HW254425   5.311   7.735   8.271
17662SOL     OW54426   3.955   7.725  10.306
17662SOL    HW154427   3.981   7.693  10.393
17662SOL    HW254428   3.866   7.694  10.295
17663SOL     OW54429   3.701   7.816   9.965
17663SOL    HW154430   3.618   7.856   9.988
17663SOL    HW254431   3.677   7.735   9.919
17664SOL     OW54432   5.410   0.014   9.526
17664SOL    HW154433   5.416   0.024   9.431
17664SOL    HW254434   5.493  -0.026   9.551
17665SOL     OW54435   4.148   7.854  10.855
17665SOL    HW154436   4.224   7.816  10.811
17665SOL    HW254437   4.076   7.794  10.834
17666SOL     OW54438   5.333   7.918  10.026
17666SOL    HW154439   5.283   7.969   9.962
17666SOL    HW254440   5.301   7.948  10.111
17667SOL     OW54441   5.316   7.579  10.766
17667SOL    HW154442   5.350   7.658  10.724
17667SOL    HW254443   5.292   7.607  10.855
17668SOL     OW54444   3.862   0.037   9.947
17668SOL    HW154445   3.801  -0.036   9.943
17668SOL    HW254446   3.808   0.112   9.973
17669SOL     OW54447   4.549   7.455   9.829
17669SOL    HW154448   4.582   7.542   9.808
17669SOL    HW254449   4.454   7.466   9.833
17670SOL     OW54450   4.069   7.692  11.150
17670SOL    HW154451   4.106   7.779  11.132
17670SOL    HW254452   3.976   7.708  11.167
17671SOL     OW54453   4.982   7.794  10.244
17671SOL    HW154454   4.895   7.756  10.256
17671SOL    HW254455   5.040   7.739  10.297
17672SOL     OW54456   5.126   7.918  11.004
17672SOL    HW154457   5.130   7.951  11.094
17672SOL    HW254458   5.179   7.838  11.005
17673SOL     OW54459   4.651   0.390  10.829
17673SOL    HW154460   4.716   0.326  10.802
17673SOL    HW254461   4.571   0.365  10.783
17674SOL     OW54462   4.721   7.825  10.559
17674SOL    HW154463   4.638   7.851  10.597
17674SOL    HW254464   4.698   7.753  10.500
17675SOL     OW54465   4.625   7.776   9.514
17675SOL    HW154466   4.679   7.825   9.452
17675SOL    HW254467   4.605   7.694   9.470
17676SOL     OW54468   5.470   0.007  11.158
17676SOL    HW154469   5.413   0.080  11.133
17676SOL    HW254470   5.470  -0.051  11.082
17677SOL     OW54471   4.287   7.630  10.214
17677SOL    HW154472   4.284   7.650  10.308
17677SOL    HW254473   4.283   7.716  10.171
17678SOL     OW54474   3.912   7.714  10.820
17678SOL    HW154475   3.852   7.763  10.875
17678SOL    HW254476   3.896   7.622  10.841
17679SOL     OW54477   5.109   7.546   9.749
17679SOL    HW154478   5.108   7.521   9.657
17679SOL    HW254479   5.201   7.565   9.768
17680SOL     OW54480   5.247   7.664  11.025
17680SOL    HW154481   5.261   7.680  11.119
17680SOL    HW254482   5.184   7.592  11.023
17681SOL     OW54483   4.380   7.530   9.415
17681SOL    HW154484   4.399   7.444   9.452
17681SOL    HW254485   4.317   7.514   9.345
17682SOL     OW54486   4.492   7.720  11.060
17682SOL    HW154487   4.574   7.671  11.057
17682SOL    HW254488   4.445   7.684  11.136
17683SOL     OW54489   5.069   0.015  10.746
17683SOL    HW154490   5.097  -0.015  10.832
17683SOL    HW254491   5.004   0.083  10.763
17684SOL     OW54492   4.284   7.503   9.809
17684SOL    HW154493   4.205   7.505   9.863
17684SOL    HW254494   4.275   7.579   9.751
17685SOL     OW54495   4.010   7.504   9.492
17685SOL    HW154496   4.069   7.571   9.457
17685SOL    HW254497   4.068   7.441   9.535
17686SOL     OW54498   4.668   7.700   9.773
17686SOL    HW154499   4.638   7.729   9.687
17686SOL    HW254500   4.762   7.683   9.762
17687SOL     OW54501   3.817  -0.006  10.696
17687SOL    HW154502   3.879  -0.047  10.757
17687SOL    HW254503   3.805   0.083  10.731
17688SOL     OW54504   4.278   7.666  10.488
17688SOL    HW154505   4.318   7.600  10.543
17688SOL    HW254506   4.186   7.667  10.513
17689SOL     OW54507   4.738   7.493  10.040
17689SOL    HW154508   4.676   7.478   9.968
17689SOL    HW254509   4.721   7.421  10.101
17690SOL     OW54510   5.208   7.957  10.260
17690SOL    HW154511   5.124   7.917  10.281
17690SOL    HW254512   5.242   7.987  10.345
17691SOL     OW54513   4.267   7.698   9.619
17691SOL    HW154514   4.310   7.658   9.543
17691SOL    HW254515   4.284   7.792   9.609
17692SOL     OW54516   4.644   7.534  10.701
17692SOL    HW154517   4.668   7.510  10.611
17692SOL    HW254518   4.724   7.571  10.738
17693SOL     OW54519   4.992   7.803  10.594
17693SOL    HW154520   5.024   7.882  10.639
17693SOL    HW254521   4.899   7.820  10.580
17694SOL     OW54522   4.280   7.958  10.161
17694SOL    HW154523   4.240   7.964  10.075
17694SOL    HW254524   4.277   8.047  10.196
17695SOL     OW54525   4.728   7.588  11.068
17695SOL    HW154526   4.788   7.660  11.046
17695SOL    HW254527   4.776   7.509  11.042
17696SOL     OW54528   4.218   7.479  11.063
17696SOL    HW154529   4.170   7.426  10.999
17696SOL    HW254530   4.161   7.554  11.081
17697SOL     OW54531   4.016   7.642  10.564
17697SOL    HW154532   3.971   7.672  10.642
17697SOL    HW254533   3.999   7.547  10.561
17698SOL     OW54534   4.486   0.060  10.351
17698SOL    HW154535   4.452   0.024  10.268
17698SOL    HW254536   4.425   0.131  10.372
17699SOL     OW54537   4.041   7.507   9.937
17699SOL    HW154538   4.008   7.594   9.959
17699SOL    HW254539   4.048   7.462  10.021
17700SOL     OW54540   5.306   7.777   9.688
17700SOL    HW154541   5.370   7.729   9.740
17700SOL    HW254542   5.334   7.868   9.694
17701SOL     OW54543   5.196   7.737   9.438
17701SOL    HW154544   5.154   7.653   9.456
17701SOL    HW254545   5.245   7.756   9.518
17702SOL     OW54546   4.962   0.227   9.380
17702SOL    HW154547   5.047   0.255   9.417
17702SOL    HW254548   4.943   0.293   9.314
17703SOL     OW54549   4.019   7.986  10.350
17703SOL    HW154550   4.018   7.893  10.328
17703SOL    HW254551   4.077   8.026  10.284
17704SOL     OW54552   4.870   7.818  10.991
17704SOL    HW154553   4.819   7.896  11.013
17704SOL    HW254554   4.961   7.848  10.992
17705SOL     OW54555   4.887   7.633  10.786
17705SOL    HW154556   4.875   7.699  10.855
17705SOL    HW254557   4.935   7.678  10.717
17706SOL     OW54558   3.752   7.947  10.434
17706SOL    HW154559   3.835   7.943  10.386
17706SOL    HW254560   3.778   7.961  10.525
17707SOL     OW54561   3.919   7.967  10.994
17707SOL    HW154562   4.004   7.943  10.959
17707SOL    HW254563   3.935   8.049  11.041
17708SOL     OW54564   4.522   0.037   9.553
17708SOL    HW154565   4.561  -0.050   9.564
17708SOL    HW254566   4.462   0.047   9.627
17709SOL     OW54567   5.344   8.021  10.498
17709SOL    HW154568   5.331   7.982  10.584
17709SOL    HW254569   5.421   7.976  10.462
17710SOL     OW54570   4.448   7.877  10.558
17710SOL    HW154571   4.382   7.812  10.532
17710SOL    HW254572   4.447   7.942  10.488
17711SOL     OW54573   5.475   7.605   9.822
17711SOL    HW154574   5.538   7.585   9.753
17711SOL    HW254575   5.447   7.519   9.854
17712SOL     OW54576   5.575   7.618  10.269
17712SOL    HW154577   5.599   7.527  10.248
17712SOL    HW254578   5.488   7.630  10.232
17713SOL     OW54579   3.965   7.749  10.028
17713SOL    HW154580   3.876   7.782  10.012
17713SOL    HW254581   3.973   7.748  10.124
17714SOL     OW54582   4.749   7.659  10.268
17714SOL    HW154583   4.741   7.611  10.185
17714SOL    HW254584   4.739   7.592  10.335
17715SOL     OW54585   5.456   7.817  10.689
17715SOL    HW154586   5.521   7.887  10.688
17715SOL    HW254587   5.491   7.751  10.630
17716SOL     OW54588   4.403   7.630  10.806
17716SOL    HW154589   4.487   7.611  10.766
17716SOL    HW254590   4.424   7.667  10.892
17717SOL     OW54591   3.795   7.763   9.356
17717SOL    HW154592   3.730   7.760   9.286
17717SOL    HW254593   3.830   7.852   9.351
17718SOL     OW54594   3.778   7.600   9.600
17718SOL    HW154595   3.760   7.671   9.539
17718SOL    HW254596   3.864   7.567   9.575
17719SOL     OW54597   4.503   7.996  11.024
17719SOL    HW154598   4.410   8.018  11.022
17719SOL    HW254599   4.506   7.901  11.027
17720SOL     OW54600   4.935   7.754   9.800
17720SOL    HW154601   4.991   7.681   9.774
17720SOL    HW254602   4.996   7.820   9.834
17721SOL     OW54603   4.370   0.244   9.964
17721SOL    HW154604   4.338   0.328   9.933
17721SOL    HW254605   4.292   0.188   9.966
17722SOL     OW54606   5.471   7.818  10.961
17722SOL    HW154607   5.457   7.829  10.867
17722SOL    HW254608   5.407   7.753  10.988
17723SOL     OW54609   5.548   7.614  10.541
17723SOL    HW154610   5.542   7.519  10.549
17723SOL    HW254611   5.556   7.630  10.446
17724SOL     OW54612   4.125   7.848   9.823
17724SOL    HW154613   4.131   7.772   9.765
17724SOL    HW254614   4.066   7.820   9.893
17725SOL     OW54615   5.150   7.668  10.419
17725SOL    HW154616   5.164   7.579  10.453
17725SOL    HW254617   5.103   7.713  10.489
17726SOL     OW54618   4.729   7.452  10.449
17726SOL    HW154619   4.674   7.384  10.410
17726SOL    HW254620   4.817   7.415  10.448
17727SOL     OW54621   5.090   7.486   9.479
17727SOL    HW154622   5.135   7.409   9.442
17727SOL    HW254623   4.999   7.457   9.489
17728SOL     OW54624   4.948   7.942  10.018
17728SOL    HW154625   5.007   8.018  10.019
17728SOL    HW254626   4.971   7.893  10.097
17729SOL     OW54627   5.315   7.655  10.197
17729SOL    HW154628   5.259   7.671  10.273
17729SOL    HW254629   5.304   7.732  10.141
17730SOL     OW54630   3.958   7.720  12.160
17730SOL    HW154631   3.982   7.686  12.246
17730SOL    HW254632   3.866   7.697  12.150
17731SOL     OW54633   3.712   7.791  11.828
17731SOL    HW154634   3.635   7.830  11.870
17731SOL    HW254635   3.678   7.720  11.775
17732SOL     OW54636   5.509   8.009  11.434
17732SOL    HW154637   5.498   8.020  11.340
17732SOL    HW254638   5.453   7.934  11.456
17733SOL     OW54639   5.321   7.914  11.882
17733SOL    HW154640   5.232   7.908  11.847
17733SOL    HW254641   5.309   7.953  11.969
17734SOL     OW54642   3.836   0.050  11.813
17734SOL    HW154643   3.787  -0.031  11.797
17734SOL    HW254644   3.784   0.118  11.770
17735SOL     OW54645   4.539   7.429  11.695
17735SOL    HW154646   4.585   7.508  11.668
17735SOL    HW254647   4.447   7.454  11.696
17736SOL     OW54648   4.984   7.816  12.124
17736SOL    HW154649   4.899   7.773  12.126
17736SOL    HW254650   5.042   7.756  12.172
17737SOL     OW54651   4.632   7.778  11.371
17737SOL    HW154652   4.660   7.823  11.292
17737SOL    HW254653   4.653   7.686  11.356
17738SOL     OW54654   4.282   7.631  12.063
17738SOL    HW154655   4.275   7.690  12.138
17738SOL    HW254656   4.280   7.688  11.986
17739SOL     OW54657   5.130   7.548  11.615
17739SOL    HW154658   5.119   7.526  11.523
17739SOL    HW254659   5.224   7.539  11.631
17740SOL     OW54660   4.375   7.561  11.268
17740SOL    HW154661   4.428   7.485  11.291
17740SOL    HW254662   4.318   7.530  11.197
17741SOL     OW54663   4.280   7.505  11.672
17741SOL    HW154664   4.197   7.507  11.720
17741SOL    HW254665   4.276   7.580  11.613
17742SOL     OW54666   4.010   7.499  11.356
17742SOL    HW154667   4.063   7.561  11.305
17742SOL    HW254668   4.073   7.440  11.396
17743SOL     OW54669   4.667   7.659  11.633
17743SOL    HW154670   4.640   7.722  11.566
17743SOL    HW254671   4.759   7.682  11.650
17744SOL     OW54672   3.835   0.003   0.066
17744SOL    HW154673   3.920  -0.013   0.108
17744SOL    HW254674   3.795   0.073   0.118
17745SOL     OW54675   4.285   7.642  12.357
17745SOL    HW154676   4.294   7.562  12.305
17745SOL    HW254677   4.191   7.648  12.375
17746SOL     OW54678   4.745   7.502  11.918
17746SOL    HW154679   4.690   7.510  11.841
17746SOL    HW254680   4.716   7.422  11.961
17747SOL     OW54681   5.217   7.963  12.128
17747SOL    HW154682   5.129   7.927  12.134
17747SOL    HW254683   5.227   8.016  12.208
17748SOL     OW54684   4.271   7.702  11.485
17748SOL    HW154685   4.305   7.659  11.406
17748SOL    HW254686   4.307   7.791  11.480
17749SOL     OW54687   4.941   7.837  12.438
17749SOL    HW154688   5.031   7.861  12.460
17749SOL    HW254689   4.920   7.890  12.361
17750SOL     OW54690   4.265   7.955  12.034
17750SOL    HW154691   4.226   7.980  11.950
17750SOL    HW254692   4.297   8.038  12.071
17751SOL     OW54693   4.019   7.629  12.414
17751SOL    HW154694   3.954   7.662  12.476
17751SOL    HW254695   4.003   7.535  12.410
17752SOL     OW54696   4.518   0.074  12.197
17752SOL    HW154697   4.548   0.049  12.110
17752SOL    HW254698   4.456   0.145  12.181
17753SOL     OW54699   4.035   7.510  11.793
17753SOL    HW154700   4.005   7.598  11.816
17753SOL    HW254701   4.042   7.465  11.878
17754SOL     OW54702   5.337   7.814  11.531
17754SOL    HW154703   5.373   7.746  11.589
17754SOL    HW254704   5.266   7.854  11.582
17755SOL     OW54705   5.253   7.708  11.287
17755SOL    HW154706   5.190   7.644  11.320
17755SOL    HW254707   5.280   7.758  11.364
17756SOL     OW54708   5.052   0.200  11.189
17756SOL    HW154709   5.118   0.257  11.228
17756SOL    HW254710   4.990   0.260  11.147
17757SOL     OW54711   4.026   7.979  12.201
17757SOL    HW154712   4.010   7.886  12.184
17757SOL    HW254713   4.096   8.002  12.139
17758SOL     OW54714   4.848   7.734   0.175
17758SOL    HW154715   4.895   7.738   0.259
17758SOL    HW254716   4.915   7.751   0.109
17759SOL     OW54717   3.771   7.945  12.306
17759SOL    HW154718   3.848   7.963  12.251
17759SOL    HW254719   3.800   7.966  12.395
17760SOL     OW54720   4.515   8.025  11.419
17760SOL    HW154721   4.562   7.942  11.423
17760SOL    HW254722   4.466   8.030  11.501
17761SOL     OW54723   5.358   8.021  12.377
17761SOL    HW154724   5.370   7.945  12.433
17761SOL    HW254725   5.426   8.012  12.310
17762SOL     OW54726   4.477   7.854  12.383
17762SOL    HW154727   4.401   7.796  12.373
17762SOL    HW254728   4.457   7.929  12.326
17763SOL     OW54729   5.453   7.607  11.674
17763SOL    HW154730   5.520   7.592  11.609
17763SOL    HW254731   5.435   7.521  11.711
17764SOL     OW54732   5.567   7.617  12.141
17764SOL    HW154733   5.595   7.529  12.115
17764SOL    HW254734   5.482   7.629  12.100
17765SOL     OW54735   3.975   7.758  11.884
17765SOL    HW154736   3.884   7.780  11.865
17765SOL    HW254737   3.980   7.754  11.980
17766SOL     OW54738   4.761   7.663  12.143
17766SOL    HW154739   4.755   7.617  12.060
17766SOL    HW254740   4.741   7.597  12.209
17767SOL     OW54741   5.463   7.826   0.040
17767SOL    HW154742   5.549   7.868   0.048
17767SOL    HW254743   5.482   7.742  -0.003
17768SOL     OW54744   3.810   7.774  11.196
17768SOL    HW154745   3.736   7.751  11.140
17768SOL    HW254746   3.829   7.866  11.175
17769SOL     OW54747   3.778   7.597  11.464
17769SOL    HW154748   3.764   7.676  11.412
17769SOL    HW254749   3.864   7.565  11.436
17770SOL     OW54750   4.928   7.730  11.665
17770SOL    HW154751   4.998   7.669  11.641
17770SOL    HW254752   4.970   7.793  11.724
17771SOL     OW54753   4.352   0.246  11.850
17771SOL    HW154754   4.333   0.330  11.809
17771SOL    HW254755   4.278   0.190  11.825
17772SOL     OW54756   5.543   7.600  12.415
17772SOL    HW154757   5.570   7.508  12.415
17772SOL    HW254758   5.546   7.626  12.323
17773SOL     OW54759   4.111   7.859  11.663
17773SOL    HW154760   4.135   7.781  11.613
17773SOL    HW254761   4.062   7.826  11.738
17774SOL     OW54762   5.156   7.672  12.290
17774SOL    HW154763   5.199   7.588  12.302
17774SOL    HW254764   5.123   7.696  12.376
17775SOL     OW54765   4.724   7.422  12.328
17775SOL    HW154766   4.683   7.381  12.252
17775SOL    HW254767   4.816   7.396  12.323
17776SOL     OW54768   5.087   7.492  11.349
17776SOL    HW154769   5.125   7.419  11.300
17776SOL    HW254770   4.996   7.466  11.365
17777SOL     OW54771   5.046   7.896  11.853
17777SOL    HW154772   5.013   7.984  11.837
17777SOL    HW254773   5.017   7.876  11.942
17778SOL     OW54774   5.311   7.656  12.053
17778SOL    HW154775   5.256   7.682  12.127
17778SOL    HW254776   5.303   7.728  11.990
17779SOL     OW54777   5.860   0.609   0.019
17779SOL    HW154778   5.817   0.656   0.090
17779SOL    HW254779   5.790   0.590  -0.044
17780SOL     OW54780   5.805   0.301   0.980
17780SOL    HW154781   5.839   0.257   1.058
17780SOL    HW254782   5.716   0.267   0.971
17781SOL     OW54783   5.591   0.400   0.632
17781SOL    HW154784   5.508   0.425   0.673
17781SOL    HW254785   5.574   0.312   0.596
17782SOL     OW54786   6.156   1.303   1.190
17782SOL    HW154787   6.072   1.310   1.145
17782SOL    HW254788   6.172   1.391   1.224
17783SOL     OW54789   7.149   1.520   0.707
17783SOL    HW154790   7.108   1.498   0.791
17783SOL    HW254791   7.076   1.521   0.644
17784SOL     OW54792   6.723   0.701   0.694
17784SOL    HW154793   6.767   0.785   0.682
17784SOL    HW254794   6.675   0.711   0.777
17785SOL     OW54795   7.299   0.629   0.264
17785SOL    HW154796   7.300   0.610   0.171
17785SOL    HW254797   7.283   0.544   0.306
17786SOL     OW54798   6.322   1.133   1.051
17786SOL    HW154799   6.256   1.172   1.109
17786SOL    HW254800   6.368   1.208   1.014
17787SOL     OW54801   6.466   0.751   1.823
17787SOL    HW154802   6.466   0.819   1.891
17787SOL    HW254803   6.486   0.798   1.742
17788SOL     OW54804   6.274   0.997   0.642
17788SOL    HW154805   6.340   0.990   0.711
17788SOL    HW254806   6.204   1.049   0.680
17789SOL     OW54807   6.300   1.152   1.822
17789SOL    HW154808   6.350   1.227   1.854
17789SOL    HW254809   6.223   1.190   1.781
17790SOL     OW54810   5.924   1.402   1.068
17790SOL    HW154811   5.844   1.366   1.030
17790SOL    HW254812   5.957   1.462   1.001
17791SOL     OW54813   7.045   1.501   1.369
17791SOL    HW154814   7.100   1.579   1.381
17791SOL    HW254815   6.974   1.511   1.433
17792SOL     OW54816   6.028   0.380   1.477
17792SOL    HW154817   6.109   0.330   1.482
17792SOL    HW254818   5.959   0.314   1.478
17793SOL     OW54819   7.201   0.459   0.739
17793SOL    HW154820   7.155   0.490   0.660
17793SOL    HW254821   7.174   0.520   0.808
17794SOL     OW54822   5.796   1.713   0.481
17794SOL    HW154823   5.809   1.788   0.538
17794SOL    HW254824   5.870   1.716   0.420
17795SOL     OW54825   6.723   1.344   1.694
17795SOL    HW154826   6.766   1.336   1.779
17795SOL    HW254827   6.671   1.264   1.686
17796SOL     OW54828   5.827   1.450   0.562
17796SOL    HW154829   5.801   1.542   0.556
17796SOL    HW254830   5.767   1.412   0.626
17797SOL     OW54831   5.861   1.097   0.899
17797SOL    HW154832   5.847   1.006   0.925
17797SOL    HW254833   5.795   1.146   0.948
17798SOL     OW54834   6.191   1.786   1.437
17798SOL    HW154835   6.106   1.771   1.477
17798SOL    HW254836   6.213   1.877   1.459
17799SOL     OW54837   6.173   0.961   0.151
17799SOL    HW154838   6.237   0.984   0.083
17799SOL    HW254839   6.202   1.010   0.228
17800SOL     OW54840   7.228   0.119   1.481
17800SOL    HW154841   7.219   0.202   1.434
17800SOL    HW254842   7.193   0.137   1.568
17801SOL     OW54843   5.710   0.650   0.559
17801SOL    HW154844   5.673   0.564   0.580
17801SOL    HW254845   5.702   0.700   0.641
17802SOL     OW54846   7.452   1.739   0.312
17802SOL    HW154847   7.508   1.716   0.386
17802SOL    HW254848   7.464   1.833   0.302
17803SOL     OW54849   5.614   1.535   0.120
17803SOL    HW154850   5.525   1.502   0.104
17803SOL    HW254851   5.602   1.604   0.185
17804SOL     OW54852   7.262   0.930   0.648
17804SOL    HW154853   7.348   0.888   0.646
17804SOL    HW254854   7.258   0.979   0.566
17805SOL     OW54855   7.245   1.117   0.423
17805SOL    HW154856   7.329   1.116   0.377
17805SOL    HW254857   7.258   1.179   0.495
17806SOL     OW54858   5.733   0.751   1.586
17806SOL    HW154859   5.829   0.760   1.584
17806SOL    HW254860   5.703   0.834   1.622
17807SOL     OW54861   6.207   1.392   0.732
17807SOL    HW154862   6.170   1.306   0.748
17807SOL    HW254863   6.161   1.424   0.654
17808SOL     OW54864   6.868   1.231   1.417
17808SOL    HW154865   6.902   1.165   1.357
17808SOL    HW254866   6.927   1.228   1.492
17809SOL     OW54867   6.419   0.042   0.598
17809SOL    HW154868   6.457   0.109   0.542
17809SOL    HW254869   6.332   0.026   0.562
17810SOL     OW54870   5.769   0.952   1.279
17810SOL    HW154871   5.855   0.912   1.265
17810SOL    HW254872   5.726   0.945   1.193
17811SOL     OW54873   6.773   1.820   1.633
17811SOL    HW154874   6.776   1.882   1.560
17811SOL    HW254875   6.793   1.736   1.593
17812SOL     OW54876   5.891   0.225   1.773
17812SOL    HW154877   5.958   0.288   1.800
17812SOL    HW254878   5.815   0.244   1.828
17813SOL     OW54879   7.013   1.430   0.927
17813SOL    HW154880   6.969   1.445   1.011
17813SOL    HW254881   7.020   1.335   0.920
17814SOL     OW54882   7.235   1.756   0.582
17814SOL    HW154883   7.214   1.717   0.497
17814SOL    HW254884   7.217   1.686   0.645
17815SOL     OW54885   6.173   0.714   0.283
17815SOL    HW154886   6.177   0.800   0.242
17815SOL    HW254887   6.106   0.723   0.351
17816SOL     OW54888   6.884   0.379   0.937
17816SOL    HW154889   6.792   0.350   0.940
17816SOL    HW254890   6.929   0.321   0.998
17817SOL     OW54891   7.182   1.677   0.321
17817SOL    HW154892   7.276   1.689   0.320
17817SOL    HW254893   7.153   1.697   0.232
17818SOL     OW54894   6.366   0.643   1.446
17818SOL    HW154895   6.346   0.609   1.534
17818SOL    HW254896   6.348   0.569   1.388
17819SOL     OW54897   6.998   0.495   1.685
17819SOL    HW154898   6.988   0.536   1.771
17819SOL    HW254899   7.091   0.473   1.679
17820SOL     OW54900   6.532   0.884   1.587
17820SOL    HW154901   6.586   0.816   1.546
17820SOL    HW254902   6.483   0.923   1.514
17821SOL     OW54903   6.593   0.410   1.214
17821SOL    HW154904   6.504   0.433   1.242
17821SOL    HW254905   6.582   0.374   1.126
17822SOL     OW54906   6.643   0.704   0.428
17822SOL    HW154907   6.660   0.696   0.521
17822SOL    HW254908   6.556   0.664   0.417
17823SOL     OW54909   5.681   0.805   0.777
17823SOL    HW154910   5.758   0.809   0.834
17823SOL    HW254911   5.627   0.879   0.805
17824SOL     OW54912   5.711   1.880   1.580
17824SOL    HW154913   5.709   1.853   1.672
17824SOL    HW254914   5.627   1.850   1.544
17825SOL     OW54915   6.473   0.384   0.210
17825SOL    HW154916   6.449   0.447   0.142
17825SOL    HW254917   6.472   0.299   0.165
17826SOL     OW54918   7.271   0.563   1.832
17826SOL    HW154919   7.246   0.643   1.787
17826SOL    HW254920   7.316   0.511   1.765
17827SOL     OW54921   6.967   1.130   0.488
17827SOL    HW154922   7.045   1.175   0.518
17827SOL    HW254923   6.906   1.199   0.464
17828SOL     OW54924   6.116   0.197   0.939
17828SOL    HW154925   6.104   0.281   0.984
17828SOL    HW254926   6.143   0.221   0.850
17829SOL     OW54927   6.587   1.446   0.492
17829SOL    HW154928   6.606   1.537   0.514
17829SOL    HW254929   6.553   1.409   0.574
17830SOL     OW54930   5.950   1.807   0.858
17830SOL    HW154931   5.986   1.721   0.881
17830SOL    HW254932   6.010   1.870   0.899
17831SOL     OW54933   7.384   1.037   0.876
17831SOL    HW154934   7.316   1.029   0.809
17831SOL    HW254935   7.337   1.063   0.955
17832SOL     OW54936   6.812   1.545   1.516
17832SOL    HW154937   6.798   1.470   1.575
17832SOL    HW254938   6.732   1.548   1.463
17833SOL     OW54939   5.903   0.982   0.265
17833SOL    HW154940   5.978   0.987   0.206
17833SOL    HW254941   5.861   0.899   0.242
17834SOL     OW54942   7.057   0.764   0.722
17834SOL    HW154943   7.058   0.719   0.807
17834SOL    HW254944   7.137   0.817   0.722
17835SOL     OW54945   6.057   1.270   1.737
17835SOL    HW154946   6.030   1.277   1.645
17835SOL    HW254947   5.974   1.268   1.786
17836SOL     OW54948   6.680   1.742   0.282
17836SOL    HW154949   6.733   1.784   0.349
17836SOL    HW254950   6.744   1.709   0.218
17837SOL     OW54951   5.770   0.246   1.506
17837SOL    HW154952   5.704   0.313   1.491
17837SOL    HW254953   5.791   0.252   1.599
17838SOL     OW54954   7.236   1.375   0.070
17838SOL    HW154955   7.169   1.440   0.052
17838SOL    HW254956   7.188   1.297   0.095
17839SOL     OW54957   6.020   1.746   0.325
17839SOL    HW154958   6.071   1.803   0.382
17839SOL    HW254959   6.083   1.717   0.259
17840SOL     OW54960   6.996   0.114   0.430
17840SOL    HW154961   6.986   0.067   0.347
17840SOL    HW254962   7.090   0.128   0.439
17841SOL     OW54963   5.835   1.798   1.220
17841SOL    HW154964   5.870   1.712   1.244
17841SOL    HW254965   5.746   1.779   1.189
17842SOL     OW54966   6.536   1.708   0.894
17842SOL    HW154967   6.613   1.658   0.925
17842SOL    HW254968   6.494   1.650   0.831
17843SOL     OW54969   5.981   0.690   0.481
17843SOL    HW154970   5.997   0.596   0.492
17843SOL    HW254971   5.888   0.701   0.504
17844SOL     OW54972   7.144   0.208   1.739
17844SOL    HW154973   7.157   0.236   1.829
17844SOL    HW254974   7.049   0.206   1.727
17845SOL     OW54975   6.188   0.108   0.110
17845SOL    HW154976   6.277   0.145   0.109
17845SOL    HW254977   6.199   0.019   0.076
17846SOL     OW54978   6.311   0.299   1.765
17846SOL    HW154979   6.385   0.238   1.763
17846SOL    HW254980   6.260   0.271   1.841
17847SOL     OW54981   6.464   1.525   1.195
17847SOL    HW154982   6.441   1.483   1.112
17847SOL    HW254983   6.531   1.468   1.233
17848SOL     OW54984   6.924   0.596   1.435
17848SOL    HW154985   6.959   0.572   1.521
17848SOL    HW254986   6.958   0.684   1.420
17849SOL     OW54987   6.408   1.383   0.956
17849SOL    HW154988   6.493   1.373   0.913
17849SOL    HW254989   6.345   1.391   0.884
17850SOL     OW54990   6.514   0.523   0.892
17850SOL    HW154991   6.483   0.513   0.802
17850SOL    HW254992   6.550   0.437   0.914
17851SOL     OW54993   6.178   0.042   0.459
17851SOL    HW154994   6.100  -0.004   0.489
17851SOL    HW254995   6.144   0.120   0.415
17852SOL     OW54996   7.005   1.178   0.109
17852SOL    HW154997   6.993   1.137   0.024
17852SOL    HW254998   6.932   1.240   0.116
17853SOL     OW54999   5.917   0.041   0.200
17853SOL    HW155000   6.000   0.069   0.161
17853SOL    HW255001   5.943  -0.018   0.271
17854SOL     OW55002   6.536   0.266   0.471
17854SOL    HW155003   6.506   0.286   0.382
17854SOL    HW255004   6.632   0.274   0.466
17855SOL     OW55005   6.664   0.682   1.458
17855SOL    HW155006   6.608   0.606   1.474
17855SOL    HW255007   6.753   0.645   1.452
17856SOL     OW55008   6.803   1.559   0.779
17856SOL    HW155009   6.824   1.641   0.733
17856SOL    HW255010   6.877   1.545   0.837
17857SOL     OW55011   6.067   1.156   0.731
17857SOL    HW155012   6.001   1.139   0.798
17857SOL    HW255013   6.020   1.147   0.648
17858SOL     OW55014   6.837   1.792   0.596
17858SOL    HW155015   6.895   1.860   0.561
17858SOL    HW255016   6.772   1.839   0.648
17859SOL     OW55017   6.631   0.611   0.063
17859SOL    HW155018   6.614   0.535   0.007
17859SOL    HW255019   6.679   0.576   0.138
17860SOL     OW55020   5.684   0.564   1.396
17860SOL    HW155021   5.775   0.562   1.365
17860SOL    HW255022   5.682   0.635   1.460
17861SOL     OW55023   6.160   0.242   1.226
17861SOL    HW155024   6.188   0.201   1.308
17861SOL    HW255025   6.066   0.227   1.222
17862SOL     OW55026   6.446   0.469   0.635
17862SOL    HW155027   6.415   0.525   0.564
17862SOL    HW255028   6.477   0.389   0.592
17863SOL     OW55029   6.569   0.035   0.815
17863SOL    HW155030   6.516   0.042   0.736
17863SOL    HW255031   6.594  -0.057   0.819
17864SOL     OW55032   7.027   1.155   0.878
17864SOL    HW155033   6.963   1.085   0.887
17864SOL    HW255034   7.060   1.146   0.788
17865SOL     OW55035   7.052   0.610   0.953
17865SOL    HW155036   6.993   0.535   0.960
17865SOL    HW255037   7.108   0.603   1.031
17866SOL     OW55038   7.419   0.819   0.411
17866SOL    HW155039   7.465   0.762   0.473
17866SOL    HW255040   7.363   0.760   0.361
17867SOL     OW55041   6.067   1.389   0.181
17867SOL    HW155042   5.995   1.353   0.232
17867SOL    HW255043   6.026   1.421   0.100
17868SOL     OW55044   7.258   1.271   0.641
17868SOL    HW155045   7.350   1.260   0.664
17868SOL    HW255046   7.235   1.359   0.672
17869SOL     OW55047   6.983   0.554   0.089
17869SOL    HW155048   6.922   0.549   0.162
17869SOL    HW255049   7.037   0.476   0.097
17870SOL     OW55050   6.102   0.264   0.318
17870SOL    HW155051   6.137   0.211   0.246
17870SOL    HW255052   6.080   0.348   0.279
17871SOL     OW55053   7.328   1.243   1.559
17871SOL    HW155054   7.415   1.206   1.550
17871SOL    HW255055   7.344   1.332   1.592
17872SOL     OW55056   6.638   1.344   1.321
17872SOL    HW155057   6.560   1.318   1.372
17872SOL    HW255058   6.711   1.306   1.369
17873SOL     OW55059   7.192   1.626   1.671
17873SOL    HW155060   7.182   1.661   1.583
17873SOL    HW255061   7.274   1.575   1.667
17874SOL     OW55062   6.712   1.200   1.095
17874SOL    HW155063   6.666   1.247   1.165
17874SOL    HW255064   6.689   1.248   1.016
17875SOL     OW55065   7.210   1.094   1.083
17875SOL    HW155066   7.206   1.157   1.155
17875SOL    HW255067   7.140   1.121   1.023
17876SOL     OW55068   6.511   0.120   1.409
17876SOL    HW155069   6.522   0.107   1.314
17876SOL    HW255070   6.601   0.123   1.443
17877SOL     OW55071   6.568   1.118   1.721
17877SOL    HW155072   6.477   1.134   1.746
17877SOL    HW255073   6.564   1.038   1.668
17878SOL     OW55074   6.306   1.073   0.373
17878SOL    HW155075   6.285   1.047   0.462
17878SOL    HW255076   6.384   1.023   0.350
17879SOL     OW55077   6.010   0.824   1.251
17879SOL    HW155078   6.075   0.839   1.321
17879SOL    HW255079   5.979   0.734   1.266
17880SOL     OW55080   6.853   0.378   1.286
17880SOL    HW155081   6.883   0.460   1.327
17880SOL    HW255082   6.764   0.398   1.256
17881SOL     OW55083   5.664   1.545   1.368
17881SOL    HW155084   5.619   1.604   1.307
17881SOL    HW255085   5.757   1.558   1.349
17882SOL     OW55086   5.934   1.129   0.495
17882SOL    HW155087   5.909   1.206   0.443
17882SOL    HW255088   5.933   1.057   0.433
17883SOL     OW55089   6.126   0.540   0.862
17883SOL    HW155090   6.142   0.597   0.787
17883SOL    HW255091   6.198   0.560   0.923
17884SOL     OW55092   6.829   1.351   0.400
17884SOL    HW155093   6.883   1.425   0.427
17884SOL    HW255094   6.742   1.371   0.435
17885SOL     OW55095   6.877   1.465   1.160
17885SOL    HW155096   6.940   1.476   1.232
17885SOL    HW255097   6.814   1.402   1.193
17886SOL     OW55098   7.130   0.607   0.508
17886SOL    HW155099   7.087   0.665   0.571
17886SOL    HW255100   7.149   0.664   0.433
17887SOL     OW55101   5.931   1.534   1.301
17887SOL    HW155102   5.922   1.486   1.219
17887SOL    HW255103   6.024   1.550   1.310
17888SOL     OW55104   6.018   0.736   1.616
17888SOL    HW155105   6.069   0.787   1.553
17888SOL    HW255106   6.077   0.665   1.643
17889SOL     OW55107   7.194   0.779   1.692
17889SOL    HW155108   7.109   0.823   1.686
17889SOL    HW255109   7.248   0.821   1.625
17890SOL     OW55110   6.634   0.081   1.754
17890SOL    HW155111   6.653   0.170   1.726
17890SOL    HW255112   6.541   0.069   1.736
17891SOL     OW55113   6.096   0.028   1.731
17891SOL    HW155114   6.068  -0.031   1.661
17891SOL    HW255115   6.025   0.092   1.738
17892SOL     OW55116   6.178   0.875   1.036
17892SOL    HW155117   6.209   0.965   1.037
17892SOL    HW255118   6.117   0.870   1.109
17893SOL     OW55119   6.916   0.860   1.000
17893SOL    HW155120   6.825   0.836   0.983
17893SOL    HW255121   6.964   0.777   0.995
17894SOL     OW55122   6.790   0.528   0.278
17894SOL    HW155123   6.802   0.451   0.334
17894SOL    HW255124   6.742   0.590   0.333
17895SOL     OW55125   5.889   0.198   1.230
17895SOL    HW155126   5.820   0.205   1.296
17895SOL    HW255127   5.875   0.112   1.190
17896SOL     OW55128   5.616   1.288   1.295
17896SOL    HW155129   5.664   1.241   1.363
17896SOL    HW255130   5.627   1.380   1.317
17897SOL     OW55131   6.305   0.628   1.052
17897SOL    HW155132   6.381   0.620   0.994
17897SOL    HW255133   6.274   0.718   1.038
17898SOL     OW55134   7.323   0.958   1.866
17898SOL    HW155135   7.276   0.892   1.816
17898SOL    HW255136   7.264   0.980   1.938
17899SOL     OW55137   5.985   0.059   0.685
17899SOL    HW155138   5.938   0.142   0.695
17899SOL    HW255139   5.917  -0.007   0.676
17900SOL     OW55140   7.225   0.389   0.374
17900SOL    HW155141   7.239   0.310   0.425
17900SOL    HW255142   7.178   0.448   0.432
17901SOL     OW55143   6.623   0.763   0.960
17901SOL    HW155144   6.606   0.778   1.053
17901SOL    HW255145   6.589   0.675   0.944
17902SOL     OW55146   6.569   1.569   1.728
17902SOL    HW155147   6.551   1.611   1.644
17902SOL    HW255148   6.610   1.486   1.704
17903SOL     OW55149   7.432   1.498   1.614
17903SOL    HW155150   7.455   1.525   1.526
17903SOL    HW255151   7.512   1.511   1.665
17904SOL     OW55152   5.940   0.917   1.815
17904SOL    HW155153   6.021   0.946   1.857
17904SOL    HW255154   5.968   0.852   1.751
17905SOL     OW55155   7.090   0.300   0.148
17905SOL    HW155156   7.088   0.206   0.164
17905SOL    HW255157   7.148   0.334   0.216
17906SOL     OW55158   6.905   0.815   0.031
17906SOL    HW155159   6.938   0.726   0.045
17906SOL    HW255160   6.907   0.827  -0.063
17907SOL     OW55161   6.652   1.342   0.855
17907SOL    HW155162   6.664   1.268   0.796
17907SOL    HW255163   6.710   1.410   0.821
17908SOL     OW55164   5.895   0.814   0.949
17908SOL    HW155165   5.988   0.834   0.940
17908SOL    HW255166   5.893   0.725   0.984
17909SOL     OW55167   5.912   0.540   1.020
17909SOL    HW155168   5.872   0.456   1.000
17909SOL    HW255169   5.988   0.545   0.962
17910SOL     OW55170   6.757   0.360   1.718
17910SOL    HW155171   6.691   0.418   1.758
17910SOL    HW255172   6.831   0.418   1.700
17911SOL     OW55173   6.761   0.216   1.484
17911SOL    HW155174   6.759   0.272   1.562
17911SOL    HW255175   6.792   0.273   1.414
17912SOL     OW55176   5.676   1.816   0.860
17912SOL    HW155177   5.641   1.733   0.893
17912SOL    HW255178   5.771   1.805   0.864
17913SOL     OW55179   6.085   1.570   0.912
17913SOL    HW155180   6.151   1.638   0.927
17913SOL    HW255181   6.128   1.505   0.857
17914SOL     OW55182   6.553   0.781   1.223
17914SOL    HW155183   6.612   0.762   1.296
17914SOL    HW255184   6.466   0.755   1.256
17915SOL     OW55185   5.619   0.556   1.119
17915SOL    HW155186   5.697   0.553   1.064
17915SOL    HW255187   5.652   0.553   1.209
17916SOL     OW55188   5.779   0.525   1.734
17916SOL    HW155189   5.862   0.517   1.688
17916SOL    HW255190   5.734   0.598   1.691
17917SOL     OW55191   6.969   0.929   1.652
17917SOL    HW155192   6.991   1.022   1.650
17917SOL    HW255193   6.965   0.903   1.560
17918SOL     OW55194   6.399   0.585   0.386
17918SOL    HW155195   6.413   0.510   0.329
17918SOL    HW255196   6.321   0.628   0.351
17919SOL     OW55197   7.225   0.600   1.165
17919SOL    HW155198   7.217   0.550   1.246
17919SOL    HW255199   7.315   0.584   1.136
17920SOL     OW55200   5.828   1.552   1.724
17920SOL    HW155201   5.803   1.623   1.782
17920SOL    HW255202   5.836   1.475   1.781
17921SOL     OW55203   6.323   0.455   1.260
17921SOL    HW155204   6.263   0.382   1.244
17921SOL    HW255205   6.306   0.515   1.187
17922SOL     OW55206   6.518   1.672   1.470
17922SOL    HW155207   6.482   1.634   1.390
17922SOL    HW255208   6.509   1.767   1.457
17923SOL     OW55209   6.043   0.489   0.189
17923SOL    HW155210   6.094   0.566   0.214
17923SOL    HW255211   5.982   0.521   0.122
17924SOL     OW55212   5.740   1.128   1.480
17924SOL    HW155213   5.738   1.076   1.561
17924SOL    HW255214   5.754   1.064   1.411
17925SOL     OW55215   6.898   1.035   1.211
17925SOL    HW155216   6.919   0.976   1.139
17925SOL    HW255217   6.831   1.094   1.175
17926SOL     OW55218   6.904   0.862   0.309
17926SOL    HW155219   6.831   0.825   0.360
17926SOL    HW255220   6.889   0.830   0.220
17927SOL     OW55221   6.832   1.731   1.084
17927SOL    HW155222   6.920   1.757   1.057
17927SOL    HW255223   6.843   1.642   1.116
17928SOL     OW55224   5.679   1.259   1.030
17928SOL    HW155225   5.659   1.262   1.124
17928SOL    HW255226   5.606   1.306   0.989
17929SOL     OW55227   6.261   1.677   1.743
17929SOL    HW155228   6.195   1.746   1.739
17929SOL    HW255229   6.325   1.700   1.676
17930SOL     OW55230   6.466   0.155   0.074
17930SOL    HW155231   6.534   0.119   0.017
17930SOL    HW255232   6.462   0.094   0.148
17931SOL     OW55233   7.273   0.157   0.507
17931SOL    HW155234   7.315   0.109   0.435
17931SOL    HW255235   7.263   0.092   0.576
17932SOL     OW55236   6.972   1.572   0.483
17932SOL    HW155237   7.038   1.608   0.424
17932SOL    HW255238   6.926   1.648   0.518
17933SOL     OW55239   5.730   1.790   1.838
17933SOL    HW155240   5.679   1.724   1.886
17933SOL    HW255241   5.772   1.841   1.907
17934SOL     OW55242   6.860   0.936   0.656
17934SOL    HW155243   6.932   0.878   0.679
17934SOL    HW255244   6.896   0.994   0.590
17935SOL     OW55245   6.383   1.284   1.420
17935SOL    HW155246   6.358   1.326   1.502
17935SOL    HW255247   6.309   1.301   1.361
17936SOL     OW55248   6.198   1.620   0.153
17936SOL    HW155249   6.173   1.642   0.063
17936SOL    HW255250   6.160   1.534   0.168
17937SOL     OW55251   7.192   1.728   1.412
17937SOL    HW155252   7.249   1.725   1.335
17937SOL    HW255253   7.179   1.821   1.429
17938SOL     OW55254   7.456   0.155   0.925
17938SOL    HW155255   7.447   0.077   0.981
17938SOL    HW255256   7.367   0.182   0.906
17939SOL     OW55257   5.835   0.289   0.707
17939SOL    HW155258   5.760   0.343   0.682
17939SOL    HW255259   5.841   0.300   0.802
17940SOL     OW55260   6.796   1.618   0.067
17940SOL    HW155261   6.779   1.525   0.084
17940SOL    HW255262   6.759   1.633  -0.020
17941SOL     OW55263   6.409   1.015   1.377
17941SOL    HW155264   6.448   1.010   1.289
17941SOL    HW255265   6.403   1.109   1.395
17942SOL     OW55266   6.529   0.937   0.305
17942SOL    HW155267   6.585   0.957   0.230
17942SOL    HW255268   6.566   0.857   0.342
17943SOL     OW55269   7.055   1.563   0.017
17943SOL    HW155270   6.967   1.592   0.043
17943SOL    HW255271   7.107   1.643   0.016
17944SOL     OW55272   5.956   1.308   1.491
17944SOL    HW155273   5.939   1.384   1.435
17944SOL    HW255274   5.881   1.251   1.476
17945SOL     OW55275   7.184   1.274   1.290
17945SOL    HW155276   7.251   1.266   1.358
17945SOL    HW255277   7.129   1.346   1.320
17946SOL     OW55278   6.654   1.117   0.706
17946SOL    HW155279   6.581   1.069   0.746
17946SOL    HW255280   6.719   1.050   0.686
17947SOL     OW55281   6.626   0.269   0.956
17947SOL    HW155282   6.608   0.214   0.880
17947SOL    HW255283   6.628   0.209   1.031
17948SOL     OW55284   6.203   1.526   0.439
17948SOL    HW155285   6.204   1.441   0.395
17948SOL    HW255286   6.110   1.552   0.437
17949SOL     OW55287   7.309   0.420   1.388
17949SOL    HW155288   7.382   0.482   1.392
17949SOL    HW255289   7.336   0.355   1.323
17950SOL     OW55290   5.845   1.330   0.325
17950SOL    HW155291   5.757   1.329   0.287
17950SOL    HW255292   5.836   1.380   0.406
17951SOL     OW55293   5.692   0.993   1.712
17951SOL    HW155294   5.618   0.988   1.772
17951SOL    HW255295   5.769   0.978   1.768
17952SOL     OW55296   6.260   0.219   1.496
17952SOL    HW155297   6.338   0.170   1.471
17952SOL    HW255298   6.276   0.247   1.586
17953SOL     OW55299   7.007   0.856   1.390
17953SOL    HW155300   6.957   0.918   1.336
17953SOL    HW255301   7.096   0.862   1.357
17954SOL     OW55302   5.695   0.184   0.302
17954SOL    HW155303   5.710   0.279   0.303
17954SOL    HW255304   5.781   0.147   0.281
17955SOL     OW55305   6.782   1.347   0.125
17955SOL    HW155306   6.695   1.313   0.105
17955SOL    HW255307   6.789   1.340   0.220
17956SOL     OW55308   6.199   0.849   1.441
17956SOL    HW155309   6.256   0.924   1.426
17956SOL    HW255310   6.259   0.774   1.445
17957SOL     OW55311   7.096   1.793   1.006
17957SOL    HW155312   7.123   1.861   0.943
17957SOL    HW255313   7.177   1.768   1.051
17958SOL     OW55314   6.283   0.572   1.698
17958SOL    HW155315   6.338   0.626   1.754
17958SOL    HW255316   6.297   0.482   1.729
17959SOL     OW55317   7.057   1.190   1.627
17959SOL    HW155318   7.048   1.207   1.720
17959SOL    HW255319   7.149   1.211   1.607
17960SOL     OW55320   5.954   1.745   1.566
17960SOL    HW155321   5.874   1.793   1.546
17960SOL    HW255322   5.923   1.663   1.606
17961SOL     OW55323   7.246   0.878   1.253
17961SOL    HW155324   7.245   0.797   1.202
17961SOL    HW255325   7.239   0.947   1.187
17962SOL     OW55326   6.810   0.315   0.450
17962SOL    HW155327   6.872   0.242   0.444
17962SOL    HW255328   6.836   0.362   0.529
17963SOL     OW55329   6.173   0.734   0.674
17963SOL    HW155330   6.213   0.820   0.658
17963SOL    HW255331   6.107   0.726   0.605
17964SOL     OW55332   7.344   0.370   1.653
17964SOL    HW155333   7.333   0.390   1.560
17964SOL    HW255334   7.279   0.303   1.671
17965SOL     OW55335   7.326   0.929   1.511
17965SOL    HW155336   7.322   1.024   1.525
17965SOL    HW255337   7.310   0.918   1.417
17966SOL     OW55338   6.499   1.349   0.062
17966SOL    HW155339   6.449   1.336   0.143
17966SOL    HW255340   6.487   1.441   0.041
17967SOL     OW55341   6.258   1.780   0.915
17967SOL    HW155342   6.231   1.872   0.911
17967SOL    HW255343   6.352   1.783   0.929
17968SOL     OW55344   6.461   0.980   0.853
17968SOL    HW155345   6.510   0.907   0.891
17968SOL    HW255346   6.415   1.019   0.928
17969SOL     OW55347   6.688   0.987   0.082
17969SOL    HW155348   6.629   0.954   0.014
17969SOL    HW255349   6.769   0.938   0.069
17970SOL     OW55350   7.452   1.541   0.837
17970SOL    HW155351   7.375   1.573   0.791
17970SOL    HW255352   7.417   1.503   0.918
17971SOL     OW55353   5.821   1.307   1.869
17971SOL    HW155354   5.730   1.281   1.854
17971SOL    HW255355   5.827   1.317   1.964
17972SOL     OW55356   5.674   1.226   0.674
17972SOL    HW155357   5.673   1.175   0.755
17972SOL    HW255358   5.737   1.180   0.618
17973SOL     OW55359   6.274   1.412   1.637
17973SOL    HW155360   6.193   1.372   1.667
17973SOL    HW255361   6.271   1.501   1.672
17974SOL     OW55362   7.396   0.237   1.218
17974SOL    HW155363   7.340   0.161   1.206
17974SOL    HW255364   7.440   0.248   1.133
17975SOL     OW55365   6.010   0.426   0.527
17975SOL    HW155366   6.036   0.361   0.462
17975SOL    HW255367   5.962   0.376   0.594
17976SOL     OW55368   7.306   1.411   1.035
17976SOL    HW155369   7.221   1.455   1.032
17976SOL    HW255370   7.324   1.400   1.129
17977SOL     OW55371   5.933   0.565   1.296
17977SOL    HW155372   5.981   0.500   1.348
17977SOL    HW255373   5.943   0.537   1.206
17978SOL     OW55374   6.409   1.578   0.685
17978SOL    HW155375   6.362   1.651   0.643
17978SOL    HW255376   6.342   1.511   0.698
17979SOL     OW55377   7.013   0.223   1.119
17979SOL    HW155378   7.073   0.164   1.165
17979SOL    HW255379   6.963   0.266   1.187
17980SOL     OW55380   6.588   0.075   1.143
17980SOL    HW155381   6.503   0.062   1.102
17980SOL    HW255382   6.622  -0.014   1.156
17981SOL     OW55383   6.386   1.335   0.312
17981SOL    HW155384   6.346   1.249   0.326
17981SOL    HW255385   6.456   1.340   0.376
17982SOL     OW55386   6.209   1.556   1.291
17982SOL    HW155387   6.207   1.636   1.343
17982SOL    HW255388   6.297   1.554   1.254
17983SOL     OW55389   6.958   0.009   0.177
17983SOL    HW155390   6.998  -0.005   0.091
17983SOL    HW255391   6.887   0.071   0.160
17984SOL     OW55392   6.872   0.461   0.671
17984SOL    HW155393   6.823   0.543   0.678
17984SOL    HW255394   6.882   0.433   0.762
17985SOL     OW55395   7.202   0.223   0.879
17985SOL    HW155396   7.122   0.221   0.931
17985SOL    HW255397   7.192   0.300   0.823
17986SOL     OW55398   5.633   1.080   0.345
17986SOL    HW155399   5.723   1.071   0.312
17986SOL    HW255400   5.612   0.993   0.380
17987SOL     OW55401   5.797   0.633   1.998
17987SOL    HW155402   5.711   0.620   2.040
17987SOL    HW255403   5.784   0.606   1.907
17988SOL     OW55404   5.807   0.291   2.850
17988SOL    HW155405   5.834   0.252   2.933
17988SOL    HW255406   5.730   0.241   2.824
17989SOL     OW55407   5.592   0.406   2.498
17989SOL    HW155408   5.506   0.426   2.534
17989SOL    HW255409   5.582   0.320   2.456
17990SOL     OW55410   6.158   1.301   3.043
17990SOL    HW155411   6.071   1.312   3.004
17990SOL    HW255412   6.177   1.385   3.084
17991SOL     OW55413   7.160   1.518   2.579
17991SOL    HW155414   7.119   1.494   2.662
17991SOL    HW255415   7.089   1.515   2.515
17992SOL     OW55416   6.716   0.699   2.552
17992SOL    HW155417   6.766   0.780   2.539
17992SOL    HW255418   6.675   0.710   2.638
17993SOL     OW55419   7.386   0.593   2.075
17993SOL    HW155420   7.345   0.586   1.989
17993SOL    HW255421   7.342   0.527   2.128
17994SOL     OW55422   6.316   1.131   2.901
17994SOL    HW155423   6.255   1.171   2.962
17994SOL    HW255424   6.368   1.204   2.867
17995SOL     OW55425   6.461   0.749   3.691
17995SOL    HW155426   6.455   0.809   3.765
17995SOL    HW255427   6.484   0.804   3.617
17996SOL     OW55428   6.249   0.973   2.525
17996SOL    HW155429   6.328   0.957   2.576
17996SOL    HW255430   6.216   1.056   2.556
17997SOL     OW55431   6.300   1.149   3.678
17997SOL    HW155432   6.345   1.224   3.717
17997SOL    HW255433   6.219   1.185   3.643
17998SOL     OW55434   5.931   1.402   2.918
17998SOL    HW155435   5.843   1.384   2.884
17998SOL    HW255436   5.964   1.472   2.863
17999SOL     OW55437   7.038   1.515   3.215
17999SOL    HW155438   7.098   1.588   3.231
17999SOL    HW255439   6.973   1.521   3.285
18000SOL     OW55440   6.036   0.380   3.307
18000SOL    HW155441   6.109   0.323   3.334
18000SOL    HW255442   5.961   0.345   3.354
18001SOL     OW55443   7.192   0.456   2.591
18001SOL    HW155444   7.111   0.480   2.545
18001SOL    HW255445   7.203   0.524   2.657
18002SOL     OW55446   5.807   1.711   2.330
18002SOL    HW155447   5.825   1.785   2.388
18002SOL    HW255448   5.881   1.710   2.269
18003SOL     OW55449   6.720   1.348   3.556
18003SOL    HW155450   6.763   1.344   3.642
18003SOL    HW255451   6.668   1.268   3.552
18004SOL     OW55452   5.820   1.437   2.398
18004SOL    HW155453   5.806   1.531   2.398
18004SOL    HW255454   5.762   1.404   2.467
18005SOL     OW55455   5.852   1.088   2.761
18005SOL    HW155456   5.852   1.020   2.828
18005SOL    HW255457   5.796   1.157   2.796
18006SOL     OW55458   6.191   1.777   3.291
18006SOL    HW155459   6.109   1.761   3.337
18006SOL    HW255460   6.214   1.868   3.314
18007SOL     OW55461   6.166   0.988   2.003
18007SOL    HW155462   6.215   1.033   1.934
18007SOL    HW255463   6.204   1.022   2.085
18008SOL     OW55464   7.230   0.123   3.331
18008SOL    HW155465   7.228   0.210   3.291
18008SOL    HW255466   7.175   0.131   3.409
18009SOL     OW55467   5.712   0.654   2.427
18009SOL    HW155468   5.673   0.570   2.448
18009SOL    HW255469   5.695   0.708   2.505
18010SOL     OW55470   7.437   1.747   2.195
18010SOL    HW155471   7.510   1.723   2.250
18010SOL    HW255472   7.451   1.840   2.176
18011SOL     OW55473   5.633   1.582   1.981
18011SOL    HW155474   5.607   1.492   2.001
18011SOL    HW255475   5.605   1.633   2.057
18012SOL     OW55476   7.268   0.905   2.502
18012SOL    HW155477   7.360   0.881   2.514
18012SOL    HW255478   7.268   0.960   2.424
18013SOL     OW55479   7.243   1.104   2.291
18013SOL    HW155480   7.329   1.101   2.248
18013SOL    HW255481   7.254   1.167   2.362
18014SOL     OW55482   5.727   0.758   3.440
18014SOL    HW155483   5.820   0.776   3.455
18014SOL    HW255484   5.683   0.837   3.472
18015SOL     OW55485   6.214   1.389   2.596
18015SOL    HW155486   6.162   1.310   2.610
18015SOL    HW255487   6.191   1.416   2.507
18016SOL     OW55488   6.866   1.238   3.272
18016SOL    HW155489   6.909   1.173   3.217
18016SOL    HW255490   6.915   1.236   3.354
18017SOL     OW55491   6.432   0.013   2.406
18017SOL    HW155492   6.476   0.091   2.373
18017SOL    HW255493   6.345   0.044   2.433
18018SOL     OW55494   5.776   0.960   3.134
18018SOL    HW155495   5.862   0.917   3.127
18018SOL    HW255496   5.713   0.888   3.131
18019SOL     OW55497   7.118   1.005   2.064
18019SOL    HW155498   7.050   0.947   2.098
18019SOL    HW255499   7.163   1.037   2.142
18020SOL     OW55500   6.782   1.822   3.483
18020SOL    HW155501   6.790   1.878   3.406
18020SOL    HW255502   6.807   1.735   3.453
18021SOL     OW55503   5.918   0.271   3.640
18021SOL    HW155504   5.978   0.329   3.686
18021SOL    HW255505   5.837   0.273   3.692
18022SOL     OW55506   7.030   1.413   2.808
18022SOL    HW155507   6.976   1.423   2.887
18022SOL    HW255508   7.027   1.320   2.789
18023SOL     OW55509   7.203   1.779   2.431
18023SOL    HW155510   7.212   1.727   2.350
18023SOL    HW255511   7.207   1.714   2.501
18024SOL     OW55512   6.178   0.725   2.136
18024SOL    HW155513   6.190   0.804   2.084
18024SOL    HW255514   6.118   0.750   2.206
18025SOL     OW55515   6.875   0.372   2.789
18025SOL    HW155516   6.784   0.341   2.796
18025SOL    HW255517   6.923   0.319   2.853
18026SOL     OW55518   7.172   1.674   2.169
18026SOL    HW155519   7.266   1.690   2.164
18026SOL    HW255520   7.145   1.660   2.079
18027SOL     OW55521   6.398   0.605   3.317
18027SOL    HW155522   6.354   0.592   3.401
18027SOL    HW255523   6.351   0.548   3.256
18028SOL     OW55524   6.994   0.492   3.549
18028SOL    HW155525   6.983   0.527   3.637
18028SOL    HW255526   7.088   0.491   3.535
18029SOL     OW55527   6.529   0.885   3.451
18029SOL    HW155528   6.593   0.826   3.411
18029SOL    HW255529   6.487   0.929   3.377
18030SOL     OW55530   6.588   0.416   3.079
18030SOL    HW155531   6.504   0.444   3.117
18030SOL    HW255532   6.564   0.360   3.006
18031SOL     OW55533   6.642   0.700   2.284
18031SOL    HW155534   6.664   0.697   2.377
18031SOL    HW255535   6.557   0.656   2.278
18032SOL     OW55536   5.688   0.840   2.626
18032SOL    HW155537   5.759   0.830   2.690
18032SOL    HW255538   5.630   0.906   2.665
18033SOL     OW55539   6.472   0.359   2.074
18033SOL    HW155540   6.517   0.408   2.006
18033SOL    HW255541   6.453   0.274   2.034
18034SOL     OW55542   7.291   0.564   3.691
18034SOL    HW155543   7.257   0.640   3.643
18034SOL    HW255544   7.321   0.504   3.622
18035SOL     OW55545   6.974   1.141   2.404
18035SOL    HW155546   7.057   1.134   2.356
18035SOL    HW255547   6.920   1.200   2.351
18036SOL     OW55548   6.128   0.237   2.781
18036SOL    HW155549   6.109   0.240   2.875
18036SOL    HW255550   6.126   0.329   2.753
18037SOL     OW55551   6.579   1.450   2.326
18037SOL    HW155552   6.553   1.526   2.275
18037SOL    HW255553   6.549   1.470   2.415
18038SOL     OW55554   5.932   1.809   2.722
18038SOL    HW155555   5.974   1.724   2.736
18038SOL    HW255556   5.972   1.867   2.787
18039SOL     OW55557   7.378   1.052   2.734
18039SOL    HW155558   7.314   1.051   2.663
18039SOL    HW255559   7.325   1.058   2.814
18040SOL     OW55560   6.806   1.551   3.371
18040SOL    HW155561   6.794   1.478   3.432
18040SOL    HW255562   6.717   1.575   3.345
18041SOL     OW55563   5.907   0.949   2.122
18041SOL    HW155564   5.984   0.970   2.070
18041SOL    HW255565   5.867   0.874   2.077
18042SOL     OW55566   7.061   0.746   2.574
18042SOL    HW155567   7.060   0.712   2.664
18042SOL    HW255568   7.139   0.802   2.570
18043SOL     OW55569   6.060   1.260   3.593
18043SOL    HW155570   6.033   1.260   3.501
18043SOL    HW255571   5.979   1.260   3.642
18044SOL     OW55572   6.733   1.765   2.118
18044SOL    HW155573   6.645   1.740   2.145
18044SOL    HW255574   6.752   1.709   2.043
18045SOL     OW55575   5.780   0.280   3.383
18045SOL    HW155576   5.702   0.334   3.394
18045SOL    HW255577   5.813   0.266   3.472
18046SOL     OW55578   7.212   1.386   1.956
18046SOL    HW155579   7.170   1.471   1.937
18046SOL    HW255580   7.145   1.321   1.933
18047SOL     OW55581   6.047   1.736   2.179
18047SOL    HW155582   6.089   1.793   2.243
18047SOL    HW255583   6.119   1.703   2.124
18048SOL     OW55584   6.986   0.129   2.262
18048SOL    HW155585   6.990   0.098   2.172
18048SOL    HW255586   7.077   0.137   2.290
18049SOL     OW55587   5.895   1.770   3.020
18049SOL    HW155588   5.869   1.788   3.111
18049SOL    HW255589   5.812   1.755   2.974
18050SOL     OW55590   6.542   1.698   2.750
18050SOL    HW155591   6.560   1.644   2.827
18050SOL    HW255592   6.502   1.638   2.687
18051SOL     OW55593   5.983   0.710   2.398
18051SOL    HW155594   6.021   0.622   2.400
18051SOL    HW255595   5.889   0.696   2.388
18052SOL     OW55596   7.113   0.215   3.584
18052SOL    HW155597   7.126   0.240   3.676
18052SOL    HW255598   7.022   0.237   3.566
18053SOL     OW55599   6.193   0.147   1.961
18053SOL    HW155600   6.257   0.093   2.007
18053SOL    HW255601   6.155   0.089   1.895
18054SOL     OW55602   6.287   0.307   3.647
18054SOL    HW155603   6.354   0.240   3.652
18054SOL    HW255604   6.249   0.310   3.735
18055SOL     OW55605   6.477   1.537   3.024
18055SOL    HW155606   6.444   1.476   2.958
18055SOL    HW255607   6.533   1.484   3.080
18056SOL     OW55608   6.930   0.597   3.296
18056SOL    HW155609   6.963   0.572   3.383
18056SOL    HW255610   6.963   0.685   3.283
18057SOL     OW55611   6.410   1.377   2.808
18057SOL    HW155612   6.495   1.367   2.764
18057SOL    HW255613   6.347   1.387   2.736
18058SOL     OW55614   6.512   0.517   2.750
18058SOL    HW155615   6.479   0.506   2.661
18058SOL    HW255616   6.550   0.432   2.773
18059SOL     OW55617   6.149   0.021   2.265
18059SOL    HW155618   6.085  -0.024   2.320
18059SOL    HW255619   6.144   0.113   2.291
18060SOL     OW55620   7.013   1.203   1.900
18060SOL    HW155621   7.044   1.130   1.953
18060SOL    HW255622   6.928   1.226   1.938
18061SOL     OW55623   5.892   0.049   2.085
18061SOL    HW155624   5.962   0.115   2.090
18061SOL    HW255625   5.909  -0.010   2.158
18062SOL     OW55626   6.538   0.255   2.325
18062SOL    HW155627   6.508   0.293   2.242
18062SOL    HW255628   6.631   0.276   2.329
18063SOL     OW55629   6.672   0.698   3.308
18063SOL    HW155630   6.606   0.632   3.330
18063SOL    HW255631   6.755   0.652   3.315
18064SOL     OW55632   6.834   1.552   2.667
18064SOL    HW155633   6.810   1.625   2.724
18064SOL    HW255634   6.905   1.508   2.715
18065SOL     OW55635   6.054   1.150   2.593
18065SOL    HW155636   5.988   1.148   2.662
18065SOL    HW255637   6.003   1.159   2.512
18066SOL     OW55638   6.609   0.520   1.892
18066SOL    HW155639   6.566   0.603   1.869
18066SOL    HW255640   6.670   0.544   1.961
18067SOL     OW55641   5.669   0.574   3.250
18067SOL    HW155642   5.761   0.564   3.228
18067SOL    HW255643   5.667   0.640   3.320
18068SOL     OW55644   6.149   0.218   3.067
18068SOL    HW155645   6.185   0.194   3.152
18068SOL    HW255646   6.054   0.217   3.081
18069SOL     OW55647   6.413   0.460   2.497
18069SOL    HW155648   6.404   0.512   2.417
18069SOL    HW255649   6.444   0.375   2.466
18070SOL     OW55650   6.592   0.033   2.632
18070SOL    HW155651   6.536   0.022   2.555
18070SOL    HW255652   6.581  -0.047   2.682
18071SOL     OW55653   7.018   1.149   2.723
18071SOL    HW155654   6.964   1.072   2.741
18071SOL    HW255655   7.023   1.154   2.628
18072SOL     OW55656   7.046   0.615   2.820
18072SOL    HW155657   6.989   0.538   2.829
18072SOL    HW255658   7.105   0.609   2.895
18073SOL     OW55659   7.421   0.805   2.245
18073SOL    HW155660   7.482   0.763   2.305
18073SOL    HW255661   7.409   0.741   2.175
18074SOL     OW55662   6.079   1.424   2.018
18074SOL    HW155663   6.001   1.399   2.068
18074SOL    HW255664   6.070   1.375   1.935
18075SOL     OW55665   7.280   1.267   2.498
18075SOL    HW155666   7.373   1.262   2.519
18075SOL    HW255667   7.254   1.354   2.530
18076SOL     OW55668   6.978   0.587   1.938
18076SOL    HW155669   6.915   0.562   2.006
18076SOL    HW255670   7.062   0.593   1.984
18077SOL     OW55671   6.086   0.289   2.173
18077SOL    HW155672   6.136   0.240   2.108
18077SOL    HW255673   6.063   0.371   2.129
18078SOL     OW55674   6.636   1.342   3.169
18078SOL    HW155675   6.559   1.322   3.222
18078SOL    HW255676   6.710   1.312   3.222
18079SOL     OW55677   7.191   1.649   3.518
18079SOL    HW155678   7.182   1.673   3.425
18079SOL    HW255679   7.274   1.603   3.523
18080SOL     OW55680   6.695   1.181   2.951
18080SOL    HW155681   6.666   1.236   3.024
18080SOL    HW255682   6.684   1.237   2.874
18081SOL     OW55683   7.208   1.094   2.941
18081SOL    HW155684   7.204   1.158   3.012
18081SOL    HW255685   7.130   1.113   2.888
18082SOL     OW55686   6.511   0.084   3.253
18082SOL    HW155687   6.560   0.119   3.179
18082SOL    HW255688   6.517   0.151   3.321
18083SOL     OW55689   6.568   1.121   3.582
18083SOL    HW155690   6.480   1.140   3.614
18083SOL    HW255691   6.559   1.037   3.536
18084SOL     OW55692   6.297   1.061   2.239
18084SOL    HW155693   6.283   1.037   2.331
18084SOL    HW255694   6.372   1.009   2.211
18085SOL     OW55695   6.013   0.816   3.110
18085SOL    HW155696   6.078   0.828   3.179
18085SOL    HW255697   5.977   0.729   3.126
18086SOL     OW55698   6.858   0.397   3.124
18086SOL    HW155699   6.887   0.471   3.177
18086SOL    HW255700   6.765   0.415   3.106
18087SOL     OW55701   5.668   1.570   3.209
18087SOL    HW155702   5.664   1.664   3.222
18087SOL    HW255703   5.762   1.550   3.206
18088SOL     OW55704   5.929   1.095   2.354
18088SOL    HW155705   5.920   1.182   2.315
18088SOL    HW255706   5.921   1.034   2.280
18089SOL     OW55707   6.144   0.504   2.720
18089SOL    HW155708   6.190   0.512   2.636
18089SOL    HW255709   6.201   0.548   2.783
18090SOL     OW55710   6.826   1.340   2.252
18090SOL    HW155711   6.886   1.408   2.282
18090SOL    HW255712   6.741   1.365   2.289
18091SOL     OW55713   6.861   1.464   3.021
18091SOL    HW155714   6.927   1.478   3.090
18091SOL    HW255715   6.789   1.421   3.066
18092SOL     OW55716   7.164   0.651   2.328
18092SOL    HW155717   7.111   0.681   2.402
18092SOL    HW255718   7.227   0.721   2.313
18093SOL     OW55719   5.929   1.493   3.178
18093SOL    HW155720   5.927   1.465   3.087
18093SOL    HW255721   6.009   1.545   3.185
18094SOL     OW55722   6.023   0.728   3.483
18094SOL    HW155723   6.077   0.772   3.418
18094SOL    HW255724   6.082   0.665   3.525
18095SOL     OW55725   7.181   0.740   3.515
18095SOL    HW155726   7.107   0.799   3.532
18095SOL    HW255727   7.246   0.796   3.472
18096SOL     OW55728   6.648   0.049   3.609
18096SOL    HW155729   6.677   0.140   3.620
18096SOL    HW255730   6.555   0.055   3.590
18097SOL     OW55731   6.010   0.014   3.588
18097SOL    HW155732   6.047   0.001   3.500
18097SOL    HW255733   5.997   0.108   3.594
18098SOL     OW55734   6.165   0.890   2.892
18098SOL    HW155735   6.211   0.974   2.899
18098SOL    HW255736   6.119   0.881   2.975
18099SOL     OW55737   6.919   0.867   2.851
18099SOL    HW155738   6.828   0.840   2.841
18099SOL    HW255739   6.968   0.784   2.853
18100SOL     OW55740   6.780   0.528   2.119
18100SOL    HW155741   6.791   0.452   2.176
18100SOL    HW255742   6.742   0.595   2.176
18101SOL     OW55743   5.875   0.203   3.107
18101SOL    HW155744   5.841   0.242   3.187
18101SOL    HW255745   5.850   0.111   3.112
18102SOL     OW55746   5.639   1.312   3.128
18102SOL    HW155747   5.664   1.259   3.204
18102SOL    HW255748   5.641   1.402   3.160
18103SOL     OW55749   6.294   0.632   2.902
18103SOL    HW155750   6.384   0.625   2.871
18103SOL    HW255751   6.275   0.726   2.903
18104SOL     OW55752   7.317   0.955   3.726
18104SOL    HW155753   7.267   1.000   3.657
18104SOL    HW255754   7.262   0.964   3.804
18105SOL     OW55755   5.993   0.089   2.536
18105SOL    HW155756   5.939   0.166   2.553
18105SOL    HW255757   5.933   0.026   2.498
18106SOL     OW55758   7.217   0.409   2.226
18106SOL    HW155759   7.250   0.363   2.304
18106SOL    HW255760   7.186   0.493   2.259
18107SOL     OW55761   6.624   0.757   2.819
18107SOL    HW155762   6.609   0.773   2.912
18107SOL    HW255763   6.593   0.667   2.805
18108SOL     OW55764   6.569   1.576   3.589
18108SOL    HW155765   6.557   1.613   3.502
18108SOL    HW255766   6.604   1.488   3.573
18109SOL     OW55767   7.453   1.549   3.438
18109SOL    HW155768   7.420   1.459   3.437
18109SOL    HW255769   7.532   1.544   3.491
18110SOL     OW55770   5.940   0.923   3.669
18110SOL    HW155771   6.011   0.949   3.728
18110SOL    HW255772   5.977   0.853   3.616
18111SOL     OW55773   7.162   0.227   2.032
18111SOL    HW155774   7.072   0.242   2.004
18111SOL    HW255775   7.181   0.297   2.095
18112SOL     OW55776   6.860   0.829   1.881
18112SOL    HW155777   6.905   0.745   1.891
18112SOL    HW255778   6.896   0.867   1.801
18113SOL     OW55779   6.655   1.336   2.708
18113SOL    HW155780   6.664   1.263   2.647
18113SOL    HW255781   6.718   1.401   2.675
18114SOL     OW55782   5.948   0.795   2.750
18114SOL    HW155783   6.017   0.827   2.809
18114SOL    HW255784   5.920   0.712   2.790
18115SOL     OW55785   5.912   0.536   2.861
18115SOL    HW155786   5.869   0.451   2.855
18115SOL    HW255787   5.993   0.527   2.810
18116SOL     OW55788   6.725   0.432   3.512
18116SOL    HW155789   6.686   0.465   3.593
18116SOL    HW255790   6.818   0.452   3.520
18117SOL     OW55791   6.813   0.226   3.333
18117SOL    HW155792   6.769   0.279   3.400
18117SOL    HW255793   6.823   0.284   3.259
18118SOL     OW55794   5.586   1.310   2.048
18118SOL    HW155795   5.498   1.328   2.015
18118SOL    HW255796   5.579   1.223   2.086
18119SOL     OW55797   5.673   1.771   2.803
18119SOL    HW155798   5.642   1.693   2.757
18119SOL    HW255799   5.761   1.786   2.769
18120SOL     OW55800   6.077   1.576   2.757
18120SOL    HW155801   6.141   1.644   2.777
18120SOL    HW255802   6.126   1.511   2.707
18121SOL     OW55803   6.550   0.782   3.078
18121SOL    HW155804   6.614   0.757   3.144
18121SOL    HW255805   6.467   0.791   3.126
18122SOL     OW55806   5.626   0.563   2.978
18122SOL    HW155807   5.712   0.555   2.937
18122SOL    HW255808   5.644   0.564   3.072
18123SOL     OW55809   5.763   0.538   3.601
18123SOL    HW155810   5.858   0.540   3.589
18123SOL    HW255811   5.731   0.610   3.547
18124SOL     OW55812   6.978   0.928   3.515
18124SOL    HW155813   6.992   1.023   3.516
18124SOL    HW255814   6.975   0.906   3.422
18125SOL     OW55815   6.400   0.574   2.241
18125SOL    HW155816   6.410   0.501   2.181
18125SOL    HW255817   6.327   0.625   2.204
18126SOL     OW55818   7.225   0.601   3.023
18126SOL    HW155819   7.214   0.556   3.107
18126SOL    HW255820   7.315   0.583   2.997
18127SOL     OW55821   5.824   1.545   3.573
18127SOL    HW155822   5.808   1.623   3.627
18127SOL    HW255823   5.836   1.474   3.636
18128SOL     OW55824   6.306   0.453   3.112
18128SOL    HW155825   6.241   0.383   3.101
18128SOL    HW255826   6.288   0.514   3.041
18129SOL     OW55827   6.541   1.667   3.324
18129SOL    HW155828   6.461   1.636   3.281
18129SOL    HW255829   6.534   1.763   3.322
18130SOL     OW55830   6.039   0.511   2.029
18130SOL    HW155831   6.098   0.581   2.057
18130SOL    HW255832   5.953   0.552   2.023
18131SOL     OW55833   5.715   1.140   3.335
18131SOL    HW155834   5.716   1.090   3.417
18131SOL    HW255835   5.739   1.076   3.268
18132SOL     OW55836   6.903   1.037   3.067
18132SOL    HW155837   6.923   0.979   2.993
18132SOL    HW255838   6.829   1.090   3.036
18133SOL     OW55839   6.906   0.858   2.158
18133SOL    HW155840   6.836   0.831   2.217
18133SOL    HW255841   6.867   0.849   2.070
18134SOL     OW55842   7.326   1.749   2.979
18134SOL    HW155843   7.407   1.768   2.933
18134SOL    HW255844   7.322   1.653   2.982
18135SOL     OW55845   6.826   1.725   2.925
18135SOL    HW155846   6.916   1.752   2.906
18135SOL    HW255847   6.835   1.641   2.971
18136SOL     OW55848   5.679   1.264   2.868
18136SOL    HW155849   5.676   1.278   2.963
18136SOL    HW255850   5.587   1.260   2.841
18137SOL     OW55851   6.258   1.673   3.607
18137SOL    HW155852   6.194   1.744   3.602
18137SOL    HW255853   6.340   1.713   3.579
18138SOL     OW55854   7.259   0.097   2.331
18138SOL    HW155855   7.348   0.122   2.357
18138SOL    HW255856   7.221   0.058   2.410
18139SOL     OW55857   6.983   1.554   2.328
18139SOL    HW155858   7.054   1.583   2.271
18139SOL    HW255859   6.918   1.625   2.323
18140SOL     OW55860   5.770   1.766   3.716
18140SOL    HW155861   5.702   1.714   3.760
18140SOL    HW255862   5.800   1.827   3.782
18141SOL     OW55863   6.861   0.925   2.519
18141SOL    HW155864   6.935   0.867   2.538
18141SOL    HW255865   6.900   0.999   2.472
18142SOL     OW55866   6.384   1.282   3.282
18142SOL    HW155867   6.364   1.323   3.366
18142SOL    HW255868   6.306   1.299   3.229
18143SOL     OW55869   6.256   1.631   2.018
18143SOL    HW155870   6.267   1.645   1.924
18143SOL    HW255871   6.201   1.553   2.024
18144SOL     OW55872   7.201   1.735   3.243
18144SOL    HW155873   7.256   1.739   3.165
18144SOL    HW255874   7.194   1.825   3.273
18145SOL     OW55875   7.437   0.174   2.810
18145SOL    HW155876   7.436   0.082   2.838
18145SOL    HW255877   7.350   0.189   2.773
18146SOL     OW55878   5.853   0.327   2.577
18146SOL    HW155879   5.766   0.356   2.550
18146SOL    HW255880   5.847   0.317   2.672
18147SOL     OW55881   6.791   1.601   1.905
18147SOL    HW155882   6.781   1.509   1.928
18147SOL    HW255883   6.724   1.616   1.838
18148SOL     OW55884   6.416   1.013   3.233
18148SOL    HW155885   6.470   1.022   3.154
18148SOL    HW255886   6.401   1.103   3.262
18149SOL     OW55887   6.500   0.907   2.157
18149SOL    HW155888   6.555   0.942   2.087
18149SOL    HW255889   6.555   0.843   2.203
18150SOL     OW55890   7.068   1.647   1.913
18150SOL    HW155891   6.975   1.628   1.896
18150SOL    HW255892   7.109   1.644   1.826
18151SOL     OW55893   5.958   1.276   3.345
18151SOL    HW155894   5.950   1.358   3.295
18151SOL    HW255895   5.871   1.237   3.342
18152SOL     OW55896   7.178   1.292   3.129
18152SOL    HW155897   7.231   1.266   3.205
18152SOL    HW255898   7.122   1.362   3.161
18153SOL     OW55899   6.648   1.103   2.565
18153SOL    HW155900   6.580   1.053   2.610
18153SOL    HW255901   6.717   1.039   2.547
18154SOL     OW55902   6.616   0.260   2.794
18154SOL    HW155903   6.609   0.202   2.718
18154SOL    HW255904   6.622   0.200   2.869
18155SOL     OW55905   6.180   1.476   2.340
18155SOL    HW155906   6.232   1.435   2.270
18155SOL    HW255907   6.109   1.522   2.295
18156SOL     OW55908   7.304   0.417   3.242
18156SOL    HW155909   7.375   0.480   3.251
18156SOL    HW255910   7.336   0.353   3.180
18157SOL     OW55911   5.841   1.341   2.149
18157SOL    HW155912   5.747   1.337   2.127
18157SOL    HW255913   5.843   1.381   2.236
18158SOL     OW55914   5.694   1.004   3.571
18158SOL    HW155915   5.621   0.998   3.633
18158SOL    HW255916   5.772   0.988   3.624
18159SOL     OW55917   6.237   0.200   3.361
18159SOL    HW155918   6.306   0.135   3.343
18159SOL    HW255919   6.255   0.229   3.451
18160SOL     OW55920   5.663   0.329   1.890
18160SOL    HW155921   5.568   0.340   1.892
18160SOL    HW255922   5.695   0.404   1.839
18161SOL     OW55923   7.008   0.858   3.250
18161SOL    HW155924   6.962   0.923   3.196
18161SOL    HW255925   7.100   0.866   3.224
18162SOL     OW55926   5.634   0.152   2.117
18162SOL    HW155927   5.648   0.231   2.065
18162SOL    HW255928   5.719   0.108   2.117
18163SOL     OW55929   6.761   1.332   1.980
18163SOL    HW155930   6.668   1.309   1.977
18163SOL    HW255931   6.784   1.329   2.073
18164SOL     OW55932   6.215   0.824   3.292
18164SOL    HW155933   6.265   0.905   3.286
18164SOL    HW255934   6.281   0.757   3.313
18165SOL     OW55935   7.082   1.794   2.846
18165SOL    HW155936   7.112   1.867   2.792
18165SOL    HW255937   7.160   1.767   2.895
18166SOL     OW55938   6.281   0.575   3.556
18166SOL    HW155939   6.330   0.630   3.617
18166SOL    HW255940   6.274   0.490   3.600
18167SOL     OW55941   7.040   1.196   3.492
18167SOL    HW155942   7.035   1.216   3.585
18167SOL    HW255943   7.129   1.219   3.467
18168SOL     OW55944   5.952   1.740   3.419
18168SOL    HW155945   5.875   1.782   3.380
18168SOL    HW255946   5.916   1.665   3.466
18169SOL     OW55947   7.252   0.877   3.115
18169SOL    HW155948   7.248   0.797   3.064
18169SOL    HW255949   7.247   0.947   3.050
18170SOL     OW55950   6.803   0.327   2.312
18170SOL    HW155951   6.866   0.256   2.301
18170SOL    HW255952   6.833   0.374   2.390
18171SOL     OW55953   7.332   0.368   3.508
18171SOL    HW155954   7.319   0.388   3.415
18171SOL    HW255955   7.261   0.306   3.529
18172SOL     OW55956   7.329   0.924   3.377
18172SOL    HW155957   7.339   1.018   3.394
18172SOL    HW255958   7.312   0.919   3.283
18173SOL     OW55959   6.458   1.361   1.914
18173SOL    HW155960   6.418   1.382   1.998
18173SOL    HW255961   6.465   1.446   1.870
18174SOL     OW55962   6.253   1.786   2.764
18174SOL    HW155963   6.219   1.875   2.765
18174SOL    HW255964   6.341   1.792   2.801
18175SOL     OW55965   6.456   0.963   2.714
18175SOL    HW155966   6.515   0.899   2.755
18175SOL    HW255967   6.419   1.012   2.786
18176SOL     OW55968   6.648   0.983   1.948
18176SOL    HW155969   6.632   1.042   1.874
18176SOL    HW255970   6.725   0.932   1.921
18177SOL     OW55971   7.431   1.551   2.697
18177SOL    HW155972   7.343   1.543   2.660
18177SOL    HW255973   7.427   1.502   2.779
18178SOL     OW55974   5.829   1.305   3.732
18178SOL    HW155975   5.738   1.279   3.717
18178SOL    HW255976   5.835   1.316   3.827
18179SOL     OW55977   5.675   1.228   2.541
18179SOL    HW155978   5.663   1.190   2.628
18179SOL    HW255979   5.732   1.166   2.495
18180SOL     OW55980   6.270   1.418   3.490
18180SOL    HW155981   6.195   1.371   3.528
18180SOL    HW255982   6.266   1.505   3.530
18181SOL     OW55983   7.399   0.227   3.086
18181SOL    HW155984   7.334   0.158   3.071
18181SOL    HW255985   7.438   0.241   2.999
18182SOL     OW55986   6.047   0.440   2.412
18182SOL    HW155987   6.055   0.381   2.337
18182SOL    HW255988   5.980   0.400   2.467
18183SOL     OW55989   7.288   1.479   2.939
18183SOL    HW155990   7.200   1.454   2.912
18183SOL    HW255991   7.307   1.423   3.014
18184SOL     OW55992   5.921   0.563   3.148
18184SOL    HW155993   5.969   0.502   3.204
18184SOL    HW255994   5.936   0.529   3.059
18185SOL     OW55995   6.422   1.569   2.533
18185SOL    HW155996   6.379   1.646   2.495
18185SOL    HW255997   6.350   1.509   2.552
18186SOL     OW55998   7.021   0.231   2.971
18186SOL    HW155999   7.071   0.166   3.021
18186SOL    HW256000   6.972   0.280   3.037
18187SOL     OW56001   6.610   0.070   2.982
18187SOL    HW156002   6.521   0.034   2.979
18187SOL    HW256003   6.663  -0.002   3.016
18188SOL     OW56004   6.364   1.335   2.181
18188SOL    HW156005   6.340   1.243   2.195
18188SOL    HW256006   6.441   1.348   2.235
18189SOL     OW56007   6.219   1.551   3.141
18189SOL    HW156008   6.206   1.630   3.194
18189SOL    HW256009   6.304   1.564   3.099
18190SOL     OW56010   6.922   7.975   2.019
18190SOL    HW156011   6.970   7.893   2.009
18190SOL    HW256012   6.854   7.955   2.084
18191SOL     OW56013   6.883   0.466   2.533
18191SOL    HW156014   6.833   0.548   2.539
18191SOL    HW256015   6.882   0.432   2.622
18192SOL     OW56016   7.184   0.215   2.723
18192SOL    HW156017   7.119   0.222   2.794
18192SOL    HW256018   7.176   0.299   2.676
18193SOL     OW56019   5.628   1.062   2.170
18193SOL    HW156020   5.722   1.057   2.151
18193SOL    HW256021   5.603   0.972   2.191
18194SOL     OW56022   6.479   1.672   2.192
18194SOL    HW156023   6.404   1.654   2.136
18194SOL    HW256024   6.447   1.736   2.256
18195SOL     OW56025   5.790   0.638   3.861
18195SOL    HW156026   5.709   0.625   3.910
18195SOL    HW256027   5.766   0.615   3.771
18196SOL     OW56028   5.812   0.298   4.700
18196SOL    HW156029   5.842   0.260   4.782
18196SOL    HW256030   5.724   0.263   4.688
18197SOL     OW56031   5.590   0.401   4.361
18197SOL    HW156032   5.504   0.430   4.389
18197SOL    HW256033   5.579   0.308   4.343
18198SOL     OW56034   6.159   1.299   4.916
18198SOL    HW156035   6.076   1.308   4.869
18198SOL    HW256036   6.177   1.387   4.950
18199SOL     OW56037   7.162   1.526   4.433
18199SOL    HW156038   7.117   1.504   4.515
18199SOL    HW256039   7.092   1.534   4.369
18200SOL     OW56040   6.718   0.691   4.416
18200SOL    HW156041   6.769   0.769   4.395
18200SOL    HW256042   6.674   0.713   4.498
18201SOL     OW56043   7.391   0.580   3.939
18201SOL    HW156044   7.352   0.584   3.852
18201SOL    HW256045   7.334   0.521   3.989
18202SOL     OW56046   6.332   1.135   4.782
18202SOL    HW156047   6.265   1.176   4.837
18202SOL    HW256048   6.372   1.207   4.734
18203SOL     OW56049   6.441   0.758   5.545
18203SOL    HW156050   6.405   0.824   5.604
18203SOL    HW256051   6.467   0.807   5.467
18204SOL     OW56052   6.269   0.986   4.367
18204SOL    HW156053   6.336   0.986   4.435
18204SOL    HW256054   6.201   1.045   4.400
18205SOL     OW56055   6.308   1.154   5.546
18205SOL    HW156056   6.348   1.234   5.580
18205SOL    HW256057   6.227   1.184   5.504
18206SOL     OW56058   5.931   1.402   4.790
18206SOL    HW156059   5.850   1.371   4.749
18206SOL    HW256060   5.967   1.463   4.726
18207SOL     OW56061   7.049   1.497   5.093
18207SOL    HW156062   7.100   1.578   5.099
18207SOL    HW256063   6.978   1.510   5.156
18208SOL     OW56064   6.033   0.379   5.195
18208SOL    HW156065   6.105   0.315   5.200
18208SOL    HW256066   5.954   0.327   5.208
18209SOL     OW56067   7.194   0.455   4.443
18209SOL    HW156068   7.111   0.472   4.397
18209SOL    HW256069   7.213   0.537   4.489
18210SOL     OW56070   5.810   1.714   4.191
18210SOL    HW156071   5.827   1.789   4.248
18210SOL    HW256072   5.887   1.708   4.135
18211SOL     OW56073   6.726   1.336   5.421
18211SOL    HW156074   6.760   1.334   5.511
18211SOL    HW256075   6.674   1.256   5.413
18212SOL     OW56076   5.803   1.445   4.255
18212SOL    HW156077   5.799   1.541   4.251
18212SOL    HW256078   5.753   1.423   4.334
18213SOL     OW56079   5.843   1.094   4.608
18213SOL    HW156080   5.840   1.005   4.645
18213SOL    HW256081   5.788   1.146   4.666
18214SOL     OW56082   6.193   1.795   5.152
18214SOL    HW156083   6.108   1.777   5.193
18214SOL    HW256084   6.215   1.884   5.180
18215SOL     OW56085   6.153   0.990   3.861
18215SOL    HW156086   6.206   1.034   3.795
18215SOL    HW256087   6.191   1.018   3.945
18216SOL     OW56088   7.246   0.117   5.230
18216SOL    HW156089   7.212   0.139   5.143
18216SOL    HW256090   7.180   0.152   5.291
18217SOL     OW56091   5.710   0.658   4.285
18217SOL    HW156092   5.673   0.572   4.308
18217SOL    HW256093   5.698   0.711   4.363
18218SOL     OW56094   7.434   1.749   4.041
18218SOL    HW156095   7.503   1.726   4.103
18218SOL    HW256096   7.446   1.843   4.027
18219SOL     OW56097   5.612   1.583   3.840
18219SOL    HW156098   5.598   1.493   3.867
18219SOL    HW256099   5.591   1.635   3.918
18220SOL     OW56100   7.268   0.896   4.347
18220SOL    HW156101   7.360   0.905   4.370
18220SOL    HW256102   7.253   0.963   4.280
18221SOL     OW56103   7.242   1.106   4.158
18221SOL    HW156104   7.330   1.112   4.122
18221SOL    HW256105   7.241   1.168   4.231
18222SOL     OW56106   5.694   0.751   5.309
18222SOL    HW156107   5.778   0.798   5.315
18222SOL    HW256108   5.628   0.820   5.305
18223SOL     OW56109   6.185   1.390   4.467
18223SOL    HW156110   6.146   1.303   4.470
18223SOL    HW256111   6.180   1.415   4.374
18224SOL     OW56112   6.863   1.226   5.148
18224SOL    HW156113   6.893   1.162   5.083
18224SOL    HW256114   6.929   1.222   5.218
18225SOL     OW56115   6.431   0.001   4.279
18225SOL    HW156116   6.454   0.087   4.244
18225SOL    HW256117   6.336  -0.004   4.270
18226SOL     OW56118   5.768   0.947   5.021
18226SOL    HW156119   5.854   0.915   4.995
18226SOL    HW256120   5.719   0.953   4.939
18227SOL     OW56121   7.121   1.001   3.930
18227SOL    HW156122   7.055   0.940   3.964
18227SOL    HW256123   7.163   1.037   4.008
18228SOL     OW56124   6.731   1.795   5.287
18228SOL    HW156125   6.790   1.862   5.254
18228SOL    HW256126   6.782   1.714   5.283
18229SOL     OW56127   5.901   0.227   5.508
18229SOL    HW156128   5.958   0.302   5.525
18229SOL    HW256129   5.820   0.247   5.555
18230SOL     OW56130   7.052   1.428   4.666
18230SOL    HW156131   6.984   1.447   4.730
18230SOL    HW256132   7.039   1.336   4.643
18231SOL     OW56133   7.240   1.769   4.295
18231SOL    HW156134   7.213   1.731   4.212
18231SOL    HW256135   7.226   1.699   4.359
18232SOL     OW56136   6.179   0.704   3.990
18232SOL    HW156137   6.187   0.794   3.960
18232SOL    HW256138   6.113   0.708   4.060
18233SOL     OW56139   6.886   0.370   4.659
18233SOL    HW156140   6.794   0.345   4.659
18233SOL    HW256141   6.928   0.313   4.724
18234SOL     OW56142   7.163   1.682   4.036
18234SOL    HW156143   7.257   1.699   4.026
18234SOL    HW256144   7.134   1.662   3.947
18235SOL     OW56145   6.398   0.605   5.181
18235SOL    HW156146   6.349   0.590   5.262
18235SOL    HW256147   6.349   0.558   5.114
18236SOL     OW56148   6.989   0.490   5.389
18236SOL    HW156149   7.000   0.537   5.472
18236SOL    HW256150   7.058   0.423   5.391
18237SOL     OW56151   6.520   0.889   5.311
18237SOL    HW156152   6.582   0.826   5.276
18237SOL    HW256153   6.484   0.933   5.235
18238SOL     OW56154   6.581   0.407   4.948
18238SOL    HW156155   6.491   0.434   4.968
18238SOL    HW256156   6.579   0.385   4.855
18239SOL     OW56157   6.636   0.695   4.146
18239SOL    HW156158   6.656   0.693   4.240
18239SOL    HW256159   6.551   0.652   4.138
18240SOL     OW56160   5.668   0.818   4.500
18240SOL    HW156161   5.749   0.819   4.552
18240SOL    HW256162   5.614   0.887   4.539
18241SOL     OW56163   5.716   1.878   5.287
18241SOL    HW156164   5.717   1.868   5.382
18241SOL    HW256165   5.626   1.854   5.261
18242SOL     OW56166   6.494   0.344   3.930
18242SOL    HW156167   6.537   0.394   3.860
18242SOL    HW256168   6.507   0.252   3.905
18243SOL     OW56169   7.275   0.574   5.564
18243SOL    HW156170   7.255   0.652   5.511
18243SOL    HW256171   7.310   0.511   5.501
18244SOL     OW56172   6.958   1.126   4.243
18244SOL    HW156173   7.048   1.137   4.212
18244SOL    HW256174   6.910   1.200   4.204
18245SOL     OW56175   6.112   0.202   4.640
18245SOL    HW156176   6.097   0.287   4.680
18245SOL    HW256177   6.142   0.221   4.551
18246SOL     OW56178   5.942   1.815   4.587
18246SOL    HW156179   5.985   1.731   4.604
18246SOL    HW256180   6.005   1.881   4.616
18247SOL     OW56181   7.409   1.007   4.624
18247SOL    HW156182   7.430   1.075   4.560
18247SOL    HW256183   7.335   1.041   4.673
18248SOL     OW56184   6.809   1.527   5.234
18248SOL    HW156185   6.799   1.462   5.303
18248SOL    HW256186   6.755   1.496   5.162
18249SOL     OW56187   5.893   0.962   3.985
18249SOL    HW156188   5.976   0.979   3.940
18249SOL    HW256189   5.868   0.874   3.955
18250SOL     OW56190   7.072   0.735   4.436
18250SOL    HW156191   7.071   0.714   4.530
18250SOL    HW256192   7.145   0.796   4.426
18251SOL     OW56193   6.066   1.243   5.446
18251SOL    HW156194   6.033   1.259   5.358
18251SOL    HW256195   5.990   1.251   5.503
18252SOL     OW56196   6.729   1.798   3.937
18252SOL    HW156197   6.640   1.786   3.972
18252SOL    HW256198   6.744   1.719   3.885
18253SOL     OW56199   5.771   0.275   5.221
18253SOL    HW156200   5.720   0.350   5.191
18253SOL    HW256201   5.764   0.277   5.316
18254SOL     OW56202   7.211   1.388   3.822
18254SOL    HW156203   7.168   1.473   3.809
18254SOL    HW256204   7.144   1.323   3.800
18255SOL     OW56205   6.052   1.730   4.050
18255SOL    HW156206   6.099   1.788   4.110
18255SOL    HW256207   6.119   1.698   3.990
18256SOL     OW56208   6.986   0.131   4.143
18256SOL    HW156209   6.979   0.082   4.060
18256SOL    HW256210   7.079   0.126   4.165
18257SOL     OW56211   5.867   1.796   4.935
18257SOL    HW156212   5.897   1.713   4.971
18257SOL    HW256213   5.798   1.772   4.873
18258SOL     OW56214   6.537   1.702   4.622
18258SOL    HW156215   6.623   1.661   4.626
18258SOL    HW256216   6.490   1.652   4.556
18259SOL     OW56217   5.986   0.686   4.192
18259SOL    HW156218   5.999   0.592   4.201
18259SOL    HW256219   5.894   0.700   4.213
18260SOL     OW56220   7.113   0.219   5.454
18260SOL    HW156221   7.120   0.244   5.546
18260SOL    HW256222   7.040   0.157   5.451
18261SOL     OW56223   6.206   0.010   3.776
18261SOL    HW156224   6.187   0.069   3.850
18261SOL    HW256225   6.125   0.008   3.726
18262SOL     OW56226   6.356   0.314   5.544
18262SOL    HW156227   6.392   0.241   5.493
18262SOL    HW256228   6.286   0.274   5.596
18263SOL     OW56229   6.469   1.532   4.921
18263SOL    HW156230   6.453   1.498   4.832
18263SOL    HW256231   6.537   1.474   4.956
18264SOL     OW56232   6.920   0.595   5.145
18264SOL    HW156233   6.957   0.569   5.229
18264SOL    HW256234   6.953   0.683   5.130
18265SOL     OW56235   6.411   1.378   4.672
18265SOL    HW156236   6.498   1.376   4.631
18265SOL    HW256237   6.352   1.402   4.602
18266SOL     OW56238   6.510   0.514   4.616
18266SOL    HW156239   6.475   0.507   4.528
18266SOL    HW256240   6.552   0.429   4.633
18267SOL     OW56241   6.161  -0.020   4.216
18267SOL    HW156242   6.092  -0.000   4.279
18267SOL    HW256243   6.151   0.048   4.148
18268SOL     OW56244   7.010   1.204   3.770
18268SOL    HW156245   7.040   1.133   3.826
18268SOL    HW256246   6.927   1.232   3.809
18269SOL     OW56247   5.871   0.045   3.937
18269SOL    HW156248   5.943   0.108   3.945
18269SOL    HW256249   5.896  -0.027   3.995
18270SOL     OW56250   6.531   0.259   4.197
18270SOL    HW156251   6.500   0.288   4.111
18270SOL    HW256252   6.625   0.276   4.195
18271SOL     OW56253   6.668   0.696   5.194
18271SOL    HW156254   6.597   0.634   5.182
18271SOL    HW256255   6.747   0.647   5.173
18272SOL     OW56256   6.794   1.600   4.540
18272SOL    HW156257   6.801   1.646   4.457
18272SOL    HW256258   6.873   1.624   4.588
18273SOL     OW56259   6.057   1.143   4.446
18273SOL    HW156260   5.989   1.130   4.513
18273SOL    HW256261   6.010   1.139   4.363
18274SOL     OW56262   6.843   1.793   4.336
18274SOL    HW156263   6.890   1.857   4.283
18274SOL    HW256264   6.766   1.839   4.368
18275SOL     OW56265   6.621   0.526   3.748
18275SOL    HW156266   6.568   0.604   3.733
18275SOL    HW256267   6.673   0.546   3.826
18276SOL     OW56268   5.683   0.552   5.125
18276SOL    HW156269   5.773   0.562   5.093
18276SOL    HW256270   5.671   0.625   5.186
18277SOL     OW56271   6.162   0.230   4.939
18277SOL    HW156272   6.187   0.203   5.027
18277SOL    HW256273   6.066   0.222   4.938
18278SOL     OW56274   6.423   0.454   4.361
18278SOL    HW156275   6.398   0.517   4.294
18278SOL    HW256276   6.464   0.383   4.313
18279SOL     OW56277   6.562   0.040   4.518
18279SOL    HW156278   6.517   0.036   4.433
18279SOL    HW256279   6.578  -0.051   4.542
18280SOL     OW56280   7.032   1.166   4.579
18280SOL    HW156281   6.948   1.135   4.548
18280SOL    HW256282   7.085   1.179   4.500
18281SOL     OW56283   7.047   0.613   4.687
18281SOL    HW156284   6.994   0.533   4.688
18281SOL    HW256285   7.105   0.603   4.763
18282SOL     OW56286   7.434   0.802   4.094
18282SOL    HW156287   7.489   0.761   4.161
18282SOL    HW256288   7.417   0.732   4.031
18283SOL     OW56289   6.072   1.415   3.872
18283SOL    HW156290   6.002   1.391   3.932
18283SOL    HW256291   6.050   1.371   3.790
18284SOL     OW56292   7.218   1.258   4.381
18284SOL    HW156293   7.312   1.248   4.400
18284SOL    HW256294   7.203   1.352   4.391
18285SOL     OW56295   6.975   0.573   3.806
18285SOL    HW156296   6.910   0.562   3.875
18285SOL    HW256297   7.058   0.589   3.852
18286SOL     OW56298   7.332   1.239   5.299
18286SOL    HW156299   7.417   1.208   5.270
18286SOL    HW256300   7.346   1.331   5.322
18287SOL     OW56301   6.637   1.358   5.066
18287SOL    HW156302   6.559   1.326   5.111
18287SOL    HW256303   6.708   1.305   5.102
18288SOL     OW56304   7.195   1.622   5.383
18288SOL    HW156305   7.185   1.663   5.297
18288SOL    HW256306   7.278   1.574   5.378
18289SOL     OW56307   6.730   1.224   4.829
18289SOL    HW156308   6.660   1.259   4.884
18289SOL    HW256309   6.709   1.256   4.741
18290SOL     OW56310   7.202   1.092   4.792
18290SOL    HW156311   7.188   1.156   4.862
18290SOL    HW256312   7.133   1.109   4.729
18291SOL     OW56313   6.514   0.128   5.124
18291SOL    HW156314   6.527   0.118   5.029
18291SOL    HW256315   6.602   0.120   5.160
18292SOL     OW56316   6.572   1.109   5.461
18292SOL    HW156317   6.483   1.135   5.486
18292SOL    HW256318   6.560   1.035   5.402
18293SOL     OW56319   6.288   1.052   4.092
18293SOL    HW156320   6.278   1.037   4.187
18293SOL    HW256321   6.364   1.000   4.068
18294SOL     OW56322   6.012   0.823   4.976
18294SOL    HW156323   6.079   0.833   5.043
18294SOL    HW256324   5.976   0.736   4.991
18295SOL     OW56325   6.848   0.374   5.004
18295SOL    HW156326   6.881   0.456   5.040
18295SOL    HW256327   6.758   0.394   4.978
18296SOL     OW56328   5.664   1.575   5.100
18296SOL    HW156329   5.618   1.632   5.039
18296SOL    HW256330   5.757   1.589   5.081
18297SOL     OW56331   5.910   1.127   4.214
18297SOL    HW156332   5.917   1.205   4.159
18297SOL    HW256333   5.909   1.054   4.151
18298SOL     OW56334   6.134   0.526   4.583
18298SOL    HW156335   6.144   0.585   4.508
18298SOL    HW256336   6.200   0.557   4.646
18299SOL     OW56337   6.856   1.351   4.112
18299SOL    HW156338   6.904   1.424   4.150
18299SOL    HW256339   6.767   1.361   4.145
18300SOL     OW56340   6.880   1.468   4.875
18300SOL    HW156341   6.936   1.467   4.952
18300SOL    HW256342   6.830   1.387   4.880
18301SOL     OW56343   7.173   0.642   4.190
18301SOL    HW156344   7.117   0.671   4.262
18301SOL    HW256345   7.232   0.716   4.174
18302SOL     OW56346   5.935   1.537   5.025
18302SOL    HW156347   5.925   1.484   4.945
18302SOL    HW256348   6.029   1.546   5.035
18303SOL     OW56349   6.020   0.734   5.342
18303SOL    HW156350   6.065   0.787   5.276
18303SOL    HW256351   6.080   0.662   5.361
18304SOL     OW56352   7.199   0.788   5.417
18304SOL    HW156353   7.113   0.828   5.407
18304SOL    HW256354   7.252   0.824   5.346
18305SOL     OW56355   6.632   0.067   5.467
18305SOL    HW156356   6.650   0.160   5.452
18305SOL    HW256357   6.537   0.059   5.457
18306SOL     OW56358   6.095   0.037   5.457
18306SOL    HW156359   6.069  -0.019   5.384
18306SOL    HW256360   6.024   0.100   5.466
18307SOL     OW56361   6.175   0.876   4.758
18307SOL    HW156362   6.205   0.967   4.754
18307SOL    HW256363   6.113   0.875   4.832
18308SOL     OW56364   6.920   0.850   4.751
18308SOL    HW156365   6.841   0.848   4.697
18308SOL    HW256366   6.966   0.769   4.730
18309SOL     OW56367   6.775   0.525   3.983
18309SOL    HW156368   6.783   0.450   4.043
18309SOL    HW256369   6.737   0.595   4.036
18310SOL     OW56370   5.887   0.201   4.955
18310SOL    HW156371   5.825   0.218   5.026
18310SOL    HW256372   5.862   0.114   4.923
18311SOL     OW56373   5.654   1.315   5.009
18311SOL    HW156374   5.673   1.261   5.085
18311SOL    HW256375   5.645   1.404   5.044
18312SOL     OW56376   6.301   0.633   4.773
18312SOL    HW156377   6.379   0.629   4.718
18312SOL    HW256378   6.268   0.722   4.761
18313SOL     OW56379   7.332   0.949   5.603
18313SOL    HW156380   7.287   0.894   5.539
18313SOL    HW256381   7.263   0.977   5.663
18314SOL     OW56382   5.969   0.046   4.398
18314SOL    HW156383   5.940   0.136   4.412
18314SOL    HW256384   5.908  -0.007   4.451
18315SOL     OW56385   7.207   0.404   4.069
18315SOL    HW156386   7.222   0.342   4.140
18315SOL    HW256387   7.184   0.486   4.112
18316SOL     OW56388   6.618   0.757   4.675
18316SOL    HW156389   6.612   0.771   4.770
18316SOL    HW256390   6.585   0.668   4.662
18317SOL     OW56391   6.570   1.562   5.463
18317SOL    HW156392   6.528   1.604   5.388
18317SOL    HW256393   6.606   1.481   5.427
18318SOL     OW56394   7.437   1.497   5.327
18318SOL    HW156395   7.455   1.524   5.238
18318SOL    HW256396   7.518   1.513   5.375
18319SOL     OW56397   5.940   0.897   5.554
18319SOL    HW156398   6.021   0.937   5.586
18319SOL    HW256399   5.966   0.841   5.482
18320SOL     OW56400   7.142   0.252   3.848
18320SOL    HW156401   7.117   0.173   3.896
18320SOL    HW256402   7.165   0.315   3.917
18321SOL     OW56403   6.862   0.822   3.737
18321SOL    HW156404   6.910   0.741   3.751
18321SOL    HW256405   6.903   0.863   3.661
18322SOL     OW56406   6.669   1.345   4.590
18322SOL    HW156407   6.672   1.275   4.524
18322SOL    HW256408   6.708   1.421   4.546
18323SOL     OW56409   5.893   0.814   4.666
18323SOL    HW156410   5.985   0.837   4.655
18323SOL    HW256411   5.894   0.726   4.703
18324SOL     OW56412   5.919   0.539   4.743
18324SOL    HW156413   5.875   0.457   4.722
18324SOL    HW256414   5.994   0.542   4.684
18325SOL     OW56415   6.752   0.352   5.436
18325SOL    HW156416   6.671   0.391   5.402
18325SOL    HW256417   6.820   0.415   5.414
18326SOL     OW56418   6.774   0.200   5.199
18326SOL    HW156419   6.763   0.254   5.278
18326SOL    HW256420   6.795   0.263   5.130
18327SOL     OW56421   5.590   1.307   3.910
18327SOL    HW156422   5.502   1.324   3.876
18327SOL    HW256423   5.584   1.220   3.948
18328SOL     OW56424   5.681   1.777   4.667
18328SOL    HW156425   5.649   1.700   4.620
18328SOL    HW256426   5.769   1.792   4.632
18329SOL     OW56427   6.079   1.579   4.636
18329SOL    HW156428   6.150   1.639   4.660
18329SOL    HW256429   6.119   1.517   4.576
18330SOL     OW56430   6.567   0.774   4.941
18330SOL    HW156431   6.627   0.774   5.016
18330SOL    HW256432   6.480   0.778   4.980
18331SOL     OW56433   5.621   0.538   4.849
18331SOL    HW156434   5.698   0.557   4.795
18331SOL    HW256435   5.653   0.548   4.939
18332SOL     OW56436   5.781   0.526   5.442
18332SOL    HW156437   5.867   0.539   5.402
18332SOL    HW256438   5.727   0.596   5.406
18333SOL     OW56439   6.966   0.924   5.381
18333SOL    HW156440   6.987   1.018   5.379
18333SOL    HW256441   6.959   0.900   5.288
18334SOL     OW56442   6.400   0.565   4.097
18334SOL    HW156443   6.404   0.490   4.037
18334SOL    HW256444   6.325   0.616   4.065
18335SOL     OW56445   7.223   0.591   4.896
18335SOL    HW156446   7.217   0.544   4.979
18335SOL    HW256447   7.312   0.575   4.865
18336SOL     OW56448   5.906   1.547   5.469
18336SOL    HW156449   5.833   1.586   5.517
18336SOL    HW256450   5.885   1.454   5.464
18337SOL     OW56451   6.308   0.459   4.977
18337SOL    HW156452   6.252   0.384   4.957
18337SOL    HW256453   6.295   0.519   4.904
18338SOL     OW56454   6.496   1.673   5.215
18338SOL    HW156455   6.494   1.644   5.123
18338SOL    HW256456   6.581   1.716   5.225
18339SOL     OW56457   6.038   0.534   3.797
18339SOL    HW156458   6.104   0.568   3.858
18339SOL    HW256459   5.955   0.565   3.832
18340SOL     OW56460   5.727   1.138   5.210
18340SOL    HW156461   5.728   1.095   5.295
18340SOL    HW256462   5.742   1.068   5.147
18341SOL     OW56463   6.895   1.039   4.944
18341SOL    HW156464   6.914   0.976   4.874
18341SOL    HW256465   6.838   1.103   4.902
18342SOL     OW56466   6.915   0.840   4.017
18342SOL    HW156467   6.848   0.845   4.086
18342SOL    HW256468   6.865   0.847   3.935
18343SOL     OW56469   7.379   1.736   4.892
18343SOL    HW156470   7.437   1.758   4.820
18343SOL    HW256471   7.340   1.652   4.867
18344SOL     OW56472   6.823   1.742   4.847
18344SOL    HW156473   6.901   1.767   4.798
18344SOL    HW256474   6.831   1.647   4.857
18345SOL     OW56475   5.681   1.257   4.749
18345SOL    HW156476   5.674   1.274   4.843
18345SOL    HW256477   5.596   1.285   4.714
18346SOL     OW56478   6.263   1.679   5.452
18346SOL    HW156479   6.193   1.744   5.455
18346SOL    HW256480   6.312   1.700   5.372
18347SOL     OW56481   7.251   0.104   4.198
18347SOL    HW156482   7.343   0.127   4.184
18347SOL    HW256483   7.246   0.080   4.290
18348SOL     OW56484   6.986   1.573   4.224
18348SOL    HW156485   7.035   1.612   4.152
18348SOL    HW256486   6.923   1.641   4.249
18349SOL     OW56487   5.737   1.845   5.551
18349SOL    HW156488   5.691   1.765   5.576
18349SOL    HW256489   5.776   1.876   5.633
18350SOL     OW56490   6.866   0.906   4.362
18350SOL    HW156491   6.945   0.857   4.382
18350SOL    HW256492   6.898   0.985   4.318
18351SOL     OW56493   6.382   1.279   5.154
18351SOL    HW156494   6.357   1.322   5.236
18351SOL    HW256495   6.315   1.305   5.091
18352SOL     OW56496   6.242   1.623   3.880
18352SOL    HW156497   6.253   1.638   3.786
18352SOL    HW256498   6.192   1.542   3.885
18353SOL     OW56499   7.201   1.728   5.118
18353SOL    HW156500   7.260   1.731   5.042
18353SOL    HW256501   7.186   1.820   5.141
18354SOL     OW56502   7.440   0.183   4.681
18354SOL    HW156503   7.438   0.087   4.690
18354SOL    HW256504   7.355   0.205   4.643
18355SOL     OW56505   5.845   0.294   4.425
18355SOL    HW156506   5.772   0.350   4.399
18355SOL    HW256507   5.851   0.304   4.520
18356SOL     OW56508   6.798   1.593   3.756
18356SOL    HW156509   6.782   1.507   3.795
18356SOL    HW256510   6.723   1.609   3.699
18357SOL     OW56511   6.411   1.015   5.088
18357SOL    HW156512   6.426   1.026   4.994
18357SOL    HW256513   6.401   1.105   5.121
18358SOL     OW56514   6.491   0.894   4.004
18358SOL    HW156515   6.551   0.936   3.943
18358SOL    HW256516   6.547   0.838   4.058
18359SOL     OW56517   7.071   1.638   3.772
18359SOL    HW156518   6.978   1.622   3.760
18359SOL    HW256519   7.106   1.645   3.683
18360SOL     OW56520   5.951   1.309   5.212
18360SOL    HW156521   5.935   1.387   5.161
18360SOL    HW256522   5.870   1.257   5.203
18361SOL     OW56523   7.182   1.279   4.993
18361SOL    HW156524   7.267   1.279   5.037
18361SOL    HW256525   7.131   1.345   5.038
18362SOL     OW56526   6.677   1.096   4.473
18362SOL    HW156527   6.590   1.059   4.487
18362SOL    HW256528   6.718   1.036   4.410
18363SOL     OW56529   6.628   0.265   4.672
18363SOL    HW156530   6.609   0.209   4.597
18363SOL    HW256531   6.628   0.206   4.747
18364SOL     OW56532   6.181   1.472   4.206
18364SOL    HW156533   6.238   1.431   4.141
18364SOL    HW256534   6.124   1.530   4.156
18365SOL     OW56535   7.316   0.422   5.119
18365SOL    HW156536   7.391   0.481   5.116
18365SOL    HW256537   7.341   0.350   5.060
18366SOL     OW56538   5.841   1.342   4.012
18366SOL    HW156539   5.749   1.335   3.988
18366SOL    HW256540   5.841   1.384   4.098
18367SOL     OW56541   5.707   1.020   5.454
18367SOL    HW156542   5.627   1.002   5.504
18367SOL    HW256543   5.777   0.982   5.506
18368SOL     OW56544   6.256   0.204   5.205
18368SOL    HW156545   6.332   0.154   5.175
18368SOL    HW256546   6.290   0.256   5.278
18369SOL     OW56547   5.665   0.324   3.748
18369SOL    HW156548   5.571   0.330   3.763
18369SOL    HW256549   5.687   0.403   3.699
18370SOL     OW56550   7.006   0.856   5.116
18370SOL    HW156551   6.953   0.917   5.064
18370SOL    HW256552   7.093   0.862   5.079
18371SOL     OW56553   5.624   0.153   4.009
18371SOL    HW156554   5.632   0.239   3.969
18371SOL    HW256555   5.707   0.109   3.991
18372SOL     OW56556   6.760   1.334   3.851
18372SOL    HW156557   6.666   1.317   3.859
18372SOL    HW256558   6.791   1.340   3.941
18373SOL     OW56559   6.215   0.830   5.160
18373SOL    HW156560   6.261   0.912   5.144
18373SOL    HW256561   6.284   0.764   5.172
18374SOL     OW56562   7.057   1.787   4.703
18374SOL    HW156563   7.083   1.860   4.647
18374SOL    HW256564   7.140   1.745   4.728
18375SOL     OW56565   6.289   0.558   5.423
18375SOL    HW156566   6.332   0.626   5.475
18375SOL    HW256567   6.309   0.477   5.470
18376SOL     OW56568   7.061   1.182   5.352
18376SOL    HW156569   7.048   1.210   5.443
18376SOL    HW256570   7.151   1.208   5.332
18377SOL     OW56571   5.961   1.745   5.287
18377SOL    HW156572   5.875   1.784   5.271
18377SOL    HW256573   5.942   1.669   5.343
18378SOL     OW56574   7.243   0.880   4.975
18378SOL    HW156575   7.242   0.799   4.925
18378SOL    HW256576   7.234   0.950   4.910
18379SOL     OW56577   6.800   0.325   4.176
18379SOL    HW156578   6.864   0.255   4.168
18379SOL    HW256579   6.828   0.375   4.253
18380SOL     OW56580   6.171   0.725   4.397
18380SOL    HW156581   6.211   0.812   4.388
18380SOL    HW256582   6.108   0.720   4.325
18381SOL     OW56583   7.336   0.371   5.388
18381SOL    HW156584   7.332   0.392   5.295
18381SOL    HW256585   7.266   0.308   5.402
18382SOL     OW56586   7.339   0.926   5.232
18382SOL    HW156587   7.329   1.020   5.247
18382SOL    HW256588   7.318   0.915   5.139
18383SOL     OW56589   6.448   1.360   3.776
18383SOL    HW156590   6.413   1.362   3.865
18383SOL    HW256591   6.453   1.452   3.749
18384SOL     OW56592   6.259   1.785   4.675
18384SOL    HW156593   6.235   1.872   4.644
18384SOL    HW256594   6.350   1.774   4.648
18385SOL     OW56595   6.449   0.969   4.579
18385SOL    HW156596   6.506   0.902   4.617
18385SOL    HW256597   6.414   1.017   4.654
18386SOL     OW56598   6.654   0.979   3.808
18386SOL    HW156599   6.639   1.046   3.741
18386SOL    HW256600   6.729   0.929   3.777
18387SOL     OW56601   7.446   1.556   4.559
18387SOL    HW156602   7.366   1.539   4.509
18387SOL    HW256603   7.473   1.469   4.590
18388SOL     OW56604   5.821   1.290   5.555
18388SOL    HW156605   5.757   1.227   5.521
18388SOL    HW256606   5.770   1.345   5.616
18389SOL     OW56607   5.679   1.207   4.392
18389SOL    HW156608   5.713   1.171   4.474
18389SOL    HW256609   5.746   1.188   4.327
18390SOL     OW56610   6.279   1.408   5.372
18390SOL    HW156611   6.196   1.367   5.395
18390SOL    HW256612   6.268   1.500   5.399
18391SOL     OW56613   7.409   0.227   4.959
18391SOL    HW156614   7.345   0.157   4.951
18391SOL    HW256615   7.439   0.243   4.869
18392SOL     OW56616   6.017   0.420   4.221
18392SOL    HW156617   6.043   0.358   4.152
18392SOL    HW256618   5.969   0.367   4.284
18393SOL     OW56619   7.264   1.500   4.826
18393SOL    HW156620   7.196   1.481   4.762
18393SOL    HW256621   7.265   1.424   4.883
18394SOL     OW56622   5.930   0.565   5.019
18394SOL    HW156623   5.981   0.501   5.069
18394SOL    HW256624   5.942   0.540   4.928
18395SOL     OW56625   6.423   1.565   4.423
18395SOL    HW156626   6.481   1.524   4.360
18395SOL    HW256627   6.334   1.543   4.393
18396SOL     OW56628   7.012   0.213   4.844
18396SOL    HW156629   7.076   0.163   4.896
18396SOL    HW256630   6.961   0.260   4.909
18397SOL     OW56631   6.590   0.073   4.860
18397SOL    HW156632   6.503   0.059   4.822
18397SOL    HW256633   6.618  -0.015   4.887
18398SOL     OW56634   6.351   1.328   4.029
18398SOL    HW156635   6.330   1.238   4.055
18398SOL    HW256636   6.424   1.352   4.087
18399SOL     OW56637   6.214   1.552   5.020
18399SOL    HW156638   6.210   1.635   5.068
18399SOL    HW256639   6.301   1.552   4.980
18400SOL     OW56640   6.963   8.010   3.893
18400SOL    HW156641   6.999   7.922   3.881
18400SOL    HW256642   6.869   7.999   3.887
18401SOL     OW56643   6.883   0.463   4.397
18401SOL    HW156644   6.833   0.544   4.400
18401SOL    HW256645   6.887   0.433   4.488
18402SOL     OW56646   7.190   0.228   4.591
18402SOL    HW156647   7.113   0.234   4.648
18402SOL    HW256648   7.186   0.306   4.537
18403SOL     OW56649   5.624   1.059   4.029
18403SOL    HW156650   5.718   1.053   4.015
18403SOL    HW256651   5.597   0.970   4.050
18404SOL     OW56652   6.468   1.743   4.014
18404SOL    HW156653   6.402   1.678   3.991
18404SOL    HW256654   6.462   1.752   4.109
18405SOL     OW56655   5.801   0.601   5.721
18405SOL    HW156656   5.714   0.598   5.761
18405SOL    HW256657   5.784   0.609   5.627
18406SOL     OW56658   5.813   0.294   6.568
18406SOL    HW156659   5.838   0.260   6.654
18406SOL    HW256660   5.729   0.252   6.549
18407SOL     OW56661   5.590   0.392   6.218
18407SOL    HW156662   5.507   0.417   6.258
18407SOL    HW256663   5.566   0.343   6.139
18408SOL     OW56664   6.156   1.298   6.774
18408SOL    HW156665   6.072   1.307   6.728
18408SOL    HW256666   6.173   1.385   6.811
18409SOL     OW56667   7.148   1.506   6.292
18409SOL    HW156668   7.101   1.493   6.374
18409SOL    HW256669   7.079   1.518   6.227
18410SOL     OW56670   6.723   0.696   6.273
18410SOL    HW156671   6.766   0.779   6.252
18410SOL    HW256672   6.677   0.714   6.355
18411SOL     OW56673   7.363   0.615   5.817
18411SOL    HW156674   7.333   0.608   5.726
18411SOL    HW256675   7.332   0.535   5.859
18412SOL     OW56676   6.335   1.137   6.648
18412SOL    HW156677   6.264   1.176   6.699
18412SOL    HW256678   6.374   1.210   6.601
18413SOL     OW56679   6.461   0.755   7.408
18413SOL    HW156680   6.445   0.820   7.477
18413SOL    HW256681   6.480   0.807   7.330
18414SOL     OW56682   6.273   0.986   6.233
18414SOL    HW156683   6.338   0.992   6.302
18414SOL    HW256684   6.203   1.045   6.262
18415SOL     OW56685   6.303   1.155   7.410
18415SOL    HW156686   6.348   1.232   7.444
18415SOL    HW256687   6.223   1.190   7.370
18416SOL     OW56688   5.927   1.403   6.651
18416SOL    HW156689   5.847   1.368   6.613
18416SOL    HW256690   5.962   1.463   6.585
18417SOL     OW56691   7.046   1.503   6.952
18417SOL    HW156692   7.099   1.582   6.964
18417SOL    HW256693   6.972   1.515   7.012
18418SOL     OW56694   6.020   0.394   7.055
18418SOL    HW156695   6.095   0.336   7.067
18418SOL    HW256696   5.944   0.339   7.074
18419SOL     OW56697   7.202   0.457   6.318
18419SOL    HW156698   7.149   0.486   6.244
18419SOL    HW256699   7.185   0.522   6.386
18420SOL     OW56700   5.812   1.713   6.050
18420SOL    HW156701   5.830   1.791   6.102
18420SOL    HW256702   5.881   1.713   5.983
18421SOL     OW56703   6.723   1.341   7.274
18421SOL    HW156704   6.764   1.337   7.361
18421SOL    HW256705   6.670   1.261   7.269
18422SOL     OW56706   5.822   1.453   6.137
18422SOL    HW156707   5.806   1.546   6.118
18422SOL    HW256708   5.752   1.429   6.198
18423SOL     OW56709   5.862   1.092   6.477
18423SOL    HW156710   5.842   1.004   6.507
18423SOL    HW256711   5.802   1.148   6.526
18424SOL     OW56712   6.203   1.776   7.035
18424SOL    HW156713   6.114   1.764   7.068
18424SOL    HW256714   6.221   1.869   7.047
18425SOL     OW56715   6.180   0.985   5.723
18425SOL    HW156716   6.222   1.039   5.657
18425SOL    HW256717   6.212   1.020   5.806
18426SOL     OW56718   7.142   0.183   7.032
18426SOL    HW156719   7.188   0.262   7.005
18426SOL    HW256720   7.149   0.182   7.127
18427SOL     OW56721   5.724   0.642   6.160
18427SOL    HW156722   5.679   0.560   6.183
18427SOL    HW256723   5.705   0.701   6.233
18428SOL     OW56724   7.432   1.752   5.915
18428SOL    HW156725   7.502   1.730   5.976
18428SOL    HW256726   7.446   1.844   5.893
18429SOL     OW56727   7.253   1.097   6.036
18429SOL    HW156728   7.320   1.128   5.975
18429SOL    HW256729   7.247   1.167   6.102
18430SOL     OW56730   5.690   0.756   7.170
18430SOL    HW156731   5.771   0.807   7.175
18430SOL    HW256732   5.622   0.822   7.153
18431SOL     OW56733   6.206   1.392   6.321
18431SOL    HW156734   6.159   1.309   6.328
18431SOL    HW256735   6.188   1.423   6.232
18432SOL     OW56736   6.869   1.228   7.002
18432SOL    HW156737   6.904   1.162   6.942
18432SOL    HW256738   6.927   1.225   7.078
18433SOL     OW56739   6.423   0.026   6.155
18433SOL    HW156740   6.459   0.108   6.121
18433SOL    HW256741   6.329   0.032   6.138
18434SOL     OW56742   5.770   0.951   6.887
18434SOL    HW156743   5.855   0.919   6.857
18434SOL    HW256744   5.717   0.957   6.808
18435SOL     OW56745   7.123   0.998   5.797
18435SOL    HW156746   7.051   0.941   5.823
18435SOL    HW256747   7.162   1.026   5.880
18436SOL     OW56748   6.774   1.826   7.221
18436SOL    HW156749   6.773   1.893   7.153
18436SOL    HW256750   6.795   1.745   7.175
18437SOL     OW56751   5.913   0.250   7.375
18437SOL    HW156752   5.966   0.320   7.413
18437SOL    HW256753   5.829   0.257   7.420
18438SOL     OW56754   7.058   1.411   6.542
18438SOL    HW156755   6.988   1.432   6.604
18438SOL    HW256756   7.035   1.323   6.510
18439SOL     OW56757   7.251   1.747   6.165
18439SOL    HW156758   7.228   1.724   6.075
18439SOL    HW256759   7.212   1.677   6.218
18440SOL     OW56760   6.175   0.734   5.860
18440SOL    HW156761   6.172   0.818   5.814
18440SOL    HW256762   6.109   0.742   5.929
18441SOL     OW56763   6.882   0.372   6.517
18441SOL    HW156764   6.793   0.339   6.519
18441SOL    HW256765   6.931   0.317   6.578
18442SOL     OW56766   7.167   1.669   5.899
18442SOL    HW156767   7.257   1.699   5.888
18442SOL    HW256768   7.135   1.657   5.810
18443SOL     OW56769   6.404   0.594   7.052
18443SOL    HW156770   6.352   0.587   7.132
18443SOL    HW256771   6.349   0.558   6.983
18444SOL     OW56772   6.978   0.477   7.262
18444SOL    HW156773   6.979   0.521   7.347
18444SOL    HW256774   7.041   0.406   7.271
18445SOL     OW56775   6.522   0.892   7.166
18445SOL    HW156776   6.585   0.831   7.129
18445SOL    HW256777   6.485   0.937   7.089
18446SOL     OW56778   6.564   0.383   6.802
18446SOL    HW156779   6.482   0.429   6.823
18446SOL    HW256780   6.573   0.392   6.708
18447SOL     OW56781   6.643   0.646   6.003
18447SOL    HW156782   6.662   0.658   6.096
18447SOL    HW256783   6.548   0.631   5.999
18448SOL     OW56784   5.669   0.809   6.365
18448SOL    HW156785   5.745   0.816   6.422
18448SOL    HW256786   5.612   0.881   6.393
18449SOL     OW56787   5.703   1.822   7.153
18449SOL    HW156788   5.701   1.816   7.248
18449SOL    HW256789   5.630   1.881   7.131
18450SOL     OW56790   6.511   0.328   5.786
18450SOL    HW156791   6.479   0.368   5.705
18450SOL    HW256792   6.479   0.238   5.783
18451SOL     OW56793   7.279   0.569   7.421
18451SOL    HW156794   7.250   0.645   7.370
18451SOL    HW256795   7.314   0.508   7.356
18452SOL     OW56796   6.969   1.154   6.137
18452SOL    HW156797   7.041   1.145   6.074
18452SOL    HW256798   6.909   1.216   6.096
18453SOL     OW56799   6.162   0.218   6.523
18453SOL    HW156800   6.129   0.254   6.606
18453SOL    HW256801   6.161   0.292   6.463
18454SOL     OW56802   6.578   1.449   6.053
18454SOL    HW156803   6.553   1.521   5.996
18454SOL    HW256804   6.546   1.475   6.140
18455SOL     OW56805   5.938   1.818   6.453
18455SOL    HW156806   5.983   1.735   6.464
18455SOL    HW256807   6.002   1.884   6.479
18456SOL     OW56808   7.310   1.025   6.393
18456SOL    HW156809   7.282   1.108   6.354
18456SOL    HW256810   7.291   1.035   6.486
18457SOL     OW56811   6.808   1.546   7.092
18457SOL    HW156812   6.792   1.470   7.149
18457SOL    HW256813   6.721   1.572   7.061
18458SOL     OW56814   5.913   0.949   5.850
18458SOL    HW156815   5.982   0.991   5.799
18458SOL    HW256816   5.872   0.888   5.789
18459SOL     OW56817   7.079   0.768   6.319
18459SOL    HW156818   7.049   0.706   6.386
18459SOL    HW256819   7.126   0.835   6.368
18460SOL     OW56820   6.056   1.266   7.322
18460SOL    HW156821   6.029   1.274   7.230
18460SOL    HW256822   5.973   1.264   7.370
18461SOL     OW56823   6.718   1.768   5.817
18461SOL    HW156824   6.635   1.738   5.853
18461SOL    HW256825   6.738   1.707   5.746
18462SOL     OW56826   5.772   0.267   7.093
18462SOL    HW156827   5.708   0.337   7.079
18462SOL    HW256828   5.781   0.262   7.189
18463SOL     OW56829   7.218   1.375   5.691
18463SOL    HW156830   7.184   1.463   5.675
18463SOL    HW256831   7.149   1.316   5.662
18464SOL     OW56832   6.053   1.738   5.900
18464SOL    HW156833   6.097   1.794   5.963
18464SOL    HW256834   6.123   1.702   5.846
18465SOL     OW56835   6.987   0.147   5.979
18465SOL    HW156836   7.010   0.111   5.894
18465SOL    HW256837   7.070   0.150   6.027
18466SOL     OW56838   5.847   1.785   6.801
18466SOL    HW156839   5.886   1.702   6.829
18466SOL    HW256840   5.804   1.764   6.718
18467SOL     OW56841   6.527   1.704   6.480
18467SOL    HW156842   6.600   1.650   6.511
18467SOL    HW256843   6.488   1.652   6.409
18468SOL     OW56844   5.993   0.685   6.066
18468SOL    HW156845   6.006   0.591   6.082
18468SOL    HW256846   5.900   0.699   6.082
18469SOL     OW56847   7.130   0.208   7.313
18469SOL    HW156848   7.127   0.237   7.405
18469SOL    HW256849   7.054   0.150   7.305
18470SOL     OW56850   6.191   0.148   5.685
18470SOL    HW156851   6.260   0.096   5.727
18470SOL    HW256852   6.158   0.092   5.615
18471SOL     OW56853   6.342   0.303   7.378
18471SOL    HW156854   6.378   0.221   7.341
18471SOL    HW256855   6.279   0.274   7.444
18472SOL     OW56856   6.463   1.518   6.775
18472SOL    HW156857   6.439   1.481   6.689
18472SOL    HW256858   6.532   1.460   6.808
18473SOL     OW56859   6.922   0.591   7.017
18473SOL    HW156860   6.954   0.563   7.103
18473SOL    HW256861   6.956   0.680   7.006
18474SOL     OW56862   6.410   1.379   6.532
18474SOL    HW156863   6.494   1.375   6.487
18474SOL    HW256864   6.346   1.394   6.462
18475SOL     OW56865   6.524   0.513   6.482
18475SOL    HW156866   6.493   0.513   6.392
18475SOL    HW256867   6.558   0.425   6.496
18476SOL     OW56868   6.171   0.027   6.008
18476SOL    HW156869   6.103  -0.022   6.054
18476SOL    HW256870   6.138   0.117   6.004
18477SOL     OW56871   7.010   1.206   5.627
18477SOL    HW156872   7.031   1.132   5.683
18477SOL    HW256873   6.924   1.235   5.657
18478SOL     OW56874   5.878   0.044   5.789
18478SOL    HW156875   5.935   0.119   5.775
18478SOL    HW256876   5.908   0.007   5.872
18479SOL     OW56877   6.537   0.254   6.057
18479SOL    HW156878   6.512   0.278   5.968
18479SOL    HW256879   6.630   0.276   6.063
18480SOL     OW56880   6.667   0.700   7.040
18480SOL    HW156881   6.597   0.636   7.056
18480SOL    HW256882   6.747   0.648   7.042
18481SOL     OW56883   6.821   1.572   6.378
18481SOL    HW156884   6.823   1.636   6.307
18481SOL    HW256885   6.860   1.617   6.453
18482SOL     OW56886   6.066   1.151   6.308
18482SOL    HW156887   5.998   1.136   6.374
18482SOL    HW256888   6.020   1.144   6.224
18483SOL     OW56889   6.846   1.790   6.201
18483SOL    HW156890   6.895   1.853   6.149
18483SOL    HW256891   6.774   1.840   6.239
18484SOL     OW56892   6.647   0.607   5.659
18484SOL    HW156893   6.566   0.646   5.626
18484SOL    HW256894   6.716   0.665   5.626
18485SOL     OW56895   5.682   0.557   6.985
18485SOL    HW156896   5.772   0.568   6.953
18485SOL    HW256897   5.671   0.629   7.048
18486SOL     OW56898   6.141   0.241   6.808
18486SOL    HW156899   6.171   0.208   6.892
18486SOL    HW256900   6.046   0.230   6.811
18487SOL     OW56901   6.453   0.477   6.224
18487SOL    HW156902   6.390   0.527   6.173
18487SOL    HW256903   6.451   0.389   6.186
18488SOL     OW56904   6.547   0.029   6.394
18488SOL    HW156905   6.500   0.036   6.311
18488SOL    HW256906   6.584  -0.059   6.393
18489SOL     OW56907   7.012   1.156   6.438
18489SOL    HW156908   6.931   1.111   6.461
18489SOL    HW256909   7.006   1.167   6.343
18490SOL     OW56910   7.044   0.602   6.541
18490SOL    HW156911   6.988   0.525   6.545
18490SOL    HW256912   7.100   0.596   6.618
18491SOL     OW56913   7.431   0.805   6.001
18491SOL    HW156914   7.491   0.745   6.046
18491SOL    HW256915   7.397   0.755   5.928
18492SOL     OW56916   6.072   1.428   5.737
18492SOL    HW156917   6.012   1.387   5.799
18492SOL    HW256918   6.019   1.442   5.658
18493SOL     OW56919   7.275   1.263   6.249
18493SOL    HW156920   7.368   1.287   6.255
18493SOL    HW256921   7.228   1.346   6.262
18494SOL     OW56922   7.012   0.570   5.651
18494SOL    HW156923   6.988   0.489   5.694
18494SOL    HW256924   7.108   0.569   5.649
18495SOL     OW56925   6.076   0.273   5.892
18495SOL    HW156926   6.123   0.228   5.822
18495SOL    HW256927   6.060   0.360   5.858
18496SOL     OW56928   7.329   1.241   7.134
18496SOL    HW156929   7.417   1.206   7.124
18496SOL    HW256930   7.343   1.330   7.167
18497SOL     OW56931   6.638   1.335   6.897
18497SOL    HW156932   6.562   1.316   6.951
18497SOL    HW256933   6.712   1.304   6.949
18498SOL     OW56934   7.194   1.626   7.248
18498SOL    HW156935   7.185   1.665   7.161
18498SOL    HW256936   7.276   1.576   7.244
18499SOL     OW56937   6.717   1.190   6.674
18499SOL    HW156938   6.672   1.236   6.746
18499SOL    HW256939   6.696   1.242   6.596
18500SOL     OW56940   7.212   1.098   6.651
18500SOL    HW156941   7.211   1.160   6.724
18500SOL    HW256942   7.133   1.118   6.601
18501SOL     OW56943   6.569   1.114   7.316
18501SOL    HW156944   6.480   1.136   7.343
18501SOL    HW256945   6.558   1.037   7.259
18502SOL     OW56946   6.305   1.062   5.959
18502SOL    HW156947   6.281   1.040   6.050
18502SOL    HW256948   6.381   1.007   5.941
18503SOL     OW56949   6.016   0.826   6.837
18503SOL    HW156950   6.082   0.833   6.906
18503SOL    HW256951   5.976   0.740   6.850
18504SOL     OW56952   6.854   0.378   6.863
18504SOL    HW156953   6.885   0.455   6.910
18504SOL    HW256954   6.764   0.399   6.838
18505SOL     OW56955   5.649   1.572   6.939
18505SOL    HW156956   5.603   1.641   6.890
18505SOL    HW256957   5.740   1.601   6.942
18506SOL     OW56958   5.932   1.116   6.073
18506SOL    HW156959   5.921   1.194   6.018
18506SOL    HW256960   5.923   1.042   6.013
18507SOL     OW56961   6.143   0.514   6.440
18507SOL    HW156962   6.151   0.573   6.365
18507SOL    HW256963   6.203   0.549   6.505
18508SOL     OW56964   6.827   1.350   5.991
18508SOL    HW156965   6.881   1.425   6.014
18508SOL    HW256966   6.739   1.374   6.017
18509SOL     OW56967   6.876   1.463   6.743
18509SOL    HW156968   6.936   1.472   6.817
18509SOL    HW256969   6.802   1.413   6.779
18510SOL     OW56970   7.147   0.626   6.083
18510SOL    HW156971   7.113   0.678   6.155
18510SOL    HW256972   7.158   0.689   6.011
18511SOL     OW56973   5.935   1.531   6.889
18511SOL    HW156974   5.922   1.480   6.809
18511SOL    HW256975   6.030   1.542   6.895
18512SOL     OW56976   6.021   0.738   7.205
18512SOL    HW156977   6.070   0.785   7.138
18512SOL    HW256978   6.075   0.662   7.226
18513SOL     OW56979   7.196   0.781   7.276
18513SOL    HW156980   7.110   0.822   7.270
18513SOL    HW256981   7.249   0.823   7.209
18514SOL     OW56982   6.648   0.048   7.372
18514SOL    HW156983   6.700   0.127   7.385
18514SOL    HW256984   6.566   0.078   7.332
18515SOL     OW56985   6.100   0.053   7.286
18515SOL    HW156986   6.067  -0.022   7.237
18515SOL    HW256987   6.022   0.102   7.311
18516SOL     OW56988   6.180   0.874   6.622
18516SOL    HW156989   6.202   0.967   6.615
18516SOL    HW256990   6.116   0.870   6.693
18517SOL     OW56991   6.920   0.851   6.590
18517SOL    HW156992   6.829   0.836   6.567
18517SOL    HW256993   6.961   0.765   6.584
18518SOL     OW56994   5.873   0.202   6.823
18518SOL    HW156995   5.816   0.226   6.896
18518SOL    HW256996   5.845   0.115   6.797
18519SOL     OW56997   5.657   1.310   6.861
18519SOL    HW156998   5.676   1.262   6.942
18519SOL    HW256999   5.647   1.401   6.890
18520SOL     OW57000   6.300   0.629   6.630
18520SOL    HW157001   6.380   0.629   6.578
18520SOL    HW257002   6.267   0.718   6.623
18521SOL     OW57003   7.326   0.956   7.454
18521SOL    HW157004   7.280   0.891   7.400
18521SOL    HW257005   7.262   0.980   7.521
18522SOL     OW57006   5.988   0.101   6.249
18522SOL    HW157007   5.944   0.182   6.273
18522SOL    HW257008   5.920   0.046   6.212
18523SOL     OW57009   7.225   0.399   5.947
18523SOL    HW157010   7.229   0.323   6.006
18523SOL    HW257011   7.192   0.470   6.002
18524SOL     OW57012   6.632   0.757   6.539
18524SOL    HW157013   6.615   0.772   6.632
18524SOL    HW257014   6.597   0.669   6.523
18525SOL     OW57015   6.572   1.567   7.313
18525SOL    HW157016   6.550   1.611   7.231
18525SOL    HW257017   6.610   1.483   7.286
18526SOL     OW57018   7.432   1.495   7.188
18526SOL    HW157019   7.456   1.528   7.102
18526SOL    HW257020   7.510   1.507   7.242
18527SOL     OW57021   5.938   0.906   7.409
18527SOL    HW157022   6.019   0.933   7.451
18527SOL    HW257023   5.965   0.845   7.340
18528SOL     OW57024   7.142   0.276   5.716
18528SOL    HW157025   7.172   0.188   5.739
18528SOL    HW257026   7.168   0.330   5.790
18529SOL     OW57027   6.860   0.794   5.600
18529SOL    HW157028   6.924   0.725   5.615
18529SOL    HW257029   6.894   0.841   5.523
18530SOL     OW57030   6.668   1.347   6.446
18530SOL    HW157031   6.673   1.277   6.381
18530SOL    HW257032   6.724   1.416   6.410
18531SOL     OW57033   5.890   0.810   6.532
18531SOL    HW157034   5.981   0.836   6.517
18531SOL    HW257035   5.896   0.720   6.566
18532SOL     OW57036   5.925   0.535   6.600
18532SOL    HW157037   5.878   0.454   6.584
18532SOL    HW257038   5.999   0.533   6.539
18533SOL     OW57039   6.705   0.410   7.243
18533SOL    HW157040   6.667   0.445   7.324
18533SOL    HW257041   6.798   0.433   7.249
18534SOL     OW57042   6.740   0.210   7.050
18534SOL    HW157043   6.746   0.261   7.130
18534SOL    HW257044   6.806   0.248   6.992
18535SOL     OW57045   5.637   1.309   5.783
18535SOL    HW157046   5.620   1.394   5.742
18535SOL    HW257047   5.551   1.267   5.788
18536SOL     OW57048   5.686   1.763   6.547
18536SOL    HW157049   5.651   1.693   6.493
18536SOL    HW257050   5.768   1.788   6.504
18537SOL     OW57051   6.076   1.575   6.492
18537SOL    HW157052   6.144   1.639   6.510
18537SOL    HW257053   6.117   1.514   6.430
18538SOL     OW57054   6.564   0.777   6.798
18538SOL    HW157055   6.616   0.758   6.876
18538SOL    HW257056   6.481   0.812   6.832
18539SOL     OW57057   5.620   0.528   6.711
18539SOL    HW157058   5.691   0.559   6.655
18539SOL    HW257059   5.651   0.544   6.800
18540SOL     OW57060   5.770   0.535   7.315
18540SOL    HW157061   5.853   0.533   7.267
18540SOL    HW257062   5.721   0.607   7.275
18541SOL     OW57063   6.968   0.927   7.239
18541SOL    HW157064   6.990   1.020   7.237
18541SOL    HW257065   6.963   0.901   7.147
18542SOL     OW57066   6.388   0.578   5.941
18542SOL    HW157067   6.352   0.499   5.901
18542SOL    HW257068   6.323   0.646   5.922
18543SOL     OW57069   7.223   0.602   6.751
18543SOL    HW157070   7.214   0.551   6.831
18543SOL    HW257071   7.314   0.588   6.724
18544SOL     OW57072   5.840   1.548   7.312
18544SOL    HW157073   5.810   1.621   7.366
18544SOL    HW257074   5.829   1.471   7.367
18545SOL     OW57075   6.302   0.461   6.840
18545SOL    HW157076   6.237   0.392   6.825
18545SOL    HW257077   6.289   0.521   6.767
18546SOL     OW57078   6.540   1.664   7.045
18546SOL    HW157079   6.493   1.628   6.970
18546SOL    HW257080   6.527   1.758   7.039
18547SOL     OW57081   6.050   0.508   5.766
18547SOL    HW157082   6.099   0.586   5.791
18547SOL    HW257083   5.960   0.538   5.753
18548SOL     OW57084   5.728   1.144   7.074
18548SOL    HW157085   5.727   1.101   7.160
18548SOL    HW257086   5.741   1.073   7.012
18549SOL     OW57087   6.907   1.035   6.794
18549SOL    HW157088   6.924   0.972   6.724
18549SOL    HW257089   6.839   1.092   6.759
18550SOL     OW57090   6.911   0.847   5.879
18550SOL    HW157091   6.838   0.849   5.940
18550SOL    HW257092   6.870   0.837   5.793
18551SOL     OW57093   7.364   1.733   6.743
18551SOL    HW157094   7.428   1.760   6.677
18551SOL    HW257095   7.340   1.643   6.717
18552SOL     OW57096   6.823   1.724   6.665
18552SOL    HW157097   6.910   1.754   6.637
18552SOL    HW257098   6.839   1.636   6.700
18553SOL     OW57099   5.687   1.255   6.602
18553SOL    HW157100   5.673   1.273   6.695
18553SOL    HW257101   5.599   1.262   6.564
18554SOL     OW57102   6.254   1.682   7.326
18554SOL    HW157103   6.182   1.745   7.333
18554SOL    HW257104   6.300   1.707   7.246
18555SOL     OW57105   7.236   0.152   6.102
18555SOL    HW157106   7.330   0.136   6.092
18555SOL    HW257107   7.213   0.110   6.184
18556SOL     OW57108   6.978   1.570   6.077
18556SOL    HW157109   7.036   1.605   6.009
18556SOL    HW257110   6.925   1.645   6.104
18557SOL     OW57111   5.737   1.783   7.425
18557SOL    HW157112   5.686   1.720   7.475
18557SOL    HW257113   5.774   1.842   7.491
18558SOL     OW57114   6.864   0.921   6.227
18558SOL    HW157115   6.942   0.873   6.252
18558SOL    HW257116   6.897   1.004   6.191
18559SOL     OW57117   6.385   1.283   7.014
18559SOL    HW157118   6.361   1.325   7.096
18559SOL    HW257119   6.316   1.309   6.953
18560SOL     OW57120   6.260   1.626   5.734
18560SOL    HW157121   6.268   1.641   5.640
18560SOL    HW257122   6.202   1.550   5.741
18561SOL     OW57123   7.205   1.729   6.980
18561SOL    HW157124   7.258   1.734   6.901
18561SOL    HW257125   7.190   1.820   7.005
18562SOL     OW57126   7.446   0.181   6.539
18562SOL    HW157127   7.444   0.091   6.571
18562SOL    HW257128   7.361   0.193   6.496
18563SOL     OW57129   5.845   0.327   6.299
18563SOL    HW157130   5.758   0.354   6.270
18563SOL    HW257131   5.838   0.324   6.394
18564SOL     OW57132   6.798   1.595   5.616
18564SOL    HW157133   6.790   1.506   5.649
18564SOL    HW257134   6.724   1.605   5.556
18565SOL     OW57135   6.410   1.019   6.941
18565SOL    HW157136   6.417   1.036   6.847
18565SOL    HW257137   6.401   1.106   6.980
18566SOL     OW57138   6.518   0.905   5.895
18566SOL    HW157139   6.569   0.940   5.822
18566SOL    HW257140   6.561   0.823   5.917
18567SOL     OW57141   7.079   1.617   5.635
18567SOL    HW157142   6.985   1.615   5.620
18567SOL    HW257143   7.117   1.628   5.547
18568SOL     OW57144   5.957   1.306   7.074
18568SOL    HW157145   5.942   1.385   7.022
18568SOL    HW257146   5.877   1.255   7.064
18569SOL     OW57147   7.199   1.289   6.861
18569SOL    HW157148   7.253   1.270   6.937
18569SOL    HW257149   7.135   1.353   6.892
18570SOL     OW57150   6.663   1.112   6.307
18570SOL    HW157151   6.584   1.072   6.342
18570SOL    HW257152   6.711   1.040   6.265
18571SOL     OW57153   6.629   0.260   6.535
18571SOL    HW157154   6.599   0.201   6.466
18571SOL    HW257155   6.632   0.206   6.614
18572SOL     OW57156   6.190   1.491   6.067
18572SOL    HW157157   6.229   1.444   5.994
18572SOL    HW257158   6.107   1.524   6.033
18573SOL     OW57159   7.310   0.413   6.977
18573SOL    HW157160   7.380   0.478   6.982
18573SOL    HW257161   7.342   0.349   6.913
18574SOL     OW57162   5.878   1.327   5.906
18574SOL    HW157163   5.794   1.319   5.860
18574SOL    HW257164   5.857   1.378   5.984
18575SOL     OW57165   5.707   1.040   7.327
18575SOL    HW157166   5.628   1.011   7.372
18575SOL    HW257167   5.777   0.990   7.369
18576SOL     OW57168   6.228   0.215   7.077
18576SOL    HW157169   6.308   0.257   7.110
18576SOL    HW257170   6.198   0.161   7.151
18577SOL     OW57171   5.671   0.325   5.612
18577SOL    HW157172   5.576   0.325   5.604
18577SOL    HW257173   5.699   0.405   5.568
18578SOL     OW57174   7.007   0.854   6.977
18578SOL    HW157175   6.957   0.914   6.923
18578SOL    HW257176   7.097   0.861   6.945
18579SOL     OW57177   5.655   0.199   5.893
18579SOL    HW157178   5.652   0.264   5.822
18579SOL    HW257179   5.718   0.134   5.863
18580SOL     OW57180   6.759   1.330   5.706
18580SOL    HW157181   6.664   1.324   5.697
18580SOL    HW257182   6.775   1.330   5.800
18581SOL     OW57183   6.219   0.828   7.023
18581SOL    HW157184   6.263   0.911   7.003
18581SOL    HW257185   6.290   0.769   7.048
18582SOL     OW57186   7.074   1.788   6.565
18582SOL    HW157187   7.083   1.862   6.505
18582SOL    HW257188   7.158   1.783   6.611
18583SOL     OW57189   6.287   0.564   7.290
18583SOL    HW157190   6.334   0.626   7.347
18583SOL    HW257191   6.303   0.479   7.330
18584SOL     OW57192   7.059   1.185   7.211
18584SOL    HW157193   7.046   1.208   7.303
18584SOL    HW257194   7.149   1.211   7.192
18585SOL     OW57195   5.961   1.738   7.151
18585SOL    HW157196   5.878   1.779   7.127
18585SOL    HW257197   5.935   1.657   7.195
18586SOL     OW57198   7.246   0.882   6.836
18586SOL    HW157199   7.241   0.798   6.789
18586SOL    HW257200   7.238   0.948   6.767
18587SOL     OW57201   6.798   0.345   6.024
18587SOL    HW157202   6.861   0.275   6.010
18587SOL    HW257203   6.828   0.389   6.104
18588SOL     OW57204   6.188   0.720   6.257
18588SOL    HW157205   6.221   0.810   6.250
18588SOL    HW257206   6.118   0.716   6.191
18589SOL     OW57207   7.342   0.366   7.245
18589SOL    HW157208   7.330   0.388   7.153
18589SOL    HW257209   7.269   0.307   7.266
18590SOL     OW57210   7.324   0.934   7.095
18590SOL    HW157211   7.318   1.029   7.110
18590SOL    HW257212   7.310   0.923   7.001
18591SOL     OW57213   6.481   1.360   5.653
18591SOL    HW157214   6.427   1.374   5.730
18591SOL    HW257215   6.473   1.442   5.603
18592SOL     OW57216   6.251   1.778   6.515
18592SOL    HW157217   6.225   1.870   6.504
18592SOL    HW257218   6.347   1.780   6.511
18593SOL     OW57219   6.460   0.981   6.444
18593SOL    HW157220   6.510   0.909   6.483
18593SOL    HW257221   6.418   1.024   6.518
18594SOL     OW57222   6.670   0.978   5.683
18594SOL    HW157223   6.640   1.038   5.616
18594SOL    HW257224   6.735   0.923   5.639
18595SOL     OW57225   7.428   1.532   6.415
18595SOL    HW157226   7.350   1.552   6.363
18595SOL    HW257227   7.395   1.509   6.501
18596SOL     OW57228   5.804   1.293   7.436
18596SOL    HW157229   5.759   1.224   7.387
18596SOL    HW257230   5.748   1.310   7.511
18597SOL     OW57231   5.673   1.227   6.258
18597SOL    HW157232   5.703   1.179   6.335
18597SOL    HW257233   5.734   1.201   6.189
18598SOL     OW57234   6.278   1.412   7.232
18598SOL    HW157235   6.194   1.372   7.256
18598SOL    HW257236   6.271   1.503   7.262
18599SOL     OW57237   7.402   0.231   6.811
18599SOL    HW157238   7.339   0.158   6.807
18599SOL    HW257239   7.434   0.240   6.722
18600SOL     OW57240   6.033   0.422   6.125
18600SOL    HW157241   6.027   0.362   6.050
18600SOL    HW257242   5.962   0.395   6.183
18601SOL     OW57243   7.297   1.474   6.657
18601SOL    HW157244   7.211   1.461   6.618
18601SOL    HW257245   7.296   1.419   6.736
18602SOL     OW57246   5.926   0.573   6.874
18602SOL    HW157247   5.972   0.508   6.928
18602SOL    HW257248   5.939   0.543   6.784
18603SOL     OW57249   6.424   1.585   6.254
18603SOL    HW157250   6.403   1.662   6.201
18603SOL    HW257251   6.344   1.532   6.251
18604SOL     OW57252   7.027   0.231   6.698
18604SOL    HW157253   7.086   0.170   6.743
18604SOL    HW257254   6.977   0.272   6.769
18605SOL     OW57255   6.615   0.075   6.741
18605SOL    HW157256   6.535   0.047   6.695
18605SOL    HW257257   6.670  -0.003   6.744
18606SOL     OW57258   6.362   1.332   5.904
18606SOL    HW157259   6.333   1.242   5.919
18606SOL    HW257260   6.436   1.344   5.963
18607SOL     OW57261   6.212   1.548   6.882
18607SOL    HW157262   6.211   1.628   6.935
18607SOL    HW257263   6.297   1.551   6.837
18608SOL     OW57264   6.944   8.005   5.692
18608SOL    HW157265   7.011   7.944   5.723
18608SOL    HW257266   6.865   7.980   5.738
18609SOL     OW57267   6.878   0.468   6.255
18609SOL    HW157268   6.823   0.546   6.262
18609SOL    HW257269   6.882   0.434   6.345
18610SOL     OW57270   7.197   0.211   6.437
18610SOL    HW157271   7.126   0.208   6.501
18610SOL    HW257272   7.188   0.296   6.395
18611SOL     OW57273   5.603   1.047   5.932
18611SOL    HW157274   5.685   1.067   5.887
18611SOL    HW257275   5.603   0.951   5.938
18612SOL     OW57276   6.477   1.664   5.914
18612SOL    HW157277   6.401   1.648   5.856
18612SOL    HW257278   6.447   1.732   5.974
18613SOL     OW57279   5.799   0.619   7.584
18613SOL    HW157280   5.712   0.619   7.624
18613SOL    HW257281   5.782   0.605   7.490
18614SOL     OW57282   5.811   0.292   8.416
18614SOL    HW157283   5.843   0.254   8.498
18614SOL    HW257284   5.720   0.263   8.410
18615SOL     OW57285   5.571   0.303   8.086
18615SOL    HW157286   5.604   0.390   8.106
18615SOL    HW257287   5.567   0.300   7.990
18616SOL     OW57288   6.169   1.301   8.652
18616SOL    HW157289   6.088   1.300   8.601
18616SOL    HW257290   6.178   1.391   8.681
18617SOL     OW57291   7.166   1.512   8.152
18617SOL    HW157292   7.118   1.490   8.232
18617SOL    HW257293   7.099   1.520   8.085
18618SOL     OW57294   6.728   0.698   8.141
18618SOL    HW157295   6.768   0.784   8.126
18618SOL    HW257296   6.676   0.710   8.220
18619SOL     OW57297   7.375   0.598   7.669
18619SOL    HW157298   7.342   0.595   7.580
18619SOL    HW257299   7.334   0.523   7.712
18620SOL     OW57300   6.350   1.146   8.512
18620SOL    HW157301   6.280   1.179   8.568
18620SOL    HW257302   6.379   1.223   8.463
18621SOL     OW57303   6.456   0.768   9.265
18621SOL    HW157304   6.401   0.838   9.300
18621SOL    HW257305   6.488   0.802   9.182
18622SOL     OW57306   6.273   0.994   8.093
18622SOL    HW157307   6.338   0.994   8.163
18622SOL    HW257308   6.203   1.051   8.126
18623SOL     OW57309   6.301   1.158   9.278
18623SOL    HW157310   6.350   1.236   9.301
18623SOL    HW257311   6.224   1.191   9.231
18624SOL     OW57312   5.942   1.413   8.521
18624SOL    HW157313   5.855   1.384   8.494
18624SOL    HW257314   5.973   1.468   8.449
18625SOL     OW57315   7.047   1.502   8.819
18625SOL    HW157316   7.100   1.582   8.825
18625SOL    HW257317   6.974   1.517   8.879
18626SOL     OW57318   6.022   0.376   8.951
18626SOL    HW157319   6.107   0.334   8.946
18626SOL    HW257320   5.960   0.310   8.919
18627SOL     OW57321   7.156   0.494   8.199
18627SOL    HW157322   7.067   0.482   8.165
18627SOL    HW257323   7.205   0.532   8.126
18628SOL     OW57324   5.806   1.719   7.914
18628SOL    HW157325   5.829   1.794   7.968
18628SOL    HW257326   5.878   1.712   7.851
18629SOL     OW57327   6.724   1.338   9.141
18629SOL    HW157328   6.762   1.330   9.229
18629SOL    HW257329   6.675   1.257   9.129
18630SOL     OW57330   5.826   1.451   7.992
18630SOL    HW157331   5.803   1.544   7.985
18630SOL    HW257332   5.761   1.414   8.052
18631SOL     OW57333   5.853   1.117   8.343
18631SOL    HW157334   5.846   1.028   8.379
18631SOL    HW257335   5.787   1.167   8.391
18632SOL     OW57336   6.198   1.787   8.899
18632SOL    HW157337   6.109   1.774   8.932
18632SOL    HW257338   6.215   1.880   8.912
18633SOL     OW57339   6.166   0.986   7.588
18633SOL    HW157340   6.213   1.035   7.521
18633SOL    HW257341   6.201   1.019   7.671
18634SOL     OW57342   7.235   0.139   8.953
18634SOL    HW157343   7.214   0.109   8.864
18634SOL    HW257344   7.151   0.171   8.987
18635SOL     OW57345   7.433   1.750   7.774
18635SOL    HW157346   7.505   1.727   7.833
18635SOL    HW257347   7.447   1.843   7.754
18636SOL     OW57348   5.636   1.583   7.573
18636SOL    HW157349   5.603   1.494   7.591
18636SOL    HW257350   5.602   1.636   7.645
18637SOL     OW57351   7.280   0.921   8.084
18637SOL    HW157352   7.360   0.878   8.055
18637SOL    HW257353   7.256   0.979   8.012
18638SOL     OW57354   7.236   1.108   7.880
18638SOL    HW157355   7.322   1.107   7.838
18638SOL    HW257356   7.246   1.169   7.953
18639SOL     OW57357   5.698   0.752   9.036
18639SOL    HW157358   5.782   0.795   9.022
18639SOL    HW257359   5.633   0.819   9.014
18640SOL     OW57360   6.198   1.393   8.189
18640SOL    HW157361   6.153   1.309   8.195
18640SOL    HW257362   6.185   1.421   8.099
18641SOL     OW57363   6.865   1.228   8.873
18641SOL    HW157364   6.893   1.164   8.808
18641SOL    HW257365   6.931   1.223   8.942
18642SOL     OW57366   6.433   0.013   7.998
18642SOL    HW157367   6.472   0.094   7.966
18642SOL    HW257368   6.339   0.025   7.988
18643SOL     OW57369   5.754   0.948   8.738
18643SOL    HW157370   5.840   0.909   8.729
18643SOL    HW257371   5.720   0.954   8.649
18644SOL     OW57372   7.115   1.004   7.650
18644SOL    HW157373   7.049   0.944   7.684
18644SOL    HW257374   7.158   1.039   7.728
18645SOL     OW57375   6.777   1.817   9.081
18645SOL    HW157376   6.772   1.880   9.010
18645SOL    HW257377   6.787   1.732   9.037
18646SOL     OW57378   5.898   0.224   9.243
18646SOL    HW157379   5.958   0.299   9.248
18646SOL    HW257380   5.819   0.253   9.289
18647SOL     OW57381   7.051   1.424   8.388
18647SOL    HW157382   6.986   1.440   8.456
18647SOL    HW257383   7.037   1.333   8.362
18648SOL     OW57384   7.236   1.764   8.023
18648SOL    HW157385   7.218   1.733   7.934
18648SOL    HW257386   7.225   1.686   8.078
18649SOL     OW57387   6.180   0.721   7.722
18649SOL    HW157388   6.179   0.806   7.679
18649SOL    HW257389   6.116   0.729   7.792
18650SOL     OW57390   6.882   0.376   8.389
18650SOL    HW157391   6.792   0.343   8.394
18650SOL    HW257392   6.932   0.322   8.450
18651SOL     OW57393   7.167   1.671   7.762
18651SOL    HW157394   7.259   1.695   7.751
18651SOL    HW257395   7.135   1.657   7.673
18652SOL     OW57396   6.372   0.638   8.902
18652SOL    HW157397   6.349   0.601   8.987
18652SOL    HW257398   6.348   0.570   8.839
18653SOL     OW57399   6.990   0.492   9.117
18653SOL    HW157400   7.007   0.535   9.201
18653SOL    HW257401   7.034   0.407   9.125
18654SOL     OW57402   6.537   0.888   9.029
18654SOL    HW157403   6.587   0.816   8.990
18654SOL    HW257404   6.491   0.927   8.955
18655SOL     OW57405   6.587   0.413   8.660
18655SOL    HW157406   6.497   0.433   8.689
18655SOL    HW257407   6.576   0.378   8.571
18656SOL     OW57408   6.644   0.695   7.871
18656SOL    HW157409   6.662   0.690   7.965
18656SOL    HW257410   6.558   0.655   7.861
18657SOL     OW57411   5.672   0.774   8.338
18657SOL    HW157412   5.672   0.730   8.253
18657SOL    HW257413   5.625   0.856   8.322
18658SOL     OW57414   5.712   1.878   9.021
18658SOL    HW157415   5.703   1.850   9.111
18658SOL    HW257416   5.665   1.813   8.970
18659SOL     OW57417   6.481   0.354   7.657
18659SOL    HW157418   6.519   0.407   7.588
18659SOL    HW257419   6.458   0.271   7.614
18660SOL     OW57420   7.265   0.578   9.287
18660SOL    HW157421   7.248   0.655   9.232
18660SOL    HW257422   7.297   0.512   9.226
18661SOL     OW57423   6.965   1.144   7.979
18661SOL    HW157424   7.046   1.138   7.927
18661SOL    HW257425   6.912   1.209   7.932
18662SOL     OW57426   6.152   0.216   8.385
18662SOL    HW157427   6.124   0.285   8.446
18662SOL    HW257428   6.167   0.262   8.303
18663SOL     OW57429   6.582   1.451   7.915
18663SOL    HW157430   6.554   1.523   7.858
18663SOL    HW257431   6.548   1.474   8.002
18664SOL     OW57432   5.922   1.826   8.338
18664SOL    HW157433   5.966   1.741   8.333
18664SOL    HW257434   5.992   1.890   8.349
18665SOL     OW57435   7.380   1.039   8.336
18665SOL    HW157436   7.336   1.039   8.250
18665SOL    HW257437   7.309   1.052   8.399
18666SOL     OW57438   6.810   1.541   8.961
18666SOL    HW157439   6.799   1.465   9.018
18666SOL    HW257440   6.742   1.532   8.895
18667SOL     OW57441   5.897   0.961   7.709
18667SOL    HW157442   5.974   0.988   7.660
18667SOL    HW257443   5.866   0.883   7.663
18668SOL     OW57444   7.067   0.784   8.175
18668SOL    HW157445   7.100   0.718   8.236
18668SOL    HW257446   7.144   0.835   8.150
18669SOL     OW57447   6.048   1.268   9.193
18669SOL    HW157448   6.025   1.275   9.101
18669SOL    HW257449   5.963   1.265   9.238
18670SOL     OW57450   6.720   1.767   7.687
18670SOL    HW157451   6.635   1.737   7.720
18670SOL    HW257452   6.740   1.708   7.615
18671SOL     OW57453   5.747   0.254   8.956
18671SOL    HW157454   5.719   0.337   8.917
18671SOL    HW257455   5.768   0.277   9.047
18672SOL     OW57456   7.213   1.378   7.545
18672SOL    HW157457   7.176   1.465   7.530
18672SOL    HW257458   7.144   1.318   7.518
18673SOL     OW57459   6.052   1.733   7.769
18673SOL    HW157460   6.097   1.793   7.829
18673SOL    HW257461   6.120   1.703   7.709
18674SOL     OW57462   7.005   0.133   7.857
18674SOL    HW157463   7.013   0.098   7.768
18674SOL    HW257464   7.096   0.141   7.887
18675SOL     OW57465   5.878   1.795   8.661
18675SOL    HW157466   5.891   1.714   8.709
18675SOL    HW257467   5.879   1.769   8.569
18676SOL     OW57468   6.533   1.700   8.335
18676SOL    HW157469   6.617   1.655   8.342
18676SOL    HW257470   6.485   1.652   8.267
18677SOL     OW57471   5.993   0.683   7.929
18677SOL    HW157472   6.016   0.591   7.941
18677SOL    HW257473   5.901   0.688   7.953
18678SOL     OW57474   7.087   0.238   9.174
18678SOL    HW157475   7.112   0.254   9.266
18678SOL    HW257476   7.046   0.152   9.175
18679SOL     OW57477   6.193   0.139   7.538
18679SOL    HW157478   6.258   0.081   7.579
18679SOL    HW257479   6.160   0.089   7.464
18680SOL     OW57480   6.338   0.287   9.231
18680SOL    HW157481   6.382   0.203   9.216
18680SOL    HW257482   6.275   0.269   9.301
18681SOL     OW57483   6.460   1.527   8.646
18681SOL    HW157484   6.441   1.494   8.558
18681SOL    HW257485   6.530   1.470   8.679
18682SOL     OW57486   6.927   0.598   8.872
18682SOL    HW157487   6.962   0.568   8.955
18682SOL    HW257488   6.958   0.689   8.865
18683SOL     OW57489   6.406   1.391   8.396
18683SOL    HW157490   6.490   1.383   8.351
18683SOL    HW257491   6.342   1.401   8.325
18684SOL     OW57492   6.518   0.521   8.338
18684SOL    HW157493   6.488   0.514   8.247
18684SOL    HW257494   6.553   0.434   8.358
18685SOL     OW57495   6.174   0.038   7.879
18685SOL    HW157496   6.104  -0.012   7.921
18685SOL    HW257497   6.136   0.124   7.861
18686SOL     OW57498   7.009   1.204   7.483
18686SOL    HW157499   7.035   1.131   7.538
18686SOL    HW257500   6.923   1.231   7.518
18687SOL     OW57501   5.873   0.043   7.665
18687SOL    HW157502   5.934   0.114   7.645
18687SOL    HW257503   5.906   0.006   7.747
18688SOL     OW57504   6.541   0.250   7.908
18688SOL    HW157505   6.510   0.289   7.826
18688SOL    HW257506   6.633   0.273   7.913
18689SOL     OW57507   6.665   0.676   8.914
18689SOL    HW157508   6.603   0.603   8.917
18689SOL    HW257509   6.749   0.635   8.897
18690SOL     OW57510   6.794   1.586   8.248
18690SOL    HW157511   6.806   1.646   8.175
18690SOL    HW257512   6.871   1.599   8.303
18691SOL     OW57513   6.062   1.152   8.173
18691SOL    HW157514   5.993   1.141   8.240
18691SOL    HW257515   6.016   1.144   8.090
18692SOL     OW57516   6.845   1.793   8.066
18692SOL    HW157517   6.896   1.852   8.011
18692SOL    HW257518   6.773   1.847   8.098
18693SOL     OW57519   6.610   0.528   7.475
18693SOL    HW157520   6.564   0.610   7.457
18693SOL    HW257521   6.671   0.549   7.546
18694SOL     OW57522   5.688   0.529   8.882
18694SOL    HW157523   5.767   0.541   8.829
18694SOL    HW257524   5.679   0.610   8.931
18695SOL     OW57525   6.144   0.253   8.676
18695SOL    HW157526   6.182   0.176   8.719
18695SOL    HW257527   6.050   0.235   8.675
18696SOL     OW57528   6.457   0.471   8.079
18696SOL    HW157529   6.419   0.522   8.007
18696SOL    HW257530   6.461   0.382   8.046
18697SOL     OW57531   6.537   0.038   8.251
18697SOL    HW157532   6.497   0.038   8.164
18697SOL    HW257533   6.578  -0.048   8.259
18698SOL     OW57534   7.032   1.164   8.296
18698SOL    HW157535   6.950   1.124   8.268
18698SOL    HW257536   7.083   1.174   8.216
18699SOL     OW57537   7.083   0.565   8.455
18699SOL    HW157538   7.006   0.509   8.460
18699SOL    HW257539   7.124   0.541   8.372
18700SOL     OW57540   7.421   0.801   7.845
18700SOL    HW157541   7.486   0.755   7.897
18700SOL    HW257542   7.406   0.744   7.769
18701SOL     OW57543   6.075   1.420   7.597
18701SOL    HW157544   6.004   1.391   7.655
18701SOL    HW257545   6.052   1.384   7.511
18702SOL     OW57546   7.264   1.251   8.110
18702SOL    HW157547   7.359   1.247   8.119
18702SOL    HW257548   7.243   1.344   8.116
18703SOL     OW57549   6.975   0.567   7.518
18703SOL    HW157550   6.916   0.554   7.592
18703SOL    HW257551   7.063   0.561   7.556
18704SOL     OW57552   6.076   0.267   7.744
18704SOL    HW157553   6.127   0.224   7.675
18704SOL    HW257554   6.058   0.355   7.710
18705SOL     OW57555   7.334   1.238   9.021
18705SOL    HW157556   7.419   1.206   8.991
18705SOL    HW257557   7.349   1.330   9.041
18706SOL     OW57558   6.636   1.357   8.785
18706SOL    HW157559   6.559   1.324   8.830
18706SOL    HW257560   6.709   1.309   8.825
18707SOL     OW57561   7.198   1.632   9.112
18707SOL    HW157562   7.184   1.668   9.025
18707SOL    HW257563   7.277   1.580   9.104
18708SOL     OW57564   6.732   1.220   8.549
18708SOL    HW157565   6.660   1.244   8.608
18708SOL    HW257566   6.706   1.253   8.464
18709SOL     OW57567   7.191   1.096   8.521
18709SOL    HW157568   7.178   1.156   8.594
18709SOL    HW257569   7.122   1.119   8.458
18710SOL     OW57570   6.505   0.126   8.852
18710SOL    HW157571   6.514   0.112   8.758
18710SOL    HW257572   6.594   0.116   8.886
18711SOL     OW57573   6.571   1.104   9.189
18711SOL    HW157574   6.479   1.126   9.202
18711SOL    HW257575   6.570   1.032   9.127
18712SOL     OW57576   6.298   1.063   7.820
18712SOL    HW157577   6.280   1.041   7.912
18712SOL    HW257578   6.373   1.008   7.797
18713SOL     OW57579   5.990   0.824   8.730
18713SOL    HW157580   6.073   0.832   8.778
18713SOL    HW257581   5.972   0.730   8.730
18714SOL     OW57582   6.842   0.377   8.740
18714SOL    HW157583   6.873   0.460   8.776
18714SOL    HW257584   6.755   0.396   8.707
18715SOL     OW57585   5.668   1.642   8.839
18715SOL    HW157586   5.625   1.668   8.758
18715SOL    HW257587   5.741   1.587   8.811
18716SOL     OW57588   5.928   1.124   7.936
18716SOL    HW157589   5.917   1.201   7.880
18716SOL    HW257590   5.921   1.049   7.877
18717SOL     OW57591   6.143   0.525   8.308
18717SOL    HW157592   6.150   0.588   8.237
18717SOL    HW257593   6.206   0.556   8.374
18718SOL     OW57594   6.829   1.352   7.843
18718SOL    HW157595   6.885   1.424   7.872
18718SOL    HW257596   6.741   1.376   7.873
18719SOL     OW57597   6.882   1.465   8.597
18719SOL    HW157598   6.934   1.465   8.677
18719SOL    HW257599   6.824   1.388   8.605
18720SOL     OW57600   7.184   0.629   7.952
18720SOL    HW157601   7.110   0.682   7.983
18720SOL    HW257602   7.239   0.690   7.903
18721SOL     OW57603   5.930   1.531   8.762
18721SOL    HW157604   5.921   1.484   8.679
18721SOL    HW257605   6.024   1.545   8.772
18722SOL     OW57606   6.012   0.740   9.063
18722SOL    HW157607   6.063   0.793   9.001
18722SOL    HW257608   6.060   0.657   9.068
18723SOL     OW57609   7.201   0.797   9.137
18723SOL    HW157610   7.113   0.833   9.134
18723SOL    HW257611   7.244   0.831   9.059
18724SOL     OW57612   6.634   0.070   9.194
18724SOL    HW157613   6.649   0.162   9.171
18724SOL    HW257614   6.540   0.058   9.183
18725SOL     OW57615   6.092   0.029   9.187
18725SOL    HW157616   6.065  -0.030   9.117
18725SOL    HW257617   6.022   0.093   9.192
18726SOL     OW57618   6.204   0.872   8.513
18726SOL    HW157619   6.216   0.963   8.485
18726SOL    HW257620   6.109   0.861   8.520
18727SOL     OW57621   6.956   0.827   8.493
18727SOL    HW157622   6.879   0.840   8.438
18727SOL    HW257623   6.984   0.737   8.476
18728SOL     OW57624   6.784   0.524   7.708
18728SOL    HW157625   6.790   0.447   7.765
18728SOL    HW257626   6.741   0.591   7.762
18729SOL     OW57627   5.879   0.191   8.680
18729SOL    HW157628   5.790   0.199   8.715
18729SOL    HW257629   5.876   0.111   8.627
18730SOL     OW57630   5.594   1.322   8.771
18730SOL    HW157631   5.656   1.260   8.809
18730SOL    HW257632   5.615   1.324   8.678
18731SOL     OW57633   6.311   0.623   8.506
18731SOL    HW157634   6.384   0.619   8.444
18731SOL    HW257635   6.281   0.714   8.503
18732SOL     OW57636   7.331   0.960   9.319
18732SOL    HW157637   7.290   0.897   9.259
18732SOL    HW257638   7.263   0.980   9.383
18733SOL     OW57639   5.990   0.104   8.118
18733SOL    HW157640   5.948   0.188   8.137
18733SOL    HW257641   5.921   0.051   8.079
18734SOL     OW57642   7.211   0.405   7.796
18734SOL    HW157643   7.233   0.329   7.850
18734SOL    HW257644   7.192   0.475   7.859
18735SOL     OW57645   6.620   0.762   8.404
18735SOL    HW157646   6.610   0.774   8.498
18735SOL    HW257647   6.587   0.674   8.388
18736SOL     OW57648   6.571   1.564   9.171
18736SOL    HW157649   6.548   1.610   9.090
18736SOL    HW257650   6.615   1.484   9.141
18737SOL     OW57651   7.431   1.498   9.047
18737SOL    HW157652   7.454   1.524   8.957
18737SOL    HW257653   7.511   1.513   9.097
18738SOL     OW57654   5.939   0.899   9.273
18738SOL    HW157655   6.024   0.934   9.298
18738SOL    HW257656   5.958   0.839   9.201
18739SOL     OW57657   7.130   0.268   7.575
18739SOL    HW157658   7.162   0.182   7.603
18739SOL    HW257659   7.153   0.327   7.646
18740SOL     OW57660   6.872   0.823   7.473
18740SOL    HW157661   6.912   0.736   7.474
18740SOL    HW257662   6.904   0.862   7.392
18741SOL     OW57663   6.663   1.346   8.312
18741SOL    HW157664   6.664   1.276   8.247
18741SOL    HW257665   6.711   1.417   8.271
18742SOL     OW57666   5.932   0.838   8.404
18742SOL    HW157667   5.980   0.811   8.326
18742SOL    HW257668   5.844   0.803   8.391
18743SOL     OW57669   5.940   0.515   8.487
18743SOL    HW157670   5.886   0.446   8.449
18743SOL    HW257671   6.005   0.534   8.419
18744SOL     OW57672   6.748   0.356   9.155
18744SOL    HW157673   6.671   0.413   9.164
18744SOL    HW257674   6.820   0.416   9.136
18745SOL     OW57675   6.761   0.201   8.929
18745SOL    HW157676   6.757   0.256   9.007
18745SOL    HW257677   6.787   0.261   8.859
18746SOL     OW57678   5.606   1.303   7.637
18746SOL    HW157679   5.518   1.325   7.605
18746SOL    HW257680   5.597   1.217   7.677
18747SOL     OW57681   5.640   1.852   8.325
18747SOL    HW157682   5.616   1.761   8.311
18747SOL    HW257683   5.736   1.851   8.332
18748SOL     OW57684   6.072   1.590   8.345
18748SOL    HW157685   6.144   1.648   8.369
18748SOL    HW257686   6.112   1.524   8.288
18749SOL     OW57687   6.564   0.775   8.670
18749SOL    HW157688   6.613   0.754   8.749
18749SOL    HW257689   6.473   0.760   8.694
18750SOL     OW57690   5.623   0.551   8.553
18750SOL    HW157691   5.644   0.593   8.470
18750SOL    HW257692   5.701   0.564   8.607
18751SOL     OW57693   5.790   0.532   9.178
18751SOL    HW157694   5.864   0.516   9.120
18751SOL    HW257695   5.744   0.605   9.139
18752SOL     OW57696   6.962   0.930   9.113
18752SOL    HW157697   6.986   1.022   9.107
18752SOL    HW257698   6.952   0.901   9.023
18753SOL     OW57699   6.402   0.576   7.821
18753SOL    HW157700   6.407   0.502   7.761
18753SOL    HW257701   6.328   0.628   7.789
18754SOL     OW57702   5.830   1.547   9.169
18754SOL    HW157703   5.802   1.615   9.230
18754SOL    HW257704   5.825   1.465   9.219
18755SOL     OW57705   6.317   0.455   8.715
18755SOL    HW157706   6.254   0.384   8.702
18755SOL    HW257707   6.305   0.513   8.640
18756SOL     OW57708   6.507   1.675   8.921
18756SOL    HW157709   6.484   1.631   8.839
18756SOL    HW257710   6.497   1.768   8.903
18757SOL     OW57711   6.043   0.503   7.618
18757SOL    HW157712   6.100   0.575   7.646
18757SOL    HW257713   5.956   0.543   7.610
18758SOL     OW57714   5.731   1.138   8.929
18758SOL    HW157715   5.728   1.093   9.014
18758SOL    HW257716   5.739   1.067   8.865
18759SOL     OW57717   6.904   1.039   8.668
18759SOL    HW157718   6.923   0.973   8.601
18759SOL    HW257719   6.843   1.099   8.625
18760SOL     OW57720   6.909   0.845   7.749
18760SOL    HW157721   6.831   0.829   7.801
18760SOL    HW257722   6.880   0.841   7.658
18761SOL     OW57723   7.381   1.733   8.613
18761SOL    HW157724   7.443   1.756   8.544
18761SOL    HW257725   7.344   1.649   8.584
18762SOL     OW57726   6.833   1.739   8.564
18762SOL    HW157727   6.914   1.762   8.518
18762SOL    HW257728   6.840   1.645   8.578
18763SOL     OW57729   6.264   1.679   9.189
18763SOL    HW157730   6.193   1.744   9.185
18763SOL    HW257731   6.318   1.698   9.112
18764SOL     OW57732   7.278   0.163   7.916
18764SOL    HW157733   7.345   0.158   7.847
18764SOL    HW257734   7.323   0.137   7.996
18765SOL     OW57735   6.983   1.568   7.945
18765SOL    HW157736   7.039   1.601   7.874
18765SOL    HW257737   6.928   1.643   7.969
18766SOL     OW57738   5.727   1.788   9.284
18766SOL    HW157739   5.676   1.722   9.331
18766SOL    HW257740   5.769   1.840   9.353
18767SOL     OW57741   6.855   0.938   8.113
18767SOL    HW157742   6.932   0.884   8.133
18767SOL    HW257743   6.890   1.008   8.057
18768SOL     OW57744   6.381   1.282   8.873
18768SOL    HW157745   6.352   1.326   8.953
18768SOL    HW257746   6.311   1.298   8.809
18769SOL     OW57747   6.258   1.622   7.601
18769SOL    HW157748   6.265   1.641   7.508
18769SOL    HW257749   6.199   1.547   7.606
18770SOL     OW57750   7.209   1.729   8.844
18770SOL    HW157751   7.265   1.728   8.766
18770SOL    HW257752   7.199   1.821   8.866
18771SOL     OW57753   7.437   0.194   8.412
18771SOL    HW157754   7.444   0.100   8.425
18771SOL    HW257755   7.357   0.205   8.361
18772SOL     OW57756   5.868   0.348   8.155
18772SOL    HW157757   5.814   0.422   8.130
18772SOL    HW257758   5.848   0.333   8.247
18773SOL     OW57759   6.797   1.599   7.482
18773SOL    HW157760   6.783   1.507   7.507
18773SOL    HW257761   6.730   1.616   7.416
18774SOL     OW57762   6.410   1.015   8.818
18774SOL    HW157763   6.420   1.014   8.722
18774SOL    HW257764   6.402   1.108   8.839
18775SOL     OW57765   6.505   0.909   7.746
18775SOL    HW157766   6.562   0.942   7.677
18775SOL    HW257767   6.557   0.841   7.789
18776SOL     OW57768   7.076   1.624   7.498
18776SOL    HW157769   6.982   1.618   7.483
18776SOL    HW257770   7.114   1.633   7.410
18777SOL     OW57771   5.953   1.308   8.945
18777SOL    HW157772   5.939   1.383   8.888
18777SOL    HW257773   5.878   1.250   8.928
18778SOL     OW57774   7.179   1.279   8.723
18778SOL    HW157775   7.266   1.284   8.763
18778SOL    HW257776   7.128   1.348   8.767
18779SOL     OW57777   6.651   1.118   8.168
18779SOL    HW157778   6.575   1.070   8.202
18779SOL    HW257779   6.710   1.050   8.137
18780SOL     OW57780   6.627   0.267   8.398
18780SOL    HW157781   6.597   0.214   8.324
18780SOL    HW257782   6.630   0.205   8.472
18781SOL     OW57783   6.198   1.494   7.934
18781SOL    HW157784   6.241   1.443   7.865
18781SOL    HW257785   6.121   1.532   7.892
18782SOL     OW57786   7.307   0.449   8.804
18782SOL    HW157787   7.392   0.486   8.829
18782SOL    HW257788   7.329   0.362   8.768
18783SOL     OW57789   5.862   1.333   7.756
18783SOL    HW157790   5.774   1.332   7.718
18783SOL    HW257791   5.853   1.382   7.838
18784SOL     OW57792   5.712   1.040   9.191
18784SOL    HW157793   5.631   1.011   9.233
18784SOL    HW257794   5.780   0.985   9.229
18785SOL     OW57795   6.258   0.222   8.958
18785SOL    HW157796   6.331   0.173   8.919
18785SOL    HW257797   6.289   0.247   9.044
18786SOL     OW57798   5.668   0.326   7.477
18786SOL    HW157799   5.574   0.315   7.464
18786SOL    HW257800   5.690   0.405   7.428
18787SOL     OW57801   7.010   0.861   8.852
18787SOL    HW157802   6.963   0.921   8.793
18787SOL    HW257803   7.102   0.881   8.838
18788SOL     OW57804   5.654   0.202   7.746
18788SOL    HW157805   5.654   0.262   7.671
18788SOL    HW257806   5.719   0.136   7.724
18789SOL     OW57807   6.758   1.331   7.563
18789SOL    HW157808   6.663   1.321   7.557
18789SOL    HW257809   6.777   1.331   7.656
18790SOL     OW57810   6.206   0.846   8.897
18790SOL    HW157811   6.259   0.921   8.870
18790SOL    HW257812   6.268   0.773   8.900
18791SOL     OW57813   7.069   1.803   8.438
18791SOL    HW157814   7.088   1.865   8.367
18791SOL    HW257815   7.152   1.758   8.453
18792SOL     OW57816   6.300   0.553   9.149
18792SOL    HW157817   6.348   0.613   9.206
18792SOL    HW257818   6.321   0.466   9.183
18793SOL     OW57819   7.063   1.186   9.076
18793SOL    HW157820   7.053   1.211   9.168
18793SOL    HW257821   7.153   1.208   9.054
18794SOL     OW57822   5.956   1.746   9.017
18794SOL    HW157823   5.877   1.794   8.993
18794SOL    HW257824   5.924   1.662   9.050
18795SOL     OW57825   7.209   0.824   8.621
18795SOL    HW157826   7.123   0.843   8.583
18795SOL    HW257827   7.259   0.905   8.609
18796SOL     OW57828   6.809   0.324   7.904
18796SOL    HW157829   6.875   0.255   7.890
18796SOL    HW257830   6.841   0.371   7.981
18797SOL     OW57831   6.163   0.741   8.138
18797SOL    HW157832   6.207   0.823   8.118
18797SOL    HW257833   6.105   0.727   8.063
18798SOL     OW57834   7.326   0.382   9.105
18798SOL    HW157835   7.328   0.395   9.010
18798SOL    HW257836   7.258   0.316   9.118
18799SOL     OW57837   7.303   0.945   8.930
18799SOL    HW157838   7.303   1.036   8.961
18799SOL    HW257839   7.372   0.942   8.864
18800SOL     OW57840   6.472   1.366   7.508
18800SOL    HW157841   6.420   1.387   7.585
18800SOL    HW257842   6.470   1.446   7.455
18801SOL     OW57843   6.256   1.785   8.393
18801SOL    HW157844   6.230   1.873   8.367
18801SOL    HW257845   6.349   1.780   8.374
18802SOL     OW57846   6.456   0.979   8.307
18802SOL    HW157847   6.504   0.904   8.342
18802SOL    HW257848   6.421   1.024   8.384
18803SOL     OW57849   6.662   0.982   7.541
18803SOL    HW157850   6.640   1.040   7.468
18803SOL    HW257851   6.736   0.931   7.509
18804SOL     OW57852   7.433   1.554   8.284
18804SOL    HW157853   7.354   1.545   8.231
18804SOL    HW257854   7.431   1.480   8.344
18805SOL     OW57855   5.791   1.291   9.291
18805SOL    HW157856   5.757   1.217   9.241
18805SOL    HW257857   5.727   1.305   9.360
18806SOL     OW57858   5.668   1.245   8.120
18806SOL    HW157859   5.681   1.227   8.213
18806SOL    HW257860   5.734   1.192   8.075
18807SOL     OW57861   6.277   1.406   9.099
18807SOL    HW157862   6.188   1.374   9.115
18807SOL    HW257863   6.274   1.499   9.123
18808SOL     OW57864   7.412   0.231   8.689
18808SOL    HW157865   7.446   0.148   8.723
18808SOL    HW257866   7.424   0.224   8.594
18809SOL     OW57867   6.058   0.422   7.977
18809SOL    HW157868   6.048   0.363   7.902
18809SOL    HW257869   5.988   0.397   8.037
18810SOL     OW57870   7.271   1.494   8.542
18810SOL    HW157871   7.196   1.475   8.485
18810SOL    HW257872   7.275   1.420   8.603
18811SOL     OW57873   5.919   0.556   8.747
18811SOL    HW157874   5.980   0.496   8.790
18811SOL    HW257875   5.933   0.541   8.653
18812SOL     OW57876   6.418   1.591   8.111
18812SOL    HW157877   6.407   1.669   8.057
18812SOL    HW257878   6.340   1.538   8.095
18813SOL     OW57879   7.034   0.257   8.581
18813SOL    HW157880   7.081   0.181   8.614
18813SOL    HW257881   6.974   0.282   8.651
18814SOL     OW57882   6.594   0.076   8.588
18814SOL    HW157883   6.508   0.065   8.547
18814SOL    HW257884   6.619  -0.013   8.615
18815SOL     OW57885   6.359   1.333   7.771
18815SOL    HW157886   6.331   1.242   7.781
18815SOL    HW257887   6.440   1.339   7.823
18816SOL     OW57888   6.209   1.557   8.752
18816SOL    HW157889   6.210   1.639   8.801
18816SOL    HW257890   6.293   1.555   8.707
18817SOL     OW57891   6.942   7.996   7.575
18817SOL    HW157892   7.005   7.925   7.590
18817SOL    HW257893   6.864   7.969   7.624
18818SOL     OW57894   6.890   0.471   8.130
18818SOL    HW157895   6.833   0.548   8.125
18818SOL    HW257896   6.876   0.436   8.218
18819SOL     OW57897   7.199   0.221   8.289
18819SOL    HW157898   7.129   0.174   8.333
18819SOL    HW257899   7.161   0.306   8.267
18820SOL     OW57900   5.626   1.053   7.769
18820SOL    HW157901   5.719   1.049   7.747
18820SOL    HW257902   5.603   0.964   7.795
18821SOL     OW57903   6.474   1.666   7.779
18821SOL    HW157904   6.400   1.649   7.722
18821SOL    HW257905   6.445   1.737   7.836
18822SOL     OW57906   5.799   0.626   9.447
18822SOL    HW157907   5.708   0.620   9.477
18822SOL    HW257908   5.793   0.614   9.352
18823SOL     OW57909   5.810   0.299  10.294
18823SOL    HW157910   5.837   0.263  10.379
18823SOL    HW257911   5.728   0.253  10.274
18824SOL     OW57912   5.603   0.399   9.934
18824SOL    HW157913   5.516   0.412   9.971
18824SOL    HW257914   5.590   0.335   9.864
18825SOL     OW57915   6.144   1.270  10.486
18825SOL    HW157916   6.068   1.292  10.431
18825SOL    HW257917   6.152   1.345  10.545
18826SOL     OW57918   7.137   1.517  10.016
18826SOL    HW157919   7.075   1.505  10.089
18826SOL    HW257920   7.081   1.525   9.939
18827SOL     OW57921   6.693   0.716   9.985
18827SOL    HW157922   6.751   0.792   9.976
18827SOL    HW257923   6.658   0.723  10.074
18828SOL     OW57924   7.344   0.613   9.543
18828SOL    HW157925   7.321   0.607   9.450
18828SOL    HW257926   7.321   0.527   9.579
18829SOL     OW57927   6.340   1.134  10.365
18829SOL    HW157928   6.267   1.167  10.418
18829SOL    HW257929   6.374   1.211  10.320
18830SOL     OW57930   6.470   0.753  11.130
18830SOL    HW157931   6.448   0.823  11.193
18830SOL    HW257932   6.489   0.800  11.049
18831SOL     OW57933   6.274   0.987   9.957
18831SOL    HW157934   6.337   0.989  10.029
18831SOL    HW257935   6.203   1.045   9.985
18832SOL     OW57936   6.303   1.155  11.139
18832SOL    HW157937   6.351   1.235  11.161
18832SOL    HW257938   6.222   1.185  11.100
18833SOL     OW57939   5.943   1.358  10.325
18833SOL    HW157940   5.848   1.354  10.321
18833SOL    HW257941   5.965   1.447  10.296
18834SOL     OW57942   7.039   1.511  10.678
18834SOL    HW157943   7.091   1.590  10.692
18834SOL    HW257944   6.964   1.522  10.737
18835SOL     OW57945   6.030   0.382  10.776
18835SOL    HW157946   6.113   0.335  10.785
18835SOL    HW257947   5.963   0.318  10.798
18836SOL     OW57948   7.198   0.455  10.026
18836SOL    HW157949   7.149   0.491   9.952
18836SOL    HW257950   7.220   0.530  10.080
18837SOL     OW57951   5.808   1.720   9.775
18837SOL    HW157952   5.831   1.796   9.829
18837SOL    HW257953   5.879   1.714   9.711
18838SOL     OW57954   6.724   1.338  11.000
18838SOL    HW157955   6.760   1.332  11.089
18838SOL    HW257956   6.671   1.259  10.990
18839SOL     OW57957   5.814   1.453   9.852
18839SOL    HW157958   5.800   1.547   9.844
18839SOL    HW257959   5.757   1.426   9.924
18840SOL     OW57960   5.846   1.094  10.183
18840SOL    HW157961   5.844   1.008  10.226
18840SOL    HW257962   5.808   1.154  10.248
18841SOL     OW57963   6.234   1.795  10.783
18841SOL    HW157964   6.143   1.766  10.781
18841SOL    HW257965   6.229   1.890  10.788
18842SOL     OW57966   6.177   0.988   9.457
18842SOL    HW157967   6.216   1.042   9.388
18842SOL    HW257968   6.218   1.019   9.538
18843SOL     OW57969   7.235   0.124  10.796
18843SOL    HW157970   7.173   0.101  10.728
18843SOL    HW257971   7.181   0.163  10.866
18844SOL     OW57972   5.715   0.658   9.875
18844SOL    HW157973   5.682   0.570   9.895
18844SOL    HW257974   5.701   0.708   9.956
18845SOL     OW57975   7.423   1.760   9.642
18845SOL    HW157976   7.495   1.737   9.701
18845SOL    HW257977   7.443   1.848   9.613
18846SOL     OW57978   5.631   1.587   9.434
18846SOL    HW157979   5.611   1.495   9.454
18846SOL    HW257980   5.602   1.635   9.511
18847SOL     OW57981   7.288   0.923   9.953
18847SOL    HW157982   7.348   0.864   9.907
18847SOL    HW257983   7.249   0.976   9.883
18848SOL     OW57984   7.229   1.100   9.740
18848SOL    HW157985   7.316   1.099   9.699
18848SOL    HW257986   7.235   1.169   9.806
18849SOL     OW57987   5.698   0.755  10.886
18849SOL    HW157988   5.783   0.799  10.893
18849SOL    HW257989   5.635   0.827  10.876
18850SOL     OW57990   6.203   1.394  10.049
18850SOL    HW157991   6.156   1.311  10.057
18850SOL    HW257992   6.184   1.424   9.960
18851SOL     OW57993   6.869   1.238  10.727
18851SOL    HW157994   6.897   1.170  10.667
18851SOL    HW257995   6.925   1.228  10.804
18852SOL     OW57996   6.391   0.054   9.914
18852SOL    HW157997   6.442   0.122   9.870
18852SOL    HW257998   6.332   0.021   9.847
18853SOL     OW57999   5.769   0.954  10.602
18853SOL    HW158000   5.856   0.920  10.581
18853SOL    HW258001   5.713   0.922  10.531
18854SOL     OW58002   7.114   1.002   9.508
18854SOL    HW158003   7.048   0.939   9.539
18854SOL    HW258004   7.155   1.034   9.588
18855SOL     OW58005   6.781   1.824  10.943
18855SOL    HW158006   6.775   1.886  10.870
18855SOL    HW258007   6.788   1.738  10.901
18856SOL     OW58008   5.878   0.247  11.086
18856SOL    HW158009   5.939   0.313  11.120
18856SOL    HW258010   5.798   0.261  11.136
18857SOL     OW58011   7.085   1.392  10.288
18857SOL    HW158012   7.009   1.426  10.334
18857SOL    HW258013   7.052   1.318  10.237
18858SOL     OW58014   7.254   1.749   9.895
18858SOL    HW158015   7.239   1.730   9.802
18858SOL    HW258016   7.212   1.677   9.941
18859SOL     OW58017   6.179   0.734   9.583
18859SOL    HW158018   6.169   0.816   9.534
18859SOL    HW258019   6.112   0.739   9.652
18860SOL     OW58020   6.880   0.381  10.244
18860SOL    HW158021   6.790   0.347  10.250
18860SOL    HW258022   6.930   0.327  10.305
18861SOL     OW58023   7.163   1.676   9.620
18861SOL    HW158024   7.253   1.705   9.609
18861SOL    HW258025   7.131   1.662   9.531
18862SOL     OW58026   6.352   0.645  10.749
18862SOL    HW158027   6.344   0.610  10.838
18862SOL    HW258028   6.345   0.568  10.692
18863SOL     OW58029   6.993   0.488  10.988
18863SOL    HW158030   6.997   0.529  11.075
18863SOL    HW258031   7.053   0.414  10.994
18864SOL     OW58032   6.534   0.884  10.890
18864SOL    HW158033   6.579   0.810  10.850
18864SOL    HW258034   6.486   0.924  10.817
18865SOL     OW58035   6.593   0.414  10.515
18865SOL    HW158036   6.507   0.432  10.552
18865SOL    HW258037   6.575   0.382  10.426
18866SOL     OW58038   5.673   0.817  10.093
18866SOL    HW158039   5.754   0.817  10.144
18866SOL    HW258040   5.624   0.892  10.125
18867SOL     OW58041   5.711   1.884  10.899
18867SOL    HW158042   5.710   1.860  10.992
18867SOL    HW258043   5.638   1.835  10.861
18868SOL     OW58044   6.473   0.357   9.523
18868SOL    HW158045   6.517   0.404   9.451
18868SOL    HW258046   6.453   0.271   9.487
18869SOL     OW58047   7.303   0.576  11.139
18869SOL    HW158048   7.265   0.650  11.092
18869SOL    HW258049   7.323   0.512  11.071
18870SOL     OW58050   6.966   1.142   9.849
18870SOL    HW158051   7.043   1.131   9.794
18870SOL    HW258052   6.912   1.207   9.803
18871SOL     OW58053   6.138   0.233  10.242
18871SOL    HW158054   6.127   0.244  10.337
18871SOL    HW258055   6.116   0.319  10.205
18872SOL     OW58056   6.584   1.451   9.776
18872SOL    HW158057   6.556   1.523   9.720
18872SOL    HW258058   6.547   1.472   9.862
18873SOL     OW58059   5.935   1.819  10.182
18873SOL    HW158060   5.977   1.733  10.189
18873SOL    HW258061   6.005   1.882  10.201
18874SOL     OW58062   7.392   1.052  10.172
18874SOL    HW158063   7.347   1.015  10.095
18874SOL    HW258064   7.323   1.063  10.237
18875SOL     OW58065   6.806   1.546  10.822
18875SOL    HW158066   6.795   1.468  10.876
18875SOL    HW258067   6.727   1.550  10.769
18876SOL     OW58068   5.897   0.957   9.565
18876SOL    HW158069   5.974   0.985   9.516
18876SOL    HW258070   5.863   0.882   9.516
18877SOL     OW58071   7.061   0.775  10.046
18877SOL    HW158072   7.064   0.719  10.123
18877SOL    HW258073   7.150   0.811  10.039
18878SOL     OW58074   6.050   1.266  11.068
18878SOL    HW158075   6.031   1.265  10.974
18878SOL    HW258076   5.964   1.259  11.110
18879SOL     OW58077   6.720   1.764   9.551
18879SOL    HW158078   6.635   1.734   9.582
18879SOL    HW258079   6.740   1.707   9.477
18880SOL     OW58080   5.771   0.246  10.825
18880SOL    HW158081   5.703   0.314  10.819
18880SOL    HW258082   5.799   0.249  10.916
18881SOL     OW58083   7.220   1.388   9.419
18881SOL    HW158084   7.182   1.473   9.396
18881SOL    HW258085   7.155   1.324   9.390
18882SOL     OW58086   6.049   1.739   9.624
18882SOL    HW158087   6.098   1.794   9.686
18882SOL    HW258088   6.116   1.702   9.567
18883SOL     OW58089   7.008   0.134   9.723
18883SOL    HW158090   7.015   0.104   9.633
18883SOL    HW258091   7.099   0.139   9.754
18884SOL     OW58092   5.838   1.804  10.520
18884SOL    HW158093   5.885   1.733  10.562
18884SOL    HW258094   5.817   1.770  10.433
18885SOL     OW58095   6.525   1.698  10.201
18885SOL    HW158096   6.533   1.639  10.276
18885SOL    HW258097   6.496   1.643  10.129
18886SOL     OW58098   5.990   0.696   9.787
18886SOL    HW158099   5.998   0.602   9.796
18886SOL    HW258100   5.897   0.714   9.798
18887SOL     OW58101   7.122   0.224  11.034
18887SOL    HW158102   7.136   0.258  11.122
18887SOL    HW258103   7.047   0.166  11.041
18888SOL     OW58104   6.188   0.141   9.414
18888SOL    HW158105   6.263   0.097   9.454
18888SOL    HW258106   6.164   0.084   9.341
18889SOL     OW58107   6.330   0.286  11.087
18889SOL    HW158108   6.363   0.196  11.076
18889SOL    HW258109   6.267   0.280  11.159
18890SOL     OW58110   6.524   1.545  10.435
18890SOL    HW158111   6.469   1.481  10.390
18890SOL    HW258112   6.559   1.498  10.510
18891SOL     OW58113   6.921   0.601  10.749
18891SOL    HW158114   6.959   0.569  10.831
18891SOL    HW258115   6.960   0.687  10.736
18892SOL     OW58116   6.407   1.376  10.248
18892SOL    HW158117   6.490   1.372  10.200
18892SOL    HW258118   6.341   1.386  10.180
18893SOL     OW58119   6.519   0.522  10.192
18893SOL    HW158120   6.497   0.517  10.099
18893SOL    HW258121   6.549   0.434  10.214
18894SOL     OW58122   6.172   0.036   9.750
18894SOL    HW158123   6.101  -0.025   9.768
18894SOL    HW258124   6.130   0.113   9.713
18895SOL     OW58125   7.019   1.212   9.350
18895SOL    HW158126   7.041   1.133   9.399
18895SOL    HW258127   6.930   1.234   9.379
18896SOL     OW58128   5.868   0.062   9.517
18896SOL    HW158129   5.915   0.106   9.447
18896SOL    HW258130   5.903  -0.027   9.517
18897SOL     OW58131   6.532   0.261   9.786
18897SOL    HW158132   6.502   0.274   9.696
18897SOL    HW258133   6.627   0.265   9.781
18898SOL     OW58134   6.656   0.667  10.771
18898SOL    HW158135   6.604   0.588  10.786
18898SOL    HW258136   6.746   0.636  10.766
18899SOL     OW58137   6.853   1.569  10.108
18899SOL    HW158138   6.848   1.631  10.036
18899SOL    HW258139   6.812   1.613  10.182
18900SOL     OW58140   6.063   1.152  10.027
18900SOL    HW158141   5.995   1.138  10.092
18900SOL    HW258142   6.019   1.144   9.943
18901SOL     OW58143   6.849   1.792   9.932
18901SOL    HW158144   6.895   1.853   9.874
18901SOL    HW258145   6.773   1.842   9.963
18902SOL     OW58146   6.595   0.540   9.344
18902SOL    HW158147   6.552   0.620   9.314
18902SOL    HW258148   6.673   0.571   9.390
18903SOL     OW58149   5.680   0.557  10.703
18903SOL    HW158150   5.772   0.561  10.676
18903SOL    HW258151   5.672   0.626  10.770
18904SOL     OW58152   6.151   0.235  10.517
18904SOL    HW158153   6.191   0.191  10.592
18904SOL    HW258154   6.057   0.229  10.533
18905SOL     OW58155   6.466   0.492   9.920
18905SOL    HW158156   6.382   0.515   9.880
18905SOL    HW258157   6.485   0.404   9.887
18906SOL     OW58158   6.572   0.031  10.115
18906SOL    HW158159   6.516   0.033  10.037
18906SOL    HW258160   6.607  -0.058  10.116
18907SOL     OW58161   7.023   1.156  10.156
18907SOL    HW158162   6.943   1.104  10.158
18907SOL    HW258163   7.042   1.166  10.063
18908SOL     OW58164   7.049   0.617  10.275
18908SOL    HW158165   6.999   0.535  10.268
18908SOL    HW258166   7.106   0.603  10.351
18909SOL     OW58167   7.421   0.809   9.714
18909SOL    HW158168   7.483   0.754   9.762
18909SOL    HW258169   7.394   0.755   9.640
18910SOL     OW58170   6.077   1.419   9.457
18910SOL    HW158171   6.005   1.388   9.511
18910SOL    HW258172   6.063   1.376   9.372
18911SOL     OW58173   7.243   1.270   9.948
18911SOL    HW158174   7.338   1.277   9.962
18911SOL    HW258175   7.209   1.357   9.968
18912SOL     OW58176   6.985   0.560   9.392
18912SOL    HW158177   6.946   0.473   9.407
18912SOL    HW258178   7.079   0.545   9.400
18913SOL     OW58179   6.094   0.277   9.624
18913SOL    HW158180   6.129   0.225   9.552
18913SOL    HW258181   6.073   0.362   9.585
18914SOL     OW58182   7.330   1.245  10.851
18914SOL    HW158183   7.417   1.206  10.843
18914SOL    HW258184   7.346   1.332  10.886
18915SOL     OW58185   6.635   1.360  10.634
18915SOL    HW158186   6.557   1.332  10.683
18915SOL    HW258187   6.707   1.318  10.680
18916SOL     OW58188   7.204   1.631  10.975
18916SOL    HW158189   7.190   1.667  10.888
18916SOL    HW258190   7.283   1.577  10.967
18917SOL     OW58191   6.731   1.225  10.407
18917SOL    HW158192   6.665   1.253  10.470
18917SOL    HW258193   6.699   1.257  10.322
18918SOL     OW58194   7.209   1.127  10.368
18918SOL    HW158195   7.169   1.146  10.452
18918SOL    HW258196   7.136   1.124  10.306
18919SOL     OW58197   6.504   0.125  10.714
18919SOL    HW158198   6.512   0.099  10.622
18919SOL    HW258199   6.595   0.124  10.747
18920SOL     OW58200   6.568   1.111  11.036
18920SOL    HW158201   6.477   1.125  11.061
18920SOL    HW258202   6.565   1.034  10.978
18921SOL     OW58203   6.327   1.049   9.686
18921SOL    HW158204   6.295   1.033   9.775
18921SOL    HW258205   6.406   0.995   9.680
18922SOL     OW58206   6.008   0.824  10.559
18922SOL    HW158207   6.070   0.842  10.630
18922SOL    HW258208   5.977   0.735  10.577
18923SOL     OW58209   6.845   0.382  10.607
18923SOL    HW158210   6.875   0.464  10.646
18923SOL    HW258211   6.760   0.403  10.570
18924SOL     OW58212   5.657   1.572  10.663
18924SOL    HW158213   5.633   1.643  10.603
18924SOL    HW258214   5.753   1.572  10.663
18925SOL     OW58215   5.928   1.123   9.790
18925SOL    HW158216   5.919   1.198   9.732
18925SOL    HW258217   5.921   1.047   9.733
18926SOL     OW58218   6.145   0.516  10.158
18926SOL    HW158219   6.149   0.583  10.090
18926SOL    HW258220   6.201   0.548  10.228
18927SOL     OW58221   6.830   1.347   9.712
18927SOL    HW158222   6.886   1.421   9.733
18927SOL    HW258223   6.742   1.374   9.739
18928SOL     OW58224   6.881   1.466  10.452
18928SOL    HW158225   6.920   1.467  10.539
18928SOL    HW258226   6.818   1.394  10.455
18929SOL     OW58227   7.156   0.627   9.804
18929SOL    HW158228   7.095   0.693   9.836
18929SOL    HW258229   7.204   0.670   9.733
18930SOL     OW58230   6.011   0.745  10.924
18930SOL    HW158231   6.065   0.795  10.863
18930SOL    HW258232   6.062   0.665  10.940
18931SOL     OW58233   7.208   0.790  11.002
18931SOL    HW158234   7.119   0.825  10.995
18931SOL    HW258235   7.254   0.826  10.927
18932SOL     OW58236   6.628   0.072  11.055
18932SOL    HW158237   6.642   0.165  11.037
18932SOL    HW258238   6.533   0.061  11.050
18933SOL     OW58239   6.091   0.050  11.021
18933SOL    HW158240   6.059  -0.018  10.962
18933SOL    HW258241   6.012   0.094  11.052
18934SOL     OW58242   6.173   0.874  10.345
18934SOL    HW158243   6.201   0.965  10.344
18934SOL    HW258244   6.114   0.868  10.420
18935SOL     OW58245   6.919   0.855  10.336
18935SOL    HW158246   6.832   0.838  10.301
18935SOL    HW258247   6.968   0.775  10.319
18936SOL     OW58248   6.760   0.563   9.648
18936SOL    HW158249   6.773   0.469   9.659
18936SOL    HW258250   6.841   0.595   9.608
18937SOL     OW58251   5.883   0.205  10.547
18937SOL    HW158252   5.822   0.214  10.620
18937SOL    HW258253   5.865   0.118  10.511
18938SOL     OW58254   5.616   1.310  10.587
18938SOL    HW158255   5.663   1.258  10.653
18938SOL    HW258256   5.633   1.401  10.613
18939SOL     OW58257   6.299   0.627  10.353
18939SOL    HW158258   6.380   0.627  10.303
18939SOL    HW258259   6.268   0.718  10.347
18940SOL     OW58260   7.333   0.973  11.169
18940SOL    HW158261   7.296   0.900  11.119
18940SOL    HW258262   7.270   0.988  11.240
18941SOL     OW58263   5.980   0.063  10.024
18941SOL    HW158264   5.927   0.142  10.012
18941SOL    HW258265   5.948   0.002   9.958
18942SOL     OW58266   7.218   0.398   9.666
18942SOL    HW158267   7.239   0.321   9.719
18942SOL    HW258268   7.188   0.463   9.729
18943SOL     OW58269   6.624   0.762  10.270
18943SOL    HW158270   6.609   0.774  10.364
18943SOL    HW258271   6.595   0.672  10.252
18944SOL     OW58272   6.576   1.566  11.037
18944SOL    HW158273   6.550   1.612  10.957
18944SOL    HW258274   6.617   1.485  11.005
18945SOL     OW58275   7.438   1.496  10.907
18945SOL    HW158276   7.458   1.524  10.817
18945SOL    HW258277   7.520   1.510  10.955
18946SOL     OW58278   5.940   0.915  11.127
18946SOL    HW158279   6.025   0.934  11.169
18946SOL    HW258280   5.960   0.851  11.059
18947SOL     OW58281   7.161   0.277   9.430
18947SOL    HW158282   7.185   0.188   9.456
18947SOL    HW258283   7.178   0.330   9.508
18948SOL     OW58284   6.872   0.812   9.344
18948SOL    HW158285   6.915   0.726   9.345
18948SOL    HW258286   6.902   0.852   9.262
18949SOL     OW58287   6.668   1.348  10.161
18949SOL    HW158288   6.667   1.272  10.103
18949SOL    HW258289   6.732   1.407  10.123
18950SOL     OW58290   5.895   0.815  10.256
18950SOL    HW158291   5.988   0.838  10.254
18950SOL    HW258292   5.894   0.726  10.291
18951SOL     OW58293   5.922   0.539  10.323
18951SOL    HW158294   5.878   0.456  10.307
18951SOL    HW258295   5.995   0.539  10.261
18952SOL     OW58296   6.746   0.358  11.019
18952SOL    HW158297   6.682   0.416  11.061
18952SOL    HW258298   6.823   0.414  11.004
18953SOL     OW58299   6.757   0.207  10.791
18953SOL    HW158300   6.753   0.260  10.871
18953SOL    HW258301   6.789   0.268  10.724
18954SOL     OW58302   5.604   1.311   9.497
18954SOL    HW158303   5.515   1.330   9.469
18954SOL    HW258304   5.598   1.224   9.537
18955SOL     OW58305   5.674   1.776  10.255
18955SOL    HW158306   5.643   1.700  10.206
18955SOL    HW258307   5.762   1.792  10.220
18956SOL     OW58308   6.075   1.586  10.213
18956SOL    HW158309   6.148   1.640  10.245
18956SOL    HW258310   6.117   1.518  10.159
18957SOL     OW58311   6.554   0.773  10.534
18957SOL    HW158312   6.610   0.747  10.607
18957SOL    HW258313   6.465   0.756  10.565
18958SOL     OW58314   5.623   0.552  10.429
18958SOL    HW158315   5.705   0.555  10.379
18958SOL    HW258316   5.650   0.549  10.520
18959SOL     OW58317   5.779   0.536  11.042
18959SOL    HW158318   5.849   0.533  10.976
18959SOL    HW258319   5.719   0.603  11.010
18960SOL     OW58320   6.972   0.926  10.967
18960SOL    HW158321   6.990   1.020  10.962
18960SOL    HW258322   6.963   0.899  10.876
18961SOL     OW58323   6.403   0.591   9.653
18961SOL    HW158324   6.412   0.510   9.603
18961SOL    HW258325   6.320   0.629   9.625
18962SOL     OW58326   7.225   0.613  10.491
18962SOL    HW158327   7.217   0.550  10.562
18962SOL    HW258328   7.312   0.598  10.454
18963SOL     OW58329   5.800   1.531  11.041
18963SOL    HW158330   5.797   1.599  11.108
18963SOL    HW258331   5.811   1.449  11.090
18964SOL     OW58332   6.320   0.451  10.560
18964SOL    HW158333   6.256   0.381  10.548
18964SOL    HW258334   6.302   0.513  10.489
18965SOL     OW58335   6.512   1.673  10.785
18965SOL    HW158336   6.440   1.630  10.740
18965SOL    HW258337   6.497   1.767  10.771
18966SOL     OW58338   6.039   0.508   9.501
18966SOL    HW158339   6.096   0.584   9.515
18966SOL    HW258340   5.953   0.546   9.485
18967SOL     OW58341   5.722   1.145  10.788
18967SOL    HW158342   5.726   1.103  10.874
18967SOL    HW258343   5.739   1.075  10.726
18968SOL     OW58344   6.918   1.055  10.517
18968SOL    HW158345   6.923   0.983  10.454
18968SOL    HW258346   6.851   1.114  10.481
18969SOL     OW58347   6.899   0.855   9.611
18969SOL    HW158348   6.819   0.898   9.639
18969SOL    HW258349   6.885   0.834   9.518
18970SOL     OW58350   7.353   1.744  10.464
18970SOL    HW158351   7.426   1.754  10.402
18970SOL    HW258352   7.275   1.752  10.410
18971SOL     OW58353   6.844   1.738  10.405
18971SOL    HW158354   6.936   1.755  10.382
18971SOL    HW258355   6.842   1.645  10.427
18972SOL     OW58356   5.671   1.267  10.322
18972SOL    HW158357   5.646   1.280  10.413
18972SOL    HW258358   5.606   1.204  10.288
18973SOL     OW58359   6.258   1.680  11.047
18973SOL    HW158360   6.180   1.736  11.052
18973SOL    HW258361   6.298   1.703  10.963
18974SOL     OW58362   7.282   0.158   9.788
18974SOL    HW158363   7.341   0.150   9.713
18974SOL    HW258364   7.334   0.131   9.863
18975SOL     OW58365   6.981   1.571   9.796
18975SOL    HW158366   7.037   1.604   9.726
18975SOL    HW258367   6.923   1.644   9.817
18976SOL     OW58368   5.719   1.805  11.156
18976SOL    HW158369   5.676   1.730  11.197
18976SOL    HW258370   5.765   1.848  11.228
18977SOL     OW58371   6.855   0.931   9.975
18977SOL    HW158372   6.930   0.876   9.998
18977SOL    HW258373   6.893   1.001   9.922
18978SOL     OW58374   6.391   1.296  10.743
18978SOL    HW158375   6.361   1.320  10.831
18978SOL    HW258376   6.343   1.356  10.685
18979SOL     OW58377   6.256   1.624   9.463
18979SOL    HW158378   6.267   1.642   9.370
18979SOL    HW258379   6.198   1.548   9.466
18980SOL     OW58380   7.210   1.728  10.708
18980SOL    HW158381   7.261   1.730  10.627
18980SOL    HW258382   7.195   1.820  10.729
18981SOL     OW58383   7.447   0.172  10.260
18981SOL    HW158384   7.472   0.110  10.191
18981SOL    HW258385   7.358   0.199  10.237
18982SOL     OW58386   5.849   0.311  10.022
18982SOL    HW158387   5.764   0.339   9.989
18982SOL    HW258388   5.841   0.316  10.117
18983SOL     OW58389   6.797   1.600   9.345
18983SOL    HW158390   6.784   1.507   9.365
18983SOL    HW258391   6.734   1.617   9.275
18984SOL     OW58392   6.405   1.026  10.685
18984SOL    HW158393   6.423   1.025  10.591
18984SOL    HW258394   6.394   1.118  10.707
18985SOL     OW58395   6.546   0.850   9.629
18985SOL    HW158396   6.588   0.905   9.563
18985SOL    HW258397   6.482   0.798   9.580
18986SOL     OW58398   7.076   1.633   9.359
18986SOL    HW158399   6.982   1.620   9.342
18986SOL    HW258400   7.115   1.639   9.272
18987SOL     OW58401   5.972   1.286  10.814
18987SOL    HW158402   5.972   1.368  10.765
18987SOL    HW258403   5.890   1.243  10.788
18988SOL     OW58404   7.197   1.308  10.595
18988SOL    HW158405   7.239   1.277  10.675
18988SOL    HW258406   7.130   1.370  10.625
18989SOL     OW58407   6.654   1.113  10.031
18989SOL    HW158408   6.579   1.065  10.066
18989SOL    HW258409   6.714   1.045  10.002
18990SOL     OW58410   6.610   0.265  10.261
18990SOL    HW158411   6.603   0.207  10.185
18990SOL    HW258412   6.610   0.206  10.336
18991SOL     OW58413   6.191   1.493   9.795
18991SOL    HW158414   6.240   1.440   9.733
18991SOL    HW258415   6.113   1.521   9.747
18992SOL     OW58416   7.305   0.427  10.685
18992SOL    HW158417   7.387   0.474  10.693
18992SOL    HW258418   7.326   0.349  10.633
18993SOL     OW58419   5.865   1.333   9.618
18993SOL    HW158420   5.780   1.333   9.574
18993SOL    HW258421   5.849   1.381   9.700
18994SOL     OW58422   5.707   1.043  11.047
18994SOL    HW158423   5.628   1.014  11.092
18994SOL    HW258424   5.777   0.990  11.085
18995SOL     OW58425   6.263   0.230  10.798
18995SOL    HW158426   6.340   0.178  10.772
18995SOL    HW258427   6.267   0.231  10.894
18996SOL     OW58428   5.668   0.337   9.338
18996SOL    HW158429   5.584   0.326   9.294
18996SOL    HW258430   5.706   0.416   9.299
18997SOL     OW58431   7.008   0.864  10.703
18997SOL    HW158432   6.956   0.922  10.648
18997SOL    HW258433   7.094   0.862  10.662
18998SOL     OW58434   5.647   0.209   9.613
18998SOL    HW158435   5.646   0.264   9.535
18998SOL    HW258436   5.725   0.154   9.603
18999SOL     OW58437   6.759   1.331   9.425
18999SOL    HW158438   6.664   1.325   9.417
18999SOL    HW258439   6.775   1.327   9.519
19000SOL     OW58440   6.194   0.857  10.751
19000SOL    HW158441   6.253   0.931  10.737
19000SOL    HW258442   6.252   0.780  10.752
19001SOL     OW58443   7.119   1.801  10.296
19001SOL    HW158444   7.091   1.763  10.213
19001SOL    HW258445   7.133   1.894  10.277
19002SOL     OW58446   6.305   0.558  11.005
19002SOL    HW158447   6.354   0.616  11.063
19002SOL    HW258448   6.322   0.470  11.038
19003SOL     OW58449   7.060   1.188  10.936
19003SOL    HW158450   7.048   1.208  11.029
19003SOL    HW258451   7.150   1.212  10.918
19004SOL     OW58452   5.965   1.773  10.880
19004SOL    HW158453   5.875   1.806  10.879
19004SOL    HW258454   5.961   1.693  10.828
19005SOL     OW58455   7.247   0.878  10.562
19005SOL    HW158456   7.243   0.786  10.535
19005SOL    HW258457   7.241   0.928  10.481
19006SOL     OW58458   6.801   0.311   9.772
19006SOL    HW158459   6.870   0.248   9.752
19006SOL    HW258460   6.835   0.362   9.846
19007SOL     OW58461   6.187   0.719   9.977
19007SOL    HW158462   6.220   0.809   9.972
19007SOL    HW258463   6.118   0.716   9.911
19008SOL     OW58464   7.342   0.381  10.952
19008SOL    HW158465   7.323   0.397  10.860
19008SOL    HW258466   7.281   0.313  10.978
19009SOL     OW58467   7.347   0.935  10.813
19009SOL    HW158468   7.317   1.024  10.828
19009SOL    HW258469   7.321   0.915  10.723
19010SOL     OW58470   6.479   1.375   9.371
19010SOL    HW158471   6.417   1.406   9.436
19010SOL    HW258472   6.484   1.445   9.306
19011SOL     OW58473   6.264   1.777  10.270
19011SOL    HW158474   6.233   1.863  10.241
19011SOL    HW258475   6.354   1.772  10.239
19012SOL     OW58476   6.458   0.975  10.168
19012SOL    HW158477   6.508   0.904  10.209
19012SOL    HW258478   6.417   1.020  10.242
19013SOL     OW58479   6.667   0.981   9.423
19013SOL    HW158480   6.635   1.037   9.351
19013SOL    HW258481   6.735   0.927   9.383
19014SOL     OW58482   7.376   1.495  10.201
19014SOL    HW158483   7.310   1.522  10.137
19014SOL    HW258484   7.439   1.445  10.150
19015SOL     OW58485   5.794   1.278  11.164
19015SOL    HW158486   5.762   1.204  11.113
19015SOL    HW258487   5.725   1.294  11.229
19016SOL     OW58488   5.678   1.223   9.979
19016SOL    HW158489   5.712   1.181  10.058
19016SOL    HW258490   5.737   1.197   9.909
19017SOL     OW58491   6.281   1.407  10.973
19017SOL    HW158492   6.192   1.374  10.980
19017SOL    HW258493   6.274   1.500  10.992
19018SOL     OW58494   7.408   0.226  10.535
19018SOL    HW158495   7.354   0.149  10.555
19018SOL    HW258496   7.431   0.216  10.443
19019SOL     OW58497   6.008   0.432   9.835
19019SOL    HW158498   6.010   0.374   9.759
19019SOL    HW258499   5.947   0.391   9.896
19020SOL     OW58500   5.930   0.566  10.603
19020SOL    HW158501   5.976   0.501  10.656
19020SOL    HW258502   5.944   0.537  10.513
19021SOL     OW58503   6.423   1.576   9.979
19021SOL    HW158504   6.400   1.647   9.918
19021SOL    HW258505   6.345   1.520   9.980
19022SOL     OW58506   7.004   0.237  10.436
19022SOL    HW158507   7.073   0.183  10.475
19022SOL    HW258508   6.963   0.280  10.511
19023SOL     OW58509   6.620   0.065  10.445
19023SOL    HW158510   6.593  -0.022  10.473
19023SOL    HW258511   6.714   0.057  10.430
19024SOL     OW58512   6.355   1.331   9.645
19024SOL    HW158513   6.337   1.237   9.646
19024SOL    HW258514   6.442   1.339   9.682
19025SOL     OW58515   6.267   1.509  10.618
19025SOL    HW158516   6.177   1.527  10.644
19025SOL    HW258517   6.284   1.570  10.547
19026SOL     OW58518   6.943   8.010   9.432
19026SOL    HW158519   7.012   7.946   9.452
19026SOL    HW258520   6.865   7.975   9.474
19027SOL     OW58521   6.869   0.471   9.983
19027SOL    HW158522   6.822   0.554   9.994
19027SOL    HW258523   6.882   0.440  10.072
19028SOL     OW58524   7.201   0.228  10.181
19028SOL    HW158525   7.118   0.185  10.202
19028SOL    HW258526   7.178   0.299  10.121
19029SOL     OW58527   5.628   1.062   9.627
19029SOL    HW158528   5.720   1.053   9.602
19029SOL    HW258529   5.599   0.973   9.647
19030SOL     OW58530   6.473   1.666   9.644
19030SOL    HW158531   6.398   1.650   9.586
19030SOL    HW258532   6.444   1.738   9.699
19031SOL     OW58533   5.797   0.627  11.306
19031SOL    HW158534   5.709   0.622  11.342
19031SOL    HW258535   5.788   0.602  11.215
19032SOL     OW58536   5.809   0.302  12.157
19032SOL    HW158537   5.845   0.258  12.234
19032SOL    HW258538   5.727   0.256  12.139
19033SOL     OW58539   5.597   0.392  11.805
19033SOL    HW158540   5.520   0.404  11.861
19033SOL    HW258541   5.561   0.382  11.717
19034SOL     OW58542   6.133   1.265  12.328
19034SOL    HW158543   6.054   1.292  12.281
19034SOL    HW258544   6.124   1.304  12.415
19035SOL     OW58545   7.165   1.520  11.885
19035SOL    HW158546   7.122   1.494  11.967
19035SOL    HW258547   7.094   1.527  11.822
19036SOL     OW58548   6.723   0.701  11.865
19036SOL    HW158549   6.766   0.786  11.857
19036SOL    HW258550   6.674   0.706  11.946
19037SOL     OW58551   7.373   0.608  11.396
19037SOL    HW158552   7.344   0.598  11.305
19037SOL    HW258553   7.337   0.531  11.441
19038SOL     OW58554   6.356   1.162  12.224
19038SOL    HW158555   6.274   1.191  12.264
19038SOL    HW258556   6.377   1.232  12.161
19039SOL     OW58557   6.274   0.998  11.821
19039SOL    HW158558   6.342   0.988  11.887
19039SOL    HW258559   6.206   1.049  11.865
19040SOL     OW58560   5.920   1.403  12.214
19040SOL    HW158561   5.836   1.358  12.204
19040SOL    HW258562   5.922   1.464  12.140
19041SOL     OW58563   7.188   0.450  11.891
19041SOL    HW158564   7.109   0.462  11.838
19041SOL    HW258565   7.214   0.539  11.916
19042SOL     OW58566   5.811   1.704  11.643
19042SOL    HW158567   5.828   1.783  11.693
19042SOL    HW258568   5.882   1.700  11.579
19043SOL     OW58569   5.837   1.447  11.747
19043SOL    HW158570   5.809   1.537  11.733
19043SOL    HW258571   5.763   1.405  11.791
19044SOL     OW58572   5.868   1.091  12.088
19044SOL    HW158573   5.858   1.002  12.122
19044SOL    HW258574   5.803   1.142  12.136
19045SOL     OW58575   6.164   0.984  11.315
19045SOL    HW158576   6.213   1.032  11.248
19045SOL    HW258577   6.201   1.015  11.398
19046SOL     OW58578   5.718   0.658  11.737
19046SOL    HW158579   5.685   0.570  11.757
19046SOL    HW258580   5.705   0.707  11.818
19047SOL     OW58581   7.423   1.753  11.493
19047SOL    HW158582   7.438   1.740  11.587
19047SOL    HW258583   7.451   1.843  11.476
19048SOL     OW58584   5.643   1.586  11.296
19048SOL    HW158585   5.607   1.498  11.308
19048SOL    HW258586   5.608   1.636  11.370
19049SOL     OW58587   7.279   0.925  11.821
19049SOL    HW158588   7.349   0.867  11.792
19049SOL    HW258589   7.253   0.972  11.742
19050SOL     OW58590   7.236   1.104  11.604
19050SOL    HW158591   7.321   1.098  11.560
19050SOL    HW258592   7.247   1.173  11.669
19051SOL     OW58593   5.756   0.755   0.219
19051SOL    HW158594   5.730   0.714   0.301
19051SOL    HW258595   5.677   0.800   0.188
19052SOL     OW58596   5.787   0.989  12.399
19052SOL    HW158597   5.863   0.930  12.403
19052SOL    HW258598   5.716   0.939  12.438
19053SOL     OW58599   7.119   1.005  11.371
19053SOL    HW158600   7.050   0.945  11.399
19053SOL    HW258601   7.158   1.036  11.453
19054SOL     OW58602   7.062   1.407  12.119
19054SOL    HW158603   6.992   1.425  12.182
19054SOL    HW258604   7.044   1.319  12.086
19055SOL     OW58605   7.260   1.752  11.735
19055SOL    HW158606   7.213   1.722  11.657
19055SOL    HW258607   7.238   1.687  11.802
19056SOL     OW58608   6.177   0.719  11.447
19056SOL    HW158609   6.173   0.803  11.401
19056SOL    HW258610   6.111   0.726  11.516
19057SOL     OW58611   6.888   0.384  12.107
19057SOL    HW158612   6.799   0.348  12.109
19057SOL    HW258613   6.937   0.329  12.169
19058SOL     OW58614   7.157   1.676  11.482
19058SOL    HW158615   7.248   1.702  11.467
19058SOL    HW258616   7.122   1.659  11.394
19059SOL     OW58617   6.576   0.407  12.387
19059SOL    HW158618   6.484   0.425  12.403
19059SOL    HW258619   6.576   0.326  12.335
19060SOL     OW58620   6.642   0.699  11.597
19060SOL    HW158621   6.661   0.691  11.691
19060SOL    HW258622   6.557   0.657  11.586
19061SOL     OW58623   5.681   0.827  11.951
19061SOL    HW158624   5.759   0.820  12.006
19061SOL    HW258625   5.631   0.899  11.988
19062SOL     OW58626   6.478   0.357  11.384
19062SOL    HW158627   6.524   0.408  11.317
19062SOL    HW258628   6.446   0.279  11.337
19063SOL     OW58629   6.975   1.149  11.718
19063SOL    HW158630   7.050   1.131  11.662
19063SOL    HW258631   6.919   1.207  11.666
19064SOL     OW58632   6.138   0.249  12.095
19064SOL    HW158633   6.128   0.263  12.189
19064SOL    HW258634   6.133   0.336  12.057
19065SOL     OW58635   6.591   1.450  11.636
19065SOL    HW158636   6.557   1.525  11.587
19065SOL    HW258637   6.550   1.457  11.722
19066SOL     OW58638   5.944   1.806  12.034
19066SOL    HW158639   5.994   1.725  12.038
19066SOL    HW258640   6.005   1.874  12.062
19067SOL     OW58641   7.389   1.077  12.026
19067SOL    HW158642   7.342   1.037  11.953
19067SOL    HW258643   7.325   1.077  12.098
19068SOL     OW58644   5.893   0.953  11.427
19068SOL    HW158645   5.967   0.972  11.369
19068SOL    HW258646   5.859   0.869  11.395
19069SOL     OW58647   7.062   0.766  11.902
19069SOL    HW158648   7.060   0.718  11.985
19069SOL    HW258649   7.146   0.813  11.904
19070SOL     OW58650   6.716   1.768  11.409
19070SOL    HW158651   6.635   1.734  11.446
19070SOL    HW258652   6.738   1.708  11.339
19071SOL     OW58653   7.227   1.388  11.269
19071SOL    HW158654   7.183   1.472  11.255
19071SOL    HW258655   7.161   1.322  11.247
19072SOL     OW58656   6.064   1.715  11.505
19072SOL    HW158657   6.102   1.788  11.554
19072SOL    HW258658   6.127   1.700  11.434
19073SOL     OW58659   7.012   0.138  11.584
19073SOL    HW158660   7.025   0.101  11.497
19073SOL    HW258661   7.101   0.145  11.620
19074SOL     OW58662   5.844   1.755  12.411
19074SOL    HW158663   5.778   1.739  12.478
19074SOL    HW258664   5.794   1.757  12.329
19075SOL     OW58665   6.532   1.696  12.066
19075SOL    HW158666   6.615   1.649  12.066
19075SOL    HW258667   6.474   1.642  12.012
19076SOL     OW58668   5.989   0.690  11.652
19076SOL    HW158669   6.010   0.598  11.666
19076SOL    HW258670   5.894   0.695  11.667
19077SOL     OW58671   6.214   0.115  11.291
19077SOL    HW158672   6.259   0.060  11.227
19077SOL    HW258673   6.124   0.082  11.292
19078SOL     OW58674   6.396   1.386  12.058
19078SOL    HW158675   6.491   1.373  12.056
19078SOL    HW258676   6.378   1.443  11.983
19079SOL     OW58677   6.516   0.529  12.064
19079SOL    HW158678   6.489   0.517  11.973
19079SOL    HW258679   6.552   0.444  12.090
19080SOL     OW58680   6.162   0.034  11.607
19080SOL    HW158681   6.094  -0.024  11.642
19080SOL    HW258682   6.114   0.112  11.578
19081SOL     OW58683   7.022   1.211  11.211
19081SOL    HW158684   7.047   1.133  11.261
19081SOL    HW258685   6.934   1.232  11.241
19082SOL     OW58686   5.955   0.031  11.360
19082SOL    HW158687   5.889   0.101  11.361
19082SOL    HW258688   5.926  -0.030  11.428
19083SOL     OW58689   6.535   0.262  11.638
19083SOL    HW158690   6.512   0.293  11.550
19083SOL    HW258691   6.630   0.273  11.643
19084SOL     OW58692   6.795   1.589  11.976
19084SOL    HW158693   6.808   1.646  11.899
19084SOL    HW258694   6.869   1.608  12.032
19085SOL     OW58695   6.044   1.139  11.895
19085SOL    HW158696   5.991   1.128  11.974
19085SOL    HW258697   6.003   1.082  11.830
19086SOL     OW58698   6.842   1.791  11.785
19086SOL    HW158699   6.891   1.852  11.730
19086SOL    HW258700   6.772   1.844  11.823
19087SOL     OW58701   6.610   0.523  11.200
19087SOL    HW158702   6.568   0.606  11.178
19087SOL    HW258703   6.673   0.544  11.268
19088SOL     OW58704   6.151   0.247  12.366
19088SOL    HW158705   6.188   0.183  12.426
19088SOL    HW258706   6.057   0.243  12.381
19089SOL     OW58707   6.457   0.477  11.804
19089SOL    HW158708   6.416   0.529  11.734
19089SOL    HW258709   6.480   0.394  11.762
19090SOL     OW58710   6.551   0.040  11.913
19090SOL    HW158711   6.625   0.010  11.859
19090SOL    HW258712   6.543  -0.027  11.981
19091SOL     OW58713   7.015   1.155  12.013
19091SOL    HW158714   6.942   1.094  12.020
19091SOL    HW258715   7.029   1.166  11.919
19092SOL     OW58716   7.046   0.624  12.140
19092SOL    HW158717   6.999   0.541  12.133
19092SOL    HW258718   7.114   0.607  12.205
19093SOL     OW58719   7.421   0.811  11.567
19093SOL    HW158720   7.476   0.759  11.625
19093SOL    HW258721   7.396   0.750  11.496
19094SOL     OW58722   6.079   1.419  11.317
19094SOL    HW158723   6.000   1.395  11.367
19094SOL    HW258724   6.071   1.370  11.235
19095SOL     OW58725   7.283   1.284  11.796
19095SOL    HW158726   7.364   1.281  11.848
19095SOL    HW258727   7.241   1.366  11.822
19096SOL     OW58728   6.988   0.571  11.249
19096SOL    HW158729   6.917   0.549  11.309
19096SOL    HW258730   7.060   0.513  11.274
19097SOL     OW58731   6.109   0.282  11.485
19097SOL    HW158732   6.150   0.227  11.418
19097SOL    HW258733   6.078   0.358  11.437
19098SOL     OW58734   6.703   1.236  12.292
19098SOL    HW158735   6.618   1.223  12.335
19098SOL    HW258736   6.682   1.263  12.203
19099SOL     OW58737   7.202   1.098  12.224
19099SOL    HW158738   7.162   1.120  12.308
19099SOL    HW258739   7.132   1.113  12.160
19100SOL     OW58740   6.297   1.061  11.549
19100SOL    HW158741   6.284   1.036  11.640
19100SOL    HW258742   6.373   1.011  11.520
19101SOL     OW58743   6.020   0.821  12.438
19101SOL    HW158744   6.066   0.846  12.518
19101SOL    HW258745   5.979   0.737  12.460
19102SOL     OW58746   6.839   0.368  12.442
19102SOL    HW158747   6.879   0.449  12.475
19102SOL    HW258748   6.752   0.394  12.414
19103SOL     OW58749   5.948   1.141  11.626
19103SOL    HW158750   5.909   1.201  11.563
19103SOL    HW258751   5.943   1.055  11.584
19104SOL     OW58752   6.139   0.520  12.034
19104SOL    HW158753   6.150   0.582  11.961
19104SOL    HW258754   6.200   0.552  12.101
19105SOL     OW58755   6.837   1.349  11.567
19105SOL    HW158756   6.892   1.421  11.598
19105SOL    HW258757   6.749   1.373  11.594
19106SOL     OW58758   6.875   1.448  12.314
19106SOL    HW158759   6.925   1.441  12.396
19106SOL    HW258760   6.814   1.374  12.317
19107SOL     OW58761   7.154   0.633  11.662
19107SOL    HW158762   7.097   0.682  11.721
19107SOL    HW258763   7.175   0.696  11.592
19108SOL     OW58764   5.999   1.525  12.448
19108SOL    HW158765   5.965   1.476  12.374
19108SOL    HW258766   5.952   1.608  12.445
19109SOL     OW58767   6.167   0.877  12.215
19109SOL    HW158768   6.169   0.972  12.215
19109SOL    HW258769   6.115   0.854  12.292
19110SOL     OW58770   6.904   0.845  12.236
19110SOL    HW158771   6.820   0.830  12.191
19110SOL    HW258772   6.960   0.774  12.204
19111SOL     OW58773   6.779   0.531  11.425
19111SOL    HW158774   6.790   0.449  11.472
19111SOL    HW258775   6.737   0.590  11.489
19112SOL     OW58776   5.889   0.191  12.397
19112SOL    HW158777   5.815   0.192  12.459
19112SOL    HW258778   5.886   0.103  12.358
19113SOL     OW58779   5.676   1.333  12.444
19113SOL    HW158780   5.672   1.256  12.501
19113SOL    HW258781   5.659   1.407  12.502
19114SOL     OW58782   6.304   0.632  12.222
19114SOL    HW158783   6.379   0.621  12.164
19114SOL    HW258784   6.274   0.722  12.206
19115SOL     OW58785   5.997   0.097  11.864
19115SOL    HW158786   5.946   0.177  11.877
19115SOL    HW258787   5.935   0.036  11.823
19116SOL     OW58788   7.234   0.406  11.530
19116SOL    HW158789   7.247   0.328  11.584
19116SOL    HW258790   7.200   0.472  11.591
19117SOL     OW58791   6.624   0.768  12.137
19117SOL    HW158792   6.606   0.783  12.230
19117SOL    HW258793   6.591   0.679  12.121
19118SOL     OW58794   7.182   0.301  11.286
19118SOL    HW158795   7.155   0.214  11.315
19118SOL    HW258796   7.205   0.348  11.366
19119SOL     OW58797   6.880   0.824  11.205
19119SOL    HW158798   6.921   0.738  11.211
19119SOL    HW258799   6.910   0.858  11.120
19120SOL     OW58800   6.663   1.345  12.040
19120SOL    HW158801   6.668   1.272  11.979
19120SOL    HW258802   6.719   1.412  12.002
19121SOL     OW58803   5.900   0.815  12.115
19121SOL    HW158804   5.995   0.830  12.118
19121SOL    HW258805   5.890   0.723  12.140
19122SOL     OW58806   5.901   0.549  12.162
19122SOL    HW158807   5.868   0.459  12.161
19122SOL    HW258808   5.984   0.545  12.115
19123SOL     OW58809   6.769   0.191   0.138
19123SOL    HW158810   6.733   0.246   0.208
19123SOL    HW258811   6.794   0.253   0.069
19124SOL     OW58812   5.604   1.306  11.362
19124SOL    HW158813   5.515   1.326  11.332
19124SOL    HW258814   5.597   1.220  11.402
19125SOL     OW58815   5.685   1.775  12.126
19125SOL    HW158816   5.649   1.700  12.078
19125SOL    HW258817   5.771   1.790  12.088
19126SOL     OW58818   6.107   1.576  12.063
19126SOL    HW158819   6.166   1.648  12.085
19126SOL    HW258820   6.143   1.501  12.111
19127SOL     OW58821   6.560   0.812  12.398
19127SOL    HW158822   6.587   0.743  12.458
19127SOL    HW258823   6.470   0.832  12.424
19128SOL     OW58824   5.662   0.548  12.320
19128SOL    HW158825   5.730   0.558  12.253
19128SOL    HW258826   5.648   0.454  12.327
19129SOL     OW58827   6.401   0.578  11.545
19129SOL    HW158828   6.409   0.502  11.487
19129SOL    HW258829   6.325   0.625  11.512
19130SOL     OW58830   7.251   0.618  12.332
19130SOL    HW158831   7.235   0.569  12.413
19130SOL    HW258832   7.341   0.597  12.309
19131SOL     OW58833   6.319   0.459  12.435
19131SOL    HW158834   6.252   0.392  12.419
19131SOL    HW258835   6.300   0.526  12.369
19132SOL     OW58836   6.492   1.653   0.104
19132SOL    HW158837   6.465   1.718   0.039
19132SOL    HW258838   6.565   1.695   0.150
19133SOL     OW58839   6.041   0.500  11.340
19133SOL    HW158840   6.098   0.573  11.367
19133SOL    HW258841   5.954   0.539  11.332
19134SOL     OW58842   6.938   1.095  12.353
19134SOL    HW158843   6.932   1.009  12.312
19134SOL    HW258844   6.854   1.136  12.336
19135SOL     OW58845   6.907   0.856  11.479
19135SOL    HW158846   6.834   0.820  11.529
19135SOL    HW258847   6.882   0.842  11.388
19136SOL     OW58848   7.341   1.750  12.302
19136SOL    HW158849   7.412   1.769  12.241
19136SOL    HW258850   7.326   1.656  12.294
19137SOL     OW58851   6.836   1.718  12.281
19137SOL    HW158852   6.915   1.754  12.239
19137SOL    HW258853   6.851   1.624  12.282
19138SOL     OW58854   5.680   1.269  12.184
19138SOL    HW158855   5.669   1.291  12.276
19138SOL    HW258856   5.603   1.218  12.161
19139SOL     OW58857   7.282   0.157  11.653
19139SOL    HW158858   7.358   0.154  11.595
19139SOL    HW258859   7.316   0.130  11.738
19140SOL     OW58860   6.983   1.570  11.673
19140SOL    HW158861   7.034   1.603  11.598
19140SOL    HW258862   6.926   1.643  11.696
19141SOL     OW58863   6.861   0.939  11.851
19141SOL    HW158864   6.933   0.877  11.865
19141SOL    HW258865   6.898   1.005  11.792
19142SOL     OW58866   6.259   1.623  11.322
19142SOL    HW158867   6.270   1.642  11.228
19142SOL    HW258868   6.199   1.548  11.324
19143SOL     OW58869   7.210   1.786   0.042
19143SOL    HW158870   7.260   1.775  -0.038
19143SOL    HW258871   7.226   1.876   0.068
19144SOL     OW58872   7.448   0.176  12.113
19144SOL    HW158873   7.480   0.116  12.046
19144SOL    HW258874   7.358   0.196  12.087
19145SOL     OW58875   5.854   0.334  11.885
19145SOL    HW158876   5.765   0.349  11.852
19145SOL    HW258877   5.844   0.328  11.980
19146SOL     OW58878   6.798   1.599  11.208
19146SOL    HW158879   6.787   1.507  11.233
19146SOL    HW258880   6.732   1.613  11.141
19147SOL     OW58881   6.383   1.051  12.482
19147SOL    HW158882   6.377   1.081  12.392
19147SOL    HW258883   6.429   1.122  12.528
19148SOL     OW58884   6.512   0.921  11.473
19148SOL    HW158885   6.569   0.950  11.402
19148SOL    HW258886   6.559   0.847  11.512
19149SOL     OW58887   7.076   1.628  11.220
19149SOL    HW158888   6.982   1.617  11.205
19149SOL    HW258889   7.114   1.635  11.133
19150SOL     OW58890   6.653   1.119  11.896
19150SOL    HW158891   6.577   1.069  11.927
19150SOL    HW258892   6.715   1.052  11.867
19151SOL     OW58893   6.636   0.263  12.104
19151SOL    HW158894   6.604   0.215  12.028
19151SOL    HW258895   6.633   0.200  12.176
19152SOL     OW58896   6.174   1.488  11.658
19152SOL    HW158897   6.234   1.443  11.598
19152SOL    HW258898   6.132   1.555  11.604
19153SOL     OW58899   7.330   0.456   0.048
19153SOL    HW158900   7.423   0.447   0.070
19153SOL    HW258901   7.308   0.377  -0.001
19154SOL     OW58902   5.854   1.351  11.482
19154SOL    HW158903   5.773   1.342  11.432
19154SOL    HW258904   5.829   1.405  11.557
19155SOL     OW58905   5.641   0.330  11.207
19155SOL    HW158906   5.547   0.327  11.228
19155SOL    HW258907   5.651   0.408  11.153
19156SOL     OW58908   5.731   0.179  11.432
19156SOL    HW158909   5.696   0.250  11.379
19156SOL    HW258910   5.657   0.120  11.447
19157SOL     OW58911   6.762   1.333  11.286
19157SOL    HW158912   6.667   1.323  11.281
19157SOL    HW258913   6.782   1.326  11.379
19158SOL     OW58914   7.075   1.786  12.156
19158SOL    HW158915   7.093   1.862  12.101
19158SOL    HW258916   7.158   1.770  12.202
19159SOL     OW58917   7.284   0.884  12.404
19159SOL    HW158918   7.267   0.794  12.378
19159SOL    HW258919   7.264   0.936  12.327
19160SOL     OW58920   6.804   0.317  11.631
19160SOL    HW158921   6.872   0.253  11.612
19160SOL    HW258922   6.839   0.369  11.703
19161SOL     OW58923   6.172   0.733  11.857
19161SOL    HW158924   6.215   0.816  11.835
19161SOL    HW258925   6.108   0.720  11.787
19162SOL     OW58926   7.250   0.975   0.158
19162SOL    HW158927   7.338   1.001   0.185
19162SOL    HW258928   7.262   0.937   0.070
19163SOL     OW58929   6.480   1.382  11.236
19163SOL    HW158930   6.410   1.416  11.293
19163SOL    HW258931   6.488   1.447  11.166
19164SOL     OW58932   6.254   1.799  12.116
19164SOL    HW158933   6.228   1.888  12.093
19164SOL    HW258934   6.349   1.800  12.110
19165SOL     OW58935   6.458   0.975  12.029
19165SOL    HW158936   6.507   0.902  12.065
19165SOL    HW258937   6.421   1.019  12.106
19166SOL     OW58938   6.668   0.991  11.265
19166SOL    HW158939   6.644   1.039  11.186
19166SOL    HW258940   6.740   0.934  11.236
19167SOL     OW58941   7.441   1.545  12.002
19167SOL    HW158942   7.352   1.542  11.968
19167SOL    HW258943   7.440   1.484  12.076
19168SOL     OW58944   5.677   1.233  11.843
19168SOL    HW158945   5.666   1.193  11.929
19168SOL    HW258946   5.697   1.159  11.785
19169SOL     OW58947   7.436   0.254  12.381
19169SOL    HW158948   7.456   0.176  12.433
19169SOL    HW258949   7.434   0.222  12.290
19170SOL     OW58950   6.041   0.432  11.710
19170SOL    HW158951   6.048   0.369  11.638
19170SOL    HW258952   5.973   0.396  11.767
19171SOL     OW58953   7.289   1.488  12.267
19171SOL    HW158954   7.211   1.456  12.222
19171SOL    HW258955   7.300   1.428  12.341
19172SOL     OW58956   6.388   1.582  11.840
19172SOL    HW158957   6.407   1.666  11.797
19172SOL    HW258958   6.308   1.551  11.797
19173SOL     OW58959   7.033   0.241  12.289
19173SOL    HW158960   7.092   0.177  12.329
19173SOL    HW258961   6.977   0.270  12.361
19174SOL     OW58962   6.593   0.086  12.308
19174SOL    HW158963   6.505   0.084  12.271
19174SOL    HW258964   6.609  -0.005  12.336
19175SOL     OW58965   6.347   1.333  11.521
19175SOL    HW158966   6.325   1.240  11.515
19175SOL    HW258967   6.442   1.335  11.534
19176SOL     OW58968   6.940   7.991  11.277
19176SOL    HW158969   7.026   7.961  11.305
19176SOL    HW258970   6.879   7.950  11.338
19177SOL     OW58971   6.888   0.471  11.845
19177SOL    HW158972   6.832   0.548  11.848
19177SOL    HW258973   6.889   0.438  11.935
19178SOL     OW58974   7.199   0.220  12.034
19178SOL    HW158975   7.122   0.208  12.089
19178SOL    HW258976   7.182   0.301  11.986
19179SOL     OW58977   5.634   1.061  11.494
19179SOL    HW158978   5.722   1.045  11.460
19179SOL    HW258979   5.601   0.974  11.516
19180SOL     OW58980   6.470   1.665  11.511
19180SOL    HW158981   6.400   1.651  11.448
19180SOL    HW258982   6.442   1.740  11.563
19181SOL     OW58983   5.868   2.449   0.036
19181SOL    HW158984   5.828   2.504   0.103
19181SOL    HW258985   5.795   2.417  -0.016
19182SOL     OW58986   5.814   2.146   0.988
19182SOL    HW158987   5.840   2.110   1.073
19182SOL    HW258988   5.725   2.115   0.975
19183SOL     OW58989   5.570   2.246   0.637
19183SOL    HW158990   5.494   2.280   0.684
19183SOL    HW258991   5.539   2.164   0.599
19184SOL     OW58992   6.160   3.162   1.192
19184SOL    HW158993   6.080   3.170   1.141
19184SOL    HW258994   6.177   3.251   1.224
19185SOL     OW58995   7.152   3.382   0.713
19185SOL    HW158996   7.107   3.362   0.796
19185SOL    HW258997   7.081   3.387   0.649
19186SOL     OW58998   6.721   2.558   0.693
19186SOL    HW158999   6.768   2.640   0.678
19186SOL    HW259000   6.675   2.571   0.776
19187SOL     OW59001   7.314   2.476   0.262
19187SOL    HW159002   7.324   2.462   0.168
19187SOL    HW259003   7.285   2.392   0.296
19188SOL     OW59004   6.335   3.001   1.053
19188SOL    HW159005   6.268   3.039   1.109
19188SOL    HW259006   6.373   3.077   1.007
19189SOL     OW59007   6.463   2.617   1.825
19189SOL    HW159008   6.433   2.682   1.888
19189SOL    HW259009   6.480   2.667   1.745
19190SOL     OW59010   6.274   2.841   0.641
19190SOL    HW159011   6.343   2.851   0.707
19190SOL    HW259012   6.202   2.896   0.673
19191SOL     OW59013   6.305   3.015   1.826
19191SOL    HW159014   6.349   3.093   1.859
19191SOL    HW259015   6.225   3.049   1.785
19192SOL     OW59016   5.937   3.275   1.056
19192SOL    HW159017   5.863   3.241   1.007
19192SOL    HW259018   5.990   3.321   0.991
19193SOL     OW59019   7.044   3.363   1.369
19193SOL    HW159020   7.094   3.444   1.379
19193SOL    HW259021   6.968   3.375   1.426
19194SOL     OW59022   6.042   2.246   1.466
19194SOL    HW159023   6.114   2.184   1.479
19194SOL    HW259024   5.963   2.197   1.489
19195SOL     OW59025   7.187   2.307   0.753
19195SOL    HW159026   7.133   2.334   0.678
19195SOL    HW259027   7.165   2.369   0.822
19196SOL     OW59028   5.808   3.579   0.472
19196SOL    HW159029   5.827   3.653   0.529
19196SOL    HW259030   5.883   3.575   0.412
19197SOL     OW59031   6.722   3.201   1.692
19197SOL    HW159032   6.755   3.200   1.782
19197SOL    HW259033   6.670   3.121   1.684
19198SOL     OW59034   5.811   3.312   0.542
19198SOL    HW159035   5.797   3.406   0.539
19198SOL    HW259036   5.756   3.281   0.614
19199SOL     OW59037   5.854   2.952   0.897
19199SOL    HW159038   5.837   2.864   0.932
19199SOL    HW259039   5.794   3.009   0.946
19200SOL     OW59040   6.198   3.642   1.456
19200SOL    HW159041   6.108   3.631   1.489
19200SOL    HW259042   6.215   3.736   1.464
19201SOL     OW59043   6.158   2.818   0.144
19201SOL    HW159044   6.221   2.841   0.076
19201SOL    HW259045   6.188   2.864   0.222
19202SOL     OW59046   7.171   1.997   1.465
19202SOL    HW159047   7.209   2.070   1.415
19202SOL    HW259048   7.150   2.034   1.550
19203SOL     OW59049   5.707   2.504   0.562
19203SOL    HW159050   5.667   2.419   0.585
19203SOL    HW259051   5.698   2.557   0.641
19204SOL     OW59052   7.440   3.598   0.315
19204SOL    HW159053   7.499   3.574   0.386
19204SOL    HW259054   7.459   3.691   0.299
19205SOL     OW59055   5.615   3.381   0.136
19205SOL    HW159056   5.527   3.352   0.112
19205SOL    HW259057   5.602   3.460   0.188
19206SOL     OW59058   7.268   2.798   0.644
19206SOL    HW159059   7.329   2.753   0.586
19206SOL    HW259060   7.230   2.867   0.589
19207SOL     OW59061   7.229   2.986   0.428
19207SOL    HW159062   7.318   2.982   0.394
19207SOL    HW259063   7.234   3.048   0.501
19208SOL     OW59064   5.702   2.612   1.582
19208SOL    HW159065   5.788   2.656   1.583
19208SOL    HW259066   5.639   2.684   1.572
19209SOL     OW59067   6.256   3.171   0.691
19209SOL    HW159068   6.185   3.110   0.711
19209SOL    HW259069   6.215   3.257   0.696
19210SOL     OW59070   6.867   3.091   1.420
19210SOL    HW159071   6.895   3.023   1.358
19210SOL    HW259072   6.927   3.083   1.494
19211SOL     OW59073   6.394   1.828   0.453
19211SOL    HW159074   6.450   1.906   0.450
19211SOL    HW259075   6.309   1.861   0.481
19212SOL     OW59076   5.771   2.816   1.296
19212SOL    HW159077   5.857   2.780   1.274
19212SOL    HW259078   5.715   2.790   1.223
19213SOL     OW59079   7.092   2.869   0.222
19213SOL    HW159080   7.028   2.810   0.262
19213SOL    HW259081   7.138   2.908   0.297
19214SOL     OW59082   6.786   3.689   1.633
19214SOL    HW159083   6.777   3.752   1.561
19214SOL    HW259084   6.793   3.604   1.590
19215SOL     OW59085   5.937   2.110   1.853
19215SOL    HW159086   5.972   2.197   1.875
19215SOL    HW259087   5.842   2.122   1.855
19216SOL     OW59088   7.065   3.274   0.956
19216SOL    HW159089   6.991   3.299   1.011
19216SOL    HW259090   7.043   3.187   0.924
19217SOL     OW59091   7.243   3.620   0.585
19217SOL    HW159092   7.217   3.589   0.498
19217SOL    HW259093   7.215   3.550   0.644
19218SOL     OW59094   6.172   2.573   0.285
19218SOL    HW159095   6.173   2.659   0.243
19218SOL    HW259096   6.105   2.581   0.354
19219SOL     OW59097   6.872   2.241   0.938
19219SOL    HW159098   6.782   2.211   0.948
19219SOL    HW259099   6.923   2.183   0.994
19220SOL     OW59100   7.172   3.548   0.326
19220SOL    HW159101   7.267   3.555   0.315
19220SOL    HW259102   7.136   3.582   0.245
19221SOL     OW59103   6.390   2.476   1.442
19221SOL    HW159104   6.360   2.450   1.529
19221SOL    HW259105   6.354   2.410   1.383
19222SOL     OW59106   6.980   2.344   1.679
19222SOL    HW159107   6.984   2.379   1.768
19222SOL    HW259108   7.025   2.259   1.685
19223SOL     OW59109   6.529   2.751   1.586
19223SOL    HW159110   6.585   2.683   1.546
19223SOL    HW259111   6.485   2.792   1.511
19224SOL     OW59112   6.587   2.263   1.228
19224SOL    HW159113   6.498   2.282   1.256
19224SOL    HW259114   6.578   2.233   1.138
19225SOL     OW59115   6.643   2.562   0.426
19225SOL    HW159116   6.660   2.559   0.520
19225SOL    HW259117   6.556   2.524   0.416
19226SOL     OW59118   5.679   2.671   0.775
19226SOL    HW159119   5.756   2.671   0.832
19226SOL    HW259120   5.626   2.744   0.805
19227SOL     OW59121   5.708   3.740   1.584
19227SOL    HW159122   5.714   3.718   1.677
19227SOL    HW259123   5.620   3.711   1.558
19228SOL     OW59124   6.478   2.219   0.215
19228SOL    HW159125   6.512   2.291   0.161
19228SOL    HW259126   6.440   2.158   0.153
19229SOL     OW59127   6.964   3.004   0.539
19229SOL    HW159128   7.043   3.011   0.485
19229SOL    HW259129   6.904   3.069   0.501
19230SOL     OW59130   6.155   2.036   0.907
19230SOL    HW159131   6.152   2.064   0.999
19230SOL    HW259132   6.138   2.116   0.857
19231SOL     OW59133   6.570   3.308   0.474
19231SOL    HW159134   6.541   3.387   0.427
19231SOL    HW259135   6.531   3.316   0.561
19232SOL     OW59136   5.949   3.677   0.880
19232SOL    HW159137   6.007   3.601   0.878
19232SOL    HW259138   6.008   3.751   0.892
19233SOL     OW59139   7.390   2.898   0.874
19233SOL    HW159140   7.334   2.883   0.798
19233SOL    HW259141   7.329   2.914   0.946
19234SOL     OW59142   6.810   3.405   1.510
19234SOL    HW159143   6.792   3.330   1.566
19234SOL    HW259144   6.727   3.421   1.465
19235SOL     OW59145   5.902   2.845   0.272
19235SOL    HW159146   5.976   2.853   0.212
19235SOL    HW259147   5.860   2.763   0.248
19236SOL     OW59148   7.072   2.616   0.718
19236SOL    HW159149   7.069   2.579   0.807
19236SOL    HW259150   7.146   2.676   0.720
19237SOL     OW59151   6.058   3.130   1.738
19237SOL    HW159152   6.032   3.137   1.646
19237SOL    HW259153   5.976   3.125   1.786
19238SOL     OW59154   6.700   3.645   0.255
19238SOL    HW159155   6.624   3.609   0.300
19238SOL    HW259156   6.733   3.573   0.201
19239SOL     OW59157   5.791   2.133   1.501
19239SOL    HW159158   5.709   2.181   1.490
19239SOL    HW259159   5.764   2.047   1.534
19240SOL     OW59160   7.239   3.272   0.030
19240SOL    HW159161   7.173   3.342   0.029
19240SOL    HW259162   7.189   3.193   0.050
19241SOL     OW59163   6.042   3.602   0.321
19241SOL    HW159164   6.088   3.656   0.385
19241SOL    HW259165   6.111   3.556   0.273
19242SOL     OW59166   6.996   1.964   0.447
19242SOL    HW159167   6.998   1.931   0.357
19242SOL    HW259168   7.088   1.976   0.470
19243SOL     OW59169   5.848   3.649   1.218
19243SOL    HW159170   5.893   3.573   1.254
19243SOL    HW259171   5.840   3.630   1.125
19244SOL     OW59172   6.564   3.548   0.879
19244SOL    HW159173   6.569   3.479   0.946
19244SOL    HW259174   6.506   3.512   0.812
19245SOL     OW59175   5.979   2.545   0.481
19245SOL    HW159176   5.996   2.452   0.495
19245SOL    HW259177   5.888   2.557   0.507
19246SOL     OW59178   7.102   2.091   1.728
19246SOL    HW159179   7.107   2.109   1.822
19246SOL    HW259180   7.047   2.013   1.721
19247SOL     OW59181   6.235   1.971   0.119
19247SOL    HW159182   6.329   1.959   0.106
19247SOL    HW259183   6.205   2.008   0.036
19248SOL     OW59184   6.352   2.138   1.757
19248SOL    HW159185   6.434   2.088   1.752
19248SOL    HW259186   6.302   2.095   1.826
19249SOL     OW59187   6.467   3.387   1.199
19249SOL    HW159188   6.444   3.348   1.115
19249SOL    HW259189   6.533   3.327   1.235
19250SOL     OW59190   6.923   2.446   1.429
19250SOL    HW159191   6.953   2.422   1.516
19250SOL    HW259192   6.953   2.536   1.417
19251SOL     OW59193   6.399   3.263   0.960
19251SOL    HW159194   6.432   3.245   0.872
19251SOL    HW259195   6.316   3.309   0.945
19252SOL     OW59196   6.524   2.371   0.897
19252SOL    HW159197   6.495   2.362   0.806
19252SOL    HW259198   6.547   2.282   0.923
19253SOL     OW59199   6.144   1.916   0.500
19253SOL    HW159200   6.068   1.916   0.558
19253SOL    HW259201   6.133   1.994   0.446
19254SOL     OW59202   7.044   3.081   0.054
19254SOL    HW159203   7.057   3.002   0.106
19254SOL    HW259204   6.956   3.110   0.077
19255SOL     OW59205   5.878   1.947   0.195
19255SOL    HW159206   5.945   2.012   0.217
19255SOL    HW259207   5.912   1.865   0.232
19256SOL     OW59208   6.532   2.084   0.454
19256SOL    HW159209   6.503   2.131   0.376
19256SOL    HW259210   6.623   2.111   0.466
19257SOL     OW59211   6.662   2.550   1.459
19257SOL    HW159212   6.586   2.493   1.457
19257SOL    HW259213   6.737   2.491   1.448
19258SOL     OW59214   6.841   3.422   0.782
19258SOL    HW159215   6.829   3.490   0.716
19258SOL    HW259216   6.839   3.470   0.865
19259SOL     OW59217   6.057   2.986   0.724
19259SOL    HW159218   5.992   2.978   0.793
19259SOL    HW259219   6.005   2.991   0.643
19260SOL     OW59220   6.842   3.649   0.610
19260SOL    HW159221   6.887   3.717   0.560
19260SOL    HW259222   6.768   3.694   0.651
19261SOL     OW59223   6.618   2.414   0.061
19261SOL    HW159224   6.593   2.499   0.025
19261SOL    HW259225   6.679   2.434   0.132
19262SOL     OW59226   5.679   2.413   1.396
19262SOL    HW159227   5.770   2.418   1.367
19262SOL    HW259228   5.669   2.485   1.458
19263SOL     OW59229   6.148   2.089   1.179
19263SOL    HW159230   6.184   2.023   1.238
19263SOL    HW259231   6.055   2.090   1.198
19264SOL     OW59232   6.455   2.316   0.639
19264SOL    HW159233   6.407   2.380   0.586
19264SOL    HW259234   6.459   2.238   0.583
19265SOL     OW59235   6.628   1.917   0.742
19265SOL    HW159236   6.554   1.943   0.688
19265SOL    HW259237   6.594   1.847   0.798
19266SOL     OW59238   7.027   3.017   0.860
19266SOL    HW159239   6.939   2.980   0.862
19266SOL    HW259240   7.046   3.028   0.767
19267SOL     OW59241   7.053   2.468   0.956
19267SOL    HW159242   6.988   2.397   0.965
19267SOL    HW259243   7.104   2.462   1.037
19268SOL     OW59244   7.416   2.677   0.429
19268SOL    HW159245   7.464   2.614   0.482
19268SOL    HW259246   7.372   2.624   0.362
19269SOL     OW59247   6.081   3.256   0.187
19269SOL    HW159248   6.004   3.220   0.232
19269SOL    HW259249   6.045   3.294   0.107
19270SOL     OW59250   7.252   3.131   0.650
19270SOL    HW159251   7.346   3.130   0.669
19270SOL    HW259252   7.224   3.219   0.672
19271SOL     OW59253   6.985   2.412   0.083
19271SOL    HW159254   6.929   2.411   0.161
19271SOL    HW259255   7.053   2.347   0.103
19272SOL     OW59256   6.098   2.105   0.311
19272SOL    HW159257   6.154   2.059   0.248
19272SOL    HW259258   6.088   2.193   0.275
19273SOL     OW59259   7.333   3.101   1.554
19273SOL    HW159260   7.422   3.065   1.551
19273SOL    HW259261   7.345   3.191   1.583
19274SOL     OW59262   6.633   3.205   1.324
19274SOL    HW159263   6.557   3.179   1.376
19274SOL    HW259264   6.708   3.169   1.372
19275SOL     OW59265   7.200   3.488   1.664
19275SOL    HW159266   7.186   3.525   1.577
19275SOL    HW259267   7.280   3.437   1.656
19276SOL     OW59268   6.728   3.068   1.101
19276SOL    HW159269   6.664   3.107   1.162
19276SOL    HW259270   6.709   3.109   1.017
19277SOL     OW59271   7.209   2.958   1.075
19277SOL    HW159272   7.198   3.025   1.143
19277SOL    HW259273   7.136   2.975   1.015
19278SOL     OW59274   6.510   1.948   1.392
19278SOL    HW159275   6.531   1.935   1.299
19278SOL    HW259276   6.587   1.989   1.429
19279SOL     OW59277   6.571   2.971   1.735
19279SOL    HW159278   6.482   2.993   1.760
19279SOL    HW259279   6.563   2.896   1.677
19280SOL     OW59280   6.288   2.915   0.367
19280SOL    HW159281   6.273   2.900   0.461
19280SOL    HW259282   6.367   2.865   0.347
19281SOL     OW59283   6.011   2.685   1.253
19281SOL    HW159284   6.078   2.694   1.321
19281SOL    HW259285   5.976   2.597   1.266
19282SOL     OW59286   6.851   2.227   1.284
19282SOL    HW159287   6.881   2.307   1.327
19282SOL    HW259288   6.760   2.246   1.261
19283SOL     OW59289   5.665   3.436   1.358
19283SOL    HW159290   5.634   3.506   1.301
19283SOL    HW259291   5.760   3.435   1.346
19284SOL     OW59292   5.907   2.998   0.497
19284SOL    HW159293   5.900   3.078   0.445
19284SOL    HW259294   5.914   2.927   0.433
19285SOL     OW59295   6.136   2.381   0.857
19285SOL    HW159296   6.148   2.439   0.782
19285SOL    HW259297   6.199   2.412   0.922
19286SOL     OW59298   6.822   3.214   0.404
19286SOL    HW159299   6.877   3.285   0.435
19286SOL    HW259300   6.734   3.236   0.437
19287SOL     OW59301   6.878   3.327   1.149
19287SOL    HW159302   6.928   3.330   1.231
19287SOL    HW259303   6.815   3.256   1.163
19288SOL     OW59304   7.136   2.462   0.499
19288SOL    HW159305   7.098   2.516   0.569
19288SOL    HW259306   7.161   2.525   0.432
19289SOL     OW59307   5.936   3.392   1.300
19289SOL    HW159308   5.928   3.346   1.216
19289SOL    HW259309   6.030   3.404   1.312
19290SOL     OW59310   6.008   2.613   1.606
19290SOL    HW159311   6.072   2.653   1.548
19290SOL    HW259312   6.037   2.523   1.617
19291SOL     OW59313   7.219   2.630   1.670
19291SOL    HW159314   7.126   2.655   1.674
19291SOL    HW259315   7.255   2.686   1.601
19292SOL     OW59316   6.587   1.999   1.756
19292SOL    HW159317   6.644   2.074   1.735
19292SOL    HW259318   6.638   1.922   1.729
19293SOL     OW59319   6.079   1.895   1.757
19293SOL    HW159320   6.029   1.848   1.690
19293SOL    HW259321   6.025   1.971   1.777
19294SOL     OW59322   6.175   2.734   1.035
19294SOL    HW159323   6.201   2.826   1.028
19294SOL    HW259324   6.114   2.732   1.109
19295SOL     OW59325   6.919   2.710   1.020
19295SOL    HW159326   6.830   2.697   0.988
19295SOL    HW259327   6.964   2.628   1.000
19296SOL     OW59328   6.796   2.388   0.282
19296SOL    HW159329   6.806   2.315   0.343
19296SOL    HW259330   6.751   2.456   0.333
19297SOL     OW59331   5.886   2.061   1.242
19297SOL    HW159332   5.844   2.089   1.323
19297SOL    HW259333   5.866   1.968   1.235
19298SOL     OW59334   5.643   3.175   1.273
19298SOL    HW159335   5.669   3.120   1.347
19298SOL    HW259336   5.641   3.264   1.308
19299SOL     OW59337   6.301   2.491   1.048
19299SOL    HW159338   6.380   2.490   0.993
19299SOL    HW259339   6.266   2.579   1.038
19300SOL     OW59340   7.329   2.810   1.862
19300SOL    HW159341   7.277   2.769   1.793
19300SOL    HW259342   7.266   2.830   1.931
19301SOL     OW59343   5.901   1.927   0.622
19301SOL    HW159344   5.867   2.014   0.644
19301SOL    HW259345   5.907   1.882   0.706
19302SOL     OW59346   7.202   2.235   0.364
19302SOL    HW159347   7.229   2.167   0.426
19302SOL    HW259348   7.168   2.305   0.420
19303SOL     OW59349   6.630   2.615   0.957
19303SOL    HW159350   6.612   2.634   1.050
19303SOL    HW259351   6.597   2.527   0.944
19304SOL     OW59352   6.577   3.435   1.722
19304SOL    HW159353   6.552   3.476   1.640
19304SOL    HW259354   6.609   3.348   1.697
19305SOL     OW59355   7.437   3.354   1.603
19305SOL    HW159356   7.454   3.390   1.516
19305SOL    HW259357   7.517   3.371   1.653
19306SOL     OW59358   5.938   2.773   1.819
19306SOL    HW159359   6.020   2.793   1.864
19306SOL    HW259360   5.963   2.714   1.748
19307SOL     OW59361   7.121   2.118   0.127
19307SOL    HW159362   7.059   2.052   0.157
19307SOL    HW259363   7.152   2.159   0.208
19308SOL     OW59364   6.877   2.669   0.048
19308SOL    HW159365   6.933   2.592   0.041
19308SOL    HW259366   6.916   2.732  -0.013
19309SOL     OW59367   6.695   3.195   0.865
19309SOL    HW159368   6.681   3.131   0.796
19309SOL    HW259369   6.740   3.268   0.820
19310SOL     OW59370   5.892   2.668   0.949
19310SOL    HW159371   5.984   2.691   0.940
19310SOL    HW259372   5.893   2.578   0.981
19311SOL     OW59373   5.917   2.391   1.016
19311SOL    HW159374   5.877   2.305   1.003
19311SOL    HW259375   5.993   2.392   0.957
19312SOL     OW59376   6.723   2.235   1.687
19312SOL    HW159377   6.671   2.288   1.748
19312SOL    HW259378   6.806   2.283   1.679
19313SOL     OW59379   6.749   2.056   1.477
19313SOL    HW159380   6.736   2.121   1.546
19313SOL    HW259381   6.791   2.104   1.406
19314SOL     OW59382   5.682   3.638   0.943
19314SOL    HW159383   5.649   3.562   0.894
19314SOL    HW259384   5.772   3.649   0.912
19315SOL     OW59385   6.559   2.640   1.216
19315SOL    HW159386   6.615   2.628   1.293
19315SOL    HW259387   6.471   2.618   1.247
19316SOL     OW59388   5.618   2.411   1.123
19316SOL    HW159389   5.698   2.408   1.069
19316SOL    HW259390   5.650   2.413   1.213
19317SOL     OW59391   5.773   2.392   1.730
19317SOL    HW159392   5.815   2.341   1.661
19317SOL    HW259393   5.742   2.471   1.686
19318SOL     OW59394   6.983   2.777   1.658
19318SOL    HW159395   6.997   2.872   1.655
19318SOL    HW259396   6.967   2.753   1.567
19319SOL     OW59397   6.401   2.443   0.378
19319SOL    HW159398   6.398   2.366   0.322
19319SOL    HW259399   6.325   2.495   0.353
19320SOL     OW59400   7.221   2.463   1.174
19320SOL    HW159401   7.210   2.401   1.246
19320SOL    HW259402   7.310   2.447   1.142
19321SOL     OW59403   5.824   3.409   1.722
19321SOL    HW159404   5.799   3.474   1.788
19321SOL    HW259405   5.828   3.326   1.770
19322SOL     OW59406   6.312   2.305   1.246
19322SOL    HW159407   6.249   2.235   1.227
19322SOL    HW259408   6.298   2.369   1.176
19323SOL     OW59409   6.531   3.531   1.458
19323SOL    HW159410   6.496   3.492   1.377
19323SOL    HW259411   6.513   3.624   1.449
19324SOL     OW59412   6.073   2.337   0.183
19324SOL    HW159413   6.113   2.417   0.218
19324SOL    HW259414   6.002   2.369   0.128
19325SOL     OW59415   5.724   3.008   1.482
19325SOL    HW159416   5.726   2.965   1.568
19325SOL    HW259417   5.740   2.937   1.420
19326SOL     OW59418   6.905   2.899   1.217
19326SOL    HW159419   6.920   2.835   1.147
19326SOL    HW259420   6.841   2.960   1.180
19327SOL     OW59421   6.899   2.700   0.323
19327SOL    HW159422   6.821   2.681   0.376
19327SOL    HW259423   6.873   2.680   0.233
19328SOL     OW59424   7.369   3.590   1.164
19328SOL    HW159425   7.431   3.617   1.096
19328SOL    HW259426   7.338   3.504   1.135
19329SOL     OW59427   6.820   3.594   1.098
19329SOL    HW159428   6.903   3.619   1.058
19329SOL    HW259429   6.831   3.502   1.121
19330SOL     OW59430   5.676   3.121   1.011
19330SOL    HW159431   5.662   3.143   1.103
19330SOL    HW259432   5.596   3.076   0.985
19331SOL     OW59433   6.257   3.541   1.738
19331SOL    HW159434   6.189   3.608   1.747
19331SOL    HW259435   6.302   3.563   1.657
19332SOL     OW59436   6.504   1.951   0.074
19332SOL    HW159437   6.533   1.950  -0.017
19332SOL    HW259438   6.581   1.979   0.123
19333SOL     OW59439   7.290   2.011   0.503
19333SOL    HW159440   7.368   1.992   0.450
19333SOL    HW259441   7.276   1.931   0.553
19334SOL     OW59442   6.978   3.430   0.491
19334SOL    HW159443   7.037   3.469   0.426
19334SOL    HW259444   6.926   3.503   0.522
19335SOL     OW59445   5.732   3.658   1.840
19335SOL    HW159446   5.682   3.591   1.886
19335SOL    HW259447   5.775   3.708   1.909
19336SOL     OW59448   6.862   2.784   0.656
19336SOL    HW159449   6.939   2.730   0.673
19336SOL    HW259450   6.895   2.860   0.609
19337SOL     OW59451   6.381   3.144   1.428
19337SOL    HW159452   6.355   3.187   1.510
19337SOL    HW259453   6.312   3.168   1.366
19338SOL     OW59454   6.247   3.470   0.169
19338SOL    HW159455   6.228   3.483   0.076
19338SOL    HW259456   6.205   3.387   0.191
19339SOL     OW59457   7.205   3.589   1.398
19339SOL    HW159458   7.255   3.595   1.316
19339SOL    HW259459   7.191   3.680   1.423
19340SOL     OW59460   7.430   2.045   0.946
19340SOL    HW159461   7.464   1.959   0.920
19340SOL    HW259462   7.338   2.043   0.920
19341SOL     OW59463   5.831   2.176   0.710
19341SOL    HW159464   5.742   2.206   0.689
19341SOL    HW259465   5.833   2.170   0.805
19342SOL     OW59466   6.778   3.451   0.073
19342SOL    HW159467   6.777   3.358   0.094
19342SOL    HW259468   6.689   3.469   0.042
19343SOL     OW59469   6.408   2.877   1.371
19343SOL    HW159470   6.429   2.881   1.278
19343SOL    HW259471   6.397   2.968   1.398
19344SOL     OW59472   6.509   2.777   0.294
19344SOL    HW159473   6.569   2.806   0.226
19344SOL    HW259474   6.558   2.712   0.344
19345SOL     OW59475   7.042   3.453   0.006
19345SOL    HW159476   6.955   3.474   0.041
19345SOL    HW259477   7.093   3.533   0.022
19346SOL     OW59478   5.955   3.168   1.492
19346SOL    HW159479   5.944   3.243   1.433
19346SOL    HW259480   5.876   3.116   1.479
19347SOL     OW59481   7.200   3.154   1.281
19347SOL    HW159482   7.247   3.132   1.362
19347SOL    HW259483   7.134   3.218   1.308
19348SOL     OW59484   6.659   2.974   0.710
19348SOL    HW159485   6.580   2.933   0.747
19348SOL    HW259486   6.714   2.900   0.684
19349SOL     OW59487   6.622   2.108   0.967
19349SOL    HW159488   6.628   2.059   0.885
19349SOL    HW259489   6.612   2.041   1.035
19350SOL     OW59490   6.207   3.389   0.462
19350SOL    HW159491   6.197   3.306   0.416
19350SOL    HW259492   6.118   3.417   0.482
19351SOL     OW59493   7.325   2.246   1.382
19351SOL    HW159494   7.395   2.311   1.375
19351SOL    HW259495   7.349   2.178   1.319
19352SOL     OW59496   5.840   3.197   0.304
19352SOL    HW159497   5.767   3.227   0.250
19352SOL    HW259498   5.828   3.243   0.388
19353SOL     OW59499   5.707   2.905   1.737
19353SOL    HW159500   5.627   2.876   1.782
19353SOL    HW259501   5.777   2.854   1.778
19354SOL     OW59502   6.266   2.050   1.498
19354SOL    HW159503   6.351   2.028   1.460
19354SOL    HW259504   6.287   2.088   1.583
19355SOL     OW59505   7.006   2.712   1.393
19355SOL    HW159506   6.951   2.772   1.342
19355SOL    HW259507   7.092   2.717   1.352
19356SOL     OW59508   5.636   2.005   0.310
19356SOL    HW159509   5.626   2.099   0.302
19356SOL    HW259510   5.720   1.986   0.268
19357SOL     OW59511   6.780   3.174   0.130
19357SOL    HW159512   6.686   3.180   0.114
19357SOL    HW259513   6.789   3.180   0.225
19358SOL     OW59514   6.213   2.690   1.436
19358SOL    HW159515   6.267   2.767   1.421
19358SOL    HW259516   6.275   2.618   1.442
19359SOL     OW59517   7.065   3.656   0.985
19359SOL    HW159518   7.076   3.724   0.920
19359SOL    HW259519   7.154   3.638   1.017
19360SOL     OW59520   6.312   2.412   1.690
19360SOL    HW159521   6.348   2.471   1.757
19360SOL    HW259522   6.322   2.324   1.727
19361SOL     OW59523   7.060   3.041   1.629
19361SOL    HW159524   7.042   3.070   1.718
19361SOL    HW259525   7.149   3.074   1.611
19362SOL     OW59526   5.949   3.605   1.567
19362SOL    HW159527   5.868   3.653   1.549
19362SOL    HW259528   5.920   3.524   1.608
19363SOL     OW59529   7.246   2.741   1.254
19363SOL    HW159530   7.241   2.657   1.208
19363SOL    HW259531   7.234   2.807   1.185
19364SOL     OW59532   6.805   2.170   0.454
19364SOL    HW159533   6.871   2.101   0.455
19364SOL    HW259534   6.824   2.222   0.532
19365SOL     OW59535   6.181   2.581   0.670
19365SOL    HW159536   6.218   2.669   0.662
19365SOL    HW259537   6.111   2.578   0.605
19366SOL     OW59538   7.300   2.273   1.650
19366SOL    HW159539   7.303   2.261   1.555
19366SOL    HW259540   7.243   2.202   1.681
19367SOL     OW59541   7.339   2.805   1.502
19367SOL    HW159542   7.317   2.897   1.516
19367SOL    HW259543   7.314   2.788   1.412
19368SOL     OW59544   6.521   3.221   0.042
19368SOL    HW159545   6.469   3.199   0.120
19368SOL    HW259546   6.498   3.313   0.024
19369SOL     OW59547   6.301   3.711   1.010
19369SOL    HW159548   6.255   3.771   0.952
19369SOL    HW259549   6.270   3.624   0.983
19370SOL     OW59550   6.462   2.840   0.854
19370SOL    HW159551   6.510   2.770   0.897
19370SOL    HW259552   6.419   2.887   0.925
19371SOL     OW59553   6.678   2.851   0.090
19371SOL    HW159554   6.707   2.941   0.076
19371SOL    HW259555   6.757   2.798   0.077
19372SOL     OW59556   7.422   3.421   0.850
19372SOL    HW159557   7.352   3.413   0.785
19372SOL    HW259558   7.389   3.376   0.928
19373SOL     OW59559   5.806   3.154   1.846
19373SOL    HW159560   5.762   3.081   1.803
19373SOL    HW259561   5.752   3.173   1.923
19374SOL     OW59562   5.676   3.088   0.674
19374SOL    HW159563   5.694   3.043   0.756
19374SOL    HW259564   5.742   3.056   0.613
19375SOL     OW59565   6.281   3.273   1.650
19375SOL    HW159566   6.197   3.232   1.674
19375SOL    HW259567   6.273   3.364   1.678
19376SOL     OW59568   7.400   2.048   1.221
19376SOL    HW159569   7.392   1.953   1.228
19376SOL    HW259570   7.413   2.065   1.128
19377SOL     OW59571   6.015   2.283   0.529
19377SOL    HW159572   6.032   2.209   0.471
19377SOL    HW259573   5.957   2.248   0.597
19378SOL     OW59574   7.291   3.339   1.084
19378SOL    HW159575   7.210   3.325   1.036
19378SOL    HW259576   7.287   3.276   1.157
19379SOL     OW59577   5.929   2.426   1.293
19379SOL    HW159578   5.980   2.363   1.344
19379SOL    HW259579   5.940   2.398   1.202
19380SOL     OW59580   6.400   3.443   0.686
19380SOL    HW159581   6.358   3.458   0.601
19380SOL    HW259582   6.327   3.439   0.748
19381SOL     OW59583   7.016   2.090   1.114
19381SOL    HW159584   7.038   2.005   1.151
19381SOL    HW259585   6.965   2.133   1.182
19382SOL     OW59586   6.603   1.880   1.132
19382SOL    HW159587   6.545   1.814   1.093
19382SOL    HW259588   6.690   1.841   1.128
19383SOL     OW59589   6.409   3.157   0.281
19383SOL    HW159590   6.353   3.086   0.314
19383SOL    HW259591   6.449   3.194   0.360
19384SOL     OW59592   6.212   3.415   1.301
19384SOL    HW159593   6.212   3.494   1.355
19384SOL    HW259594   6.295   3.418   1.254
19385SOL     OW59595   6.953   1.897   0.181
19385SOL    HW159596   6.957   1.849   0.098
19385SOL    HW259597   6.873   1.948   0.176
19386SOL     OW59598   6.866   2.320   0.671
19386SOL    HW159599   6.819   2.403   0.676
19386SOL    HW259600   6.873   2.291   0.763
19387SOL     OW59601   7.164   2.055   0.881
19387SOL    HW159602   7.112   2.076   0.959
19387SOL    HW259603   7.164   2.135   0.829
19388SOL     OW59604   5.618   2.942   0.331
19388SOL    HW159605   5.711   2.956   0.314
19388SOL    HW259606   5.614   2.860   0.379
19389SOL     OW59607   6.465   3.528   0.341
19389SOL    HW159608   6.380   3.500   0.309
19389SOL    HW259609   6.445   3.597   0.405
19390SOL     OW59610   5.805   2.468   1.999
19390SOL    HW159611   5.717   2.469   2.035
19390SOL    HW259612   5.793   2.462   1.904
19391SOL     OW59613   5.810   2.140   2.842
19391SOL    HW159614   5.839   2.115   2.930
19391SOL    HW259615   5.720   2.109   2.837
19392SOL     OW59616   5.576   2.255   2.501
19392SOL    HW159617   5.501   2.286   2.551
19392SOL    HW259618   5.546   2.175   2.458
19393SOL     OW59619   6.129   3.164   3.025
19393SOL    HW159620   6.046   3.117   3.014
19393SOL    HW259621   6.123   3.203   3.112
19394SOL     OW59622   7.142   3.385   2.578
19394SOL    HW159623   7.100   3.364   2.661
19394SOL    HW259624   7.070   3.395   2.516
19395SOL     OW59625   6.725   2.553   2.555
19395SOL    HW159626   6.766   2.639   2.550
19395SOL    HW259627   6.671   2.557   2.633
19396SOL     OW59628   7.368   2.439   2.073
19396SOL    HW159629   7.396   2.361   2.026
19396SOL    HW259630   7.300   2.409   2.133
19397SOL     OW59631   6.330   3.006   2.903
19397SOL    HW159632   6.261   3.040   2.959
19397SOL    HW259633   6.368   3.083   2.862
19398SOL     OW59634   6.411   2.671   3.674
19398SOL    HW159635   6.414   2.697   3.766
19398SOL    HW259636   6.479   2.604   3.666
19399SOL     OW59637   6.273   2.851   2.507
19399SOL    HW159638   6.338   2.849   2.577
19399SOL    HW259639   6.204   2.908   2.540
19400SOL     OW59640   6.303   3.016   3.673
19400SOL    HW159641   6.347   3.093   3.708
19400SOL    HW259642   6.218   3.049   3.643
19401SOL     OW59643   5.909   3.318   2.853
19401SOL    HW159644   5.856   3.238   2.849
19401SOL    HW259645   5.846   3.389   2.858
19402SOL     OW59646   7.047   3.370   3.228
19402SOL    HW159647   7.099   3.448   3.244
19402SOL    HW259648   6.973   3.377   3.288
19403SOL     OW59649   6.036   2.233   3.312
19403SOL    HW159650   6.111   2.182   3.343
19403SOL    HW259651   5.961   2.199   3.361
19404SOL     OW59652   7.178   2.299   2.612
19404SOL    HW159653   7.099   2.313   2.560
19404SOL    HW259654   7.173   2.363   2.683
19405SOL     OW59655   5.812   3.573   2.337
19405SOL    HW159656   5.828   3.653   2.386
19405SOL    HW259657   5.878   3.574   2.268
19406SOL     OW59658   6.717   3.202   3.556
19406SOL    HW159659   6.755   3.203   3.644
19406SOL    HW259660   6.663   3.124   3.553
19407SOL     OW59661   5.833   3.306   2.412
19407SOL    HW159662   5.807   3.398   2.409
19407SOL    HW259663   5.771   3.266   2.473
19408SOL     OW59664   5.882   2.950   2.774
19408SOL    HW159665   5.859   2.860   2.798
19408SOL    HW259666   5.813   3.003   2.813
19409SOL     OW59667   6.183   3.643   3.282
19409SOL    HW159668   6.103   3.625   3.332
19409SOL    HW259669   6.210   3.730   3.310
19410SOL     OW59670   6.166   2.845   2.003
19410SOL    HW159671   6.213   2.895   1.936
19410SOL    HW259672   6.200   2.879   2.086
19411SOL     OW59673   7.174   1.992   3.329
19411SOL    HW159674   7.127   2.069   3.298
19411SOL    HW259675   7.168   1.996   3.425
19412SOL     OW59676   5.709   2.518   2.425
19412SOL    HW159677   5.672   2.434   2.451
19412SOL    HW259678   5.698   2.574   2.501
19413SOL     OW59679   7.434   3.613   2.185
19413SOL    HW159680   7.498   3.593   2.253
19413SOL    HW259681   7.447   3.706   2.168
19414SOL     OW59682   5.638   3.446   1.976
19414SOL    HW159683   5.613   3.356   1.997
19414SOL    HW259684   5.608   3.498   2.051
19415SOL     OW59685   7.301   2.758   2.488
19415SOL    HW159686   7.380   2.736   2.538
19415SOL    HW259687   7.327   2.747   2.396
19416SOL     OW59688   5.714   2.610   3.442
19416SOL    HW159689   5.804   2.639   3.457
19416SOL    HW259690   5.661   2.688   3.457
19417SOL     OW59691   6.177   3.262   2.636
19417SOL    HW159692   6.135   3.176   2.628
19417SOL    HW259693   6.171   3.300   2.548
19418SOL     OW59694   6.878   3.099   3.271
19418SOL    HW159695   6.913   3.027   3.219
19418SOL    HW259696   6.926   3.095   3.354
19419SOL     OW59697   6.406   1.870   2.375
19419SOL    HW159698   6.442   1.955   2.349
19419SOL    HW259699   6.312   1.884   2.381
19420SOL     OW59700   5.777   2.823   3.137
19420SOL    HW159701   5.857   2.773   3.122
19420SOL    HW259702   5.706   2.765   3.107
19421SOL     OW59703   7.127   2.843   2.058
19421SOL    HW159704   7.043   2.799   2.075
19421SOL    HW259705   7.173   2.842   2.142
19422SOL     OW59706   6.792   3.694   3.494
19422SOL    HW159707   6.784   3.754   3.419
19422SOL    HW259708   6.804   3.608   3.454
19423SOL     OW59709   5.949   2.119   3.705
19423SOL    HW159710   5.983   2.199   3.746
19423SOL    HW259711   5.854   2.123   3.720
19424SOL     OW59712   7.057   3.269   2.818
19424SOL    HW159713   6.988   3.289   2.881
19424SOL    HW259714   7.036   3.181   2.787
19425SOL     OW59715   7.247   3.617   2.435
19425SOL    HW159716   7.218   3.583   2.350
19425SOL    HW259717   7.215   3.553   2.499
19426SOL     OW59718   6.178   2.578   2.136
19426SOL    HW159719   6.174   2.664   2.093
19426SOL    HW259720   6.113   2.584   2.206
19427SOL     OW59721   6.861   2.223   2.788
19427SOL    HW159722   6.771   2.196   2.804
19427SOL    HW259723   6.913   2.172   2.850
19428SOL     OW59724   7.167   3.532   2.175
19428SOL    HW159725   7.257   3.562   2.163
19428SOL    HW259726   7.133   3.521   2.086
19429SOL     OW59727   6.389   2.478   3.307
19429SOL    HW159728   6.357   2.460   3.395
19429SOL    HW259729   6.349   2.410   3.253
19430SOL     OW59730   7.001   2.333   3.535
19430SOL    HW159731   6.984   2.378   3.617
19430SOL    HW259732   7.046   2.252   3.560
19431SOL     OW59733   6.618   2.773   3.408
19431SOL    HW159734   6.626   2.678   3.416
19431SOL    HW259735   6.535   2.786   3.362
19432SOL     OW59736   6.594   2.272   3.091
19432SOL    HW159737   6.542   2.320   3.156
19432SOL    HW259738   6.530   2.221   3.043
19433SOL     OW59739   6.643   2.562   2.287
19433SOL    HW159740   6.658   2.556   2.382
19433SOL    HW259741   6.558   2.522   2.273
19434SOL     OW59742   5.673   2.696   2.628
19434SOL    HW159743   5.747   2.685   2.687
19434SOL    HW259744   5.621   2.766   2.668
19435SOL     OW59745   5.711   3.730   3.440
19435SOL    HW159746   5.715   3.707   3.533
19435SOL    HW259747   5.619   3.720   3.417
19436SOL     OW59748   6.486   2.205   2.053
19436SOL    HW159749   6.526   2.268   1.993
19436SOL    HW259750   6.451   2.136   1.997
19437SOL     OW59751   7.300   2.425   3.682
19437SOL    HW159752   7.258   2.497   3.635
19437SOL    HW259753   7.325   2.363   3.614
19438SOL     OW59754   6.951   2.990   2.377
19438SOL    HW159755   6.944   2.938   2.297
19438SOL    HW259756   6.910   3.074   2.354
19439SOL     OW59757   6.160   2.047   2.776
19439SOL    HW159758   6.155   2.063   2.870
19439SOL    HW259759   6.139   2.131   2.736
19440SOL     OW59760   6.580   3.310   2.325
19440SOL    HW159761   6.553   3.384   2.270
19440SOL    HW259762   6.549   3.334   2.413
19441SOL     OW59763   5.940   3.677   2.722
19441SOL    HW159764   6.018   3.622   2.719
19441SOL    HW259765   5.969   3.756   2.768
19442SOL     OW59766   7.365   2.933   2.719
19442SOL    HW159767   7.301   2.907   2.652
19442SOL    HW259768   7.314   2.940   2.800
19443SOL     OW59769   6.808   3.407   3.369
19443SOL    HW159770   6.792   3.337   3.432
19443SOL    HW259771   6.720   3.437   3.344
19444SOL     OW59772   5.898   2.826   2.123
19444SOL    HW159773   5.976   2.846   2.071
19444SOL    HW259774   5.865   2.744   2.086
19445SOL     OW59775   7.071   2.605   2.582
19445SOL    HW159776   7.056   2.569   2.670
19445SOL    HW259777   7.149   2.660   2.592
19446SOL     OW59778   6.063   3.130   3.585
19446SOL    HW159779   6.035   3.114   3.494
19446SOL    HW259780   5.981   3.128   3.635
19447SOL     OW59781   6.720   3.633   2.097
19447SOL    HW159782   6.637   3.602   2.133
19447SOL    HW259783   6.740   3.572   2.026
19448SOL     OW59784   5.772   2.152   3.379
19448SOL    HW159785   5.692   2.180   3.422
19448SOL    HW259786   5.758   2.058   3.362
19449SOL     OW59787   7.213   3.245   1.957
19449SOL    HW159788   7.174   3.332   1.943
19449SOL    HW259789   7.144   3.184   1.934
19450SOL     OW59790   6.048   3.606   2.173
19450SOL    HW159791   6.093   3.659   2.239
19450SOL    HW259792   6.118   3.564   2.123
19451SOL     OW59793   6.984   1.933   2.323
19451SOL    HW159794   6.989   1.920   2.229
19451SOL    HW259795   7.068   1.900   2.356
19452SOL     OW59796   5.849   3.672   3.060
19452SOL    HW159797   5.878   3.586   3.093
19452SOL    HW259798   5.769   3.653   3.011
19453SOL     OW59799   6.505   3.560   2.753
19453SOL    HW159800   6.579   3.511   2.789
19453SOL    HW259801   6.478   3.509   2.677
19454SOL     OW59802   5.987   2.550   2.336
19454SOL    HW159803   5.999   2.456   2.351
19454SOL    HW259804   5.894   2.565   2.355
19455SOL     OW59805   7.113   2.077   3.591
19455SOL    HW159806   7.130   2.100   3.682
19455SOL    HW259807   7.041   2.013   3.595
19456SOL     OW59808   6.245   1.974   1.958
19456SOL    HW159809   6.289   1.893   1.986
19456SOL    HW259810   6.183   1.946   1.891
19457SOL     OW59811   6.338   2.115   3.596
19457SOL    HW159812   6.425   2.076   3.602
19457SOL    HW259813   6.298   2.101   3.682
19458SOL     OW59814   6.469   3.381   3.057
19458SOL    HW159815   6.451   3.341   2.972
19458SOL    HW259816   6.535   3.323   3.097
19459SOL     OW59817   7.007   2.432   3.274
19459SOL    HW159818   7.001   2.401   3.365
19459SOL    HW259819   6.981   2.524   3.278
19460SOL     OW59820   6.391   3.266   2.806
19460SOL    HW159821   6.477   3.252   2.768
19460SOL    HW259822   6.331   3.265   2.731
19461SOL     OW59823   6.537   2.384   2.757
19461SOL    HW159824   6.506   2.363   2.669
19461SOL    HW259825   6.552   2.298   2.798
19462SOL     OW59826   6.141   1.923   2.351
19462SOL    HW159827   6.065   1.924   2.409
19462SOL    HW259828   6.130   2.000   2.296
19463SOL     OW59829   7.008   3.071   1.902
19463SOL    HW159830   7.025   2.993   1.955
19463SOL    HW259831   6.921   3.101   1.930
19464SOL     OW59832   5.868   1.910   2.047
19464SOL    HW159833   5.921   1.978   2.006
19464SOL    HW259834   5.932   1.852   2.090
19465SOL     OW59835   6.532   2.109   2.307
19465SOL    HW159836   6.505   2.141   2.221
19465SOL    HW259837   6.621   2.144   2.319
19466SOL     OW59838   6.658   2.500   3.333
19466SOL    HW159839   6.564   2.487   3.327
19466SOL    HW259840   6.681   2.471   3.421
19467SOL     OW59841   6.811   3.431   2.657
19467SOL    HW159842   6.820   3.497   2.588
19467SOL    HW259843   6.841   3.474   2.737
19468SOL     OW59844   6.065   3.015   2.587
19468SOL    HW159845   6.002   2.992   2.655
19468SOL    HW259846   6.016   3.007   2.505
19469SOL     OW59847   6.844   3.651   2.478
19469SOL    HW159848   6.890   3.717   2.427
19469SOL    HW259849   6.771   3.698   2.519
19470SOL     OW59850   6.610   2.393   1.887
19470SOL    HW159851   6.561   2.473   1.866
19470SOL    HW259852   6.668   2.419   1.959
19471SOL     OW59853   5.667   2.432   3.242
19471SOL    HW159854   5.760   2.420   3.226
19471SOL    HW259855   5.662   2.495   3.314
19472SOL     OW59856   6.146   2.084   3.050
19472SOL    HW159857   6.183   2.038   3.125
19472SOL    HW259858   6.052   2.087   3.067
19473SOL     OW59859   6.458   2.320   2.502
19473SOL    HW159860   6.392   2.382   2.469
19473SOL    HW259861   6.456   2.247   2.441
19474SOL     OW59862   6.607   1.890   2.570
19474SOL    HW159863   6.527   1.882   2.518
19474SOL    HW259864   6.595   1.829   2.643
19475SOL     OW59865   7.018   3.014   2.711
19475SOL    HW159866   6.948   2.956   2.739
19475SOL    HW259867   7.007   3.020   2.616
19476SOL     OW59868   7.028   2.449   2.825
19476SOL    HW159869   6.959   2.384   2.812
19476SOL    HW259870   7.064   2.430   2.912
19477SOL     OW59871   7.404   2.662   2.242
19477SOL    HW159872   7.464   2.615   2.300
19477SOL    HW259873   7.390   2.603   2.168
19478SOL     OW59874   6.074   3.284   2.013
19478SOL    HW159875   6.002   3.258   2.070
19478SOL    HW259876   6.057   3.239   1.930
19479SOL     OW59877   7.289   3.169   2.493
19479SOL    HW159878   7.313   3.131   2.577
19479SOL    HW259879   7.229   3.240   2.514
19480SOL     OW59880   6.988   2.411   1.943
19480SOL    HW159881   6.916   2.416   2.006
19480SOL    HW259882   7.036   2.332   1.968
19481SOL     OW59883   6.114   2.119   2.164
19481SOL    HW159884   6.165   2.078   2.093
19481SOL    HW259885   6.086   2.203   2.128
19482SOL     OW59886   7.329   3.099   3.423
19482SOL    HW159887   7.403   3.051   3.461
19482SOL    HW259888   7.347   3.191   3.442
19483SOL     OW59889   6.640   3.195   3.175
19483SOL    HW159890   6.566   3.173   3.231
19483SOL    HW259891   6.717   3.170   3.227
19484SOL     OW59892   7.195   3.488   3.520
19484SOL    HW159893   7.194   3.526   3.432
19484SOL    HW259894   7.273   3.433   3.521
19485SOL     OW59895   6.719   3.057   2.952
19485SOL    HW159896   6.676   3.098   3.026
19485SOL    HW259897   6.689   3.106   2.876
19486SOL     OW59898   7.219   2.967   2.948
19486SOL    HW159899   7.220   3.027   3.022
19486SOL    HW259900   7.130   2.974   2.913
19487SOL     OW59901   6.514   1.947   3.255
19487SOL    HW159902   6.544   1.942   3.164
19487SOL    HW259903   6.588   1.986   3.302
19488SOL     OW59904   6.568   2.973   3.586
19488SOL    HW159905   6.476   2.973   3.612
19488SOL    HW259906   6.577   2.897   3.529
19489SOL     OW59907   6.298   2.927   2.234
19489SOL    HW159908   6.279   2.903   2.326
19489SOL    HW259909   6.373   2.873   2.210
19490SOL     OW59910   6.009   2.674   3.112
19490SOL    HW159911   6.073   2.686   3.183
19490SOL    HW259912   5.972   2.587   3.127
19491SOL     OW59913   6.862   2.245   3.127
19491SOL    HW159914   6.896   2.316   3.181
19491SOL    HW259915   6.769   2.267   3.115
19492SOL     OW59916   5.645   3.448   3.233
19492SOL    HW159917   5.592   3.501   3.173
19492SOL    HW259918   5.735   3.476   3.217
19493SOL     OW59919   5.926   2.987   2.352
19493SOL    HW159920   5.913   3.064   2.297
19493SOL    HW259921   5.921   2.913   2.291
19494SOL     OW59922   6.134   2.374   2.710
19494SOL    HW159923   6.148   2.434   2.637
19494SOL    HW259924   6.194   2.404   2.779
19495SOL     OW59925   6.828   3.216   2.258
19495SOL    HW159926   6.883   3.289   2.288
19495SOL    HW259927   6.740   3.238   2.287
19496SOL     OW59928   6.877   3.324   3.020
19496SOL    HW159929   6.937   3.336   3.094
19496SOL    HW259930   6.807   3.269   3.055
19497SOL     OW59931   7.169   2.486   2.345
19497SOL    HW159932   7.119   2.515   2.421
19497SOL    HW259933   7.218   2.564   2.318
19498SOL     OW59934   5.912   3.420   3.144
19498SOL    HW159935   5.876   3.331   3.145
19498SOL    HW259936   5.999   3.412   3.182
19499SOL     OW59937   6.009   2.605   3.477
19499SOL    HW159938   6.073   2.643   3.416
19499SOL    HW259939   6.054   2.528   3.513
19500SOL     OW59940   7.198   2.637   3.533
19500SOL    HW159941   7.107   2.667   3.531
19500SOL    HW259942   7.243   2.694   3.471
19501SOL     OW59943   6.586   1.995   3.598
19501SOL    HW159944   6.646   2.069   3.589
19501SOL    HW259945   6.641   1.917   3.588
19502SOL     OW59946   6.081   1.892   3.614
19502SOL    HW159947   6.023   1.845   3.554
19502SOL    HW259948   6.033   1.972   3.637
19503SOL     OW59949   6.168   2.728   2.897
19503SOL    HW159950   6.193   2.820   2.898
19503SOL    HW259951   6.111   2.717   2.973
19504SOL     OW59952   6.908   2.712   2.863
19504SOL    HW159953   6.815   2.697   2.848
19504SOL    HW259954   6.947   2.625   2.864
19505SOL     OW59955   6.779   2.398   2.119
19505SOL    HW159956   6.764   2.316   2.166
19505SOL    HW259957   6.739   2.465   2.175
19506SOL     OW59958   5.877   2.083   3.099
19506SOL    HW159959   5.853   2.134   3.176
19506SOL    HW259960   5.845   1.995   3.118
19507SOL     OW59961   5.708   3.194   3.142
19507SOL    HW159962   5.702   3.128   3.211
19507SOL    HW259963   5.659   3.269   3.176
19508SOL     OW59964   6.295   2.483   2.900
19508SOL    HW159965   6.381   2.489   2.859
19508SOL    HW259966   6.260   2.572   2.897
19509SOL     OW59967   7.313   2.826   3.715
19509SOL    HW159968   7.273   2.747   3.678
19509SOL    HW259969   7.258   2.847   3.791
19510SOL     OW59970   5.900   1.924   2.482
19510SOL    HW159971   5.871   2.012   2.503
19510SOL    HW259972   5.909   1.881   2.567
19511SOL     OW59973   7.198   2.238   2.230
19511SOL    HW159974   7.235   2.174   2.290
19511SOL    HW259975   7.183   2.316   2.284
19512SOL     OW59976   6.633   2.625   2.833
19512SOL    HW159977   6.614   2.638   2.926
19512SOL    HW259978   6.602   2.536   2.815
19513SOL     OW59979   6.579   3.443   3.587
19513SOL    HW159980   6.559   3.477   3.500
19513SOL    HW259981   6.598   3.350   3.572
19514SOL     OW59982   7.435   3.349   3.464
19514SOL    HW159983   7.458   3.391   3.380
19514SOL    HW259984   7.508   3.372   3.522
19515SOL     OW59985   5.941   2.798   3.663
19515SOL    HW159986   6.012   2.806   3.726
19515SOL    HW259987   5.968   2.726   3.606
19516SOL     OW59988   7.092   2.150   1.995
19516SOL    HW159989   7.044   2.070   2.018
19516SOL    HW259990   7.136   2.175   2.076
19517SOL     OW59991   6.891   2.681   1.898
19517SOL    HW159992   6.930   2.594   1.902
19517SOL    HW259993   6.918   2.716   1.812
19518SOL     OW59994   6.645   3.213   2.722
19518SOL    HW159995   6.656   3.138   2.663
19518SOL    HW259996   6.707   3.278   2.690
19519SOL     OW59997   5.891   2.664   2.800
19519SOL    HW159998   5.984   2.685   2.807
19519SOL    HW259999   5.884   2.575   2.834
19520SOL     OW60000   5.909   2.389   2.867
19520SOL    HW160001   5.870   2.302   2.856
19520SOL    HW260002   5.986   2.388   2.810
19521SOL     OW60003   6.755   2.205   3.520
19521SOL    HW160004   6.691   2.265   3.558
19521SOL    HW260005   6.839   2.250   3.530
19522SOL     OW60006   6.770   2.044   3.307
19522SOL    HW160007   6.761   2.097   3.386
19522SOL    HW260008   6.798   2.107   3.240
19523SOL     OW60009   5.604   3.173   2.042
19523SOL    HW160010   5.515   3.191   2.012
19523SOL    HW260011   5.598   3.088   2.085
19524SOL     OW60012   5.677   3.639   2.805
19524SOL    HW160013   5.639   3.564   2.760
19524SOL    HW260014   5.764   3.649   2.766
19525SOL     OW60015   6.565   2.634   3.095
19525SOL    HW160016   6.623   2.601   3.163
19525SOL    HW260017   6.477   2.622   3.131
19526SOL     OW60018   5.627   2.420   2.972
19526SOL    HW160019   5.714   2.415   2.933
19526SOL    HW260020   5.643   2.423   3.067
19527SOL     OW60021   5.765   2.387   3.600
19527SOL    HW160022   5.810   2.332   3.536
19527SOL    HW260023   5.735   2.463   3.549
19528SOL     OW60024   6.957   2.787   3.484
19528SOL    HW160025   6.987   2.877   3.496
19528SOL    HW260026   6.862   2.794   3.476
19529SOL     OW60027   6.410   2.442   2.215
19529SOL    HW160028   6.401   2.363   2.162
19529SOL    HW260029   6.332   2.494   2.195
19530SOL     OW60030   5.833   3.404   3.581
19530SOL    HW160031   5.805   3.474   3.640
19530SOL    HW260032   5.833   3.325   3.635
19531SOL     OW60033   6.306   2.308   3.112
19531SOL    HW160034   6.241   2.238   3.102
19531SOL    HW260035   6.289   2.367   3.038
19532SOL     OW60036   6.549   3.530   3.320
19532SOL    HW160037   6.495   3.493   3.251
19532SOL    HW260038   6.533   3.624   3.315
19533SOL     OW60039   6.047   2.351   2.038
19533SOL    HW160040   6.103   2.424   2.066
19533SOL    HW260041   5.959   2.389   2.032
19534SOL     OW60042   5.764   3.003   3.339
19534SOL    HW160043   5.739   2.960   3.421
19534SOL    HW260044   5.762   2.933   3.274
19535SOL     OW60045   6.919   2.903   3.060
19535SOL    HW160046   6.920   2.834   2.993
19535SOL    HW260047   6.847   2.961   3.032
19536SOL     OW60048   6.893   2.744   2.177
19536SOL    HW160049   6.829   2.705   2.236
19536SOL    HW260050   6.860   2.725   2.089
19537SOL     OW60051   7.353   3.591   3.007
19537SOL    HW160052   7.420   3.618   2.944
19537SOL    HW260053   7.331   3.502   2.982
19538SOL     OW60054   6.821   3.579   2.926
19538SOL    HW160055   6.909   3.612   2.907
19538SOL    HW260056   6.836   3.496   2.971
19539SOL     OW60057   5.703   3.124   2.881
19539SOL    HW160058   5.700   3.143   2.975
19539SOL    HW260059   5.612   3.130   2.853
19540SOL     OW60060   6.258   3.543   3.609
19540SOL    HW160061   6.191   3.612   3.609
19540SOL    HW260062   6.330   3.579   3.557
19541SOL     OW60063   7.321   2.030   2.371
19541SOL    HW160064   7.387   2.004   2.308
19541SOL    HW260065   7.290   1.948   2.410
19542SOL     OW60066   6.975   3.434   2.354
19542SOL    HW160067   7.031   3.470   2.286
19542SOL    HW260068   6.921   3.508   2.383
19543SOL     OW60069   5.745   3.651   3.697
19543SOL    HW160070   5.692   3.588   3.746
19543SOL    HW260071   5.785   3.706   3.764
19544SOL     OW60072   6.864   2.784   2.528
19544SOL    HW160073   6.940   2.727   2.542
19544SOL    HW260074   6.899   2.857   2.476
19545SOL     OW60075   6.399   3.137   3.298
19545SOL    HW160076   6.385   3.177   3.384
19545SOL    HW260077   6.318   3.154   3.250
19546SOL     OW60078   6.256   3.488   2.016
19546SOL    HW160079   6.265   3.504   1.922
19546SOL    HW260080   6.199   3.412   2.022
19547SOL     OW60081   7.210   3.594   3.253
19547SOL    HW160082   7.251   3.603   3.167
19547SOL    HW260083   7.195   3.684   3.282
19548SOL     OW60084   7.427   2.028   2.812
19548SOL    HW160085   7.461   1.940   2.796
19548SOL    HW260086   7.337   2.025   2.778
19549SOL     OW60087   5.836   2.175   2.568
19549SOL    HW160088   5.750   2.212   2.549
19549SOL    HW260089   5.838   2.167   2.663
19550SOL     OW60090   6.800   3.461   1.895
19550SOL    HW160091   6.784   3.370   1.922
19550SOL    HW260092   6.733   3.477   1.828
19551SOL     OW60093   6.409   2.866   3.239
19551SOL    HW160094   6.461   2.870   3.158
19551SOL    HW260095   6.408   2.957   3.271
19552SOL     OW60096   6.507   2.776   2.155
19552SOL    HW160097   6.568   2.808   2.089
19552SOL    HW260098   6.555   2.707   2.201
19553SOL     OW60099   7.077   3.486   1.911
19553SOL    HW160100   6.983   3.480   1.898
19553SOL    HW260101   7.113   3.496   1.823
19554SOL     OW60102   5.967   3.182   3.314
19554SOL    HW160103   5.928   3.252   3.366
19554SOL    HW260104   5.901   3.113   3.313
19555SOL     OW60105   7.209   3.155   3.155
19555SOL    HW160106   7.253   3.132   3.237
19555SOL    HW260107   7.142   3.219   3.181
19556SOL     OW60108   6.661   2.976   2.587
19556SOL    HW160109   6.584   2.931   2.623
19556SOL    HW260110   6.719   2.905   2.559
19557SOL     OW60111   6.612   2.103   2.817
19557SOL    HW160112   6.566   2.055   2.748
19557SOL    HW260113   6.612   2.042   2.891
19558SOL     OW60114   6.200   3.353   2.363
19558SOL    HW160115   6.239   3.302   2.292
19558SOL    HW260116   6.111   3.373   2.334
19559SOL     OW60117   7.323   2.270   3.220
19559SOL    HW160118   7.412   2.284   3.254
19559SOL    HW260119   7.329   2.188   3.171
19560SOL     OW60120   5.858   3.201   2.169
19560SOL    HW160121   5.769   3.199   2.134
19560SOL    HW260122   5.850   3.245   2.253
19561SOL     OW60123   5.693   2.899   3.583
19561SOL    HW160124   5.619   2.873   3.637
19561SOL    HW260125   5.769   2.862   3.627
19562SOL     OW60126   6.266   2.044   3.341
19562SOL    HW160127   6.354   2.019   3.313
19562SOL    HW260128   6.277   2.072   3.432
19563SOL     OW60129   5.668   2.179   1.872
19563SOL    HW160130   5.590   2.165   1.818
19563SOL    HW260131   5.699   2.266   1.846
19564SOL     OW60132   7.039   2.718   3.226
19564SOL    HW160133   6.985   2.782   3.179
19564SOL    HW260134   7.028   2.741   3.318
19565SOL     OW60135   5.637   2.012   2.157
19565SOL    HW160136   5.625   2.091   2.104
19565SOL    HW260137   5.723   1.979   2.131
19566SOL     OW60138   6.758   3.195   1.977
19566SOL    HW160139   6.663   3.185   1.971
19566SOL    HW260140   6.776   3.195   2.072
19567SOL     OW60141   6.207   2.688   3.296
19567SOL    HW160142   6.267   2.762   3.288
19567SOL    HW260143   6.264   2.613   3.312
19568SOL     OW60144   7.079   3.651   2.850
19568SOL    HW160145   7.094   3.726   2.792
19568SOL    HW260146   7.161   3.640   2.897
19569SOL     OW60147   6.273   2.455   3.552
19569SOL    HW160148   6.307   2.530   3.600
19569SOL    HW260149   6.318   2.379   3.590
19570SOL     OW60150   7.053   3.046   3.492
19570SOL    HW160151   7.033   3.062   3.585
19570SOL    HW260152   7.143   3.076   3.482
19571SOL     OW60153   5.953   3.598   3.426
19571SOL    HW160154   5.873   3.648   3.411
19571SOL    HW260155   5.925   3.522   3.477
19572SOL     OW60156   7.259   2.709   3.071
19572SOL    HW160157   7.182   2.721   3.126
19572SOL    HW260158   7.263   2.787   3.017
19573SOL     OW60159   6.806   2.167   2.341
19573SOL    HW160160   6.888   2.151   2.295
19573SOL    HW260161   6.828   2.235   2.406
19574SOL     OW60162   6.193   2.579   2.522
19574SOL    HW160163   6.222   2.670   2.519
19574SOL    HW260164   6.119   2.575   2.462
19575SOL     OW60165   7.346   2.218   3.494
19575SOL    HW160166   7.306   2.229   3.408
19575SOL    HW260167   7.288   2.157   3.540
19576SOL     OW60168   7.305   2.815   3.355
19576SOL    HW160169   7.292   2.901   3.394
19576SOL    HW260170   7.351   2.832   3.273
19577SOL     OW60171   6.477   3.227   1.927
19577SOL    HW160172   6.425   3.240   2.006
19577SOL    HW260173   6.466   3.309   1.878
19578SOL     OW60174   6.217   3.590   2.797
19578SOL    HW160175   6.196   3.683   2.801
19578SOL    HW260176   6.312   3.588   2.787
19579SOL     OW60177   6.462   2.837   2.719
19579SOL    HW160178   6.510   2.767   2.762
19579SOL    HW260179   6.416   2.882   2.790
19580SOL     OW60180   6.679   2.848   1.959
19580SOL    HW160181   6.647   2.901   1.886
19580SOL    HW260182   6.747   2.793   1.921
19581SOL     OW60183   7.423   3.403   2.702
19581SOL    HW160184   7.342   3.410   2.652
19581SOL    HW260185   7.397   3.366   2.786
19582SOL     OW60186   5.825   3.160   3.716
19582SOL    HW160187   5.754   3.100   3.691
19582SOL    HW260188   5.810   3.178   3.808
19583SOL     OW60189   5.680   3.092   2.538
19583SOL    HW160190   5.653   3.039   2.613
19583SOL    HW260191   5.748   3.040   2.495
19584SOL     OW60192   6.265   3.290   3.484
19584SOL    HW160193   6.195   3.239   3.525
19584SOL    HW260194   6.262   3.374   3.530
19585SOL     OW60195   7.385   2.049   3.083
19585SOL    HW160196   7.390   1.960   3.116
19585SOL    HW260197   7.402   2.041   2.989
19586SOL     OW60198   6.019   2.288   2.389
19586SOL    HW160199   6.038   2.214   2.332
19586SOL    HW260200   5.963   2.252   2.458
19587SOL     OW60201   7.292   3.332   2.941
19587SOL    HW160202   7.207   3.316   2.900
19587SOL    HW260203   7.293   3.277   3.019
19588SOL     OW60204   5.925   2.419   3.150
19588SOL    HW160205   5.972   2.357   3.206
19588SOL    HW260206   5.937   2.385   3.062
19589SOL     OW60207   6.416   3.459   2.512
19589SOL    HW160208   6.415   3.546   2.471
19589SOL    HW260209   6.339   3.415   2.476
19590SOL     OW60210   7.020   2.094   2.971
19590SOL    HW160211   7.041   2.013   3.018
19590SOL    HW260212   6.969   2.145   3.034
19591SOL     OW60213   6.605   1.884   2.994
19591SOL    HW160214   6.542   1.813   3.004
19591SOL    HW260215   6.689   1.840   2.978
19592SOL     OW60216   6.359   3.196   2.184
19592SOL    HW160217   6.330   3.105   2.196
19592SOL    HW260218   6.438   3.203   2.238
19593SOL     OW60219   6.207   3.444   3.095
19593SOL    HW160220   6.194   3.517   3.157
19593SOL    HW260221   6.301   3.427   3.098
19594SOL     OW60222   6.961   1.908   2.044
19594SOL    HW160223   7.001   1.835   1.997
19594SOL    HW260224   6.871   1.879   2.061
19595SOL     OW60225   6.887   2.328   2.540
19595SOL    HW160226   6.836   2.409   2.541
19595SOL    HW260227   6.875   2.292   2.628
19596SOL     OW60228   7.161   2.047   2.740
19596SOL    HW160229   7.115   2.072   2.820
19596SOL    HW260230   7.167   2.128   2.689
19597SOL     OW60231   5.633   2.928   2.169
19597SOL    HW160232   5.727   2.920   2.154
19597SOL    HW260233   5.604   2.839   2.191
19598SOL     OW60234   6.477   3.528   2.189
19598SOL    HW160235   6.401   3.510   2.133
19598SOL    HW260236   6.447   3.595   2.250
19599SOL     OW60237   5.801   2.489   3.859
19599SOL    HW160238   5.715   2.480   3.902
19599SOL    HW260239   5.785   2.464   3.768
19600SOL     OW60240   5.812   2.143   4.714
19600SOL    HW160241   5.836   2.111   4.801
19600SOL    HW260242   5.722   2.112   4.701
19601SOL     OW60243   5.575   2.255   4.366
19601SOL    HW160244   5.500   2.289   4.416
19601SOL    HW260245   5.542   2.175   4.324
19602SOL     OW60246   6.148   3.150   4.914
19602SOL    HW160247   6.057   3.130   4.891
19602SOL    HW260248   6.166   3.233   4.870
19603SOL     OW60249   7.160   3.380   4.439
19603SOL    HW160250   7.118   3.353   4.521
19603SOL    HW260251   7.088   3.384   4.375
19604SOL     OW60252   6.724   2.554   4.415
19604SOL    HW160253   6.768   2.638   4.401
19604SOL    HW260254   6.674   2.566   4.496
19605SOL     OW60255   7.385   2.457   3.940
19605SOL    HW160256   7.350   2.449   3.852
19605SOL    HW260257   7.338   2.391   3.991
19606SOL     OW60258   6.332   2.994   4.773
19606SOL    HW160259   6.267   3.025   4.835
19606SOL    HW260260   6.366   3.073   4.732
19607SOL     OW60261   6.465   2.615   5.554
19607SOL    HW160262   6.470   2.684   5.620
19607SOL    HW260263   6.484   2.659   5.471
19608SOL     OW60264   6.274   2.856   4.363
19608SOL    HW160265   6.339   2.851   4.433
19608SOL    HW260266   6.205   2.912   4.400
19609SOL     OW60267   6.289   3.008   5.532
19609SOL    HW160268   6.334   3.086   5.566
19609SOL    HW260269   6.203   3.040   5.505
19610SOL     OW60270   5.925   3.269   4.792
19610SOL    HW160271   5.843   3.232   4.761
19610SOL    HW260272   5.953   3.328   4.722
19611SOL     OW60273   7.048   3.369   5.077
19611SOL    HW160274   7.102   3.446   5.095
19611SOL    HW260275   6.972   3.380   5.134
19612SOL     OW60276   6.042   2.220   5.205
19612SOL    HW160277   6.069   2.225   5.297
19612SOL    HW260278   5.950   2.193   5.209
19613SOL     OW60279   7.181   2.301   4.475
19613SOL    HW160280   7.102   2.310   4.422
19613SOL    HW260281   7.171   2.367   4.544
19614SOL     OW60282   5.814   3.573   4.202
19614SOL    HW160283   5.829   3.651   4.255
19614SOL    HW260284   5.882   3.577   4.135
19615SOL     OW60285   6.732   3.212   5.369
19615SOL    HW160286   6.753   3.260   5.449
19615SOL    HW260287   6.680   3.137   5.399
19616SOL     OW60288   5.833   3.300   4.262
19616SOL    HW160289   5.809   3.392   4.267
19616SOL    HW260290   5.777   3.256   4.326
19617SOL     OW60291   5.876   2.953   4.630
19617SOL    HW160292   5.853   2.864   4.655
19617SOL    HW260293   5.809   3.008   4.670
19618SOL     OW60294   6.184   3.652   5.154
19618SOL    HW160295   6.102   3.637   5.200
19618SOL    HW260296   6.211   3.740   5.180
19619SOL     OW60297   6.159   2.845   3.863
19619SOL    HW160298   6.215   2.880   3.794
19619SOL    HW260299   6.197   2.879   3.944
19620SOL     OW60300   7.174   1.988   5.186
19620SOL    HW160301   7.209   2.071   5.153
19620SOL    HW260302   7.155   2.006   5.278
19621SOL     OW60303   5.709   2.519   4.286
19621SOL    HW160304   5.670   2.435   4.311
19621SOL    HW260305   5.696   2.574   4.363
19622SOL     OW60306   7.434   3.608   4.038
19622SOL    HW160307   7.500   3.584   4.103
19622SOL    HW260308   7.444   3.702   4.027
19623SOL     OW60309   5.640   3.443   3.832
19623SOL    HW160310   5.611   3.354   3.852
19623SOL    HW260311   5.611   3.495   3.907
19624SOL     OW60312   7.273   2.783   4.372
19624SOL    HW160313   7.358   2.741   4.357
19624SOL    HW260314   7.257   2.833   4.291
19625SOL     OW60315   7.247   2.962   4.148
19625SOL    HW160316   7.335   2.960   4.110
19625SOL    HW260317   7.251   3.031   4.214
19626SOL     OW60318   5.696   2.613   5.304
19626SOL    HW160319   5.776   2.665   5.314
19626SOL    HW260320   5.626   2.678   5.295
19627SOL     OW60321   6.213   3.255   4.457
19627SOL    HW160322   6.166   3.172   4.467
19627SOL    HW260323   6.193   3.283   4.368
19628SOL     OW60324   6.877   3.106   5.115
19628SOL    HW160325   6.918   3.032   5.070
19628SOL    HW260326   6.916   3.105   5.203
19629SOL     OW60327   6.417   1.897   4.264
19629SOL    HW160328   6.448   1.979   4.224
19629SOL    HW260329   6.322   1.901   4.257
19630SOL     OW60330   5.773   2.818   5.020
19630SOL    HW160331   5.851   2.773   4.986
19630SOL    HW260332   5.702   2.790   4.961
19631SOL     OW60333   7.122   2.867   3.922
19631SOL    HW160334   7.051   2.810   3.954
19631SOL    HW260335   7.164   2.899   4.002
19632SOL     OW60336   6.752   3.676   5.371
19632SOL    HW160337   6.791   3.643   5.290
19632SOL    HW260338   6.765   3.607   5.435
19633SOL     OW60339   5.942   2.125   5.557
19633SOL    HW160340   5.964   2.213   5.588
19633SOL    HW260341   5.847   2.118   5.569
19634SOL     OW60342   7.056   3.276   4.669
19634SOL    HW160343   6.991   3.293   4.737
19634SOL    HW260344   7.039   3.186   4.642
19635SOL     OW60345   7.240   3.622   4.296
19635SOL    HW160346   7.210   3.583   4.214
19635SOL    HW260347   7.225   3.555   4.362
19636SOL     OW60348   6.174   2.570   3.996
19636SOL    HW160349   6.175   2.658   3.957
19636SOL    HW260350   6.110   2.576   4.067
19637SOL     OW60351   6.865   2.235   4.662
19637SOL    HW160352   6.778   2.194   4.663
19637SOL    HW260353   6.918   2.179   4.719
19638SOL     OW60354   7.163   3.539   4.036
19638SOL    HW160355   7.256   3.560   4.027
19638SOL    HW260356   7.133   3.521   3.946
19639SOL     OW60357   6.373   2.483   5.158
19639SOL    HW160358   6.354   2.459   5.249
19639SOL    HW260359   6.336   2.411   5.106
19640SOL     OW60360   6.987   2.308   5.422
19640SOL    HW160361   6.972   2.348   5.508
19640SOL    HW260362   7.057   2.361   5.384
19641SOL     OW60363   6.531   2.737   5.319
19641SOL    HW160364   6.597   2.685   5.273
19641SOL    HW260365   6.484   2.782   5.249
19642SOL     OW60366   6.549   2.208   4.951
19642SOL    HW160367   6.467   2.255   4.968
19642SOL    HW260368   6.561   2.215   4.856
19643SOL     OW60369   6.641   2.561   4.145
19643SOL    HW160370   6.660   2.552   4.238
19643SOL    HW260371   6.557   2.516   4.133
19644SOL     OW60372   5.672   2.697   4.489
19644SOL    HW160373   5.746   2.686   4.549
19644SOL    HW260374   5.619   2.766   4.529
19645SOL     OW60375   5.703   3.720   5.293
19645SOL    HW160376   5.701   3.702   5.387
19645SOL    HW260377   5.614   3.701   5.262
19646SOL     OW60378   6.495   2.243   3.910
19646SOL    HW160379   6.530   2.304   3.845
19646SOL    HW260380   6.501   2.157   3.868
19647SOL     OW60381   7.311   2.427   5.549
19647SOL    HW160382   7.264   2.494   5.498
19647SOL    HW260383   7.336   2.361   5.485
19648SOL     OW60384   6.971   3.009   4.274
19648SOL    HW160385   7.049   3.001   4.219
19648SOL    HW260386   6.914   3.069   4.226
19649SOL     OW60387   6.140   2.034   4.624
19649SOL    HW160388   6.135   2.069   4.713
19649SOL    HW260389   6.132   2.111   4.567
19650SOL     OW60390   6.580   3.310   4.188
19650SOL    HW160391   6.555   3.387   4.138
19650SOL    HW260392   6.552   3.329   4.278
19651SOL     OW60393   5.938   3.669   4.582
19651SOL    HW160394   5.977   3.583   4.599
19651SOL    HW260395   5.992   3.731   4.632
19652SOL     OW60396   7.379   2.925   4.589
19652SOL    HW160397   7.321   2.893   4.521
19652SOL    HW260398   7.324   2.931   4.667
19653SOL     OW60399   6.813   3.420   5.206
19653SOL    HW160400   6.801   3.347   5.268
19653SOL    HW260401   6.725   3.452   5.189
19654SOL     OW60402   5.897   2.825   3.985
19654SOL    HW160403   5.979   2.835   3.937
19654SOL    HW260404   5.868   2.735   3.965
19655SOL     OW60405   7.066   2.612   4.437
19655SOL    HW160406   7.062   2.572   4.524
19655SOL    HW260407   7.143   2.669   4.441
19656SOL     OW60408   6.043   3.116   5.457
19656SOL    HW160409   6.007   3.129   5.369
19656SOL    HW260410   5.966   3.117   5.515
19657SOL     OW60411   6.717   3.644   3.946
19657SOL    HW160412   6.639   3.613   3.991
19657SOL    HW260413   6.739   3.575   3.884
19658SOL     OW60414   5.774   2.154   5.238
19658SOL    HW160415   5.688   2.194   5.224
19658SOL    HW260416   5.754   2.065   5.268
19659SOL     OW60417   7.214   3.239   3.799
19659SOL    HW160418   7.172   3.325   3.798
19659SOL    HW260419   7.142   3.177   3.789
19660SOL     OW60420   6.046   3.609   4.036
19660SOL    HW160421   6.089   3.658   4.105
19660SOL    HW260422   6.116   3.561   3.992
19661SOL     OW60423   6.987   1.969   4.168
19661SOL    HW160424   6.983   1.944   4.076
19661SOL    HW260425   7.081   1.967   4.189
19662SOL     OW60426   5.852   3.662   4.931
19662SOL    HW160427   5.883   3.581   4.972
19662SOL    HW260428   5.770   3.638   4.888
19663SOL     OW60429   6.532   3.565   4.617
19663SOL    HW160430   6.606   3.513   4.649
19663SOL    HW260431   6.494   3.511   4.548
19664SOL     OW60432   5.983   2.552   4.196
19664SOL    HW160433   5.998   2.458   4.212
19664SOL    HW260434   5.890   2.565   4.217
19665SOL     OW60435   7.124   2.069   5.446
19665SOL    HW160436   7.139   2.069   5.541
19665SOL    HW260437   7.056   2.135   5.433
19666SOL     OW60438   6.237   1.976   3.831
19666SOL    HW160439   6.288   1.902   3.864
19666SOL    HW260440   6.184   1.938   3.760
19667SOL     OW60441   6.347   2.132   5.471
19667SOL    HW160442   6.427   2.080   5.473
19667SOL    HW260443   6.294   2.098   5.543
19668SOL     OW60444   6.461   3.372   4.922
19668SOL    HW160445   6.446   3.334   4.835
19668SOL    HW260446   6.524   3.313   4.964
19669SOL     OW60447   6.924   2.451   5.156
19669SOL    HW160448   6.966   2.455   5.242
19669SOL    HW260449   6.960   2.525   5.108
19670SOL     OW60450   6.403   3.242   4.674
19670SOL    HW160451   6.489   3.234   4.632
19670SOL    HW260452   6.342   3.253   4.601
19671SOL     OW60453   6.521   2.368   4.623
19671SOL    HW160454   6.491   2.366   4.532
19671SOL    HW260455   6.549   2.279   4.641
19672SOL     OW60456   6.144   1.927   4.216
19672SOL    HW160457   6.065   1.926   4.270
19672SOL    HW260458   6.133   2.003   4.159
19673SOL     OW60459   7.005   3.060   3.761
19673SOL    HW160460   7.035   2.989   3.817
19673SOL    HW260461   6.921   3.086   3.799
19674SOL     OW60462   5.881   1.914   3.923
19674SOL    HW160463   5.939   1.985   3.897
19674SOL    HW260464   5.938   1.850   3.966
19675SOL     OW60465   6.530   2.133   4.172
19675SOL    HW160466   6.511   2.172   4.086
19675SOL    HW260467   6.625   2.141   4.180
19676SOL     OW60468   6.671   2.554   5.165
19676SOL    HW160469   6.613   2.485   5.199
19676SOL    HW260470   6.759   2.517   5.173
19677SOL     OW60471   6.808   3.429   4.516
19677SOL    HW160472   6.820   3.499   4.453
19677SOL    HW260473   6.866   3.452   4.589
19678SOL     OW60474   6.068   3.019   4.450
19678SOL    HW160475   6.005   2.999   4.519
19678SOL    HW260476   6.019   3.008   4.369
19679SOL     OW60477   6.846   3.652   4.338
19679SOL    HW160478   6.892   3.719   4.288
19679SOL    HW260479   6.772   3.698   4.378
19680SOL     OW60480   5.686   2.426   5.107
19680SOL    HW160481   5.780   2.428   5.089
19680SOL    HW260482   5.673   2.493   5.174
19681SOL     OW60483   6.140   2.074   4.904
19681SOL    HW160484   6.157   1.980   4.912
19681SOL    HW260485   6.050   2.084   4.933
19682SOL     OW60486   6.453   2.327   4.363
19682SOL    HW160487   6.406   2.383   4.301
19682SOL    HW260488   6.476   2.249   4.311
19683SOL     OW60489   6.604   1.915   4.466
19683SOL    HW160490   6.541   1.911   4.393
19683SOL    HW260491   6.582   1.840   4.520
19684SOL     OW60492   7.011   3.020   4.574
19684SOL    HW160493   6.956   2.945   4.599
19684SOL    HW260494   7.004   3.023   4.479
19685SOL     OW60495   7.047   2.471   4.677
19685SOL    HW160496   6.984   2.400   4.688
19685SOL    HW260497   7.104   2.465   4.754
19686SOL     OW60498   7.442   2.670   4.104
19686SOL    HW160499   7.490   2.620   4.170
19686SOL    HW260500   7.411   2.605   4.041
19687SOL     OW60501   6.076   3.286   3.881
19687SOL    HW160502   5.999   3.265   3.934
19687SOL    HW260503   6.067   3.232   3.803
19688SOL     OW60504   7.278   3.147   4.334
19688SOL    HW160505   7.366   3.141   4.370
19688SOL    HW260506   7.240   3.224   4.377
19689SOL     OW60507   6.973   2.430   3.790
19689SOL    HW160508   6.904   2.413   3.854
19689SOL    HW260509   7.054   2.402   3.833
19690SOL     OW60510   6.105   2.123   4.028
19690SOL    HW160511   6.162   2.082   3.963
19690SOL    HW260512   6.078   2.205   3.988
19691SOL     OW60513   7.316   3.119   5.268
19691SOL    HW160514   7.387   3.056   5.278
19691SOL    HW260515   7.351   3.200   5.304
19692SOL     OW60516   6.616   3.179   5.086
19692SOL    HW160517   6.591   3.207   5.174
19692SOL    HW260518   6.708   3.155   5.093
19693SOL     OW60519   7.212   3.513   5.387
19693SOL    HW160520   7.195   3.532   5.295
19693SOL    HW260521   7.285   3.452   5.386
19694SOL     OW60522   6.724   3.081   4.833
19694SOL    HW160523   6.658   3.102   4.899
19694SOL    HW260524   6.689   3.117   4.751
19695SOL     OW60525   7.218   2.969   4.805
19695SOL    HW160526   7.217   3.028   4.881
19695SOL    HW260527   7.129   2.975   4.770
19696SOL     OW60528   6.556   3.000   5.411
19696SOL    HW160529   6.474   3.009   5.460
19696SOL    HW260530   6.567   2.906   5.399
19697SOL     OW60531   6.300   2.925   4.091
19697SOL    HW160532   6.283   2.903   4.182
19697SOL    HW260533   6.374   2.869   4.066
19698SOL     OW60534   6.013   2.680   4.971
19698SOL    HW160535   6.074   2.698   5.042
19698SOL    HW260536   5.981   2.591   4.989
19699SOL     OW60537   6.853   2.236   5.008
19699SOL    HW160538   6.888   2.310   5.058
19699SOL    HW260539   6.767   2.266   4.978
19700SOL     OW60540   5.645   3.431   5.094
19700SOL    HW160541   5.579   3.500   5.086
19700SOL    HW260542   5.729   3.477   5.084
19701SOL     OW60543   5.928   2.985   4.216
19701SOL    HW160544   5.906   3.063   4.165
19701SOL    HW260545   5.921   2.913   4.154
19702SOL     OW60546   6.132   2.387   4.585
19702SOL    HW160547   6.145   2.445   4.510
19702SOL    HW260548   6.198   2.415   4.649
19703SOL     OW60549   6.832   3.217   4.116
19703SOL    HW160550   6.887   3.286   4.153
19703SOL    HW260551   6.744   3.236   4.149
19704SOL     OW60552   6.878   3.318   4.870
19704SOL    HW160553   6.929   3.327   4.950
19704SOL    HW260554   6.830   3.236   4.881
19705SOL     OW60555   7.163   2.490   4.204
19705SOL    HW160556   7.115   2.514   4.283
19705SOL    HW260557   7.171   2.572   4.155
19706SOL     OW60558   5.933   3.412   5.024
19706SOL    HW160559   5.914   3.356   4.949
19706SOL    HW260560   6.028   3.426   5.021
19707SOL     OW60561   6.002   2.633   5.334
19707SOL    HW160562   6.072   2.664   5.276
19707SOL    HW260563   6.020   2.539   5.344
19708SOL     OW60564   6.576   1.988   5.463
19708SOL    HW160565   6.638   2.060   5.455
19708SOL    HW260566   6.624   1.912   5.428
19709SOL     OW60567   6.081   1.906   5.472
19709SOL    HW160568   6.028   1.853   5.412
19709SOL    HW260569   6.026   1.980   5.494
19710SOL     OW60570   6.177   2.724   4.757
19710SOL    HW160571   6.199   2.817   4.751
19710SOL    HW260572   6.115   2.718   4.829
19711SOL     OW60573   6.917   2.729   4.716
19711SOL    HW160574   6.828   2.700   4.697
19711SOL    HW260575   6.968   2.649   4.721
19712SOL     OW60576   6.815   2.390   4.006
19712SOL    HW160577   6.810   2.312   4.062
19712SOL    HW260578   6.752   2.451   4.045
19713SOL     OW60579   5.877   2.064   4.971
19713SOL    HW160580   5.816   2.090   5.039
19713SOL    HW260581   5.869   1.968   4.966
19714SOL     OW60582   5.693   3.178   5.002
19714SOL    HW160583   5.682   3.123   5.079
19714SOL    HW260584   5.662   3.264   5.030
19715SOL     OW60585   6.305   2.483   4.780
19715SOL    HW160586   6.381   2.478   4.722
19715SOL    HW260587   6.271   2.571   4.768
19716SOL     OW60588   7.314   2.806   5.552
19716SOL    HW160589   7.262   2.745   5.500
19716SOL    HW260590   7.257   2.829   5.626
19717SOL     OW60591   5.899   1.925   4.344
19717SOL    HW160592   5.868   2.013   4.364
19717SOL    HW260593   5.907   1.882   4.429
19718SOL     OW60594   7.228   2.257   4.077
19718SOL    HW160595   7.248   2.188   4.141
19718SOL    HW260596   7.195   2.330   4.130
19719SOL     OW60597   6.620   2.618   4.682
19719SOL    HW160598   6.601   2.637   4.774
19719SOL    HW260599   6.591   2.528   4.669
19720SOL     OW60600   6.512   3.447   5.434
19720SOL    HW160601   6.535   3.463   5.342
19720SOL    HW260602   6.596   3.446   5.480
19721SOL     OW60603   7.438   3.362   5.330
19721SOL    HW160604   7.462   3.393   5.243
19721SOL    HW260605   7.518   3.372   5.382
19722SOL     OW60606   5.949   2.780   5.558
19722SOL    HW160607   6.038   2.801   5.589
19722SOL    HW260608   5.963   2.726   5.480
19723SOL     OW60609   7.132   2.136   3.850
19723SOL    HW160610   7.069   2.070   3.877
19723SOL    HW260611   7.160   2.179   3.931
19724SOL     OW60612   6.874   2.691   3.748
19724SOL    HW160613   6.885   2.596   3.759
19724SOL    HW260614   6.915   2.710   3.664
19725SOL     OW60615   6.654   3.204   4.583
19725SOL    HW160616   6.664   3.131   4.522
19725SOL    HW260617   6.713   3.271   4.549
19726SOL     OW60618   5.888   2.665   4.663
19726SOL    HW160619   5.981   2.682   4.655
19726SOL    HW260620   5.882   2.577   4.701
19727SOL     OW60621   5.913   2.389   4.743
19727SOL    HW160622   5.873   2.303   4.728
19727SOL    HW260623   5.988   2.392   4.684
19728SOL     OW60624   6.721   2.222   5.415
19728SOL    HW160625   6.675   2.279   5.476
19728SOL    HW260626   6.811   2.254   5.416
19729SOL     OW60627   6.723   2.073   5.185
19729SOL    HW160628   6.721   2.125   5.265
19729SOL    HW260629   6.783   2.120   5.127
19730SOL     OW60630   5.595   3.171   3.903
19730SOL    HW160631   5.507   3.189   3.872
19730SOL    HW260632   5.589   3.084   3.943
19731SOL     OW60633   5.671   3.644   4.647
19731SOL    HW160634   5.637   3.563   4.610
19731SOL    HW260635   5.762   3.647   4.619
19732SOL     OW60636   6.080   3.434   4.628
19732SOL    HW160637   6.146   3.502   4.643
19732SOL    HW260638   6.122   3.373   4.567
19733SOL     OW60639   6.541   2.645   4.943
19733SOL    HW160640   6.603   2.629   5.014
19733SOL    HW260641   6.460   2.605   4.973
19734SOL     OW60642   5.620   2.412   4.841
19734SOL    HW160643   5.703   2.406   4.794
19734SOL    HW260644   5.646   2.417   4.933
19735SOL     OW60645   5.776   2.390   5.453
19735SOL    HW160646   5.772   2.321   5.387
19735SOL    HW260647   5.738   2.467   5.410
19736SOL     OW60648   6.924   2.810   5.379
19736SOL    HW160649   6.959   2.897   5.362
19736SOL    HW260650   6.998   2.751   5.367
19737SOL     OW60651   6.402   2.438   4.094
19737SOL    HW160652   6.417   2.369   4.029
19737SOL    HW260653   6.324   2.483   4.064
19738SOL     OW60654   7.213   2.444   4.887
19738SOL    HW160655   7.208   2.419   4.979
19738SOL    HW260656   7.305   2.437   4.864
19739SOL     OW60657   5.846   3.410   5.454
19739SOL    HW160658   5.815   3.481   5.509
19739SOL    HW260659   5.827   3.330   5.503
19740SOL     OW60660   6.291   2.295   4.975
19740SOL    HW160661   6.230   2.226   4.949
19740SOL    HW260662   6.281   2.362   4.908
19741SOL     OW60663   6.556   3.525   5.166
19741SOL    HW160664   6.506   3.502   5.088
19741SOL    HW260665   6.543   3.620   5.176
19742SOL     OW60666   6.036   2.349   3.889
19742SOL    HW160667   6.098   2.416   3.918
19742SOL    HW260668   5.951   2.394   3.888
19743SOL     OW60669   5.751   3.000   5.217
19743SOL    HW160670   5.738   2.954   5.300
19743SOL    HW260671   5.754   2.931   5.151
19744SOL     OW60672   6.924   2.910   4.922
19744SOL    HW160673   6.927   2.842   4.855
19744SOL    HW260674   6.854   2.968   4.895
19745SOL     OW60675   6.915   2.723   4.027
19745SOL    HW160676   6.850   2.688   4.088
19745SOL    HW260677   6.877   2.706   3.941
19746SOL     OW60678   7.356   3.598   4.873
19746SOL    HW160679   7.420   3.620   4.805
19746SOL    HW260680   7.335   3.506   4.856
19747SOL     OW60681   6.824   3.587   4.812
19747SOL    HW160682   6.912   3.613   4.783
19747SOL    HW260683   6.835   3.499   4.846
19748SOL     OW60684   5.689   3.119   4.741
19748SOL    HW160685   5.688   3.134   4.836
19748SOL    HW260686   5.598   3.130   4.714
19749SOL     OW60687   6.255   3.532   5.489
19749SOL    HW160688   6.216   3.615   5.461
19749SOL    HW260689   6.346   3.538   5.460
19750SOL     OW60690   7.316   2.029   4.225
19750SOL    HW160691   7.385   2.011   4.162
19750SOL    HW260692   7.296   1.945   4.265
19751SOL     OW60693   6.979   3.432   4.220
19751SOL    HW160694   7.033   3.470   4.151
19751SOL    HW260695   6.926   3.505   4.252
19752SOL     OW60696   5.742   3.651   5.556
19752SOL    HW160697   5.687   3.590   5.605
19752SOL    HW260698   5.781   3.708   5.623
19753SOL     OW60699   6.861   2.786   4.382
19753SOL    HW160700   6.935   2.729   4.400
19753SOL    HW260701   6.899   2.861   4.337
19754SOL     OW60702   6.256   3.491   3.883
19754SOL    HW160703   6.262   3.506   3.788
19754SOL    HW260704   6.201   3.412   3.891
19755SOL     OW60705   7.206   3.592   5.113
19755SOL    HW160706   7.259   3.596   5.033
19755SOL    HW260707   7.195   3.683   5.138
19756SOL     OW60708   7.432   2.030   4.683
19756SOL    HW160709   7.459   1.940   4.663
19756SOL    HW260710   7.343   2.037   4.648
19757SOL     OW60711   5.833   2.174   4.434
19757SOL    HW160712   5.747   2.210   4.413
19757SOL    HW260713   5.833   2.168   4.530
19758SOL     OW60714   6.799   3.454   3.759
19758SOL    HW160715   6.783   3.366   3.793
19758SOL    HW260716   6.727   3.469   3.697
19759SOL     OW60717   6.427   2.883   5.104
19759SOL    HW160718   6.458   2.854   5.018
19759SOL    HW260719   6.481   2.959   5.125
19760SOL     OW60720   6.505   2.771   4.002
19760SOL    HW160721   6.571   2.811   3.946
19760SOL    HW260722   6.552   2.703   4.051
19761SOL     OW60723   7.074   3.490   3.773
19761SOL    HW160724   6.980   3.478   3.761
19761SOL    HW260725   7.108   3.497   3.683
19762SOL     OW60726   5.959   3.173   5.192
19762SOL    HW160727   5.915   3.255   5.165
19762SOL    HW260728   5.888   3.109   5.195
19763SOL     OW60729   7.204   3.152   5.012
19763SOL    HW160730   7.248   3.128   5.094
19763SOL    HW260731   7.139   3.217   5.038
19764SOL     OW60732   6.657   2.974   4.437
19764SOL    HW160733   6.581   2.928   4.474
19764SOL    HW260734   6.718   2.904   4.413
19765SOL     OW60735   6.616   2.100   4.681
19765SOL    HW160736   6.610   2.054   4.597
19765SOL    HW260737   6.609   2.030   4.746
19766SOL     OW60738   6.185   3.347   4.201
19766SOL    HW160739   6.222   3.300   4.127
19766SOL    HW260740   6.093   3.360   4.178
19767SOL     OW60741   7.317   2.237   5.111
19767SOL    HW160742   7.383   2.306   5.105
19767SOL    HW260743   7.346   2.171   5.047
19768SOL     OW60744   5.845   3.211   4.012
19768SOL    HW160745   5.752   3.202   3.989
19768SOL    HW260746   5.844   3.248   4.100
19769SOL     OW60747   5.708   2.899   5.466
19769SOL    HW160748   5.626   2.873   5.508
19769SOL    HW260749   5.776   2.852   5.514
19770SOL     OW60750   6.331   2.074   5.195
19770SOL    HW160751   6.263   2.131   5.160
19770SOL    HW260752   6.332   2.093   5.289
19771SOL     OW60753   5.679   2.179   3.760
19771SOL    HW160754   5.586   2.163   3.743
19771SOL    HW260755   5.697   2.261   3.713
19772SOL     OW60756   7.033   2.681   5.062
19772SOL    HW160757   6.996   2.767   5.048
19772SOL    HW260758   7.070   2.684   5.150
19773SOL     OW60759   5.643   2.010   4.026
19773SOL    HW160760   5.633   2.095   3.981
19773SOL    HW260761   5.729   1.979   3.999
19774SOL     OW60762   6.763   3.191   3.846
19774SOL    HW160763   6.680   3.143   3.849
19774SOL    HW260764   6.790   3.197   3.938
19775SOL     OW60765   6.211   2.705   5.158
19775SOL    HW160766   6.270   2.780   5.151
19775SOL    HW260767   6.270   2.629   5.162
19776SOL     OW60768   7.076   3.656   4.720
19776SOL    HW160769   7.102   3.724   4.658
19776SOL    HW260770   7.158   3.627   4.759
19777SOL     OW60771   6.317   2.415   5.412
19777SOL    HW160772   6.350   2.478   5.476
19777SOL    HW260773   6.328   2.330   5.455
19778SOL     OW60774   7.053   3.051   5.340
19778SOL    HW160775   7.041   3.069   5.433
19778SOL    HW260776   7.143   3.077   5.322
19779SOL     OW60777   5.954   3.607   5.293
19779SOL    HW160778   5.871   3.651   5.276
19779SOL    HW260779   5.931   3.528   5.341
19780SOL     OW60780   7.307   2.743   4.955
19780SOL    HW160781   7.234   2.682   4.958
19780SOL    HW260782   7.275   2.817   4.903
19781SOL     OW60783   6.805   2.179   4.190
19781SOL    HW160784   6.864   2.104   4.183
19781SOL    HW260785   6.836   2.228   4.266
19782SOL     OW60786   6.174   2.591   4.398
19782SOL    HW160787   6.212   2.678   4.384
19782SOL    HW260788   6.107   2.583   4.330
19783SOL     OW60789   7.350   2.208   5.380
19783SOL    HW160790   7.333   2.231   5.289
19783SOL    HW260791   7.275   2.154   5.405
19784SOL     OW60792   7.390   2.793   5.214
19784SOL    HW160793   7.312   2.778   5.268
19784SOL    HW260794   7.360   2.780   5.124
19785SOL     OW60795   6.439   3.234   3.772
19785SOL    HW160796   6.412   3.226   3.864
19785SOL    HW260797   6.449   3.328   3.757
19786SOL     OW60798   6.253   3.641   4.643
19786SOL    HW160799   6.228   3.733   4.639
19786SOL    HW260800   6.349   3.643   4.648
19787SOL     OW60801   6.459   2.838   4.576
19787SOL    HW160802   6.506   2.764   4.614
19787SOL    HW260803   6.416   2.880   4.650
19788SOL     OW60804   6.682   2.875   3.820
19788SOL    HW160805   6.641   2.906   3.739
19788SOL    HW260806   6.743   2.808   3.792
19789SOL     OW60807   7.421   3.404   4.560
19789SOL    HW160808   7.335   3.399   4.519
19789SOL    HW260809   7.412   3.356   4.642
19790SOL     OW60810   5.795   3.158   5.569
19790SOL    HW160811   5.751   3.086   5.523
19790SOL    HW260812   5.737   3.178   5.643
19791SOL     OW60813   5.686   3.091   4.401
19791SOL    HW160814   5.658   3.051   4.483
19791SOL    HW260815   5.752   3.031   4.366
19792SOL     OW60816   6.229   3.288   5.350
19792SOL    HW160817   6.177   3.240   5.414
19792SOL    HW260818   6.254   3.369   5.396
19793SOL     OW60819   7.397   2.032   4.954
19793SOL    HW160820   7.397   1.936   4.960
19793SOL    HW260821   7.411   2.050   4.861
19794SOL     OW60822   6.013   2.291   4.250
19794SOL    HW160823   6.040   2.218   4.194
19794SOL    HW260824   5.957   2.251   4.317
19795SOL     OW60825   7.287   3.341   4.811
19795SOL    HW160826   7.205   3.321   4.766
19795SOL    HW260827   7.290   3.279   4.885
19796SOL     OW60828   5.946   2.419   5.020
19796SOL    HW160829   5.990   2.347   5.065
19796SOL    HW260830   5.942   2.391   4.929
19797SOL     OW60831   6.423   3.437   4.398
19797SOL    HW160832   6.386   3.506   4.343
19797SOL    HW260833   6.351   3.376   4.412
19798SOL     OW60834   7.015   2.091   4.840
19798SOL    HW160835   7.045   2.014   4.888
19798SOL    HW260836   6.969   2.144   4.906
19799SOL     OW60837   6.587   1.873   4.889
19799SOL    HW160838   6.531   1.814   4.839
19799SOL    HW260839   6.674   1.836   4.881
19800SOL     OW60840   6.372   3.189   4.034
19800SOL    HW160841   6.343   3.100   4.053
19800SOL    HW260842   6.442   3.206   4.097
19801SOL     OW60843   6.214   3.416   5.031
19801SOL    HW160844   6.208   3.502   5.073
19801SOL    HW260845   6.298   3.419   4.984
19802SOL     OW60846   6.968   1.915   3.893
19802SOL    HW160847   7.005   1.834   3.856
19802SOL    HW260848   6.876   1.894   3.908
19803SOL     OW60849   6.895   2.327   4.405
19803SOL    HW160850   6.841   2.406   4.401
19803SOL    HW260851   6.882   2.293   4.493
19804SOL     OW60852   7.169   2.051   4.611
19804SOL    HW160853   7.116   2.077   4.687
19804SOL    HW260854   7.169   2.127   4.554
19805SOL     OW60855   5.633   2.923   4.024
19805SOL    HW160856   5.727   2.913   4.009
19805SOL    HW260857   5.603   2.835   4.046
19806SOL     OW60858   6.482   3.533   4.054
19806SOL    HW160859   6.402   3.514   4.004
19806SOL    HW260860   6.454   3.599   4.118
19807SOL     OW60861   5.805   2.475   5.724
19807SOL    HW160862   5.717   2.470   5.761
19807SOL    HW260863   5.792   2.463   5.630
19808SOL     OW60864   5.810   2.139   6.575
19808SOL    HW160865   5.835   2.106   6.661
19808SOL    HW260866   5.720   2.108   6.562
19809SOL     OW60867   5.573   2.249   6.229
19809SOL    HW160868   5.494   2.281   6.273
19809SOL    HW260869   5.544   2.172   6.180
19810SOL     OW60870   6.162   3.158   6.773
19810SOL    HW160871   6.077   3.166   6.729
19810SOL    HW260872   6.180   3.245   6.807
19811SOL     OW60873   7.153   3.376   6.283
19811SOL    HW160874   7.112   3.357   6.367
19811SOL    HW260875   7.079   3.383   6.222
19812SOL     OW60876   6.722   2.559   6.279
19812SOL    HW160877   6.769   2.640   6.263
19812SOL    HW260878   6.676   2.573   6.362
19813SOL     OW60879   7.375   2.457   5.809
19813SOL    HW160880   7.349   2.454   5.717
19813SOL    HW260881   7.330   2.382   5.849
19814SOL     OW60882   6.328   2.994   6.633
19814SOL    HW160883   6.263   3.032   6.691
19814SOL    HW260884   6.371   3.069   6.592
19815SOL     OW60885   6.454   2.618   7.412
19815SOL    HW160886   6.413   2.682   7.469
19815SOL    HW260887   6.477   2.668   7.333
19816SOL     OW60888   6.250   2.847   6.239
19816SOL    HW160889   6.326   2.829   6.294
19816SOL    HW260890   6.210   2.925   6.278
19817SOL     OW60891   6.306   3.021   7.403
19817SOL    HW160892   6.348   3.101   7.436
19817SOL    HW260893   6.223   3.052   7.367
19818SOL     OW60894   5.935   3.256   6.646
19818SOL    HW160895   5.849   3.233   6.612
19818SOL    HW260896   5.966   3.326   6.588
19819SOL     OW60897   7.040   3.360   6.958
19819SOL    HW160898   7.081   3.446   6.966
19819SOL    HW260899   6.961   3.367   7.013
19820SOL     OW60900   6.047   2.239   7.039
19820SOL    HW160901   6.113   2.173   7.061
19820SOL    HW260902   5.964   2.200   7.068
19821SOL     OW60903   7.186   2.299   6.335
19821SOL    HW160904   7.119   2.316   6.269
19821SOL    HW260905   7.180   2.373   6.395
19822SOL     OW60906   5.849   3.546   6.079
19822SOL    HW160907   5.849   3.630   6.126
19822SOL    HW260908   5.861   3.571   5.987
19823SOL     OW60909   6.721   3.201   7.276
19823SOL    HW160910   6.755   3.202   7.366
19823SOL    HW260911   6.668   3.121   7.272
19824SOL     OW60912   5.846   3.283   6.146
19824SOL    HW160913   5.837   3.378   6.138
19824SOL    HW260914   5.776   3.258   6.207
19825SOL     OW60915   5.865   2.950   6.493
19825SOL    HW160916   5.833   2.866   6.525
19825SOL    HW260917   5.804   3.014   6.528
19826SOL     OW60918   6.205   3.633   7.040
19826SOL    HW160919   6.114   3.622   7.069
19826SOL    HW260920   6.222   3.727   7.049
19827SOL     OW60921   6.185   2.836   5.719
19827SOL    HW160922   6.229   2.888   5.651
19827SOL    HW260923   6.211   2.878   5.801
19828SOL     OW60924   7.183   1.990   7.050
19828SOL    HW160925   7.214   2.070   7.007
19828SOL    HW260926   7.154   2.019   7.137
19829SOL     OW60927   5.712   2.501   6.152
19829SOL    HW160928   5.662   2.422   6.172
19829SOL    HW260929   5.695   2.559   6.226
19830SOL     OW60930   7.432   3.615   5.904
19830SOL    HW160931   7.508   3.589   5.956
19830SOL    HW260932   7.445   3.708   5.886
19831SOL     OW60933   5.642   3.448   5.701
19831SOL    HW160934   5.589   3.369   5.711
19831SOL    HW260935   5.621   3.500   5.778
19832SOL     OW60936   7.276   2.779   6.225
19832SOL    HW160937   7.356   2.739   6.191
19832SOL    HW260938   7.247   2.838   6.156
19833SOL     OW60939   7.234   2.968   6.020
19833SOL    HW160940   7.320   2.972   5.978
19833SOL    HW260941   7.240   3.031   6.092
19834SOL     OW60942   5.690   2.612   7.163
19834SOL    HW160943   5.768   2.662   7.187
19834SOL    HW260944   5.622   2.678   7.150
19835SOL     OW60945   6.210   3.257   6.329
19835SOL    HW160946   6.156   3.179   6.342
19835SOL    HW260947   6.190   3.285   6.239
19836SOL     OW60948   6.868   3.097   7.002
19836SOL    HW160949   6.895   3.026   6.944
19836SOL    HW260950   6.925   3.088   7.079
19837SOL     OW60951   6.410   1.861   6.104
19837SOL    HW160952   6.451   1.943   6.077
19837SOL    HW260953   6.316   1.880   6.106
19838SOL     OW60954   5.771   2.815   6.890
19838SOL    HW160955   5.852   2.779   6.854
19838SOL    HW260956   5.707   2.803   6.821
19839SOL     OW60957   7.123   2.860   5.782
19839SOL    HW160958   7.055   2.803   5.817
19839SOL    HW260959   7.164   2.899   5.860
19840SOL     OW60960   6.806   3.695   7.219
19840SOL    HW160961   6.786   3.755   7.146
19840SOL    HW260962   6.797   3.608   7.180
19841SOL     OW60963   5.914   2.112   7.423
19841SOL    HW160964   5.941   2.199   7.394
19841SOL    HW260965   5.822   2.123   7.449
19842SOL     OW60966   7.063   3.286   6.535
19842SOL    HW160967   6.992   3.302   6.597
19842SOL    HW260968   7.049   3.195   6.506
19843SOL     OW60969   7.233   3.630   6.160
19843SOL    HW160970   7.213   3.595   6.073
19843SOL    HW260971   7.221   3.555   6.219
19844SOL     OW60972   6.174   2.584   5.855
19844SOL    HW160973   6.191   2.660   5.800
19844SOL    HW260974   6.097   2.608   5.907
19845SOL     OW60975   6.870   2.237   6.525
19845SOL    HW160976   6.780   2.206   6.530
19845SOL    HW260977   6.919   2.179   6.583
19846SOL     OW60978   7.164   3.546   5.901
19846SOL    HW160979   7.258   3.562   5.891
19846SOL    HW260980   7.134   3.525   5.812
19847SOL     OW60981   6.390   2.477   7.025
19847SOL    HW160982   6.359   2.453   7.112
19847SOL    HW260983   6.352   2.411   6.967
19848SOL     OW60984   6.974   2.339   7.262
19848SOL    HW160985   6.978   2.383   7.346
19848SOL    HW260986   7.033   2.264   7.272
19849SOL     OW60987   6.528   2.749   7.174
19849SOL    HW160988   6.585   2.684   7.134
19849SOL    HW260989   6.484   2.791   7.100
19850SOL     OW60990   6.584   2.259   6.814
19850SOL    HW160991   6.495   2.281   6.842
19850SOL    HW260992   6.575   2.234   6.722
19851SOL     OW60993   6.640   2.555   6.011
19851SOL    HW160994   6.660   2.552   6.105
19851SOL    HW260995   6.553   2.516   6.004
19852SOL     OW60996   5.694   2.690   6.345
19852SOL    HW160997   5.760   2.681   6.414
19852SOL    HW260998   5.633   2.755   6.379
19853SOL     OW60999   5.714   3.752   7.172
19853SOL    HW161000   5.714   3.720   7.262
19853SOL    HW261001   5.630   3.724   7.136
19854SOL     OW61002   6.482   2.220   5.792
19854SOL    HW161003   6.529   2.280   5.734
19854SOL    HW261004   6.464   2.143   5.738
19855SOL     OW61005   7.287   2.431   7.419
19855SOL    HW161006   7.256   2.506   7.369
19855SOL    HW261007   7.314   2.367   7.353
19856SOL     OW61008   6.963   2.997   6.119
19856SOL    HW161009   7.044   2.994   6.067
19856SOL    HW261010   6.911   3.066   6.078
19857SOL     OW61011   6.140   2.031   6.496
19857SOL    HW161012   6.140   2.060   6.587
19857SOL    HW261013   6.127   2.112   6.445
19858SOL     OW61014   6.579   3.310   6.055
19858SOL    HW161015   6.557   3.384   5.998
19858SOL    HW261016   6.546   3.335   6.141
19859SOL     OW61017   5.919   3.663   6.432
19859SOL    HW161018   5.981   3.601   6.470
19859SOL    HW261019   5.930   3.742   6.484
19860SOL     OW61020   7.387   2.901   6.478
19860SOL    HW161021   7.343   2.908   6.394
19860SOL    HW261022   7.318   2.910   6.543
19861SOL     OW61023   6.805   3.405   7.093
19861SOL    HW161024   6.786   3.331   7.151
19861SOL    HW261025   6.719   3.433   7.061
19862SOL     OW61026   5.915   2.783   5.848
19862SOL    HW161027   5.964   2.810   5.770
19862SOL    HW261028   5.857   2.713   5.817
19863SOL     OW61029   7.071   2.612   6.300
19863SOL    HW161030   7.072   2.578   6.390
19863SOL    HW261031   7.148   2.670   6.296
19864SOL     OW61032   6.059   3.128   7.322
19864SOL    HW161033   6.032   3.136   7.230
19864SOL    HW261034   5.976   3.125   7.371
19865SOL     OW61035   6.715   3.639   5.810
19865SOL    HW161036   6.637   3.606   5.855
19865SOL    HW261037   6.731   3.576   5.740
19866SOL     OW61038   5.782   2.154   7.075
19866SOL    HW161039   5.732   2.230   7.045
19866SOL    HW261040   5.765   2.151   7.170
19867SOL     OW61041   7.218   3.244   5.678
19867SOL    HW161042   7.176   3.329   5.667
19867SOL    HW261043   7.151   3.180   5.653
19868SOL     OW61044   6.054   3.623   5.877
19868SOL    HW161045   6.091   3.664   5.955
19868SOL    HW261046   6.125   3.568   5.843
19869SOL     OW61047   6.988   1.966   6.039
19869SOL    HW161048   6.977   1.946   5.946
19869SOL    HW261049   7.080   1.990   6.048
19870SOL     OW61050   5.815   3.625   6.837
19870SOL    HW161051   5.885   3.560   6.829
19870SOL    HW261052   5.804   3.658   6.748
19871SOL     OW61053   6.535   3.564   6.477
19871SOL    HW161054   6.608   3.508   6.503
19871SOL    HW261055   6.491   3.515   6.407
19872SOL     OW61056   5.978   2.570   6.108
19872SOL    HW161057   6.017   2.483   6.113
19872SOL    HW261058   5.883   2.554   6.106
19873SOL     OW61059   7.102   2.086   7.304
19873SOL    HW161060   7.117   2.101   7.398
19873SOL    HW261061   7.022   2.034   7.301
19874SOL     OW61062   6.239   1.975   5.682
19874SOL    HW161063   6.285   1.894   5.703
19874SOL    HW261064   6.177   1.950   5.613
19875SOL     OW61065   6.345   2.138   7.340
19875SOL    HW161066   6.426   2.088   7.343
19875SOL    HW261067   6.295   2.108   7.416
19876SOL     OW61068   6.472   3.389   6.773
19876SOL    HW161069   6.446   3.349   6.690
19876SOL    HW261070   6.533   3.326   6.812
19877SOL     OW61071   6.922   2.448   7.014
19877SOL    HW161072   6.951   2.422   7.102
19877SOL    HW261073   6.953   2.538   7.003
19878SOL     OW61074   6.412   3.242   6.536
19878SOL    HW161075   6.496   3.237   6.490
19878SOL    HW261076   6.348   3.260   6.468
19879SOL     OW61077   6.520   2.369   6.477
19879SOL    HW161078   6.492   2.362   6.386
19879SOL    HW261079   6.545   2.280   6.502
19880SOL     OW61080   6.146   1.926   6.077
19880SOL    HW161081   6.066   1.925   6.129
19880SOL    HW261082   6.137   2.003   6.021
19881SOL     OW61083   7.020   3.061   5.616
19881SOL    HW161084   7.047   2.987   5.670
19881SOL    HW261085   6.932   3.082   5.648
19882SOL     OW61086   5.881   1.923   5.779
19882SOL    HW161087   5.942   1.993   5.752
19882SOL    HW261088   5.938   1.855   5.814
19883SOL     OW61089   6.531   2.105   6.042
19883SOL    HW161090   6.504   2.146   5.960
19883SOL    HW261091   6.624   2.123   6.049
19884SOL     OW61092   6.664   2.554   7.043
19884SOL    HW161093   6.590   2.494   7.042
19884SOL    HW261094   6.741   2.497   7.035
19885SOL     OW61095   6.811   3.436   6.382
19885SOL    HW161096   6.814   3.499   6.310
19885SOL    HW261097   6.876   3.468   6.444
19886SOL     OW61098   6.048   3.016   6.311
19886SOL    HW161099   5.989   3.003   6.385
19886SOL    HW261100   5.993   3.060   6.245
19887SOL     OW61101   6.840   3.654   6.202
19887SOL    HW161102   6.883   3.719   6.146
19887SOL    HW261103   6.766   3.701   6.240
19888SOL     OW61104   6.613   2.389   5.612
19888SOL    HW161105   6.566   2.470   5.592
19888SOL    HW261106   6.679   2.414   5.676
19889SOL     OW61107   5.682   2.408   6.985
19889SOL    HW161108   5.772   2.423   6.954
19889SOL    HW261109   5.667   2.477   7.049
19890SOL     OW61110   6.141   2.089   6.766
19890SOL    HW161111   6.178   2.025   6.826
19890SOL    HW261112   6.048   2.091   6.787
19891SOL     OW61113   6.446   2.319   6.217
19891SOL    HW161114   6.413   2.373   6.146
19891SOL    HW261115   6.468   2.236   6.176
19892SOL     OW61116   6.614   1.914   6.327
19892SOL    HW161117   6.551   1.918   6.256
19892SOL    HW261118   6.583   1.843   6.383
19893SOL     OW61119   7.041   3.026   6.444
19893SOL    HW161120   6.959   2.982   6.420
19893SOL    HW261121   7.087   3.038   6.361
19894SOL     OW61122   7.053   2.472   6.544
19894SOL    HW161123   6.991   2.400   6.551
19894SOL    HW261124   7.107   2.465   6.623
19895SOL     OW61125   7.429   2.666   5.979
19895SOL    HW161126   7.493   2.619   6.033
19895SOL    HW261127   7.407   2.605   5.909
19896SOL     OW61128   6.064   3.282   5.750
19896SOL    HW161129   5.996   3.247   5.807
19896SOL    HW261130   6.029   3.271   5.661
19897SOL     OW61131   7.249   3.115   6.250
19897SOL    HW161132   7.344   3.113   6.259
19897SOL    HW261133   7.226   3.208   6.255
19898SOL     OW61134   6.968   2.428   5.661
19898SOL    HW161135   6.908   2.412   5.734
19898SOL    HW261136   7.054   2.437   5.703
19899SOL     OW61137   6.120   2.125   5.891
19899SOL    HW161138   6.169   2.082   5.821
19899SOL    HW261139   6.088   2.206   5.853
19900SOL     OW61140   7.328   3.120   7.133
19900SOL    HW161141   7.413   3.077   7.120
19900SOL    HW261142   7.350   3.210   7.156
19901SOL     OW61143   6.627   3.198   6.903
19901SOL    HW161144   6.551   3.177   6.958
19901SOL    HW261145   6.703   3.171   6.955
19902SOL     OW61146   7.195   3.487   7.254
19902SOL    HW161147   7.195   3.524   7.166
19902SOL    HW261148   7.264   3.420   7.252
19903SOL     OW61149   6.726   3.071   6.681
19903SOL    HW161150   6.667   3.108   6.747
19903SOL    HW261151   6.697   3.111   6.599
19904SOL     OW61152   7.199   2.958   6.670
19904SOL    HW161153   7.186   3.020   6.741
19904SOL    HW261154   7.129   2.978   6.608
19905SOL     OW61155   6.515   1.941   6.979
19905SOL    HW161156   6.532   1.933   6.885
19905SOL    HW261157   6.592   1.988   7.013
19906SOL     OW61158   6.571   2.973   7.319
19906SOL    HW161159   6.481   2.996   7.343
19906SOL    HW261160   6.561   2.896   7.263
19907SOL     OW61161   6.299   2.925   5.962
19907SOL    HW161162   6.289   2.907   6.055
19907SOL    HW261163   6.374   2.870   5.935
19908SOL     OW61164   6.012   2.681   6.829
19908SOL    HW161165   6.073   2.696   6.902
19908SOL    HW261166   5.974   2.595   6.847
19909SOL     OW61167   6.848   2.230   6.871
19909SOL    HW161168   6.878   2.310   6.914
19909SOL    HW261169   6.757   2.248   6.848
19910SOL     OW61170   5.637   3.445   6.942
19910SOL    HW161171   5.567   3.490   6.894
19910SOL    HW261172   5.715   3.497   6.924
19911SOL     OW61173   5.938   2.957   6.050
19911SOL    HW161174   5.917   3.046   6.019
19911SOL    HW261175   5.926   2.902   5.972
19912SOL     OW61176   6.138   2.339   6.458
19912SOL    HW161177   6.159   2.364   6.368
19912SOL    HW261178   6.199   2.389   6.511
19913SOL     OW61179   6.829   3.207   5.995
19913SOL    HW161180   6.883   3.283   6.016
19913SOL    HW261181   6.740   3.233   6.018
19914SOL     OW61182   6.879   3.322   6.734
19914SOL    HW161183   6.925   3.323   6.818
19914SOL    HW261184   6.815   3.252   6.742
19915SOL     OW61185   7.163   2.479   6.071
19915SOL    HW161186   7.113   2.522   6.141
19915SOL    HW261187   7.202   2.552   6.022
19916SOL     OW61188   5.948   3.373   6.892
19916SOL    HW161189   5.929   3.327   6.810
19916SOL    HW261190   6.043   3.390   6.888
19917SOL     OW61191   6.016   2.603   7.210
19917SOL    HW161192   6.064   2.649   7.142
19917SOL    HW261193   6.071   2.528   7.232
19918SOL     OW61194   7.202   2.644   7.277
19918SOL    HW161195   7.115   2.684   7.270
19918SOL    HW261196   7.253   2.683   7.206
19919SOL     OW61197   6.582   2.000   7.353
19919SOL    HW161198   6.636   2.076   7.331
19919SOL    HW261199   6.634   1.925   7.325
19920SOL     OW61200   6.067   1.896   7.348
19920SOL    HW161201   6.022   1.850   7.278
19920SOL    HW261202   6.013   1.972   7.366
19921SOL     OW61203   6.172   2.739   6.617
19921SOL    HW161204   6.205   2.828   6.618
19921SOL    HW261205   6.118   2.732   6.695
19922SOL     OW61206   6.925   2.714   6.609
19922SOL    HW161207   6.840   2.706   6.566
19922SOL    HW261208   6.970   2.632   6.587
19923SOL     OW61209   6.781   2.382   5.852
19923SOL    HW161210   6.787   2.305   5.909
19923SOL    HW261211   6.740   2.449   5.906
19924SOL     OW61212   5.879   2.053   6.831
19924SOL    HW161213   5.834   2.083   6.910
19924SOL    HW261214   5.862   1.959   6.828
19925SOL     OW61215   5.680   3.184   6.863
19925SOL    HW161216   5.685   3.132   6.943
19925SOL    HW261217   5.665   3.274   6.893
19926SOL     OW61218   6.295   2.490   6.626
19926SOL    HW161219   6.381   2.493   6.583
19926SOL    HW261220   6.263   2.580   6.621
19927SOL     OW61221   7.330   2.820   7.452
19927SOL    HW161222   7.287   2.753   7.399
19927SOL    HW261223   7.266   2.843   7.519
19928SOL     OW61224   5.903   1.925   6.205
19928SOL    HW161225   5.871   2.014   6.221
19928SOL    HW261226   5.905   1.884   6.291
19929SOL     OW61227   7.209   2.244   5.943
19929SOL    HW161228   7.241   2.183   6.010
19929SOL    HW261229   7.184   2.322   5.993
19930SOL     OW61230   6.619   2.616   6.540
19930SOL    HW161231   6.607   2.632   6.633
19930SOL    HW261232   6.591   2.525   6.527
19931SOL     OW61233   6.587   3.443   7.309
19931SOL    HW161234   6.553   3.482   7.228
19931SOL    HW261235   6.605   3.352   7.286
19932SOL     OW61236   7.452   3.383   7.166
19932SOL    HW161237   7.444   3.478   7.178
19932SOL    HW261238   7.532   3.360   7.212
19933SOL     OW61239   5.956   2.781   7.426
19933SOL    HW161240   6.044   2.798   7.460
19933SOL    HW261241   5.970   2.720   7.353
19934SOL     OW61242   7.134   2.108   5.714
19934SOL    HW161243   7.058   2.059   5.746
19934SOL    HW261244   7.161   2.163   5.789
19935SOL     OW61245   6.861   2.685   5.611
19935SOL    HW161246   6.909   2.603   5.603
19935SOL    HW261247   6.881   2.733   5.530
19936SOL     OW61248   6.665   3.206   6.444
19936SOL    HW161249   6.669   3.135   6.379
19936SOL    HW261250   6.720   3.275   6.407
19937SOL     OW61251   5.906   2.657   6.518
19937SOL    HW161252   5.991   2.688   6.549
19937SOL    HW261253   5.899   2.568   6.553
19938SOL     OW61254   5.912   2.385   6.602
19938SOL    HW161255   5.866   2.302   6.591
19938SOL    HW261256   5.992   2.376   6.550
19939SOL     OW61257   6.720   2.231   7.279
19939SOL    HW161258   6.669   2.287   7.338
19939SOL    HW261259   6.804   2.275   7.270
19940SOL     OW61260   6.752   2.056   7.066
19940SOL    HW161261   6.736   2.120   7.135
19940SOL    HW261262   6.791   2.107   6.994
19941SOL     OW61263   5.602   3.165   5.765
19941SOL    HW161264   5.515   3.189   5.731
19941SOL    HW261265   5.587   3.085   5.815
19942SOL     OW61266   5.669   3.625   6.537
19942SOL    HW161267   5.633   3.553   6.487
19942SOL    HW261268   5.751   3.647   6.493
19943SOL     OW61269   6.086   3.443   6.506
19943SOL    HW161270   6.150   3.512   6.521
19943SOL    HW261271   6.126   3.386   6.440
19944SOL     OW61272   6.556   2.639   6.802
19944SOL    HW161273   6.617   2.629   6.875
19944SOL    HW261274   6.470   2.623   6.841
19945SOL     OW61275   5.619   2.400   6.714
19945SOL    HW161276   5.700   2.413   6.664
19945SOL    HW261277   5.647   2.407   6.805
19946SOL     OW61278   5.819   2.364   7.285
19946SOL    HW161279   5.865   2.425   7.228
19946SOL    HW261280   5.744   2.413   7.318
19947SOL     OW61281   6.972   2.787   7.240
19947SOL    HW161282   6.990   2.881   7.235
19947SOL    HW261283   6.962   2.760   7.148
19948SOL     OW61284   6.394   2.436   5.966
19948SOL    HW161285   6.402   2.365   5.902
19948SOL    HW261286   6.322   2.490   5.932
19949SOL     OW61287   7.223   2.459   6.759
19949SOL    HW161288   7.212   2.406   6.837
19949SOL    HW261289   7.312   2.441   6.729
19950SOL     OW61290   5.830   3.413   7.309
19950SOL    HW161291   5.802   3.483   7.367
19950SOL    HW261292   5.825   3.334   7.363
19951SOL     OW61293   6.310   2.305   6.828
19951SOL    HW161294   6.245   2.237   6.814
19951SOL    HW261295   6.294   2.370   6.759
19952SOL     OW61296   6.545   3.529   7.040
19952SOL    HW161297   6.501   3.490   6.965
19952SOL    HW261298   6.524   3.622   7.036
19953SOL     OW61299   6.044   2.353   5.766
19953SOL    HW161300   6.101   2.428   5.788
19953SOL    HW261301   5.957   2.391   5.757
19954SOL     OW61302   5.727   3.007   7.077
19954SOL    HW161303   5.726   2.962   7.161
19954SOL    HW261304   5.741   2.937   7.013
19955SOL     OW61305   6.902   2.902   6.803
19955SOL    HW161306   6.921   2.838   6.734
19955SOL    HW261307   6.839   2.962   6.763
19956SOL     OW61308   6.916   2.706   5.880
19956SOL    HW161309   6.837   2.694   5.933
19956SOL    HW261310   6.885   2.701   5.790
19957SOL     OW61311   7.384   3.579   6.746
19957SOL    HW161312   7.436   3.611   6.672
19957SOL    HW261313   7.345   3.498   6.715
19958SOL     OW61314   6.833   3.597   6.698
19958SOL    HW161315   6.913   3.617   6.649
19958SOL    HW261316   6.838   3.503   6.716
19959SOL     OW61317   5.685   3.123   6.603
19959SOL    HW161318   5.683   3.139   6.697
19959SOL    HW261319   5.599   3.151   6.572
19960SOL     OW61320   6.251   3.544   7.317
19960SOL    HW161321   6.182   3.607   7.338
19960SOL    HW261322   6.278   3.567   7.228
19961SOL     OW61323   7.316   2.023   6.092
19961SOL    HW161324   7.381   2.011   6.023
19961SOL    HW261325   7.304   1.936   6.129
19962SOL     OW61326   6.973   3.434   6.077
19962SOL    HW161327   7.029   3.470   6.009
19962SOL    HW261328   6.919   3.508   6.105
19963SOL     OW61329   5.731   3.650   7.425
19963SOL    HW161330   5.679   3.586   7.474
19963SOL    HW261331   5.772   3.704   7.493
19964SOL     OW61332   6.864   2.787   6.251
19964SOL    HW161333   6.940   2.730   6.262
19964SOL    HW261334   6.896   2.860   6.198
19965SOL     OW61335   6.377   3.144   7.015
19965SOL    HW161336   6.354   3.187   7.097
19965SOL    HW261337   6.306   3.166   6.956
19966SOL     OW61338   6.256   3.478   5.756
19966SOL    HW161339   6.259   3.496   5.662
19966SOL    HW261340   6.201   3.399   5.764
19967SOL     OW61341   7.264   3.585   6.991
19967SOL    HW161342   7.276   3.593   6.897
19967SOL    HW261343   7.238   3.673   7.019
19968SOL     OW61344   7.428   2.023   6.551
19968SOL    HW161345   7.454   1.937   6.518
19968SOL    HW261346   7.342   2.038   6.513
19969SOL     OW61347   5.835   2.177   6.293
19969SOL    HW161348   5.748   2.209   6.269
19969SOL    HW261349   5.834   2.171   6.388
19970SOL     OW61350   6.408   2.877   6.960
19970SOL    HW161351   6.432   2.884   6.868
19970SOL    HW261352   6.395   2.968   6.988
19971SOL     OW61353   6.503   2.767   5.888
19971SOL    HW161354   6.552   2.799   5.812
19971SOL    HW261355   6.560   2.701   5.928
19972SOL     OW61356   7.087   3.497   5.636
19972SOL    HW161357   6.996   3.473   5.618
19972SOL    HW261358   7.127   3.506   5.550
19973SOL     OW61359   5.961   3.162   7.075
19973SOL    HW161360   5.949   3.240   7.021
19973SOL    HW261361   5.878   3.114   7.066
19974SOL     OW61362   7.196   3.147   6.884
19974SOL    HW161363   7.241   3.126   6.966
19974SOL    HW261364   7.128   3.209   6.910
19975SOL     OW61365   6.654   2.971   6.305
19975SOL    HW161366   6.579   2.922   6.338
19975SOL    HW261367   6.716   2.905   6.275
19976SOL     OW61368   6.618   2.107   6.545
19976SOL    HW161369   6.617   2.059   6.463
19976SOL    HW261370   6.608   2.040   6.613
19977SOL     OW61371   6.185   3.344   6.074
19977SOL    HW161372   6.228   3.305   5.998
19977SOL    HW261373   6.101   3.376   6.040
19978SOL     OW61374   7.322   2.247   6.972
19978SOL    HW161375   7.392   2.312   6.968
19978SOL    HW261376   7.349   2.179   6.910
19979SOL     OW61377   5.852   3.184   5.898
19979SOL    HW161378   5.765   3.194   5.858
19979SOL    HW261379   5.845   3.230   5.982
19980SOL     OW61380   5.711   2.896   7.326
19980SOL    HW161381   5.630   2.870   7.370
19980SOL    HW261382   5.780   2.852   7.377
19981SOL     OW61383   6.267   2.043   7.083
19981SOL    HW161384   6.354   2.026   7.047
19981SOL    HW261385   6.284   2.085   7.168
19982SOL     OW61386   5.672   2.178   5.618
19982SOL    HW161387   5.586   2.152   5.586
19982SOL    HW261388   5.686   2.266   5.582
19983SOL     OW61389   7.004   2.713   6.977
19983SOL    HW161390   6.952   2.774   6.925
19983SOL    HW261391   7.092   2.718   6.939
19984SOL     OW61392   5.645   2.017   5.883
19984SOL    HW161393   5.626   2.094   5.828
19984SOL    HW261394   5.730   1.986   5.852
19985SOL     OW61395   6.773   3.130   5.724
19985SOL    HW161396   6.745   3.214   5.688
19985SOL    HW261397   6.790   3.148   5.817
19986SOL     OW61398   6.208   2.691   7.020
19986SOL    HW161399   6.261   2.770   7.010
19986SOL    HW261400   6.272   2.620   7.027
19987SOL     OW61401   7.063   3.649   6.559
19987SOL    HW161402   7.078   3.723   6.498
19987SOL    HW261403   7.147   3.604   6.561
19988SOL     OW61404   6.305   2.418   7.274
19988SOL    HW161405   6.345   2.477   7.339
19988SOL    HW261406   6.315   2.331   7.312
19989SOL     OW61407   7.060   3.048   7.213
19989SOL    HW161408   7.042   3.070   7.305
19989SOL    HW261409   7.149   3.078   7.198
19990SOL     OW61410   5.958   3.606   7.152
19990SOL    HW161411   5.882   3.655   7.120
19990SOL    HW261412   5.921   3.527   7.191
19991SOL     OW61413   7.244   2.738   6.840
19991SOL    HW161414   7.240   2.656   6.792
19991SOL    HW261415   7.231   2.806   6.774
19992SOL     OW61416   6.799   2.176   6.049
19992SOL    HW161417   6.862   2.104   6.045
19992SOL    HW261418   6.828   2.230   6.122
19993SOL     OW61419   7.336   2.219   7.245
19993SOL    HW161420   7.328   2.238   7.152
19993SOL    HW261421   7.259   2.167   7.266
19994SOL     OW61422   7.342   2.786   7.092
19994SOL    HW161423   7.324   2.879   7.107
19994SOL    HW261424   7.318   2.771   7.001
19995SOL     OW61425   6.416   3.230   5.611
19995SOL    HW161426   6.407   3.256   5.702
19995SOL    HW261427   6.452   3.307   5.567
19996SOL     OW61428   6.261   3.646   6.518
19996SOL    HW161429   6.239   3.738   6.500
19996SOL    HW261430   6.357   3.643   6.513
19997SOL     OW61431   6.453   2.827   6.436
19997SOL    HW161432   6.508   2.760   6.477
19997SOL    HW261433   6.415   2.875   6.509
19998SOL     OW61434   6.640   2.837   5.668
19998SOL    HW161435   6.662   2.929   5.651
19998SOL    HW261436   6.718   2.789   5.640
19999SOL     OW61437   7.443   3.419   6.431
19999SOL    HW161438   7.440   3.413   6.335
19999SOL    HW261439   7.454   3.328   6.460
20000SOL     OW61440   5.805   3.155   7.430
20000SOL    HW161441   5.761   3.086   7.380
20000SOL    HW261442   5.747   3.171   7.505
20001SOL     OW61443   5.679   3.089   6.277
20001SOL    HW161444   5.646   3.042   6.353
20001SOL    HW261445   5.687   3.022   6.209
20002SOL     OW61446   6.280   3.277   7.236
20002SOL    HW161447   6.197   3.236   7.258
20002SOL    HW261448   6.270   3.368   7.262
20003SOL     OW61449   7.395   2.037   6.821
20003SOL    HW161450   7.397   1.942   6.830
20003SOL    HW261451   7.408   2.052   6.727
20004SOL     OW61452   6.040   2.300   6.139
20004SOL    HW161453   6.054   2.240   6.066
20004SOL    HW261454   5.969   2.261   6.189
20005SOL     OW61455   7.278   3.337   6.701
20005SOL    HW161456   7.211   3.326   6.633
20005SOL    HW261457   7.256   3.271   6.767
20006SOL     OW61458   5.930   2.425   6.878
20006SOL    HW161459   5.981   2.362   6.929
20006SOL    HW261460   5.937   2.395   6.788
20007SOL     OW61461   6.424   3.446   6.256
20007SOL    HW161462   6.399   3.521   6.203
20007SOL    HW261463   6.345   3.392   6.259
20008SOL     OW61464   7.013   2.090   6.709
20008SOL    HW161465   7.038   2.014   6.760
20008SOL    HW261466   6.960   2.143   6.768
20009SOL     OW61467   6.597   1.879   6.714
20009SOL    HW161468   6.538   1.819   6.668
20009SOL    HW261469   6.683   1.837   6.709
20010SOL     OW61470   6.362   3.200   5.903
20010SOL    HW161471   6.338   3.108   5.914
20010SOL    HW261472   6.442   3.210   5.954
20011SOL     OW61473   6.220   3.410   6.879
20011SOL    HW161474   6.215   3.487   6.934
20011SOL    HW261475   6.304   3.418   6.834
20012SOL     OW61476   6.942   1.915   5.774
20012SOL    HW161477   6.974   1.863   5.700
20012SOL    HW261478   6.855   1.880   5.793
20013SOL     OW61479   6.882   2.325   6.263
20013SOL    HW161480   6.832   2.407   6.263
20013SOL    HW261481   6.878   2.295   6.353
20014SOL     OW61482   7.167   2.055   6.476
20014SOL    HW161483   7.113   2.082   6.550
20014SOL    HW261484   7.168   2.130   6.417
20015SOL     OW61485   5.625   2.930   5.909
20015SOL    HW161486   5.714   2.929   5.872
20015SOL    HW261487   5.605   2.838   5.925
20016SOL     OW61488   6.479   3.530   5.922
20016SOL    HW161489   6.402   3.509   5.868
20016SOL    HW261490   6.448   3.598   5.982
20017SOL     OW61491   5.813   2.131   8.441
20017SOL    HW161492   5.847   2.110   8.528
20017SOL    HW261493   5.724   2.096   8.440
20018SOL     OW61494   5.551   2.223   8.137
20018SOL    HW161495   5.467   2.265   8.154
20018SOL    HW261496   5.602   2.289   8.089
20019SOL     OW61497   6.156   3.156   8.632
20019SOL    HW161498   6.071   3.157   8.589
20019SOL    HW261499   6.171   3.247   8.658
20020SOL     OW61500   7.154   3.376   8.156
20020SOL    HW161501   7.101   3.366   8.235
20020SOL    HW261502   7.091   3.384   8.085
20021SOL     OW61503   6.726   2.554   8.144
20021SOL    HW161504   6.776   2.635   8.135
20021SOL    HW261505   6.653   2.577   8.202
20022SOL     OW61506   7.373   2.459   7.672
20022SOL    HW161507   7.343   2.458   7.581
20022SOL    HW261508   7.334   2.382   7.712
20023SOL     OW61509   6.351   3.026   8.493
20023SOL    HW161510   6.267   3.053   8.529
20023SOL    HW261511   6.378   3.098   8.437
20024SOL     OW61512   6.470   2.618   9.276
20024SOL    HW161513   6.450   2.692   9.334
20024SOL    HW261514   6.487   2.659   9.191
20025SOL     OW61515   6.272   2.850   8.084
20025SOL    HW161516   6.334   2.855   8.157
20025SOL    HW261517   6.200   2.907   8.110
20026SOL     OW61518   6.306   3.025   9.275
20026SOL    HW161519   6.357   3.101   9.304
20026SOL    HW261520   6.230   3.062   9.230
20027SOL     OW61521   5.921   3.276   8.526
20027SOL    HW161522   5.845   3.235   8.485
20027SOL    HW261523   5.959   3.330   8.457
20028SOL     OW61524   7.055   3.361   8.822
20028SOL    HW161525   7.107   3.440   8.825
20028SOL    HW261526   6.981   3.379   8.880
20029SOL     OW61527   6.040   2.250   8.932
20029SOL    HW161528   6.109   2.185   8.932
20029SOL    HW261529   5.959   2.200   8.945
20030SOL     OW61530   7.176   2.305   8.177
20030SOL    HW161531   7.088   2.297   8.140
20030SOL    HW261532   7.197   2.398   8.168
20031SOL     OW61533   5.849   3.561   7.937
20031SOL    HW161534   5.850   3.648   7.977
20031SOL    HW261535   5.858   3.578   7.844
20032SOL     OW61536   6.724   3.201   9.134
20032SOL    HW161537   6.779   3.190   9.212
20032SOL    HW261538   6.673   3.120   9.130
20033SOL     OW61539   5.828   3.301   8.001
20033SOL    HW161540   5.825   3.396   7.990
20033SOL    HW261541   5.757   3.283   8.063
20034SOL     OW61542   5.880   2.954   8.368
20034SOL    HW161543   5.855   2.864   8.390
20034SOL    HW261544   5.807   3.007   8.399
20035SOL     OW61545   6.208   3.642   8.903
20035SOL    HW161546   6.116   3.637   8.927
20035SOL    HW261547   6.230   3.735   8.910
20036SOL     OW61548   6.205   2.828   7.570
20036SOL    HW161549   6.240   2.891   7.506
20036SOL    HW261550   6.217   2.870   7.655
20037SOL     OW61551   7.175   1.991   8.914
20037SOL    HW161552   7.116   2.043   8.859
20037SOL    HW261553   7.156   2.019   9.004
20038SOL     OW61554   5.692   2.441   8.062
20038SOL    HW161555   5.690   2.477   7.973
20038SOL    HW261556   5.678   2.517   8.119
20039SOL     OW61557   7.434   3.611   7.770
20039SOL    HW161558   7.501   3.588   7.834
20039SOL    HW261559   7.448   3.704   7.752
20040SOL     OW61560   5.639   3.449   7.579
20040SOL    HW161561   5.596   3.365   7.596
20040SOL    HW261562   5.616   3.503   7.655
20041SOL     OW61563   7.284   2.784   8.081
20041SOL    HW161564   7.346   2.736   8.026
20041SOL    HW261565   7.246   2.850   8.022
20042SOL     OW61566   7.231   2.973   7.881
20042SOL    HW161567   7.317   2.974   7.840
20042SOL    HW261568   7.237   3.037   7.952
20043SOL     OW61569   5.694   2.613   9.031
20043SOL    HW161570   5.776   2.661   9.020
20043SOL    HW261571   5.626   2.678   9.012
20044SOL     OW61572   6.178   3.243   8.198
20044SOL    HW161573   6.131   3.160   8.187
20044SOL    HW261574   6.184   3.278   8.109
20045SOL     OW61575   6.871   3.073   8.884
20045SOL    HW161576   6.905   3.017   8.814
20045SOL    HW261577   6.941   3.076   8.949
20046SOL     OW61578   6.410   1.867   7.970
20046SOL    HW161579   6.450   1.948   7.940
20046SOL    HW261580   6.316   1.885   7.970
20047SOL     OW61581   5.764   2.822   8.749
20047SOL    HW161582   5.843   2.781   8.715
20047SOL    HW261583   5.707   2.833   8.673
20048SOL     OW61584   7.121   2.865   7.649
20048SOL    HW161585   7.052   2.806   7.680
20048SOL    HW261586   7.157   2.903   7.728
20049SOL     OW61587   6.771   3.679   9.084
20049SOL    HW161588   6.773   3.748   9.018
20049SOL    HW261589   6.795   3.599   9.036
20050SOL     OW61590   5.926   2.106   9.299
20050SOL    HW161591   5.962   2.193   9.281
20050SOL    HW261592   5.832   2.120   9.307
20051SOL     OW61593   7.063   3.268   8.411
20051SOL    HW161594   6.981   3.315   8.424
20051SOL    HW261595   7.038   3.184   8.374
20052SOL     OW61596   7.244   3.622   8.021
20052SOL    HW161597   7.217   3.592   7.934
20052SOL    HW261598   7.214   3.553   8.080
20053SOL     OW61599   6.195   2.588   7.722
20053SOL    HW161600   6.192   2.667   7.669
20053SOL    HW261601   6.128   2.600   7.789
20054SOL     OW61602   6.870   2.246   8.391
20054SOL    HW161603   6.782   2.209   8.394
20054SOL    HW261604   6.921   2.188   8.448
20055SOL     OW61605   7.164   3.543   7.762
20055SOL    HW161606   7.257   3.562   7.748
20055SOL    HW261607   7.129   3.527   7.675
20056SOL     OW61608   6.380   2.484   8.894
20056SOL    HW161609   6.353   2.453   8.980
20056SOL    HW261610   6.350   2.415   8.834
20057SOL     OW61611   6.976   2.337   9.122
20057SOL    HW161612   6.981   2.384   9.206
20057SOL    HW261613   7.027   2.257   9.136
20058SOL     OW61614   6.533   2.742   9.035
20058SOL    HW161615   6.599   2.683   8.999
20058SOL    HW261616   6.467   2.749   8.967
20059SOL     OW61617   6.588   2.263   8.671
20059SOL    HW161618   6.497   2.279   8.696
20059SOL    HW261619   6.583   2.235   8.580
20060SOL     OW61620   6.645   2.549   7.870
20060SOL    HW161621   6.661   2.545   7.964
20060SOL    HW261622   6.558   2.510   7.859
20061SOL     OW61623   5.665   2.652   8.240
20061SOL    HW161624   5.743   2.681   8.287
20061SOL    HW261625   5.605   2.727   8.244
20062SOL     OW61626   5.698   3.702   9.009
20062SOL    HW161627   5.675   3.703   9.102
20062SOL    HW261628   5.615   3.686   8.964
20063SOL     OW61629   6.492   2.209   7.647
20063SOL    HW161630   6.529   2.277   7.590
20063SOL    HW261631   6.485   2.132   7.589
20064SOL     OW61632   7.277   2.439   9.291
20064SOL    HW161633   7.249   2.513   9.237
20064SOL    HW261634   7.306   2.373   9.229
20065SOL     OW61635   6.959   2.997   7.988
20065SOL    HW161636   7.036   2.991   7.932
20065SOL    HW261637   6.905   3.065   7.948
20066SOL     OW61638   6.134   2.031   8.342
20066SOL    HW161639   6.138   2.079   8.425
20066SOL    HW261640   6.130   2.099   8.275
20067SOL     OW61641   6.580   3.304   7.889
20067SOL    HW161642   6.550   3.383   7.843
20067SOL    HW261643   6.577   3.328   7.981
20068SOL     OW61644   5.942   3.681   8.319
20068SOL    HW161645   5.987   3.597   8.323
20068SOL    HW261646   6.011   3.746   8.328
20069SOL     OW61647   7.385   2.890   8.329
20069SOL    HW161648   7.340   2.888   8.244
20069SOL    HW261649   7.316   2.909   8.392
20070SOL     OW61650   6.817   3.412   8.965
20070SOL    HW161651   6.799   3.331   9.013
20070SOL    HW261652   6.741   3.422   8.907
20071SOL     OW61653   5.880   2.795   7.702
20071SOL    HW161654   5.906   2.811   7.611
20071SOL    HW261655   5.856   2.702   7.704
20072SOL     OW61656   7.099   2.595   8.159
20072SOL    HW161657   7.081   2.576   8.251
20072SOL    HW261658   7.165   2.665   8.162
20073SOL     OW61659   6.033   3.119   9.227
20073SOL    HW161660   6.028   3.146   9.135
20073SOL    HW261661   5.959   3.059   9.239
20074SOL     OW61662   6.726   3.636   7.685
20074SOL    HW161663   6.641   3.611   7.721
20074SOL    HW261664   6.742   3.573   7.615
20075SOL     OW61665   5.787   2.136   8.953
20075SOL    HW161666   5.707   2.185   8.931
20075SOL    HW261667   5.755   2.050   8.981
20076SOL     OW61668   7.220   3.247   7.538
20076SOL    HW161669   7.177   3.332   7.532
20076SOL    HW261670   7.151   3.183   7.518
20077SOL     OW61671   6.063   3.627   7.736
20077SOL    HW161672   6.101   3.661   7.817
20077SOL    HW261673   6.131   3.570   7.699
20078SOL     OW61674   6.988   1.965   7.899
20078SOL    HW161675   6.977   1.944   7.806
20078SOL    HW261676   7.082   1.976   7.910
20079SOL     OW61677   5.838   3.634   8.660
20079SOL    HW161678   5.904   3.569   8.636
20079SOL    HW261679   5.780   3.639   8.583
20080SOL     OW61680   6.560   3.551   8.442
20080SOL    HW161681   6.656   3.556   8.448
20080SOL    HW261682   6.544   3.507   8.359
20081SOL     OW61683   6.011   2.539   7.936
20081SOL    HW161684   6.026   2.446   7.956
20081SOL    HW261685   5.935   2.539   7.877
20082SOL     OW61686   7.100   2.085   9.168
20082SOL    HW161687   7.115   2.102   9.261
20082SOL    HW261688   7.029   2.021   9.166
20083SOL     OW61689   6.241   1.965   7.547
20083SOL    HW161690   6.302   1.891   7.548
20083SOL    HW261691   6.176   1.942   7.480
20084SOL     OW61692   6.356   2.140   9.215
20084SOL    HW161693   6.435   2.087   9.208
20084SOL    HW261694   6.302   2.094   9.278
20085SOL     OW61695   6.448   3.348   8.630
20085SOL    HW161696   6.422   3.341   8.538
20085SOL    HW261697   6.542   3.367   8.626
20086SOL     OW61698   6.921   2.450   8.874
20086SOL    HW161699   6.950   2.425   8.962
20086SOL    HW261700   6.955   2.539   8.863
20087SOL     OW61701   6.393   3.258   8.363
20087SOL    HW161702   6.458   3.299   8.306
20087SOL    HW261703   6.313   3.255   8.309
20088SOL     OW61704   6.526   2.370   8.342
20088SOL    HW161705   6.495   2.365   8.252
20088SOL    HW261706   6.549   2.279   8.365
20089SOL     OW61707   6.144   1.923   7.945
20089SOL    HW161708   6.062   1.925   7.995
20089SOL    HW261709   6.137   1.999   7.886
20090SOL     OW61710   7.011   3.072   7.486
20090SOL    HW161711   7.033   2.995   7.539
20090SOL    HW261712   6.924   3.098   7.517
20091SOL     OW61713   5.869   1.919   7.634
20091SOL    HW161714   5.912   1.990   7.586
20091SOL    HW261715   5.941   1.867   7.669
20092SOL     OW61716   6.532   2.109   7.903
20092SOL    HW161717   6.505   2.145   7.819
20092SOL    HW261718   6.626   2.128   7.908
20093SOL     OW61719   6.661   2.557   8.882
20093SOL    HW161720   6.592   2.490   8.881
20093SOL    HW261721   6.742   2.507   8.872
20094SOL     OW61722   6.878   3.449   8.273
20094SOL    HW161723   6.792   3.429   8.236
20094SOL    HW261724   6.900   3.536   8.239
20095SOL     OW61725   6.057   2.994   8.166
20095SOL    HW161726   5.990   2.986   8.234
20095SOL    HW261727   6.009   2.990   8.083
20096SOL     OW61728   6.866   3.658   8.066
20096SOL    HW161729   6.899   3.727   8.007
20096SOL    HW261730   6.774   3.681   8.080
20097SOL     OW61731   6.607   2.396   7.475
20097SOL    HW161732   6.558   2.476   7.453
20097SOL    HW261733   6.673   2.425   7.538
20098SOL     OW61734   5.677   2.408   8.852
20098SOL    HW161735   5.767   2.416   8.818
20098SOL    HW261736   5.666   2.484   8.909
20099SOL     OW61737   6.151   2.096   8.619
20099SOL    HW161738   6.184   2.008   8.641
20099SOL    HW261739   6.060   2.095   8.647
20100SOL     OW61740   6.454   2.320   8.084
20100SOL    HW161741   6.406   2.377   8.024
20100SOL    HW261742   6.475   2.242   8.033
20101SOL     OW61743   6.608   1.924   8.194
20101SOL    HW161744   6.548   1.928   8.119
20101SOL    HW261745   6.579   1.847   8.243
20102SOL     OW61746   7.026   3.016   8.296
20102SOL    HW161747   6.933   3.013   8.274
20102SOL    HW261748   7.070   3.030   8.213
20103SOL     OW61749   7.033   2.492   8.409
20103SOL    HW161750   6.983   2.410   8.400
20103SOL    HW261751   7.098   2.473   8.477
20104SOL     OW61752   7.423   2.666   7.849
20104SOL    HW161753   7.487   2.616   7.900
20104SOL    HW261754   7.403   2.609   7.775
20105SOL     OW61755   6.075   3.284   7.599
20105SOL    HW161756   6.006   3.254   7.659
20105SOL    HW261757   6.049   3.250   7.513
20106SOL     OW61758   7.258   3.118   8.108
20106SOL    HW161759   7.353   3.121   8.120
20106SOL    HW261760   7.230   3.209   8.122
20107SOL     OW61761   6.979   2.434   7.516
20107SOL    HW161762   6.918   2.413   7.586
20107SOL    HW261763   7.066   2.413   7.551
20108SOL     OW61764   6.121   2.113   7.752
20108SOL    HW161765   6.167   2.067   7.682
20108SOL    HW261766   6.099   2.198   7.715
20109SOL     OW61767   7.335   3.102   9.024
20109SOL    HW161768   7.420   3.070   8.993
20109SOL    HW261769   7.349   3.194   9.045
20110SOL     OW61770   6.672   3.220   8.779
20110SOL    HW161771   6.588   3.209   8.823
20110SOL    HW261772   6.734   3.170   8.833
20111SOL     OW61773   7.198   3.487   9.111
20111SOL    HW161774   7.185   3.527   9.025
20111SOL    HW261775   7.280   3.438   9.102
20112SOL     OW61776   6.673   3.044   8.572
20112SOL    HW161777   6.681   3.123   8.625
20112SOL    HW261778   6.691   3.074   8.482
20113SOL     OW61779   7.190   2.951   8.518
20113SOL    HW161780   7.179   3.017   8.585
20113SOL    HW261781   7.124   2.973   8.451
20114SOL     OW61782   6.506   1.949   8.838
20114SOL    HW161783   6.524   1.932   8.745
20114SOL    HW261784   6.587   1.988   8.871
20115SOL     OW61785   6.568   2.973   9.175
20115SOL    HW161786   6.477   2.993   9.197
20115SOL    HW261787   6.563   2.897   9.118
20116SOL     OW61788   6.301   2.927   7.814
20116SOL    HW161789   6.277   2.904   7.904
20116SOL    HW261790   6.381   2.876   7.797
20117SOL     OW61791   5.999   2.679   8.703
20117SOL    HW161792   6.059   2.685   8.778
20117SOL    HW261793   5.962   2.591   8.709
20118SOL     OW61794   6.848   2.225   8.739
20118SOL    HW161795   6.877   2.308   8.777
20118SOL    HW261796   6.759   2.243   8.709
20119SOL     OW61797   5.662   3.438   8.787
20119SOL    HW161798   5.594   3.480   8.734
20119SOL    HW261799   5.740   3.491   8.772
20120SOL     OW61800   5.929   2.972   7.925
20120SOL    HW161801   5.919   3.052   7.873
20120SOL    HW261802   5.921   2.901   7.861
20121SOL     OW61803   6.142   2.385   8.324
20121SOL    HW161804   6.145   2.439   8.245
20121SOL    HW261805   6.212   2.420   8.379
20122SOL     OW61806   6.833   3.208   7.852
20122SOL    HW161807   6.885   3.283   7.881
20122SOL    HW261808   6.742   3.234   7.869
20123SOL     OW61809   6.865   3.341   8.620
20123SOL    HW161810   6.943   3.338   8.676
20123SOL    HW261811   6.798   3.296   8.670
20124SOL     OW61812   7.173   2.476   7.924
20124SOL    HW161813   7.126   2.519   7.995
20124SOL    HW261814   7.201   2.548   7.867
20125SOL     OW61815   5.954   3.370   8.779
20125SOL    HW161816   5.924   3.337   8.695
20125SOL    HW261817   6.046   3.391   8.765
20126SOL     OW61818   6.002   2.606   9.064
20126SOL    HW161819   6.068   2.644   9.007
20126SOL    HW261820   6.014   2.511   9.054
20127SOL     OW61821   7.197   2.646   9.137
20127SOL    HW161822   7.111   2.686   9.129
20127SOL    HW261823   7.250   2.686   9.068
20128SOL     OW61824   6.586   1.994   9.210
20128SOL    HW161825   6.642   2.069   9.188
20128SOL    HW261826   6.636   1.917   9.180
20129SOL     OW61827   6.073   1.892   9.213
20129SOL    HW161828   6.028   1.844   9.143
20129SOL    HW261829   6.017   1.968   9.229
20130SOL     OW61830   6.197   2.747   8.518
20130SOL    HW161831   6.172   2.801   8.443
20130SOL    HW261832   6.115   2.731   8.565
20131SOL     OW61833   6.885   2.715   8.457
20131SOL    HW161834   6.880   2.756   8.371
20131SOL    HW261835   6.940   2.638   8.443
20132SOL     OW61836   6.792   2.383   7.709
20132SOL    HW161837   6.793   2.304   7.764
20132SOL    HW261838   6.748   2.449   7.762
20133SOL     OW61839   5.893   2.063   8.698
20133SOL    HW161840   5.846   2.089   8.777
20133SOL    HW261841   5.880   1.968   8.692
20134SOL     OW61842   5.633   3.172   8.743
20134SOL    HW161843   5.691   3.134   8.808
20134SOL    HW261844   5.645   3.267   8.753
20135SOL     OW61845   6.320   2.504   8.515
20135SOL    HW161846   6.392   2.506   8.452
20135SOL    HW261847   6.280   2.591   8.508
20136SOL     OW61848   7.333   2.811   9.319
20136SOL    HW161849   7.287   2.753   9.259
20136SOL    HW261850   7.266   2.838   9.382
20137SOL     OW61851   5.899   1.923   8.076
20137SOL    HW161852   5.875   2.014   8.090
20137SOL    HW261853   5.900   1.885   8.164
20138SOL     OW61854   7.215   2.239   7.799
20138SOL    HW161855   7.245   2.175   7.864
20138SOL    HW261856   7.190   2.316   7.851
20139SOL     OW61857   6.587   2.623   8.425
20139SOL    HW161858   6.677   2.634   8.457
20139SOL    HW261859   6.581   2.531   8.400
20140SOL     OW61860   6.563   3.417   9.169
20140SOL    HW161861   6.545   3.469   9.091
20140SOL    HW261862   6.617   3.344   9.138
20141SOL     OW61863   7.437   3.360   9.049
20141SOL    HW161864   7.455   3.389   8.960
20141SOL    HW261865   7.519   3.375   9.096
20142SOL     OW61866   5.943   2.764   9.278
20142SOL    HW161867   6.031   2.784   9.310
20142SOL    HW261868   5.958   2.705   9.204
20143SOL     OW61869   7.115   2.124   7.569
20143SOL    HW161870   7.049   2.064   7.604
20143SOL    HW261871   7.151   2.167   7.647
20144SOL     OW61872   6.876   2.686   7.474
20144SOL    HW161873   6.916   2.599   7.476
20144SOL    HW261874   6.906   2.724   7.391
20145SOL     OW61875   6.729   3.162   8.337
20145SOL    HW161876   6.697   3.100   8.270
20145SOL    HW261877   6.708   3.248   8.301
20146SOL     OW61878   5.908   2.666   8.383
20146SOL    HW161879   5.968   2.662   8.309
20146SOL    HW261880   5.905   2.577   8.417
20147SOL     OW61881   5.919   2.384   8.472
20147SOL    HW161882   5.873   2.302   8.451
20147SOL    HW261883   5.996   2.383   8.416
20148SOL     OW61884   6.721   2.228   9.140
20148SOL    HW161885   6.671   2.283   9.200
20148SOL    HW261886   6.804   2.274   9.129
20149SOL     OW61887   6.749   2.052   8.928
20149SOL    HW161888   6.733   2.115   8.997
20149SOL    HW261889   6.785   2.104   8.856
20150SOL     OW61890   5.620   3.159   7.635
20150SOL    HW161891   5.533   3.178   7.601
20150SOL    HW261892   5.610   3.075   7.679
20151SOL     OW61893   5.696   3.625   8.424
20151SOL    HW161894   5.654   3.557   8.371
20151SOL    HW261895   5.773   3.651   8.373
20152SOL     OW61896   6.084   3.441   8.369
20152SOL    HW161897   6.155   3.503   8.381
20152SOL    HW261898   6.115   3.381   8.302
20153SOL     OW61899   6.495   2.730   8.731
20153SOL    HW161900   6.564   2.679   8.773
20153SOL    HW261901   6.451   2.669   8.672
20154SOL     OW61902   5.609   2.371   8.572
20154SOL    HW161903   5.655   2.414   8.500
20154SOL    HW261904   5.654   2.403   8.651
20155SOL     OW61905   5.778   2.390   9.177
20155SOL    HW161906   5.798   2.332   9.104
20155SOL    HW261907   5.743   2.470   9.136
20156SOL     OW61908   6.968   2.791   9.103
20156SOL    HW161909   6.993   2.883   9.099
20156SOL    HW261910   6.961   2.764   9.011
20157SOL     OW61911   6.401   2.434   7.823
20157SOL    HW161912   6.398   2.361   7.761
20157SOL    HW261913   6.331   2.493   7.794
20158SOL     OW61914   7.219   2.444   8.605
20158SOL    HW161915   7.187   2.366   8.650
20158SOL    HW261916   7.311   2.425   8.588
20159SOL     OW61917   5.844   3.414   9.201
20159SOL    HW161918   5.826   3.507   9.212
20159SOL    HW261919   5.775   3.382   9.142
20160SOL     OW61920   6.315   2.305   8.699
20160SOL    HW161921   6.254   2.235   8.674
20160SOL    HW261922   6.305   2.372   8.631
20161SOL     OW61923   6.524   3.528   8.915
20161SOL    HW161924   6.478   3.495   8.837
20161SOL    HW261925   6.517   3.623   8.908
20162SOL     OW61926   6.073   2.352   7.640
20162SOL    HW161927   6.124   2.432   7.654
20162SOL    HW261928   5.982   2.380   7.648
20163SOL     OW61929   5.753   3.011   8.943
20163SOL    HW161930   5.734   2.961   9.022
20163SOL    HW261931   5.755   2.945   8.873
20164SOL     OW61932   6.883   2.889   8.668
20164SOL    HW161933   6.898   2.828   8.595
20164SOL    HW261934   6.817   2.950   8.634
20165SOL     OW61935   6.912   2.712   7.748
20165SOL    HW161936   6.831   2.699   7.798
20165SOL    HW261937   6.885   2.705   7.656
20166SOL     OW61938   7.374   3.595   8.612
20166SOL    HW161939   7.435   3.622   8.544
20166SOL    HW261940   7.341   3.509   8.583
20167SOL     OW61941   6.832   3.605   8.558
20167SOL    HW161942   6.908   3.629   8.505
20167SOL    HW261943   6.842   3.512   8.574
20168SOL     OW61944   5.686   3.114   8.478
20168SOL    HW161945   5.653   3.134   8.565
20168SOL    HW261946   5.613   3.132   8.419
20169SOL     OW61947   6.253   3.536   9.180
20169SOL    HW161948   6.184   3.602   9.191
20169SOL    HW261949   6.295   3.560   9.097
20170SOL     OW61950   7.316   2.026   7.952
20170SOL    HW161951   7.382   2.011   7.885
20170SOL    HW261952   7.300   1.939   7.990
20171SOL     OW61953   6.983   3.430   7.946
20171SOL    HW161954   7.031   3.471   7.873
20171SOL    HW261955   6.927   3.500   7.980
20172SOL     OW61956   5.728   3.648   9.289
20172SOL    HW161957   5.687   3.580   9.342
20172SOL    HW261958   5.769   3.707   9.353
20173SOL     OW61959   6.885   2.771   8.128
20173SOL    HW161960   6.963   2.718   8.111
20173SOL    HW261961   6.899   2.852   8.078
20174SOL     OW61962   6.392   3.108   8.832
20174SOL    HW161963   6.366   3.138   8.919
20174SOL    HW261964   6.334   3.155   8.772
20175SOL     OW61965   6.262   3.484   7.597
20175SOL    HW161966   6.266   3.502   7.503
20175SOL    HW261967   6.203   3.409   7.604
20176SOL     OW61968   7.207   3.590   8.844
20176SOL    HW161969   7.260   3.595   8.764
20176SOL    HW261970   7.190   3.681   8.867
20177SOL     OW61971   7.427   2.018   8.401
20177SOL    HW161972   7.459   1.934   8.369
20177SOL    HW261973   7.342   2.029   8.358
20178SOL     OW61974   5.849   2.178   8.162
20178SOL    HW161975   5.790   2.250   8.138
20178SOL    HW261976   5.843   2.173   8.257
20179SOL     OW61977   6.800   3.459   7.485
20179SOL    HW161978   6.784   3.369   7.514
20179SOL    HW261979   6.732   3.475   7.419
20180SOL     OW61980   6.524   2.784   7.766
20180SOL    HW161981   6.572   2.813   7.688
20180SOL    HW261982   6.567   2.702   7.791
20181SOL     OW61983   7.074   3.492   7.502
20181SOL    HW161984   6.979   3.481   7.490
20181SOL    HW261985   7.108   3.499   7.413
20182SOL     OW61986   5.978   3.178   8.969
20182SOL    HW161987   5.968   3.247   8.903
20182SOL    HW261988   5.905   3.118   8.953
20183SOL     OW61989   7.182   3.135   8.722
20183SOL    HW161990   7.269   3.143   8.761
20183SOL    HW261991   7.132   3.207   8.761
20184SOL     OW61992   6.648   2.964   8.175
20184SOL    HW161993   6.565   2.924   8.201
20184SOL    HW261994   6.660   2.938   8.084
20185SOL     OW61995   6.622   2.106   8.414
20185SOL    HW161996   6.618   2.062   8.329
20185SOL    HW261997   6.609   2.036   8.478
20186SOL     OW61998   6.174   3.321   7.936
20186SOL    HW161999   6.215   3.289   7.856
20186SOL    HW262000   6.088   3.353   7.908
20187SOL     OW62001   5.867   3.193   7.761
20187SOL    HW162002   5.782   3.193   7.717
20187SOL    HW262003   5.852   3.238   7.844
20188SOL     OW62004   5.707   2.881   9.183
20188SOL    HW162005   5.625   2.853   9.224
20188SOL    HW262006   5.774   2.828   9.225
20189SOL     OW62007   6.264   2.054   8.953
20189SOL    HW162008   6.346   2.034   8.907
20189SOL    HW262009   6.292   2.096   9.034
20190SOL     OW62010   5.660   2.191   7.506
20190SOL    HW162011   5.601   2.204   7.431
20190SOL    HW262012   5.682   2.279   7.535
20191SOL     OW62013   7.004   2.715   8.842
20191SOL    HW162014   6.950   2.774   8.788
20191SOL    HW262015   7.092   2.723   8.805
20192SOL     OW62016   5.633   2.018   7.737
20192SOL    HW162017   5.612   2.088   7.675
20192SOL    HW262018   5.722   1.991   7.714
20193SOL     OW62019   6.758   3.194   7.564
20193SOL    HW162020   6.662   3.189   7.554
20193SOL    HW262021   6.772   3.190   7.659
20194SOL     OW62022   6.200   2.692   8.893
20194SOL    HW162023   6.238   2.763   8.842
20194SOL    HW262024   6.265   2.622   8.889
20195SOL     OW62025   7.066   3.666   8.427
20195SOL    HW162026   7.081   3.732   8.360
20195SOL    HW262027   7.153   3.629   8.444
20196SOL     OW62028   6.319   2.410   9.145
20196SOL    HW162029   6.357   2.467   9.211
20196SOL    HW262030   6.330   2.321   9.179
20197SOL     OW62031   7.069   3.045   9.078
20197SOL    HW162032   7.059   3.069   9.170
20197SOL    HW262033   7.159   3.071   9.056
20198SOL     OW62034   5.953   3.610   8.995
20198SOL    HW162035   5.868   3.653   8.987
20198SOL    HW262036   5.938   3.522   8.959
20199SOL     OW62037   7.241   2.744   8.702
20199SOL    HW162038   7.239   2.663   8.650
20199SOL    HW262039   7.229   2.814   8.638
20200SOL     OW62040   6.803   2.177   7.911
20200SOL    HW162041   6.865   2.105   7.905
20200SOL    HW262042   6.835   2.230   7.984
20201SOL     OW62043   6.158   2.606   8.152
20201SOL    HW162044   6.206   2.684   8.126
20201SOL    HW262045   6.103   2.585   8.077
20202SOL     OW62046   7.338   2.227   9.121
20202SOL    HW162047   7.337   2.257   9.030
20202SOL    HW262048   7.264   2.167   9.128
20203SOL     OW62049   7.338   2.794   8.960
20203SOL    HW162050   7.327   2.887   8.976
20203SOL    HW262051   7.317   2.783   8.867
20204SOL     OW62052   6.482   3.230   7.510
20204SOL    HW162053   6.431   3.229   7.591
20204SOL    HW262054   6.461   3.314   7.469
20205SOL     OW62055   6.257   3.655   8.401
20205SOL    HW162056   6.224   3.740   8.372
20205SOL    HW262057   6.346   3.651   8.368
20206SOL     OW62058   6.440   2.834   8.303
20206SOL    HW162059   6.485   2.763   8.349
20206SOL    HW262060   6.403   2.889   8.373
20207SOL     OW62061   6.667   2.848   7.547
20207SOL    HW162062   6.639   2.903   7.474
20207SOL    HW262063   6.738   2.794   7.510
20208SOL     OW62064   7.421   3.418   8.290
20208SOL    HW162065   7.349   3.412   8.227
20208SOL    HW262066   7.386   3.380   8.371
20209SOL     OW62067   5.762   3.113   9.308
20209SOL    HW162068   5.731   3.042   9.251
20209SOL    HW262069   5.688   3.128   9.368
20210SOL     OW62070   5.672   3.094   8.133
20210SOL    HW162071   5.650   3.017   8.186
20210SOL    HW262072   5.731   3.060   8.066
20211SOL     OW62073   6.268   3.248   9.053
20211SOL    HW162074   6.182   3.247   9.012
20211SOL    HW262075   6.277   3.336   9.089
20212SOL     OW62076   7.410   2.029   8.670
20212SOL    HW162077   7.393   1.938   8.696
20212SOL    HW262078   7.405   2.027   8.574
20213SOL     OW62079   6.054   2.274   7.995
20213SOL    HW162080   6.055   2.226   7.912
20213SOL    HW262081   5.979   2.239   8.042
20214SOL     OW62082   7.292   3.345   8.527
20214SOL    HW162083   7.208   3.325   8.485
20214SOL    HW262084   7.299   3.280   8.597
20215SOL     OW62085   5.923   2.420   8.743
20215SOL    HW162086   5.979   2.358   8.789
20215SOL    HW262087   5.931   2.396   8.651
20216SOL     OW62088   7.015   2.092   8.567
20216SOL    HW162089   7.004   1.997   8.576
20216SOL    HW262090   6.957   2.130   8.633
20217SOL     OW62091   6.595   1.875   8.578
20217SOL    HW162092   6.541   1.813   8.529
20217SOL    HW262093   6.681   1.834   8.582
20218SOL     OW62094   6.361   3.192   7.751
20218SOL    HW162095   6.333   3.103   7.773
20218SOL    HW262096   6.431   3.212   7.814
20219SOL     OW62097   6.218   3.410   8.755
20219SOL    HW162098   6.222   3.496   8.797
20219SOL    HW262099   6.299   3.403   8.705
20220SOL     OW62100   6.943   1.913   7.633
20220SOL    HW162101   6.975   1.852   7.566
20220SOL    HW262102   6.855   1.882   7.654
20221SOL     OW62103   6.892   2.324   8.129
20221SOL    HW162104   6.840   2.405   8.122
20221SOL    HW262105   6.879   2.295   8.219
20222SOL     OW62106   7.170   2.066   8.327
20222SOL    HW162107   7.116   2.094   8.401
20222SOL    HW262108   7.170   2.141   8.267
20223SOL     OW62109   5.630   2.919   7.769
20223SOL    HW162110   5.721   2.903   7.744
20223SOL    HW262111   5.595   2.832   7.790
20224SOL     OW62112   6.481   3.535   7.773
20224SOL    HW162113   6.403   3.517   7.720
20224SOL    HW262114   6.450   3.595   7.841
20225SOL     OW62115   5.804   2.475   9.446
20225SOL    HW162116   5.713   2.476   9.475
20225SOL    HW262117   5.798   2.465   9.351
20226SOL     OW62118   5.800   2.157  10.308
20226SOL    HW162119   5.828   2.120  10.392
20226SOL    HW262120   5.714   2.118  10.292
20227SOL     OW62121   5.578   2.245   9.952
20227SOL    HW162122   5.497   2.276   9.994
20227SOL    HW262123   5.550   2.169   9.901
20228SOL     OW62124   6.150   3.155  10.484
20228SOL    HW162125   6.067   3.157  10.436
20228SOL    HW262126   6.188   3.242  10.471
20229SOL     OW62127   7.159   3.373  10.012
20229SOL    HW162128   7.110   3.358  10.093
20229SOL    HW262129   7.092   3.384   9.945
20230SOL     OW62130   6.719   2.563  10.009
20230SOL    HW162131   6.767   2.644   9.991
20230SOL    HW262132   6.682   2.576  10.096
20231SOL     OW62133   7.358   2.463   9.545
20231SOL    HW162134   7.330   2.466   9.453
20231SOL    HW262135   7.331   2.376   9.575
20232SOL     OW62136   6.336   2.997  10.359
20232SOL    HW162137   6.265   3.028  10.415
20232SOL    HW262138   6.371   3.076  10.318
20233SOL     OW62139   6.465   2.616  11.132
20233SOL    HW162140   6.443   2.687  11.193
20233SOL    HW262141   6.485   2.661  11.050
20234SOL     OW62142   6.286   2.880   9.954
20234SOL    HW162143   6.337   2.872  10.035
20234SOL    HW262144   6.209   2.930   9.979
20235SOL     OW62145   6.302   3.014  11.135
20235SOL    HW162146   6.352   3.090  11.168
20235SOL    HW262147   6.225   3.052  11.095
20236SOL     OW62148   5.918   3.283  10.384
20236SOL    HW162149   5.843   3.240  10.342
20236SOL    HW262150   5.959   3.334  10.314
20237SOL     OW62151   7.047   3.367  10.679
20237SOL    HW162152   7.101   3.445  10.687
20237SOL    HW262153   6.977   3.380  10.743
20238SOL     OW62154   6.042   2.244  10.775
20238SOL    HW162155   6.115   2.184  10.789
20238SOL    HW262156   5.965   2.195  10.804
20239SOL     OW62157   7.188   2.297  10.053
20239SOL    HW162158   7.122   2.310   9.985
20239SOL    HW262159   7.193   2.380  10.100
20240SOL     OW62160   5.809   3.573   9.773
20240SOL    HW162161   5.830   3.649   9.827
20240SOL    HW262162   5.880   3.569   9.709
20241SOL     OW62163   6.722   3.203  11.003
20241SOL    HW162164   6.769   3.195  11.087
20241SOL    HW262165   6.671   3.123  10.997
20242SOL     OW62166   5.829   3.305   9.845
20242SOL    HW162167   5.810   3.399   9.836
20242SOL    HW262168   5.763   3.274   9.907
20243SOL     OW62169   5.877   2.954  10.223
20243SOL    HW162170   5.840   2.868  10.242
20243SOL    HW262171   5.811   3.016  10.256
20244SOL     OW62172   6.169   3.666  10.723
20244SOL    HW162173   6.095   3.645  10.780
20244SOL    HW262174   6.203   3.749  10.757
20245SOL     OW62175   6.173   2.847   9.449
20245SOL    HW162176   6.215   2.898   9.380
20245SOL    HW262177   6.210   2.882   9.531
20246SOL     OW62178   7.185   1.990  10.774
20246SOL    HW162179   7.212   2.070  10.727
20246SOL    HW262180   7.154   2.021  10.859
20247SOL     OW62181   5.723   2.500   9.878
20247SOL    HW162182   5.673   2.420   9.891
20247SOL    HW262183   5.701   2.555   9.954
20248SOL     OW62184   7.426   3.616   9.640
20248SOL    HW162185   7.497   3.596   9.701
20248SOL    HW262186   7.443   3.707   9.614
20249SOL     OW62187   5.641   3.444   9.448
20249SOL    HW162188   5.575   3.376   9.436
20249SOL    HW262189   5.606   3.499   9.518
20250SOL     OW62190   7.275   2.771   9.937
20250SOL    HW162191   7.344   2.727   9.888
20250SOL    HW262192   7.243   2.839   9.878
20251SOL     OW62193   7.231   2.971   9.746
20251SOL    HW162194   7.316   2.971   9.703
20251SOL    HW262195   7.241   3.034   9.818
20252SOL     OW62196   5.701   2.607  10.891
20252SOL    HW162197   5.786   2.650  10.893
20252SOL    HW262198   5.638   2.678  10.880
20253SOL     OW62199   6.192   3.250  10.056
20253SOL    HW162200   6.146   3.166  10.050
20253SOL    HW262201   6.186   3.288   9.969
20254SOL     OW62202   6.868   3.092  10.731
20254SOL    HW162203   6.896   3.024  10.670
20254SOL    HW262204   6.932   3.088  10.802
20255SOL     OW62205   6.413   1.872   9.832
20255SOL    HW162206   6.452   1.954   9.802
20255SOL    HW262207   6.319   1.888   9.831
20256SOL     OW62208   5.782   2.815  10.603
20256SOL    HW162209   5.864   2.776  10.571
20256SOL    HW262210   5.716   2.788  10.539
20257SOL     OW62211   7.116   2.865   9.514
20257SOL    HW162212   7.049   2.806   9.547
20257SOL    HW262213   7.157   2.902   9.592
20258SOL     OW62214   6.761   3.678  10.941
20258SOL    HW162215   6.768   3.745  10.873
20258SOL    HW262216   6.787   3.597  10.897
20259SOL     OW62217   5.928   2.116  11.173
20259SOL    HW162218   5.964   2.204  11.185
20259SOL    HW262219   5.833   2.128  11.177
20260SOL     OW62220   7.049   3.284  10.254
20260SOL    HW162221   6.984   3.299  10.323
20260SOL    HW262222   7.037   3.192  10.229
20261SOL     OW62223   7.252   3.616   9.890
20261SOL    HW162224   7.228   3.595   9.799
20261SOL    HW262225   7.221   3.542   9.941
20262SOL     OW62226   6.182   2.588   9.590
20262SOL    HW162227   6.179   2.667   9.536
20262SOL    HW262228   6.114   2.602   9.656
20263SOL     OW62229   6.862   2.234  10.251
20263SOL    HW162230   6.772   2.201  10.254
20263SOL    HW262231   6.911   2.176  10.310
20264SOL     OW62232   7.165   3.527   9.624
20264SOL    HW162233   7.255   3.557   9.613
20264SOL    HW262234   7.132   3.516   9.535
20265SOL     OW62235   6.374   2.483  10.741
20265SOL    HW162236   6.354   2.454  10.830
20265SOL    HW262237   6.345   2.411  10.685
20266SOL     OW62238   6.977   2.339  10.986
20266SOL    HW162239   6.982   2.383  11.070
20266SOL    HW262240   7.030   2.260  10.997
20267SOL     OW62241   6.532   2.747  10.896
20267SOL    HW162242   6.588   2.680  10.857
20267SOL    HW262243   6.487   2.787  10.821
20268SOL     OW62244   6.584   2.267  10.528
20268SOL    HW162245   6.493   2.286  10.551
20268SOL    HW262246   6.578   2.212  10.450
20269SOL     OW62247   6.643   2.553   9.734
20269SOL    HW162248   6.660   2.546   9.828
20269SOL    HW262249   6.558   2.512   9.721
20270SOL     OW62250   5.670   2.663  10.090
20270SOL    HW162251   5.742   2.666  10.152
20270SOL    HW262252   5.617   2.739  10.110
20271SOL     OW62253   5.703   3.715  10.888
20271SOL    HW162254   5.708   3.694  10.981
20271SOL    HW262255   5.609   3.715  10.868
20272SOL     OW62256   6.480   2.221   9.513
20272SOL    HW162257   6.529   2.278   9.454
20272SOL    HW262258   6.445   2.152   9.457
20273SOL     OW62259   7.287   2.432  11.143
20273SOL    HW162260   7.254   2.508  11.094
20273SOL    HW262261   7.312   2.369  11.076
20274SOL     OW62262   6.957   3.002   9.838
20274SOL    HW162263   7.040   2.995   9.790
20274SOL    HW262264   6.908   3.070   9.792
20275SOL     OW62265   6.138   2.017  10.210
20275SOL    HW162266   6.139   2.058  10.296
20275SOL    HW262267   6.133   2.089  10.148
20276SOL     OW62268   6.573   3.311   9.774
20276SOL    HW162269   6.550   3.385   9.717
20276SOL    HW262270   6.545   3.339   9.861
20277SOL     OW62271   5.943   3.684  10.192
20277SOL    HW162272   5.993   3.602  10.194
20277SOL    HW262273   6.010   3.752  10.199
20278SOL     OW62274   7.382   2.877  10.194
20278SOL    HW162275   7.337   2.888  10.110
20278SOL    HW262276   7.317   2.902  10.259
20279SOL     OW62277   6.811   3.405  10.825
20279SOL    HW162278   6.798   3.330  10.883
20279SOL    HW262279   6.741   3.398  10.760
20280SOL     OW62280   5.902   2.816   9.570
20280SOL    HW162281   5.977   2.843   9.518
20280SOL    HW262282   5.862   2.745   9.520
20281SOL     OW62283   7.066   2.620  10.030
20281SOL    HW162284   7.073   2.579  10.117
20281SOL    HW262285   7.147   2.669  10.020
20282SOL     OW62286   6.056   3.124  11.041
20282SOL    HW162287   6.034   3.093  10.953
20282SOL    HW262288   5.972   3.125  11.087
20283SOL     OW62289   6.720   3.625   9.553
20283SOL    HW162290   6.633   3.596   9.580
20283SOL    HW262291   6.742   3.569   9.478
20284SOL     OW62292   5.786   2.136  10.822
20284SOL    HW162293   5.701   2.178  10.812
20284SOL    HW262294   5.766   2.049  10.854
20285SOL     OW62295   7.224   3.241   9.416
20285SOL    HW162296   7.187   3.327   9.398
20285SOL    HW262297   7.157   3.179   9.386
20286SOL     OW62298   6.081   3.567   9.645
20286SOL    HW162299   6.106   3.645   9.695
20286SOL    HW262300   6.139   3.568   9.569
20287SOL     OW62301   6.984   1.964   9.757
20287SOL    HW162302   6.970   1.940   9.665
20287SOL    HW262303   7.077   1.984   9.763
20288SOL     OW62304   5.871   3.580  10.532
20288SOL    HW162305   5.911   3.664  10.555
20288SOL    HW262306   5.833   3.593  10.446
20289SOL     OW62307   6.531   3.556  10.200
20289SOL    HW162308   6.619   3.520  10.198
20289SOL    HW262309   6.485   3.511  10.129
20290SOL     OW62310   6.003   2.547   9.816
20290SOL    HW162311   6.017   2.452   9.821
20290SOL    HW262312   5.908   2.557   9.817
20291SOL     OW62313   7.102   2.087  11.028
20291SOL    HW162314   7.115   2.101  11.121
20291SOL    HW262315   7.027   2.026  11.023
20292SOL     OW62316   6.241   1.972   9.411
20292SOL    HW162317   6.300   1.897   9.419
20292SOL    HW262318   6.177   1.945   9.345
20293SOL     OW62319   6.353   2.140  11.068
20293SOL    HW162320   6.433   2.088  11.064
20293SOL    HW262321   6.300   2.098  11.136
20294SOL     OW62322   6.437   3.363  10.511
20294SOL    HW162323   6.431   3.342  10.418
20294SOL    HW262324   6.519   3.324  10.540
20295SOL     OW62325   6.923   2.453  10.741
20295SOL    HW162326   6.955   2.425  10.827
20295SOL    HW262327   6.959   2.541  10.730
20296SOL     OW62328   6.398   3.245  10.255
20296SOL    HW162329   6.485   3.242  10.215
20296SOL    HW262330   6.338   3.259  10.182
20297SOL     OW62331   6.484   2.364  10.197
20297SOL    HW162332   6.472   2.346  10.103
20297SOL    HW262333   6.514   2.280  10.233
20298SOL     OW62334   6.146   1.926   9.804
20298SOL    HW162335   6.064   1.924   9.853
20298SOL    HW262336   6.138   2.001   9.745
20299SOL     OW62337   7.018   3.069   9.348
20299SOL    HW162338   7.041   2.993   9.402
20299SOL    HW262339   6.933   3.097   9.380
20300SOL     OW62340   5.866   1.913   9.495
20300SOL    HW162341   5.911   1.978   9.440
20300SOL    HW262342   5.936   1.857   9.528
20301SOL     OW62343   6.532   2.115   9.765
20301SOL    HW162344   6.506   2.149   9.679
20301SOL    HW262345   6.626   2.130   9.769
20302SOL     OW62346   6.667   2.548  10.770
20302SOL    HW162347   6.603   2.476  10.767
20302SOL    HW262348   6.752   2.505  10.761
20303SOL     OW62349   6.790   3.453  10.113
20303SOL    HW162350   6.803   3.512  10.038
20303SOL    HW262351   6.863   3.473  10.172
20304SOL     OW62352   6.060   3.009  10.030
20304SOL    HW162353   5.997   2.992  10.099
20304SOL    HW262354   6.010   3.002   9.949
20305SOL     OW62355   6.846   3.659   9.929
20305SOL    HW162356   6.903   3.709   9.870
20305SOL    HW262357   6.782   3.724   9.960
20306SOL     OW62358   6.613   2.392   9.340
20306SOL    HW162359   6.568   2.474   9.317
20306SOL    HW262360   6.683   2.420   9.400
20307SOL     OW62361   5.677   2.413  10.701
20307SOL    HW162362   5.769   2.416  10.676
20307SOL    HW262363   5.667   2.482  10.767
20308SOL     OW62364   6.142   2.081  10.482
20308SOL    HW162365   6.174   1.997  10.513
20308SOL    HW262366   6.051   2.085  10.512
20309SOL     OW62367   6.440   2.322   9.935
20309SOL    HW162368   6.408   2.375   9.862
20309SOL    HW262369   6.469   2.241   9.895
20310SOL     OW62370   6.604   1.917  10.056
20310SOL    HW162371   6.545   1.912   9.981
20310SOL    HW262372   6.581   1.841  10.110
20311SOL     OW62373   7.042   3.024  10.159
20311SOL    HW162374   6.966   2.980  10.120
20311SOL    HW262375   7.100   3.042  10.086
20312SOL     OW62376   7.049   2.473  10.270
20312SOL    HW162377   6.990   2.397  10.273
20312SOL    HW262378   7.103   2.463  10.348
20313SOL     OW62379   7.426   2.665   9.716
20313SOL    HW162380   7.495   2.616   9.762
20313SOL    HW262381   7.401   2.608   9.643
20314SOL     OW62382   7.253   3.111   9.983
20314SOL    HW162383   7.349   3.107   9.988
20314SOL    HW262384   7.233   3.204   9.984
20315SOL     OW62385   6.979   2.439   9.375
20315SOL    HW162386   6.924   2.413   9.449
20315SOL    HW262387   7.068   2.420   9.404
20316SOL     OW62388   6.121   2.123   9.621
20316SOL    HW162389   6.164   2.078   9.548
20316SOL    HW262390   6.088   2.205   9.584
20317SOL     OW62391   7.332   3.103  10.876
20317SOL    HW162392   7.419   3.069  10.854
20317SOL    HW262393   7.347   3.193  10.903
20318SOL     OW62394   6.643   3.211  10.637
20318SOL    HW162395   6.566   3.183  10.688
20318SOL    HW262396   6.717   3.171  10.681
20319SOL     OW62397   7.196   3.485  10.970
20319SOL    HW162398   7.188   3.525  10.883
20319SOL    HW262399   7.279   3.438  10.968
20320SOL     OW62400   6.709   3.060  10.411
20320SOL    HW162401   6.663   3.111  10.478
20320SOL    HW262402   6.691   3.106  10.329
20321SOL     OW62403   7.198   2.953  10.385
20321SOL    HW162404   7.188   3.021  10.452
20321SOL    HW262405   7.129   2.972  10.321
20322SOL     OW62406   6.506   1.961  10.700
20322SOL    HW162407   6.528   1.936  10.610
20322SOL    HW262408   6.588   1.996  10.736
20323SOL     OW62409   6.571   2.973  11.040
20323SOL    HW162410   6.480   2.993  11.063
20323SOL    HW262411   6.565   2.896  10.984
20324SOL     OW62412   6.303   2.932   9.679
20324SOL    HW162413   6.287   2.915   9.772
20324SOL    HW262414   6.380   2.880   9.657
20325SOL     OW62415   6.024   2.672  10.548
20325SOL    HW162416   6.082   2.692  10.622
20325SOL    HW262417   5.983   2.589  10.571
20326SOL     OW62418   6.846   2.236  10.597
20326SOL    HW162419   6.877   2.316  10.639
20326SOL    HW262420   6.757   2.257  10.569
20327SOL     OW62421   5.658   3.452  10.658
20327SOL    HW162422   5.583   3.483  10.608
20327SOL    HW262423   5.730   3.510  10.633
20328SOL     OW62424   5.922   2.985   9.795
20328SOL    HW162425   5.920   3.063   9.741
20328SOL    HW262426   5.916   2.912   9.733
20329SOL     OW62427   6.157   2.423  10.182
20329SOL    HW162428   6.154   2.394  10.091
20329SOL    HW262429   6.118   2.510  10.181
20330SOL     OW62430   6.825   3.215   9.709
20330SOL    HW162431   6.882   3.288   9.733
20330SOL    HW262432   6.737   3.243   9.734
20331SOL     OW62433   6.881   3.324  10.467
20331SOL    HW162434   6.942   3.334  10.540
20331SOL    HW262435   6.816   3.261  10.497
20332SOL     OW62436   7.167   2.470   9.801
20332SOL    HW162437   7.112   2.526   9.855
20332SOL    HW262438   7.210   2.530   9.741
20333SOL     OW62439   6.002   2.618  10.916
20333SOL    HW162440   6.070   2.654  10.859
20333SOL    HW262441   6.024   2.525  10.925
20334SOL     OW62442   7.198   2.645  11.001
20334SOL    HW162443   7.111   2.685  10.995
20334SOL    HW262444   7.249   2.686  10.932
20335SOL     OW62445   6.585   1.998  11.071
20335SOL    HW162446   6.642   2.072  11.048
20335SOL    HW262447   6.635   1.921  11.044
20336SOL     OW62448   6.076   1.905  11.084
20336SOL    HW162449   6.036   1.860  11.009
20336SOL    HW262450   6.019   1.980  11.099
20337SOL     OW62451   6.178   2.687  10.320
20337SOL    HW162452   6.204   2.779  10.317
20337SOL    HW262453   6.128   2.679  10.401
20338SOL     OW62454   6.935   2.718  10.333
20338SOL    HW162455   6.873   2.730  10.261
20338SOL    HW262456   6.975   2.633  10.317
20339SOL     OW62457   6.794   2.386   9.573
20339SOL    HW162458   6.797   2.306   9.626
20339SOL    HW262459   6.749   2.450   9.627
20340SOL     OW62460   5.880   2.067  10.558
20340SOL    HW162461   5.842   2.092  10.642
20340SOL    HW262462   5.861   1.973  10.550
20341SOL     OW62463   5.663   3.179  10.585
20341SOL    HW162464   5.677   3.122  10.661
20341SOL    HW262465   5.650   3.266  10.622
20342SOL     OW62466   7.330   2.814  11.181
20342SOL    HW162467   7.283   2.752  11.125
20342SOL    HW262468   7.265   2.841  11.246
20343SOL     OW62469   5.902   1.926   9.933
20343SOL    HW162470   5.870   2.014   9.952
20343SOL    HW262471   5.905   1.882  10.018
20344SOL     OW62472   7.205   2.232   9.670
20344SOL    HW162473   7.245   2.173   9.734
20344SOL    HW262474   7.183   2.310   9.721
20345SOL     OW62475   6.611   2.597  10.266
20345SOL    HW162476   6.604   2.626  10.357
20345SOL    HW262477   6.595   2.503  10.269
20346SOL     OW62478   6.562   3.424  11.035
20346SOL    HW162479   6.546   3.470  10.953
20346SOL    HW262480   6.610   3.345  11.009
20347SOL     OW62481   7.438   3.359  10.913
20347SOL    HW162482   7.459   3.389  10.824
20347SOL    HW262483   7.517   3.375  10.963
20348SOL     OW62484   5.940   2.789  11.121
20348SOL    HW162485   6.021   2.798  11.171
20348SOL    HW262486   5.960   2.724  11.053
20349SOL     OW62487   7.109   2.126   9.433
20349SOL    HW162488   7.046   2.062   9.464
20349SOL    HW262489   7.144   2.166   9.513
20350SOL     OW62490   6.873   2.690   9.337
20350SOL    HW162491   6.913   2.603   9.338
20350SOL    HW262492   6.903   2.730   9.256
20351SOL     OW62493   6.658   3.204  10.176
20351SOL    HW162494   6.665   3.133  10.113
20351SOL    HW262495   6.710   3.275  10.139
20352SOL     OW62496   5.878   2.666  10.267
20352SOL    HW162497   5.969   2.695  10.267
20352SOL    HW262498   5.882   2.576  10.301
20353SOL     OW62499   5.933   2.387  10.335
20353SOL    HW162500   5.885   2.307  10.316
20353SOL    HW262501   6.013   2.380  10.283
20354SOL     OW62502   6.722   2.231  10.998
20354SOL    HW162503   6.672   2.285  11.059
20354SOL    HW262504   6.806   2.276  10.990
20355SOL     OW62505   6.751   2.057  10.785
20355SOL    HW162506   6.736   2.119  10.856
20355SOL    HW262507   6.790   2.109  10.715
20356SOL     OW62508   5.603   3.158   9.523
20356SOL    HW162509   5.516   3.184   9.493
20356SOL    HW262510   5.590   3.071   9.561
20357SOL     OW62511   5.693   3.631  10.282
20357SOL    HW162512   5.656   3.562  10.227
20357SOL    HW262513   5.775   3.655  10.239
20358SOL     OW62514   6.081   3.437  10.225
20358SOL    HW162515   6.150   3.500  10.242
20358SOL    HW262516   6.118   3.377  10.161
20359SOL     OW62517   6.550   2.639  10.532
20359SOL    HW162518   6.620   2.628  10.596
20359SOL    HW262519   6.470   2.617  10.580
20360SOL     OW62520   5.608   2.407  10.431
20360SOL    HW162521   5.679   2.377  10.375
20360SOL    HW262522   5.646   2.409  10.519
20361SOL     OW62523   5.773   2.383  11.042
20361SOL    HW162524   5.794   2.322  10.972
20361SOL    HW262525   5.739   2.461  10.997
20362SOL     OW62526   6.969   2.791  10.965
20362SOL    HW162527   6.991   2.884  10.960
20362SOL    HW262528   6.963   2.763  10.873
20363SOL     OW62529   6.398   2.437   9.685
20363SOL    HW162530   6.407   2.365   9.622
20363SOL    HW262531   6.326   2.490   9.651
20364SOL     OW62532   7.216   2.458  10.486
20364SOL    HW162533   7.206   2.404  10.565
20364SOL    HW262534   7.304   2.437  10.455
20365SOL     OW62535   5.829   3.396  11.027
20365SOL    HW162536   5.807   3.471  11.082
20365SOL    HW262537   5.826   3.321  11.086
20366SOL     OW62538   6.304   2.302  10.546
20366SOL    HW162539   6.255   2.220  10.554
20366SOL    HW262540   6.264   2.347  10.472
20367SOL     OW62541   6.499   3.539  10.787
20367SOL    HW162542   6.471   3.500  10.704
20367SOL    HW262543   6.503   3.633  10.770
20368SOL     OW62544   6.041   2.358   9.518
20368SOL    HW162545   6.097   2.435   9.528
20368SOL    HW262546   5.956   2.394   9.494
20369SOL     OW62547   5.760   3.010  10.794
20369SOL    HW162548   5.741   2.965  10.876
20369SOL    HW262549   5.767   2.940  10.729
20370SOL     OW62550   6.893   2.897  10.532
20370SOL    HW162551   6.918   2.836  10.462
20370SOL    HW262552   6.828   2.954  10.491
20371SOL     OW62553   6.905   2.711   9.611
20371SOL    HW162554   6.825   2.684   9.656
20371SOL    HW262555   6.885   2.705   9.518
20372SOL     OW62556   7.368   3.593  10.471
20372SOL    HW162557   7.432   3.621  10.405
20372SOL    HW262558   7.340   3.506  10.441
20373SOL     OW62559   6.829   3.593  10.415
20373SOL    HW162560   6.909   3.621  10.371
20373SOL    HW262561   6.842   3.500  10.433
20374SOL     OW62562   5.686   3.127  10.320
20374SOL    HW162563   5.668   3.143  10.413
20374SOL    HW262564   5.609   3.080  10.288
20375SOL     OW62565   6.265   3.536  11.051
20375SOL    HW162566   6.204   3.610  11.047
20375SOL    HW262567   6.338   3.561  10.996
20376SOL     OW62568   7.328   2.024   9.818
20376SOL    HW162569   7.389   2.012   9.746
20376SOL    HW262570   7.312   1.936   9.852
20377SOL     OW62571   6.979   3.432   9.805
20377SOL    HW162572   7.038   3.462   9.735
20377SOL    HW262573   6.926   3.508   9.826
20378SOL     OW62574   5.742   3.636  11.146
20378SOL    HW162575   5.688   3.578  11.199
20378SOL    HW262576   5.784   3.694  11.210
20379SOL     OW62577   6.864   2.796   9.984
20379SOL    HW162578   6.938   2.735   9.992
20379SOL    HW262579   6.895   2.863   9.922
20380SOL     OW62580   6.390   3.142  10.735
20380SOL    HW162581   6.359   3.184  10.816
20380SOL    HW262582   6.333   3.177  10.667
20381SOL     OW62583   6.281   3.472   9.449
20381SOL    HW162584   6.282   3.506   9.359
20381SOL    HW262585   6.253   3.381   9.439
20382SOL     OW62586   7.205   3.590  10.704
20382SOL    HW162587   7.260   3.594  10.625
20382SOL    HW262588   7.190   3.682  10.727
20383SOL     OW62589   7.426   2.026  10.278
20383SOL    HW162590   7.451   1.939  10.245
20383SOL    HW262591   7.339   2.041  10.241
20384SOL     OW62592   5.833   2.175  10.027
20384SOL    HW162593   5.748   2.206   9.997
20384SOL    HW262594   5.825   2.170  10.122
20385SOL     OW62595   6.799   3.466   9.342
20385SOL    HW162596   6.783   3.373   9.354
20385SOL    HW262597   6.742   3.491   9.269
20386SOL     OW62598   6.411   2.874  10.683
20386SOL    HW162599   6.448   2.873  10.594
20386SOL    HW262600   6.404   2.967  10.705
20387SOL     OW62601   6.520   2.784   9.626
20387SOL    HW162602   6.568   2.812   9.548
20387SOL    HW262603   6.564   2.704   9.654
20388SOL     OW62604   7.082   3.479   9.360
20388SOL    HW162605   6.987   3.479   9.345
20388SOL    HW262606   7.120   3.490   9.273
20389SOL     OW62607   5.900   3.246  10.787
20389SOL    HW162608   5.875   3.285  10.871
20389SOL    HW262609   5.855   3.162  10.785
20390SOL     OW62610   7.188   3.152  10.575
20390SOL    HW162611   7.266   3.146  10.630
20390SOL    HW262612   7.132   3.216  10.620
20391SOL     OW62613   6.641   2.958  10.036
20391SOL    HW162614   6.582   2.950   9.961
20391SOL    HW262615   6.717   2.904  10.012
20392SOL     OW62616   6.607   2.102  10.278
20392SOL    HW162617   6.606   2.059  10.192
20392SOL    HW262618   6.603   2.030  10.341
20393SOL     OW62619   6.202   3.368   9.810
20393SOL    HW162620   6.239   3.313   9.741
20393SOL    HW262621   6.144   3.428   9.763
20394SOL     OW62622   7.328   2.253  10.696
20394SOL    HW162623   7.397   2.319  10.686
20394SOL    HW262624   7.354   2.183  10.636
20395SOL     OW62625   5.861   3.221   9.590
20395SOL    HW162626   5.769   3.203   9.572
20395SOL    HW262627   5.861   3.260   9.678
20396SOL     OW62628   5.701   2.915  11.049
20396SOL    HW162629   5.622   2.883  11.094
20396SOL    HW262630   5.772   2.863  11.085
20397SOL     OW62631   6.269   2.073  10.806
20397SOL    HW162632   6.351   2.043  10.768
20397SOL    HW262633   6.293   2.103  10.894
20398SOL     OW62634   5.663   2.186   9.332
20398SOL    HW162635   5.587   2.169   9.277
20398SOL    HW262636   5.696   2.271   9.303
20399SOL     OW62637   7.008   2.716  10.704
20399SOL    HW162638   6.954   2.776  10.651
20399SOL    HW262639   7.095   2.722  10.666
20400SOL     OW62640   5.636   2.017   9.600
20400SOL    HW162641   5.617   2.089   9.539
20400SOL    HW262642   5.723   1.985   9.573
20401SOL     OW62643   6.770   3.188   9.424
20401SOL    HW162644   6.676   3.170   9.418
20401SOL    HW262645   6.787   3.194   9.518
20402SOL     OW62646   6.207   2.698  10.748
20402SOL    HW162647   6.265   2.773  10.732
20402SOL    HW262648   6.266   2.623  10.752
20403SOL     OW62649   7.066   3.650  10.286
20403SOL    HW162650   7.075   3.722  10.224
20403SOL    HW262651   7.154   3.638  10.322
20404SOL     OW62652   6.319   2.412  10.996
20404SOL    HW162653   6.356   2.470  11.062
20404SOL    HW262654   6.327   2.324  11.033
20405SOL     OW62655   7.062   3.049  10.934
20405SOL    HW162656   7.050   3.071  11.026
20405SOL    HW262657   7.153   3.073  10.915
20406SOL     OW62658   5.949   3.594  10.870
20406SOL    HW162659   5.866   3.641  10.858
20406SOL    HW262660   5.925   3.516  10.920
20407SOL     OW62661   7.246   2.742  10.562
20407SOL    HW162662   7.239   2.659  10.514
20407SOL    HW262663   7.231   2.809  10.496
20408SOL     OW62664   6.802   2.179   9.771
20408SOL    HW162665   6.863   2.106   9.764
20408SOL    HW262666   6.834   2.230   9.845
20409SOL     OW62667   6.206   2.621   9.988
20409SOL    HW162668   6.229   2.709   9.958
20409SOL    HW262669   6.137   2.592   9.928
20410SOL     OW62670   7.337   2.220  10.967
20410SOL    HW162671   7.327   2.241  10.874
20410SOL    HW262672   7.259   2.168  10.988
20411SOL     OW62673   7.337   2.788  10.819
20411SOL    HW162674   7.328   2.882  10.835
20411SOL    HW262675   7.314   2.778  10.726
20412SOL     OW62676   6.469   3.239   9.357
20412SOL    HW162677   6.441   3.292   9.432
20412SOL    HW262678   6.491   3.303   9.289
20413SOL     OW62679   6.255   3.641  10.253
20413SOL    HW162680   6.233   3.731  10.231
20413SOL    HW262681   6.350   3.636  10.238
20414SOL     OW62682   6.423   2.807  10.188
20414SOL    HW162683   6.518   2.816  10.183
20414SOL    HW262684   6.395   2.874  10.251
20415SOL     OW62685   6.658   2.845   9.403
20415SOL    HW162686   6.635   2.900   9.328
20415SOL    HW262687   6.733   2.794   9.374
20416SOL     OW62688   7.431   3.413  10.150
20416SOL    HW162689   7.359   3.415  10.086
20416SOL    HW262690   7.391   3.377  10.229
20417SOL     OW62691   5.807   3.150  11.153
20417SOL    HW162692   5.763   3.073  11.116
20417SOL    HW262693   5.759   3.169  11.234
20418SOL     OW62694   5.675   3.096   9.978
20418SOL    HW162695   5.668   3.031  10.048
20418SOL    HW262696   5.733   3.056   9.913
20419SOL     OW62697   6.267   3.274  10.941
20419SOL    HW162698   6.188   3.236  10.980
20419SOL    HW262699   6.270   3.363  10.976
20420SOL     OW62700   7.401   2.039  10.549
20420SOL    HW162701   7.399   1.944  10.559
20420SOL    HW262702   7.411   2.054  10.455
20421SOL     OW62703   6.046   2.281   9.873
20421SOL    HW162704   6.061   2.231   9.793
20421SOL    HW262705   5.968   2.242   9.912
20422SOL     OW62706   7.287   3.342  10.380
20422SOL    HW162707   7.203   3.331  10.335
20422SOL    HW262708   7.284   3.279  10.452
20423SOL     OW62709   5.930   2.424  10.607
20423SOL    HW162710   5.978   2.359  10.659
20423SOL    HW262711   5.938   2.393  10.517
20424SOL     OW62712   6.416   3.466   9.967
20424SOL    HW162713   6.418   3.551   9.923
20424SOL    HW262714   6.339   3.422   9.930
20425SOL     OW62715   7.004   2.086  10.437
20425SOL    HW162716   7.011   2.002  10.482
20425SOL    HW262717   6.955   2.142  10.497
20426SOL     OW62718   6.603   1.876  10.447
20426SOL    HW162719   6.543   1.806  10.421
20426SOL    HW262720   6.690   1.837  10.440
20427SOL     OW62721   6.338   3.206   9.635
20427SOL    HW162722   6.320   3.112   9.636
20427SOL    HW262723   6.425   3.215   9.673
20428SOL     OW62724   6.186   3.430  10.590
20428SOL    HW162725   6.189   3.516  10.632
20428SOL    HW262726   6.276   3.415  10.561
20429SOL     OW62727   6.944   1.909   9.491
20429SOL    HW162728   6.978   1.845   9.428
20429SOL    HW262729   6.855   1.878   9.510
20430SOL     OW62730   6.884   2.325   9.989
20430SOL    HW162731   6.834   2.407   9.990
20430SOL    HW262732   6.878   2.293  10.079
20431SOL     OW62733   7.167   2.064  10.209
20431SOL    HW162734   7.109   2.096  10.278
20431SOL    HW262735   7.168   2.134  10.145
20432SOL     OW62736   5.626   2.915   9.643
20432SOL    HW162737   5.714   2.903   9.607
20432SOL    HW262738   5.596   2.826   9.664
20433SOL     OW62739   6.473   3.527   9.639
20433SOL    HW162740   6.404   3.518   9.574
20433SOL    HW262741   6.444   3.598   9.696
20434SOL     OW62742   5.802   2.476  11.307
20434SOL    HW162743   5.714   2.472  11.344
20434SOL    HW262744   5.789   2.458  11.213
20435SOL     OW62745   5.819   2.139  12.154
20435SOL    HW162746   5.844   2.106  12.240
20435SOL    HW262747   5.727   2.114  12.144
20436SOL     OW62748   5.575   2.247  11.815
20436SOL    HW162749   5.497   2.281  11.859
20436SOL    HW262750   5.543   2.170  11.767
20437SOL     OW62751   6.127   3.111  12.338
20437SOL    HW162752   6.054   3.146  12.286
20437SOL    HW262753   6.125   3.161  12.419
20438SOL     OW62754   7.159   3.372  11.877
20438SOL    HW162755   7.113   3.364  11.961
20438SOL    HW262756   7.089   3.383  11.813
20439SOL     OW62757   7.371   2.459  11.398
20439SOL    HW162758   7.340   2.459  11.307
20439SOL    HW262759   7.332   2.380  11.436
20440SOL     OW62760   6.345   3.012  12.226
20440SOL    HW162761   6.263   3.037  12.267
20440SOL    HW262762   6.374   3.090  12.179
20441SOL     OW62763   6.284   2.862  11.829
20441SOL    HW162764   6.328   2.848  11.913
20441SOL    HW262765   6.207   2.914  11.851
20442SOL     OW62766   5.928   3.262  12.216
20442SOL    HW162767   5.844   3.220  12.201
20442SOL    HW262768   5.934   3.330  12.149
20443SOL     OW62769   7.190   2.294  11.924
20443SOL    HW162770   7.120   2.303  11.859
20443SOL    HW262771   7.172   2.365  11.987
20444SOL     OW62772   5.863   3.543  11.658
20444SOL    HW162773   5.789   3.594  11.691
20444SOL    HW262774   5.887   3.586  11.576
20445SOL     OW62775   5.839   3.283  11.721
20445SOL    HW162776   5.840   3.379  11.717
20445SOL    HW262777   5.770   3.262  11.784
20446SOL     OW62778   5.869   2.952  12.072
20446SOL    HW162779   5.854   2.865  12.109
20446SOL    HW262780   5.811   3.010  12.121
20447SOL     OW62781   6.164   2.847  11.314
20447SOL    HW162782   6.212   2.894  11.246
20447SOL    HW262783   6.199   2.881  11.396
20448SOL     OW62784   5.715   2.516  11.739
20448SOL    HW162785   5.671   2.434  11.759
20448SOL    HW262786   5.701   2.571  11.816
20449SOL     OW62787   7.429   3.611  11.504
20449SOL    HW162788   7.498   3.586  11.566
20449SOL    HW262789   7.452   3.700  11.477
20450SOL     OW62790   5.628   3.453  11.304
20450SOL    HW162791   5.605   3.362  11.322
20450SOL    HW262792   5.599   3.501  11.381
20451SOL     OW62793   7.271   2.757  11.781
20451SOL    HW162794   7.338   2.717  11.724
20451SOL    HW262795   7.242   2.834  11.732
20452SOL     OW62796   7.228   2.973  11.609
20452SOL    HW162797   7.314   2.973  11.566
20452SOL    HW262798   7.236   3.035  11.680
20453SOL     OW62799   5.763   2.616   0.218
20453SOL    HW162800   5.743   2.573   0.301
20453SOL    HW262801   5.680   2.654   0.190
20454SOL     OW62802   6.190   3.261  11.905
20454SOL    HW162803   6.145   3.177  11.914
20454SOL    HW262804   6.174   3.288  11.815
20455SOL     OW62805   6.411   1.872  11.699
20455SOL    HW162806   6.451   1.953  11.668
20455SOL    HW262807   6.317   1.890  11.697
20456SOL     OW62808   5.792   2.848  12.405
20456SOL    HW162809   5.861   2.783  12.411
20456SOL    HW262810   5.713   2.802  12.432
20457SOL     OW62811   7.118   2.869  11.373
20457SOL    HW162812   7.050   2.810  11.406
20457SOL    HW262813   7.157   2.907  11.452
20458SOL     OW62814   7.072   3.276  12.128
20458SOL    HW162815   7.000   3.299  12.188
20458SOL    HW262816   7.046   3.190  12.093
20459SOL     OW62817   7.244   3.621  11.750
20459SOL    HW162818   7.230   3.590  11.660
20459SOL    HW262819   7.219   3.547  11.805
20460SOL     OW62820   6.170   2.583  11.443
20460SOL    HW162821   6.166   2.668  11.399
20460SOL    HW262822   6.107   2.590  11.515
20461SOL     OW62823   6.882   2.234  12.112
20461SOL    HW162824   6.792   2.202  12.110
20461SOL    HW262825   6.926   2.176  12.174
20462SOL     OW62826   7.166   3.529  11.484
20462SOL    HW162827   7.258   3.556  11.476
20462SOL    HW262828   7.137   3.516  11.394
20463SOL     OW62829   6.573   2.215  12.389
20463SOL    HW162830   6.588   2.288  12.449
20463SOL    HW262831   6.479   2.216  12.374
20464SOL     OW62832   6.625   2.540  11.588
20464SOL    HW162833   6.624   2.519  11.681
20464SOL    HW262834   6.542   2.505  11.555
20465SOL     OW62835   5.673   2.687  11.947
20465SOL    HW162836   5.751   2.685  12.003
20465SOL    HW262837   5.621   2.759  11.981
20466SOL     OW62838   6.481   2.207  11.365
20466SOL    HW162839   6.529   2.268  11.307
20466SOL    HW262840   6.456   2.135  11.308
20467SOL     OW62841   6.949   2.986  11.705
20467SOL    HW162842   7.034   2.980  11.660
20467SOL    HW262843   6.904   3.058  11.662
20468SOL     OW62844   6.141   2.046  12.071
20468SOL    HW162845   6.140   2.098  12.151
20468SOL    HW262846   6.126   2.109  12.001
20469SOL     OW62847   6.575   3.307  11.646
20469SOL    HW162848   6.554   3.378  11.586
20469SOL    HW262849   6.544   3.337  11.732
20470SOL     OW62850   7.361   2.876  12.062
20470SOL    HW162851   7.328   2.905  11.977
20470SOL    HW262852   7.299   2.914  12.125
20471SOL     OW62853   5.895   2.823  11.432
20471SOL    HW162854   5.971   2.842  11.376
20471SOL    HW262855   5.861   2.740  11.398
20472SOL     OW62856   7.070   2.600  11.880
20472SOL    HW162857   7.075   2.568  11.970
20472SOL    HW262858   7.147   2.655  11.869
20473SOL     OW62859   6.716   3.636  11.402
20473SOL    HW162860   6.636   3.600  11.441
20473SOL    HW262861   6.739   3.575  11.333
20474SOL     OW62862   7.217   3.237  11.275
20474SOL    HW162863   7.185   3.326  11.257
20474SOL    HW262864   7.147   3.180  11.244
20475SOL     OW62865   6.066   3.625  11.459
20475SOL    HW162866   6.102   3.661  11.540
20475SOL    HW262867   6.138   3.574  11.421
20476SOL     OW62868   6.986   1.961  11.616
20476SOL    HW162869   6.977   1.936  11.524
20476SOL    HW262870   7.080   1.977  11.627
20477SOL     OW62871   5.865   3.616  12.394
20477SOL    HW162872   5.817   3.625  12.476
20477SOL    HW262873   5.797   3.615  12.327
20478SOL     OW62874   6.516   3.563  12.073
20478SOL    HW162875   6.591   3.510  12.101
20478SOL    HW262876   6.477   3.512  12.002
20479SOL     OW62877   5.991   2.548  11.654
20479SOL    HW162878   6.005   2.454  11.667
20479SOL    HW262879   5.898   2.561  11.671
20480SOL     OW62880   6.252   1.972  11.274
20480SOL    HW162881   6.312   1.897  11.278
20480SOL    HW262882   6.186   1.947  11.209
20481SOL     OW62883   6.403   3.230  12.087
20481SOL    HW162884   6.486   3.251  12.046
20481SOL    HW262885   6.337   3.256  12.023
20482SOL     OW62886   6.532   2.384  12.060
20482SOL    HW162887   6.507   2.375  11.968
20482SOL    HW262888   6.557   2.296  12.088
20483SOL     OW62889   6.144   1.925  11.661
20483SOL    HW162890   6.063   1.925  11.712
20483SOL    HW262891   6.137   2.002  11.605
20484SOL     OW62892   7.011   3.067  11.206
20484SOL    HW162893   7.038   2.993  11.260
20484SOL    HW262894   6.926   3.094  11.243
20485SOL     OW62895   5.873   1.914  11.361
20485SOL    HW162896   5.914   1.981  11.307
20485SOL    HW262897   5.945   1.857  11.388
20486SOL     OW62898   6.531   2.114  11.623
20486SOL    HW162899   6.506   2.147  11.537
20486SOL    HW262900   6.626   2.128  11.627
20487SOL     OW62901   6.814   3.437  11.969
20487SOL    HW162902   6.825   3.499  11.897
20487SOL    HW262903   6.844   3.485  12.046
20488SOL     OW62904   6.065   3.011  11.894
20488SOL    HW162905   6.000   2.994  11.962
20488SOL    HW262906   6.016   3.003  11.812
20489SOL     OW62907   6.847   3.649  11.785
20489SOL    HW162908   6.896   3.713  11.734
20489SOL    HW262909   6.775   3.698  11.825
20490SOL     OW62910   6.611   2.390  11.199
20490SOL    HW162911   6.566   2.472  11.177
20490SOL    HW262912   6.678   2.416  11.263
20491SOL     OW62913   6.139   2.054  12.367
20491SOL    HW162914   6.142   1.969  12.323
20491SOL    HW262915   6.046   2.068  12.385
20492SOL     OW62916   6.479   2.347  11.791
20492SOL    HW162917   6.406   2.389  11.745
20492SOL    HW262918   6.491   2.264  11.746
20493SOL     OW62919   6.609   1.909  11.912
20493SOL    HW162920   6.545   1.910  11.841
20493SOL    HW262921   6.582   1.835  11.967
20494SOL     OW62922   7.034   3.023  12.022
20494SOL    HW162923   6.966   2.968  11.984
20494SOL    HW262924   7.091   3.044  11.948
20495SOL     OW62925   7.046   2.469  12.124
20495SOL    HW162926   6.988   2.393  12.133
20495SOL    HW262927   7.104   2.464  12.200
20496SOL     OW62928   7.435   2.656  11.579
20496SOL    HW162929   7.502   2.608  11.628
20496SOL    HW262930   7.413   2.599  11.506
20497SOL     OW62931   6.074   3.284  11.322
20497SOL    HW162932   6.000   3.260  11.379
20497SOL    HW262933   6.061   3.232  11.243
20498SOL     OW62934   7.249   3.108  11.849
20498SOL    HW162935   7.345   3.104  11.852
20498SOL    HW262936   7.228   3.201  11.853
20499SOL     OW62937   6.981   2.436  11.240
20499SOL    HW162938   6.921   2.413  11.311
20499SOL    HW262939   7.068   2.413  11.273
20500SOL     OW62940   6.119   2.122  11.476
20500SOL    HW162941   6.170   2.079  11.407
20500SOL    HW262942   6.088   2.203  11.437
20501SOL     OW62943   6.693   3.098  12.294
20501SOL    HW162944   6.618   3.124  12.347
20501SOL    HW262945   6.677   3.137  12.208
20502SOL     OW62946   7.180   2.967  12.254
20502SOL    HW162947   7.152   3.014  12.332
20502SOL    HW262948   7.119   2.995  12.186
20503SOL     OW62949   6.300   2.929  11.546
20503SOL    HW162950   6.278   2.907  11.636
20503SOL    HW262951   6.380   2.879  11.528
20504SOL     OW62952   6.020   2.670  12.441
20504SOL    HW162953   6.058   2.711  12.519
20504SOL    HW262954   5.982   2.588  12.473
20505SOL     OW62955   6.843   2.215  12.440
20505SOL    HW162956   6.869   2.301  12.472
20505SOL    HW262957   6.754   2.228  12.406
20506SOL     OW62958   5.931   2.983  11.658
20506SOL    HW162959   5.914   3.064  11.609
20506SOL    HW262960   5.920   2.913  11.593
20507SOL     OW62961   6.134   2.376  12.029
20507SOL    HW162962   6.149   2.436  11.956
20507SOL    HW262963   6.192   2.409  12.098
20508SOL     OW62964   6.825   3.210  11.578
20508SOL    HW162965   6.884   3.281  11.601
20508SOL    HW262966   6.739   3.240  11.605
20509SOL     OW62967   6.882   3.311  12.315
20509SOL    HW162968   6.925   3.331  12.398
20509SOL    HW262969   6.822   3.239  12.336
20510SOL     OW62970   7.163   2.472  11.651
20510SOL    HW162971   7.119   2.515  11.724
20510SOL    HW262972   7.198   2.544  11.598
20511SOL     OW62973   6.006   3.379  12.454
20511SOL    HW162974   5.970   3.329  12.381
20511SOL    HW262975   5.969   3.467  12.444
20512SOL     OW62976   6.169   2.732  12.220
20512SOL    HW162977   6.167   2.828  12.216
20512SOL    HW262978   6.117   2.710  12.297
20513SOL     OW62979   6.891   2.712  12.146
20513SOL    HW162980   6.822   2.671  12.198
20513SOL    HW262981   6.957   2.643  12.135
20514SOL     OW62982   6.792   2.384  11.432
20514SOL    HW162983   6.797   2.304  11.485
20514SOL    HW262984   6.742   2.445  11.486
20515SOL     OW62985   5.872   2.045  12.407
20515SOL    HW162986   5.800   2.088  12.454
20515SOL    HW262987   5.869   1.954  12.437
20516SOL     OW62988   5.682   3.193  12.448
20516SOL    HW162989   5.675   3.117  12.505
20516SOL    HW262990   5.664   3.268  12.505
20517SOL     OW62991   6.296   2.486  12.220
20517SOL    HW162992   6.374   2.489  12.166
20517SOL    HW262993   6.261   2.575  12.218
20518SOL     OW62994   5.901   1.921  11.789
20518SOL    HW162995   5.868   2.009  11.807
20518SOL    HW262996   5.904   1.879  11.875
20519SOL     OW62997   7.212   2.239  11.524
20519SOL    HW162998   7.243   2.176  11.589
20519SOL    HW262999   7.186   2.315  11.575
20520SOL     OW63000   6.636   2.609  12.169
20520SOL    HW163001   6.606   2.615  12.260
20520SOL    HW263002   6.605   2.524  12.139
20521SOL     OW63003   7.112   2.125  11.293
20521SOL    HW163004   7.048   2.062  11.326
20521SOL    HW263005   7.148   2.166  11.372
20522SOL     OW63006   6.873   2.687  11.198
20522SOL    HW163007   6.914   2.600  11.200
20522SOL    HW263008   6.903   2.726  11.116
20523SOL     OW63009   6.678   3.207  12.031
20523SOL    HW163010   6.691   3.144  11.961
20523SOL    HW263011   6.731   3.283  12.005
20524SOL     OW63012   5.892   2.670  12.116
20524SOL    HW163013   5.985   2.691  12.127
20524SOL    HW263014   5.887   2.576  12.137
20525SOL     OW63015   5.894   2.398  12.157
20525SOL    HW163016   5.864   2.307  12.160
20525SOL    HW263017   5.977   2.394  12.109
20526SOL     OW63018   6.750   2.070   0.157
20526SOL    HW163019   6.730   2.135   0.224
20526SOL    HW263020   6.777   2.121   0.081
20527SOL     OW63021   5.603   3.171  11.351
20527SOL    HW163022   5.515   3.190  11.318
20527SOL    HW263023   5.594   3.085  11.393
20528SOL     OW63024   5.750   3.624  12.087
20528SOL    HW163025   5.716   3.535  12.095
20528SOL    HW263026   5.711   3.658  12.006
20529SOL     OW63027   6.059   3.472  12.052
20529SOL    HW163028   6.139   3.510  12.088
20529SOL    HW263029   6.089   3.396  12.002
20530SOL     OW63030   6.553   2.658  12.429
20530SOL    HW163031   6.607   2.720  12.478
20530SOL    HW263032   6.464   2.693  12.436
20531SOL     OW63033   5.654   2.427  12.299
20531SOL    HW163034   5.729   2.423  12.240
20531SOL    HW263035   5.639   2.521  12.313
20532SOL     OW63036   6.391   2.434  11.516
20532SOL    HW163037   6.389   2.356  11.460
20532SOL    HW263038   6.313   2.484  11.490
20533SOL     OW63039   7.228   2.467  12.325
20533SOL    HW163040   7.230   2.418  12.407
20533SOL    HW263041   7.319   2.466  12.294
20534SOL     OW63042   6.313   2.276  12.401
20534SOL    HW163043   6.232   2.225  12.398
20534SOL    HW263044   6.294   2.356  12.352
20535SOL     OW63045   6.515   3.510   0.030
20535SOL    HW163046   6.510   3.594  -0.015
20535SOL    HW263047   6.471   3.526   0.114
20536SOL     OW63048   6.041   2.353  11.355
20536SOL    HW163049   6.097   2.428  11.378
20536SOL    HW263050   5.954   2.390  11.345
20537SOL     OW63051   6.876   2.890  12.363
20537SOL    HW163052   6.903   2.860  12.276
20537SOL    HW263053   6.819   2.965  12.346
20538SOL     OW63054   6.910   2.716  11.471
20538SOL    HW163055   6.829   2.696  11.519
20538SOL    HW263056   6.886   2.705  11.379
20539SOL     OW63057   7.336   3.612  12.302
20539SOL    HW163058   7.411   3.632  12.246
20539SOL    HW263059   7.328   3.517  12.297
20540SOL     OW63060   6.828   3.574  12.232
20540SOL    HW163061   6.915   3.610  12.214
20540SOL    HW263062   6.845   3.490  12.275
20541SOL     OW63063   5.691   3.123  12.189
20541SOL    HW163064   5.684   3.147  12.281
20541SOL    HW263065   5.602   3.100  12.163
20542SOL     OW63066   7.317   2.025  11.675
20542SOL    HW163067   7.384   2.012  11.607
20542SOL    HW263068   7.303   1.937  11.711
20543SOL     OW63069   6.980   3.429  11.664
20543SOL    HW163070   7.039   3.463  11.596
20543SOL    HW263071   6.929   3.505  11.692
20544SOL     OW63072   6.852   2.762  11.838
20544SOL    HW163073   6.927   2.702  11.840
20544SOL    HW263074   6.880   2.833  11.780
20545SOL     OW63075   6.265   3.479  11.325
20545SOL    HW163076   6.272   3.497  11.231
20545SOL    HW263077   6.204   3.406  11.331
20546SOL     OW63078   7.214   3.659   0.048
20546SOL    HW163079   7.264   3.652  -0.033
20546SOL    HW263080   7.216   3.753   0.069
20547SOL     OW63081   7.424   2.025  12.143
20547SOL    HW163082   7.457   1.939  12.116
20547SOL    HW263083   7.338   2.032  12.103
20548SOL     OW63084   5.834   2.171  11.874
20548SOL    HW163085   5.748   2.206  11.853
20548SOL    HW263086   5.837   2.171  11.970
20549SOL     OW63087   6.796   3.461  11.205
20549SOL    HW163088   6.782   3.369  11.227
20549SOL    HW263089   6.732   3.480  11.136
20550SOL     OW63090   6.376   2.879  12.475
20550SOL    HW163091   6.371   2.934  12.397
20550SOL    HW263092   6.426   2.930  12.538
20551SOL     OW63093   6.528   2.793  11.498
20551SOL    HW163094   6.574   2.816  11.417
20551SOL    HW263095   6.562   2.707  11.522
20552SOL     OW63096   7.078   3.484  11.220
20552SOL    HW163097   6.984   3.478  11.204
20552SOL    HW263098   7.117   3.492  11.134
20553SOL     OW63099   6.630   2.969  11.869
20553SOL    HW163100   6.535   2.979  11.876
20553SOL    HW263101   6.647   2.978  11.775
20554SOL     OW63102   6.632   2.120  12.104
20554SOL    HW163103   6.622   2.049  12.040
20554SOL    HW263104   6.602   2.082  12.186
20555SOL     OW63105   6.187   3.358  11.652
20555SOL    HW163106   6.227   3.311  11.579
20555SOL    HW263107   6.102   3.385  11.619
20556SOL     OW63108   7.367   2.306   0.026
20556SOL    HW163109   7.458   2.309   0.055
20556SOL    HW263110   7.352   2.214   0.004
20557SOL     OW63111   5.854   3.202  11.469
20557SOL    HW163112   5.764   3.199  11.438
20557SOL    HW263113   5.849   3.239  11.557
20558SOL     OW63114   5.662   2.182  11.203
20558SOL    HW163115   5.577   2.159  11.164
20558SOL    HW263116   5.685   2.265  11.162
20559SOL     OW63117   5.641   2.013  11.470
20559SOL    HW163118   5.623   2.090  11.414
20559SOL    HW263119   5.727   1.983  11.441
20560SOL     OW63120   6.762   3.191  11.292
20560SOL    HW163121   6.669   3.173  11.287
20560SOL    HW263122   6.782   3.193  11.385
20561SOL     OW63123   7.084   3.646  12.153
20561SOL    HW163124   7.097   3.723  12.096
20561SOL    HW263125   7.163   3.642  12.206
20562SOL     OW63126   7.281   2.741  12.385
20562SOL    HW163127   7.239   2.660  12.357
20562SOL    HW263128   7.235   2.810  12.337
20563SOL     OW63129   6.805   2.174  11.626
20563SOL    HW163130   6.862   2.098  11.617
20563SOL    HW263131   6.839   2.220  11.703
20564SOL     OW63132   6.190   2.588  11.845
20564SOL    HW163133   6.219   2.678  11.830
20564SOL    HW263134   6.119   2.575  11.782
20565SOL     OW63135   7.411   2.770   0.117
20565SOL    HW163136   7.361   2.830   0.172
20565SOL    HW263137   7.356   2.758   0.039
20566SOL     OW63138   6.460   3.226  11.223
20566SOL    HW163139   6.415   3.254  11.303
20566SOL    HW263140   6.471   3.307  11.172
20567SOL     OW63141   6.244   3.662  12.109
20567SOL    HW163142   6.237   3.756  12.093
20567SOL    HW263143   6.338   3.645  12.113
20568SOL     OW63144   6.456   2.823  12.065
20568SOL    HW163145   6.422   2.745  12.107
20568SOL    HW263146   6.422   2.896  12.117
20569SOL     OW63147   6.659   2.843  11.267
20569SOL    HW163148   6.636   2.899  11.193
20569SOL    HW263149   6.733   2.791  11.237
20570SOL     OW63150   7.425   3.411  12.020
20570SOL    HW163151   7.349   3.414  11.962
20570SOL    HW263152   7.389   3.383  12.104
20571SOL     OW63153   5.677   3.083  11.849
20571SOL    HW163154   5.675   3.040  11.935
20571SOL    HW263155   5.750   3.041  11.803
20572SOL     OW63156   7.396   2.041  12.417
20572SOL    HW163157   7.419   1.949  12.427
20572SOL    HW263158   7.401   2.057  12.323
20573SOL     OW63159   6.028   2.286  11.706
20573SOL    HW163160   6.043   2.219  11.639
20573SOL    HW263161   5.963   2.247  11.764
20574SOL     OW63162   7.303   3.336  12.261
20574SOL    HW163163   7.217   3.320  12.223
20574SOL    HW263164   7.295   3.308  12.352
20575SOL     OW63165   6.417   3.449  11.841
20575SOL    HW163166   6.406   3.527  11.787
20575SOL    HW263167   6.335   3.400  11.830
20576SOL     OW63168   7.041   2.099  12.302
20576SOL    HW163169   7.109   2.074  12.365
20576SOL    HW263170   6.970   2.134  12.356
20577SOL     OW63171   6.593   1.847  12.313
20577SOL    HW163172   6.552   1.799  12.241
20577SOL    HW263173   6.685   1.819  12.311
20578SOL     OW63174   6.357   3.199  11.490
20578SOL    HW163175   6.330   3.108  11.501
20578SOL    HW263176   6.433   3.209  11.547
20579SOL     OW63177   6.943   1.909  11.349
20579SOL    HW163178   6.973   1.846  11.284
20579SOL    HW263179   6.854   1.881  11.371
20580SOL     OW63180   6.907   2.303  11.847
20580SOL    HW163181   6.876   2.394  11.853
20580SOL    HW263182   6.896   2.269  11.936
20581SOL     OW63183   7.165   2.046  12.059
20581SOL    HW163184   7.116   2.073  12.137
20581SOL    HW263185   7.167   2.123  12.003
20582SOL     OW63186   5.629   2.925  11.479
20582SOL    HW163187   5.723   2.917  11.463
20582SOL    HW263188   5.601   2.836  11.501
20583SOL     OW63189   6.479   3.522  11.505
20583SOL    HW163190   6.405   3.506  11.447
20583SOL    HW263191   6.449   3.593  11.562
20584SOL     OW63192   5.797   4.284   0.024
20584SOL    HW163193   5.772   4.335   0.101
20584SOL    HW263194   5.852   4.342  -0.028
20585SOL     OW63195   5.807   4.012   0.996
20585SOL    HW163196   5.838   3.974   1.079
20585SOL    HW263197   5.720   3.975   0.984
20586SOL     OW63198   5.583   4.106   0.642
20586SOL    HW163199   5.505   4.135   0.690
20586SOL    HW263200   5.556   4.027   0.596
20587SOL     OW63201   6.168   5.025   1.196
20587SOL    HW163202   6.083   5.019   1.152
20587SOL    HW263203   6.175   5.117   1.221
20588SOL     OW63204   7.151   5.241   0.722
20588SOL    HW163205   7.097   5.209   0.794
20588SOL    HW263206   7.091   5.248   0.648
20589SOL     OW63207   6.723   4.420   0.695
20589SOL    HW163208   6.768   4.504   0.682
20589SOL    HW263209   6.673   4.432   0.776
20590SOL     OW63210   7.311   4.338   0.267
20590SOL    HW163211   7.321   4.331   0.173
20590SOL    HW263212   7.287   4.250   0.296
20591SOL     OW63213   6.370   4.878   1.073
20591SOL    HW163214   6.296   4.904   1.127
20591SOL    HW263215   6.387   4.953   1.016
20592SOL     OW63216   6.469   4.476   1.832
20592SOL    HW163217   6.444   4.542   1.896
20592SOL    HW263218   6.485   4.525   1.751
20593SOL     OW63219   6.272   4.711   0.652
20593SOL    HW163220   6.336   4.712   0.723
20593SOL    HW263221   6.204   4.772   0.681
20594SOL     OW63222   6.302   4.873   1.822
20594SOL    HW163223   6.347   4.950   1.857
20594SOL    HW263224   6.221   4.908   1.785
20595SOL     OW63225   5.921   5.131   1.066
20595SOL    HW163226   5.847   5.093   1.019
20595SOL    HW263227   5.965   5.186   1.000
20596SOL     OW63228   6.994   5.237   1.334
20596SOL    HW163229   7.062   5.305   1.336
20596SOL    HW263230   6.937   5.258   1.407
20597SOL     OW63231   6.039   4.109   1.469
20597SOL    HW163232   6.113   4.048   1.479
20597SOL    HW263233   5.963   4.057   1.493
20598SOL     OW63234   7.193   4.166   0.755
20598SOL    HW163235   7.144   4.195   0.678
20598SOL    HW263236   7.165   4.225   0.825
20599SOL     OW63237   5.798   5.438   0.468
20599SOL    HW163238   5.816   5.515   0.522
20599SOL    HW263239   5.875   5.431   0.411
20600SOL     OW63240   6.720   5.064   1.689
20600SOL    HW163241   6.763   5.062   1.775
20600SOL    HW263242   6.665   4.985   1.689
20601SOL     OW63243   5.843   5.179   0.546
20601SOL    HW163244   5.816   5.270   0.533
20601SOL    HW263245   5.777   5.143   0.605
20602SOL     OW63246   5.866   4.815   0.902
20602SOL    HW163247   5.858   4.724   0.928
20602SOL    HW263248   5.799   4.860   0.953
20603SOL     OW63249   6.193   5.508   1.447
20603SOL    HW163250   6.108   5.492   1.487
20603SOL    HW263251   6.211   5.601   1.465
20604SOL     OW63252   6.165   4.738   0.152
20604SOL    HW163253   6.154   4.825   0.114
20604SOL    HW263254   6.213   4.753   0.233
20605SOL     OW63255   7.189   3.850   1.470
20605SOL    HW163256   7.212   3.931   1.424
20605SOL    HW263257   7.153   3.879   1.554
20606SOL     OW63258   5.709   4.363   0.567
20606SOL    HW163259   5.674   4.276   0.588
20606SOL    HW263260   5.698   4.414   0.647
20607SOL     OW63261   7.418   5.483   0.357
20607SOL    HW163262   7.495   5.451   0.403
20607SOL    HW263263   7.450   5.559   0.307
20608SOL     OW63264   5.623   5.230   0.150
20608SOL    HW163265   5.533   5.199   0.138
20608SOL    HW263266   5.613   5.317   0.188
20609SOL     OW63267   7.275   4.659   0.647
20609SOL    HW163268   7.332   4.609   0.588
20609SOL    HW263269   7.232   4.723   0.590
20610SOL     OW63270   7.226   4.841   0.433
20610SOL    HW163271   7.315   4.836   0.399
20610SOL    HW263272   7.230   4.908   0.501
20611SOL     OW63273   5.708   4.468   1.579
20611SOL    HW163274   5.797   4.504   1.587
20611SOL    HW263275   5.651   4.545   1.581
20612SOL     OW63276   6.195   5.112   0.749
20612SOL    HW163277   6.153   5.026   0.747
20612SOL    HW263278   6.183   5.147   0.661
20613SOL     OW63279   6.902   4.951   1.416
20613SOL    HW163280   6.914   4.865   1.374
20613SOL    HW263281   6.948   4.943   1.499
20614SOL     OW63282   6.416   3.735   0.515
20614SOL    HW163283   6.450   3.822   0.495
20614SOL    HW263284   6.321   3.748   0.523
20615SOL     OW63285   5.773   4.685   1.275
20615SOL    HW163286   5.859   4.645   1.263
20615SOL    HW263287   5.713   4.627   1.227
20616SOL     OW63288   7.105   4.725   0.219
20616SOL    HW163289   7.035   4.667   0.250
20616SOL    HW263290   7.140   4.765   0.298
20617SOL     OW63291   6.790   5.554   1.635
20617SOL    HW163292   6.778   5.610   1.558
20617SOL    HW263293   6.802   5.466   1.599
20618SOL     OW63294   5.939   3.976   1.849
20618SOL    HW163295   5.975   4.061   1.875
20618SOL    HW263296   5.845   3.986   1.859
20619SOL     OW63297   7.006   5.104   0.986
20619SOL    HW163298   7.091   5.079   1.023
20619SOL    HW263299   6.986   5.035   0.923
20620SOL     OW63300   7.233   5.491   0.590
20620SOL    HW163301   7.242   5.458   0.501
20620SOL    HW263302   7.207   5.415   0.642
20621SOL     OW63303   6.165   4.446   0.271
20621SOL    HW163304   6.173   4.531   0.229
20621SOL    HW263305   6.101   4.458   0.340
20622SOL     OW63306   6.865   4.099   0.936
20622SOL    HW163307   6.776   4.065   0.941
20622SOL    HW263308   6.916   4.043   0.994
20623SOL     OW63309   7.162   5.392   0.316
20623SOL    HW163310   7.254   5.418   0.308
20623SOL    HW263311   7.132   5.381   0.226
20624SOL     OW63312   6.381   4.340   1.441
20624SOL    HW163313   6.357   4.313   1.530
20624SOL    HW263314   6.350   4.270   1.385
20625SOL     OW63315   6.979   4.204   1.678
20625SOL    HW163316   6.981   4.246   1.763
20625SOL    HW263317   7.032   4.125   1.689
20626SOL     OW63318   6.533   4.608   1.591
20626SOL    HW163319   6.586   4.541   1.549
20626SOL    HW263320   6.482   4.646   1.519
20627SOL     OW63321   6.586   4.127   1.224
20627SOL    HW163322   6.495   4.141   1.250
20627SOL    HW263323   6.579   4.081   1.140
20628SOL     OW63324   6.643   4.412   0.428
20628SOL    HW163325   6.660   4.407   0.522
20628SOL    HW263326   6.555   4.376   0.418
20629SOL     OW63327   5.677   4.529   0.781
20629SOL    HW163328   5.756   4.530   0.835
20629SOL    HW263329   5.628   4.607   0.808
20630SOL     OW63330   5.710   5.604   1.587
20630SOL    HW163331   5.713   5.581   1.680
20630SOL    HW263332   5.628   5.567   1.555
20631SOL     OW63333   6.475   4.084   0.217
20631SOL    HW163334   6.509   4.152   0.159
20631SOL    HW263335   6.463   4.008   0.161
20632SOL     OW63336   7.292   4.289   1.834
20632SOL    HW163337   7.256   4.364   1.786
20632SOL    HW263338   7.311   4.225   1.767
20633SOL     OW63339   6.966   4.867   0.537
20633SOL    HW163340   7.044   4.858   0.483
20633SOL    HW263341   6.909   4.928   0.490
20634SOL     OW63342   6.119   3.904   0.894
20634SOL    HW163343   6.126   3.939   0.982
20634SOL    HW263344   6.119   3.981   0.837
20635SOL     OW63345   6.614   5.193   0.502
20635SOL    HW163346   6.563   5.222   0.426
20635SOL    HW263347   6.555   5.207   0.576
20636SOL     OW63348   5.938   5.539   0.875
20636SOL    HW163349   5.984   5.455   0.880
20636SOL    HW263350   6.005   5.605   0.890
20637SOL     OW63351   7.406   4.775   0.858
20637SOL    HW163352   7.348   4.745   0.788
20637SOL    HW263353   7.353   4.770   0.937
20638SOL     OW63354   6.803   5.282   1.521
20638SOL    HW163355   6.791   5.209   1.582
20638SOL    HW263356   6.715   5.299   1.487
20639SOL     OW63357   5.925   4.676   0.273
20639SOL    HW163358   5.999   4.703   0.220
20639SOL    HW263359   5.881   4.609   0.220
20640SOL     OW63360   7.068   4.482   0.719
20640SOL    HW163361   7.065   4.435   0.803
20640SOL    HW263362   7.148   4.535   0.725
20641SOL     OW63363   6.062   4.997   1.736
20641SOL    HW163364   6.035   5.003   1.645
20641SOL    HW263365   5.981   4.987   1.786
20642SOL     OW63366   6.704   5.506   0.265
20642SOL    HW163367   6.627   5.464   0.303
20642SOL    HW263368   6.742   5.440   0.208
20643SOL     OW63369   5.787   3.991   1.505
20643SOL    HW163370   5.705   4.040   1.511
20643SOL    HW263371   5.766   3.904   1.539
20644SOL     OW63372   7.236   5.139   0.065
20644SOL    HW163373   7.176   5.213   0.072
20644SOL    HW263374   7.179   5.062   0.069
20645SOL     OW63375   6.036   5.453   0.332
20645SOL    HW163376   6.086   5.510   0.391
20645SOL    HW263377   6.101   5.413   0.276
20646SOL     OW63378   6.989   3.824   0.446
20646SOL    HW163379   6.983   3.787   0.358
20646SOL    HW263380   7.082   3.831   0.464
20647SOL     OW63381   5.845   5.516   1.219
20647SOL    HW163382   5.889   5.437   1.249
20647SOL    HW263383   5.818   5.497   1.129
20648SOL     OW63384   6.540   5.422   0.886
20648SOL    HW163385   6.627   5.382   0.881
20648SOL    HW263386   6.487   5.373   0.823
20649SOL     OW63387   5.978   4.408   0.483
20649SOL    HW163388   6.000   4.315   0.493
20649SOL    HW263389   5.886   4.413   0.509
20650SOL     OW63390   7.098   3.947   1.721
20650SOL    HW163391   7.112   3.962   1.815
20650SOL    HW263392   7.020   3.891   1.718
20651SOL     OW63393   6.231   3.870   0.101
20651SOL    HW163394   6.318   3.830   0.107
20651SOL    HW263395   6.247   3.955   0.059
20652SOL     OW63396   6.351   4.002   1.757
20652SOL    HW163397   6.433   3.952   1.753
20652SOL    HW263398   6.301   3.962   1.828
20653SOL     OW63399   6.463   5.249   1.191
20653SOL    HW163400   6.441   5.219   1.103
20653SOL    HW263401   6.521   5.182   1.226
20654SOL     OW63402   6.923   4.318   1.432
20654SOL    HW163403   6.953   4.287   1.518
20654SOL    HW263404   6.972   4.399   1.418
20655SOL     OW63405   6.405   5.117   0.943
20655SOL    HW163406   6.488   5.109   0.895
20655SOL    HW263407   6.338   5.123   0.875
20656SOL     OW63408   6.518   4.237   0.894
20656SOL    HW163409   6.492   4.228   0.803
20656SOL    HW263410   6.543   4.149   0.921
20657SOL     OW63411   6.144   3.782   0.501
20657SOL    HW163412   6.067   3.780   0.559
20657SOL    HW263413   6.129   3.859   0.446
20658SOL     OW63414   7.045   4.946   0.061
20658SOL    HW163415   7.061   4.862   0.105
20658SOL    HW263416   6.951   4.960   0.070
20659SOL     OW63417   5.891   3.790   0.180
20659SOL    HW163418   5.955   3.859   0.199
20659SOL    HW263419   5.929   3.712   0.220
20660SOL     OW63420   6.530   3.979   0.463
20660SOL    HW163421   6.505   4.017   0.379
20660SOL    HW263422   6.625   3.990   0.467
20661SOL     OW63423   6.664   4.416   1.449
20661SOL    HW163424   6.599   4.346   1.455
20661SOL    HW263425   6.748   4.370   1.445
20662SOL     OW63426   6.796   5.327   0.826
20662SOL    HW163427   6.813   5.384   0.750
20662SOL    HW263428   6.883   5.300   0.856
20663SOL     OW63429   6.061   4.875   0.723
20663SOL    HW163430   5.994   4.855   0.788
20663SOL    HW263431   6.016   4.866   0.639
20664SOL     OW63432   6.844   5.517   0.625
20664SOL    HW163433   6.892   5.573   0.563
20664SOL    HW263434   6.767   5.569   0.649
20665SOL     OW63435   6.609   4.271   0.062
20665SOL    HW163436   6.593   4.352   0.015
20665SOL    HW263437   6.676   4.294   0.127
20666SOL     OW63438   5.675   4.276   1.389
20666SOL    HW163439   5.767   4.276   1.364
20666SOL    HW263440   5.668   4.344   1.456
20667SOL     OW63441   6.148   3.955   1.164
20667SOL    HW163442   6.191   3.871   1.176
20667SOL    HW263443   6.060   3.944   1.201
20668SOL     OW63444   6.453   4.189   0.636
20668SOL    HW163445   6.408   4.243   0.571
20668SOL    HW263446   6.474   4.107   0.589
20669SOL     OW63447   6.614   3.773   0.738
20669SOL    HW163448   6.546   3.766   0.671
20669SOL    HW263449   6.598   3.699   0.797
20670SOL     OW63450   6.980   4.892   0.819
20670SOL    HW163451   6.927   4.814   0.831
20670SOL    HW263452   6.994   4.898   0.725
20671SOL     OW63453   7.044   4.325   0.949
20671SOL    HW163454   6.976   4.258   0.952
20671SOL    HW263455   7.099   4.307   1.025
20672SOL     OW63456   7.414   4.537   0.433
20672SOL    HW163457   7.463   4.470   0.481
20672SOL    HW263458   7.370   4.489   0.363
20673SOL     OW63459   7.255   5.001   0.640
20673SOL    HW163460   7.349   5.002   0.659
20673SOL    HW263461   7.225   5.088   0.666
20674SOL     OW63462   6.987   4.271   0.080
20674SOL    HW163463   6.926   4.274   0.154
20674SOL    HW263464   7.065   4.227   0.113
20675SOL     OW63465   6.094   3.974   0.313
20675SOL    HW163466   6.151   3.932   0.249
20675SOL    HW263467   6.076   4.061   0.277
20676SOL     OW63468   7.331   4.966   1.571
20676SOL    HW163469   7.418   4.929   1.556
20676SOL    HW263470   7.348   5.056   1.599
20677SOL     OW63471   6.646   5.077   1.356
20677SOL    HW163472   6.556   5.054   1.378
20677SOL    HW263473   6.699   5.038   1.425
20678SOL     OW63474   7.190   5.356   1.660
20678SOL    HW163475   7.176   5.380   1.569
20678SOL    HW263476   7.271   5.304   1.659
20679SOL     OW63477   6.707   4.947   1.090
20679SOL    HW163478   6.620   4.913   1.112
20679SOL    HW263479   6.697   4.983   1.002
20680SOL     OW63480   7.220   4.914   1.047
20680SOL    HW163481   7.251   4.867   1.124
20680SOL    HW263482   7.151   4.858   1.010
20681SOL     OW63483   6.506   3.810   1.393
20681SOL    HW163484   6.522   3.797   1.300
20681SOL    HW263485   6.586   3.852   1.426
20682SOL     OW63486   6.567   4.840   1.723
20682SOL    HW163487   6.477   4.855   1.752
20682SOL    HW263488   6.562   4.759   1.672
20683SOL     OW63489   6.304   4.769   0.383
20683SOL    HW163490   6.286   4.748   0.475
20683SOL    HW263491   6.385   4.723   0.363
20684SOL     OW63492   6.009   4.545   1.255
20684SOL    HW163493   6.076   4.555   1.323
20684SOL    HW263494   5.976   4.456   1.267
20685SOL     OW63495   6.850   4.097   1.286
20685SOL    HW163496   6.880   4.177   1.328
20685SOL    HW263497   6.759   4.115   1.261
20686SOL     OW63498   5.664   5.295   1.357
20686SOL    HW163499   5.634   5.368   1.304
20686SOL    HW263500   5.759   5.295   1.347
20687SOL     OW63501   5.916   4.843   0.491
20687SOL    HW163502   5.898   4.916   0.431
20687SOL    HW263503   5.929   4.768   0.434
20688SOL     OW63504   6.130   4.250   0.862
20688SOL    HW163505   6.143   4.309   0.787
20688SOL    HW263506   6.199   4.273   0.923
20689SOL     OW63507   6.836   5.072   0.406
20689SOL    HW163508   6.896   5.143   0.430
20689SOL    HW263509   6.751   5.101   0.439
20690SOL     OW63510   7.140   4.319   0.505
20690SOL    HW163511   7.095   4.377   0.567
20690SOL    HW263512   7.165   4.376   0.433
20691SOL     OW63513   5.931   5.260   1.300
20691SOL    HW163514   5.922   5.208   1.220
20691SOL    HW263515   6.026   5.271   1.310
20692SOL     OW63516   6.002   4.473   1.606
20692SOL    HW163517   6.070   4.509   1.549
20692SOL    HW263518   6.030   4.383   1.622
20693SOL     OW63519   7.201   4.502   1.695
20693SOL    HW163520   7.114   4.540   1.684
20693SOL    HW263521   7.254   4.542   1.627
20694SOL     OW63522   6.586   3.862   1.758
20694SOL    HW163523   6.642   3.937   1.737
20694SOL    HW263524   6.637   3.785   1.734
20695SOL     OW63525   6.075   3.755   1.760
20695SOL    HW163526   6.025   3.708   1.693
20695SOL    HW263527   6.023   3.833   1.778
20696SOL     OW63528   6.175   4.592   1.039
20696SOL    HW163529   6.180   4.687   1.026
20696SOL    HW263530   6.113   4.580   1.111
20697SOL     OW63531   6.926   4.581   1.013
20697SOL    HW163532   6.842   4.552   0.976
20697SOL    HW263533   6.982   4.504   1.007
20698SOL     OW63534   6.798   4.246   0.278
20698SOL    HW163535   6.808   4.173   0.339
20698SOL    HW263536   6.753   4.314   0.328
20699SOL     OW63537   5.887   3.916   1.246
20699SOL    HW163538   5.847   3.947   1.328
20699SOL    HW263539   5.868   3.822   1.244
20700SOL     OW63540   5.619   5.036   1.267
20700SOL    HW163541   5.653   4.977   1.334
20700SOL    HW263542   5.631   5.123   1.305
20701SOL     OW63543   6.309   4.350   1.051
20701SOL    HW163544   6.382   4.340   0.990
20701SOL    HW263545   6.276   4.439   1.035
20702SOL     OW63546   7.327   4.689   1.863
20702SOL    HW163547   7.288   4.616   1.815
20702SOL    HW263548   7.265   4.707   1.934
20703SOL     OW63549   5.901   3.782   0.631
20703SOL    HW163550   5.873   3.871   0.651
20703SOL    HW263551   5.910   3.740   0.716
20704SOL     OW63552   7.203   4.092   0.363
20704SOL    HW163553   7.232   4.025   0.425
20704SOL    HW263554   7.166   4.161   0.419
20705SOL     OW63555   6.619   4.482   0.958
20705SOL    HW163556   6.604   4.498   1.051
20705SOL    HW263557   6.590   4.392   0.944
20706SOL     OW63558   6.574   5.299   1.726
20706SOL    HW163559   6.551   5.336   1.641
20706SOL    HW263560   6.597   5.208   1.706
20707SOL     OW63561   7.431   5.225   1.610
20707SOL    HW163562   7.454   5.258   1.523
20707SOL    HW263563   7.511   5.235   1.662
20708SOL     OW63564   5.937   4.654   1.802
20708SOL    HW163565   6.012   4.661   1.861
20708SOL    HW263566   5.962   4.586   1.739
20709SOL     OW63567   7.134   3.945   0.131
20709SOL    HW163568   7.053   3.905   0.162
20709SOL    HW263569   7.161   4.004   0.202
20710SOL     OW63570   6.880   4.526   0.044
20710SOL    HW163571   6.936   4.450   0.026
20710SOL    HW263572   6.905   4.590  -0.022
20711SOL     OW63573   6.659   5.070   0.851
20711SOL    HW163574   6.661   4.995   0.792
20711SOL    HW263575   6.707   5.139   0.804
20712SOL     OW63576   5.896   4.533   0.945
20712SOL    HW163577   5.989   4.543   0.925
20712SOL    HW263578   5.888   4.444   0.979
20713SOL     OW63579   5.908   4.258   1.013
20713SOL    HW163580   5.871   4.170   1.003
20713SOL    HW263581   5.986   4.258   0.957
20714SOL     OW63582   6.724   4.094   1.688
20714SOL    HW163583   6.674   4.146   1.751
20714SOL    HW263584   6.808   4.140   1.680
20715SOL     OW63585   6.749   3.918   1.475
20715SOL    HW163586   6.735   3.982   1.545
20715SOL    HW263587   6.789   3.969   1.404
20716SOL     OW63588   5.680   5.494   0.957
20716SOL    HW163589   5.648   5.417   0.912
20716SOL    HW263590   5.765   5.513   0.916
20717SOL     OW63591   6.076   5.301   0.909
20717SOL    HW163592   6.147   5.360   0.932
20717SOL    HW263593   6.115   5.237   0.850
20718SOL     OW63594   6.547   4.514   1.219
20718SOL    HW163595   6.604   4.494   1.294
20718SOL    HW263596   6.466   4.466   1.237
20719SOL     OW63597   5.622   4.285   1.116
20719SOL    HW163598   5.702   4.272   1.065
20719SOL    HW263599   5.650   4.278   1.207
20720SOL     OW63600   5.773   4.248   1.734
20720SOL    HW163601   5.815   4.195   1.666
20720SOL    HW263602   5.738   4.323   1.687
20721SOL     OW63603   6.975   4.646   1.643
20721SOL    HW163604   6.995   4.740   1.645
20721SOL    HW263605   6.980   4.622   1.551
20722SOL     OW63606   6.393   4.306   0.378
20722SOL    HW163607   6.397   4.229   0.321
20722SOL    HW263608   6.319   4.357   0.346
20723SOL     OW63609   7.205   4.259   1.153
20723SOL    HW163610   7.205   4.227   1.243
20723SOL    HW263611   7.297   4.269   1.130
20724SOL     OW63612   5.818   5.269   1.725
20724SOL    HW163613   5.795   5.325   1.799
20724SOL    HW263614   5.828   5.182   1.763
20725SOL     OW63615   6.311   4.163   1.248
20725SOL    HW163616   6.251   4.092   1.227
20725SOL    HW263617   6.299   4.227   1.178
20726SOL     OW63618   6.535   5.391   1.459
20726SOL    HW163619   6.496   5.350   1.382
20726SOL    HW263620   6.515   5.485   1.450
20727SOL     OW63621   6.045   4.207   0.188
20727SOL    HW163622   6.091   4.288   0.212
20727SOL    HW263623   5.964   4.237   0.147
20728SOL     OW63624   5.732   4.871   1.468
20728SOL    HW163625   5.731   4.827   1.553
20728SOL    HW263626   5.746   4.801   1.404
20729SOL     OW63627   6.898   4.771   1.203
20729SOL    HW163628   6.926   4.705   1.139
20729SOL    HW263629   6.820   4.811   1.164
20730SOL     OW63630   6.898   4.567   0.314
20730SOL    HW163631   6.817   4.546   0.361
20730SOL    HW263632   6.876   4.555   0.222
20731SOL     OW63633   7.379   5.459   1.173
20731SOL    HW163634   7.436   5.482   1.099
20731SOL    HW263635   7.341   5.374   1.149
20732SOL     OW63636   6.831   5.489   1.111
20732SOL    HW163637   6.916   5.504   1.070
20732SOL    HW263638   6.805   5.402   1.081
20733SOL     OW63639   5.663   5.000   0.997
20733SOL    HW163640   5.646   5.005   1.091
20733SOL    HW263641   5.608   4.929   0.966
20734SOL     OW63642   6.260   5.401   1.741
20734SOL    HW163643   6.194   5.470   1.747
20734SOL    HW263644   6.312   5.424   1.664
20735SOL     OW63645   6.500   3.811   0.091
20735SOL    HW163646   6.543   3.836   0.010
20735SOL    HW263647   6.571   3.796   0.153
20736SOL     OW63648   7.307   3.878   0.512
20736SOL    HW163649   7.376   3.857   0.449
20736SOL    HW263650   7.288   3.795   0.555
20737SOL     OW63651   6.989   5.291   0.506
20737SOL    HW163652   7.043   5.324   0.434
20737SOL    HW263653   6.926   5.361   0.522
20738SOL     OW63654   5.720   5.525   1.844
20738SOL    HW163655   5.672   5.455   1.890
20738SOL    HW263656   5.771   5.568   1.913
20739SOL     OW63657   6.862   4.653   0.668
20739SOL    HW163658   6.937   4.594   0.680
20739SOL    HW263659   6.895   4.721   0.609
20740SOL     OW63660   6.380   5.013   1.404
20740SOL    HW163661   6.352   5.054   1.486
20740SOL    HW263662   6.304   5.019   1.347
20741SOL     OW63663   6.243   5.350   0.180
20741SOL    HW163664   6.222   5.387   0.094
20741SOL    HW263665   6.231   5.256   0.170
20742SOL     OW63666   7.188   5.442   1.386
20742SOL    HW163667   7.251   5.445   1.315
20742SOL    HW263668   7.179   5.532   1.416
20743SOL     OW63669   7.432   3.888   0.964
20743SOL    HW163670   7.455   3.800   0.936
20743SOL    HW263671   7.344   3.902   0.930
20744SOL     OW63672   5.839   4.033   0.716
20744SOL    HW163673   5.752   4.066   0.691
20744SOL    HW263674   5.838   4.032   0.811
20745SOL     OW63675   6.790   5.322   0.078
20745SOL    HW163676   6.785   5.229   0.099
20745SOL    HW263677   6.705   5.343   0.039
20746SOL     OW63678   6.406   4.737   1.382
20746SOL    HW163679   6.435   4.723   1.292
20746SOL    HW263680   6.399   4.832   1.391
20747SOL     OW63681   6.532   4.645   0.326
20747SOL    HW163682   6.586   4.673   0.252
20747SOL    HW263683   6.573   4.564   0.356
20748SOL     OW63684   7.056   5.351   0.054
20748SOL    HW163685   6.962   5.338   0.061
20748SOL    HW263686   7.071   5.370  -0.039
20749SOL     OW63687   5.955   5.034   1.491
20749SOL    HW163688   5.939   5.110   1.435
20749SOL    HW263689   5.879   4.978   1.477
20750SOL     OW63690   7.216   5.057   1.324
20750SOL    HW163691   7.244   4.996   1.392
20750SOL    HW263692   7.134   5.094   1.358
20751SOL     OW63693   6.653   4.834   0.724
20751SOL    HW163694   6.576   4.786   0.753
20751SOL    HW263695   6.711   4.767   0.688
20752SOL     OW63696   6.614   3.970   0.960
20752SOL    HW163697   6.609   3.924   0.876
20752SOL    HW263698   6.603   3.902   1.026
20753SOL     OW63699   6.196   5.223   0.503
20753SOL    HW163700   6.253   5.168   0.449
20753SOL    HW263701   6.117   5.234   0.451
20754SOL     OW63702   7.322   4.102   1.389
20754SOL    HW163703   7.387   4.173   1.382
20754SOL    HW263704   7.351   4.036   1.326
20755SOL     OW63705   5.796   5.032   0.323
20755SOL    HW163706   5.770   5.087   0.249
20755SOL    HW263707   5.821   5.093   0.392
20756SOL     OW63708   5.700   4.777   1.729
20756SOL    HW163709   5.623   4.746   1.777
20756SOL    HW263710   5.773   4.727   1.766
20757SOL     OW63711   6.262   3.915   1.501
20757SOL    HW163712   6.345   3.893   1.460
20757SOL    HW263713   6.286   3.951   1.586
20758SOL     OW63714   7.037   4.585   1.379
20758SOL    HW163715   6.980   4.635   1.320
20758SOL    HW263716   7.124   4.592   1.341
20759SOL     OW63717   5.650   3.860   0.309
20759SOL    HW163718   5.625   3.944   0.269
20759SOL    HW263719   5.732   3.837   0.266
20760SOL     OW63720   6.778   5.056   0.121
20760SOL    HW163721   6.684   5.047   0.102
20760SOL    HW263722   6.785   5.040   0.215
20761SOL     OW63723   6.208   4.552   1.439
20761SOL    HW163724   6.266   4.628   1.429
20761SOL    HW263725   6.268   4.477   1.442
20762SOL     OW63726   7.071   5.521   0.988
20762SOL    HW163727   7.095   5.582   0.918
20762SOL    HW263728   7.151   5.471   1.005
20763SOL     OW63729   6.314   4.275   1.693
20763SOL    HW163730   6.354   4.330   1.761
20763SOL    HW263731   6.323   4.186   1.726
20764SOL     OW63732   7.063   4.911   1.636
20764SOL    HW163733   7.047   4.926   1.729
20764SOL    HW263734   7.156   4.931   1.623
20765SOL     OW63735   5.952   5.466   1.574
20765SOL    HW163736   5.871   5.513   1.555
20765SOL    HW263737   5.923   5.384   1.614
20766SOL     OW63738   6.807   4.037   0.455
20766SOL    HW163739   6.865   3.961   0.454
20766SOL    HW263740   6.831   4.085   0.533
20767SOL     OW63741   6.166   4.456   0.681
20767SOL    HW163742   6.209   4.540   0.663
20767SOL    HW263743   6.104   4.445   0.609
20768SOL     OW63744   7.332   4.080   1.660
20768SOL    HW163745   7.324   4.096   1.566
20768SOL    HW263746   7.256   4.026   1.682
20769SOL     OW63747   7.354   4.656   1.531
20769SOL    HW163748   7.327   4.744   1.556
20769SOL    HW263749   7.346   4.655   1.435
20770SOL     OW63750   6.510   5.095   0.056
20770SOL    HW163751   6.419   5.068   0.068
20770SOL    HW263752   6.506   5.188   0.037
20771SOL     OW63753   6.258   5.502   0.944
20771SOL    HW163754   6.232   5.591   0.921
20771SOL    HW263755   6.351   5.498   0.923
20772SOL     OW63756   6.455   4.700   0.864
20772SOL    HW163757   6.503   4.623   0.895
20772SOL    HW263758   6.422   4.742   0.943
20773SOL     OW63759   6.677   4.720   0.110
20773SOL    HW163760   6.607   4.756   0.055
20773SOL    HW263761   6.755   4.726   0.055
20774SOL     OW63762   7.445   5.269   0.850
20774SOL    HW163763   7.370   5.260   0.791
20774SOL    HW263764   7.473   5.179   0.867
20775SOL     OW63765   5.807   5.014   1.841
20775SOL    HW163766   5.766   4.938   1.801
20775SOL    HW263767   5.758   5.028   1.922
20776SOL     OW63768   5.674   4.974   0.665
20776SOL    HW163769   5.696   4.915   0.737
20776SOL    HW263770   5.718   4.938   0.589
20777SOL     OW63771   6.277   5.139   1.627
20777SOL    HW163772   6.203   5.090   1.662
20777SOL    HW263773   6.272   5.224   1.670
20778SOL     OW63774   7.407   3.898   1.236
20778SOL    HW163775   7.397   3.803   1.242
20778SOL    HW263776   7.416   3.915   1.142
20779SOL     OW63777   6.018   4.147   0.532
20779SOL    HW163778   6.040   4.076   0.472
20779SOL    HW263779   5.962   4.106   0.598
20780SOL     OW63780   7.280   5.217   1.116
20780SOL    HW163781   7.301   5.159   1.043
20780SOL    HW263782   7.260   5.158   1.189
20781SOL     OW63783   5.929   4.286   1.293
20781SOL    HW163784   5.979   4.225   1.347
20781SOL    HW263785   5.941   4.256   1.203
20782SOL     OW63786   6.415   5.309   0.673
20782SOL    HW163787   6.410   5.381   0.609
20782SOL    HW263788   6.339   5.255   0.654
20783SOL     OW63789   7.007   3.949   1.117
20783SOL    HW163790   6.998   3.860   1.152
20783SOL    HW263791   6.963   4.004   1.182
20784SOL     OW63792   6.584   3.753   1.129
20784SOL    HW163793   6.512   3.709   1.085
20784SOL    HW263794   6.658   3.694   1.118
20785SOL     OW63795   6.362   5.062   0.365
20785SOL    HW163796   6.312   5.057   0.284
20785SOL    HW263797   6.388   4.972   0.384
20786SOL     OW63798   6.206   5.286   1.287
20786SOL    HW163799   6.208   5.363   1.343
20786SOL    HW263800   6.293   5.283   1.247
20787SOL     OW63801   6.950   3.734   0.187
20787SOL    HW163802   6.942   3.747   0.093
20787SOL    HW263803   6.860   3.727   0.218
20788SOL     OW63804   6.874   4.184   0.673
20788SOL    HW163805   6.824   4.266   0.677
20788SOL    HW263806   6.873   4.151   0.763
20789SOL     OW63807   7.172   3.918   0.893
20789SOL    HW163808   7.117   3.941   0.968
20789SOL    HW263809   7.168   3.994   0.836
20790SOL     OW63810   5.604   4.821   0.346
20790SOL    HW163811   5.680   4.876   0.327
20790SOL    HW263812   5.642   4.736   0.367
20791SOL     OW63813   6.466   5.395   0.345
20791SOL    HW163814   6.386   5.367   0.300
20791SOL    HW263815   6.437   5.466   0.403
20792SOL     OW63816   5.802   4.346   1.998
20792SOL    HW163817   5.716   4.338   2.038
20792SOL    HW263818   5.788   4.322   1.906
20793SOL     OW63819   5.811   3.999   2.846
20793SOL    HW163820   5.835   3.974   2.936
20793SOL    HW263821   5.720   3.970   2.837
20794SOL     OW63822   5.568   4.115   2.502
20794SOL    HW163823   5.492   4.147   2.550
20794SOL    HW263824   5.538   4.035   2.458
20795SOL     OW63825   6.153   5.024   3.051
20795SOL    HW163826   6.066   5.026   3.011
20795SOL    HW263827   6.170   5.115   3.077
20796SOL     OW63828   7.161   5.244   2.577
20796SOL    HW163829   7.118   5.216   2.658
20796SOL    HW263830   7.091   5.245   2.512
20797SOL     OW63831   6.725   4.417   2.551
20797SOL    HW163832   6.768   4.502   2.541
20797SOL    HW263833   6.675   4.425   2.632
20798SOL     OW63834   7.384   4.317   2.084
20798SOL    HW163835   7.350   4.312   1.995
20798SOL    HW263836   7.338   4.247   2.131
20799SOL     OW63837   6.326   4.859   2.912
20799SOL    HW163838   6.261   4.895   2.972
20799SOL    HW263839   6.368   4.936   2.873
20800SOL     OW63840   6.470   4.475   3.694
20800SOL    HW163841   6.455   4.540   3.763
20800SOL    HW263842   6.487   4.526   3.615
20801SOL     OW63843   6.274   4.718   2.504
20801SOL    HW163844   6.339   4.712   2.574
20801SOL    HW263845   6.204   4.773   2.540
20802SOL     OW63846   6.298   4.896   3.665
20802SOL    HW163847   6.336   4.981   3.644
20802SOL    HW263848   6.205   4.906   3.648
20803SOL     OW63849   5.918   5.136   2.930
20803SOL    HW163850   5.841   5.092   2.894
20803SOL    HW263851   5.953   5.187   2.856
20804SOL     OW63852   7.048   5.228   3.220
20804SOL    HW163853   7.099   5.307   3.239
20804SOL    HW263854   6.972   5.233   3.278
20805SOL     OW63855   6.038   4.103   3.320
20805SOL    HW163856   6.107   4.042   3.348
20805SOL    HW263857   5.957   4.066   3.356
20806SOL     OW63858   7.181   4.160   2.614
20806SOL    HW163859   7.106   4.172   2.556
20806SOL    HW263860   7.169   4.227   2.682
20807SOL     OW63861   5.876   5.428   2.354
20807SOL    HW163862   5.799   5.478   2.382
20807SOL    HW263863   5.879   5.438   2.259
20808SOL     OW63864   6.730   5.068   3.560
20808SOL    HW163865   6.764   5.058   3.648
20808SOL    HW263866   6.670   4.994   3.548
20809SOL     OW63867   5.840   5.153   2.405
20809SOL    HW163868   5.835   5.248   2.422
20809SOL    HW263869   5.781   5.115   2.470
20810SOL     OW63870   5.878   4.815   2.765
20810SOL    HW163871   5.862   4.726   2.796
20810SOL    HW263872   5.813   4.868   2.812
20811SOL     OW63873   6.186   5.541   3.257
20811SOL    HW163874   6.117   5.507   3.315
20811SOL    HW263875   6.217   5.620   3.301
20812SOL     OW63876   6.159   4.708   2.006
20812SOL    HW163877   6.210   4.751   1.937
20812SOL    HW263878   6.196   4.740   2.088
20813SOL     OW63879   7.184   3.853   3.325
20813SOL    HW163880   7.203   3.937   3.283
20813SOL    HW263881   7.155   3.877   3.413
20814SOL     OW63882   5.709   4.379   2.424
20814SOL    HW163883   5.669   4.295   2.446
20814SOL    HW263884   5.700   4.431   2.504
20815SOL     OW63885   7.435   5.473   2.185
20815SOL    HW163886   7.504   5.449   2.247
20815SOL    HW263887   7.449   5.566   2.168
20816SOL     OW63888   5.632   5.317   1.991
20816SOL    HW163889   5.613   5.224   2.006
20816SOL    HW263890   5.599   5.361   2.069
20817SOL     OW63891   7.275   4.648   2.507
20817SOL    HW163892   7.354   4.602   2.481
20817SOL    HW263893   7.251   4.701   2.431
20818SOL     OW63894   7.238   4.827   2.290
20818SOL    HW163895   7.324   4.824   2.247
20818SOL    HW263896   7.246   4.896   2.356
20819SOL     OW63897   5.698   4.470   3.439
20819SOL    HW163898   5.781   4.514   3.453
20819SOL    HW263899   5.635   4.541   3.425
20820SOL     OW63900   6.213   5.115   2.595
20820SOL    HW163901   6.167   5.031   2.604
20820SOL    HW263902   6.191   5.144   2.506
20821SOL     OW63903   6.870   4.958   3.273
20821SOL    HW163904   6.903   4.887   3.218
20821SOL    HW263905   6.923   4.953   3.353
20822SOL     OW63906   6.409   3.723   2.381
20822SOL    HW163907   6.451   3.805   2.354
20822SOL    HW263908   6.316   3.743   2.383
20823SOL     OW63909   5.773   4.689   3.138
20823SOL    HW163910   5.856   4.645   3.123
20823SOL    HW263911   5.707   4.627   3.108
20824SOL     OW63912   7.120   4.727   2.061
20824SOL    HW163913   7.050   4.669   2.092
20824SOL    HW263914   7.160   4.760   2.142
20825SOL     OW63915   6.792   5.563   3.501
20825SOL    HW163916   6.775   5.594   3.412
20825SOL    HW263917   6.764   5.471   3.500
20826SOL     OW63918   5.939   3.983   3.687
20826SOL    HW163919   5.971   4.069   3.717
20826SOL    HW263920   5.846   3.984   3.708
20827SOL     OW63921   7.055   5.138   2.810
20827SOL    HW163922   6.988   5.156   2.876
20827SOL    HW263923   7.038   5.049   2.781
20828SOL     OW63924   7.231   5.494   2.434
20828SOL    HW163925   7.210   5.453   2.351
20828SOL    HW263926   7.219   5.425   2.499
20829SOL     OW63927   6.176   4.435   2.137
20829SOL    HW163928   6.175   4.521   2.096
20829SOL    HW263929   6.112   4.441   2.207
20830SOL     OW63930   6.870   4.096   2.797
20830SOL    HW163931   6.779   4.067   2.805
20830SOL    HW263932   6.919   4.040   2.857
20831SOL     OW63933   7.163   5.408   2.174
20831SOL    HW163934   7.257   5.423   2.165
20831SOL    HW263935   7.133   5.388   2.085
20832SOL     OW63936   6.390   4.338   3.303
20832SOL    HW163937   6.365   4.312   3.391
20832SOL    HW263938   6.353   4.269   3.247
20833SOL     OW63939   6.983   4.198   3.544
20833SOL    HW163940   6.984   4.243   3.628
20833SOL    HW263941   7.035   4.119   3.557
20834SOL     OW63942   6.535   4.609   3.454
20834SOL    HW163943   6.591   4.543   3.413
20834SOL    HW263944   6.485   4.647   3.381
20835SOL     OW63945   6.588   4.127   3.088
20835SOL    HW163946   6.500   4.148   3.121
20835SOL    HW263947   6.573   4.089   3.002
20836SOL     OW63948   6.643   4.425   2.282
20836SOL    HW163949   6.661   4.418   2.376
20836SOL    HW263950   6.558   4.381   2.272
20837SOL     OW63951   5.683   4.554   2.631
20837SOL    HW163952   5.758   4.543   2.689
20837SOL    HW263953   5.631   4.623   2.672
20838SOL     OW63954   5.714   5.572   3.432
20838SOL    HW163955   5.698   5.539   3.521
20838SOL    HW263956   5.679   5.504   3.375
20839SOL     OW63957   6.481   4.072   2.060
20839SOL    HW163958   6.527   4.131   2.000
20839SOL    HW263959   6.459   3.996   2.006
20840SOL     OW63960   7.290   4.278   3.685
20840SOL    HW163961   7.256   4.356   3.641
20840SOL    HW263962   7.321   4.222   3.613
20841SOL     OW63963   6.973   4.870   2.409
20841SOL    HW163964   7.051   4.861   2.355
20841SOL    HW263965   6.916   4.930   2.361
20842SOL     OW63966   6.144   3.869   2.787
20842SOL    HW163967   6.148   3.901   2.877
20842SOL    HW263968   6.136   3.948   2.733
20843SOL     OW63969   6.583   5.171   2.326
20843SOL    HW163970   6.557   5.249   2.277
20843SOL    HW263971   6.555   5.189   2.416
20844SOL     OW63972   5.955   5.537   2.719
20844SOL    HW163973   5.979   5.444   2.721
20844SOL    HW263974   6.033   5.583   2.750
20845SOL     OW63975   7.384   4.781   2.728
20845SOL    HW163976   7.329   4.754   2.655
20845SOL    HW263977   7.324   4.788   2.803
20846SOL     OW63978   6.817   5.258   3.357
20846SOL    HW163979   6.797   5.189   3.419
20846SOL    HW263980   6.733   5.301   3.340
20847SOL     OW63981   5.894   4.684   2.121
20847SOL    HW163982   5.976   4.698   2.073
20847SOL    HW263983   5.867   4.596   2.097
20848SOL     OW63984   7.069   4.475   2.575
20848SOL    HW163985   7.066   4.435   2.662
20848SOL    HW263986   7.146   4.532   2.578
20849SOL     OW63987   6.045   4.987   3.625
20849SOL    HW163988   6.042   5.016   3.534
20849SOL    HW263989   5.954   4.973   3.649
20850SOL     OW63990   6.722   5.508   2.085
20850SOL    HW163991   6.644   5.475   2.130
20850SOL    HW263992   6.742   5.440   2.021
20851SOL     OW63993   5.777   4.009   3.379
20851SOL    HW163994   5.689   4.045   3.371
20851SOL    HW263995   5.764   3.922   3.418
20852SOL     OW63996   7.219   5.111   1.952
20852SOL    HW163997   7.174   5.195   1.940
20852SOL    HW263998   7.151   5.045   1.935
20853SOL     OW63999   6.078   5.499   2.145
20853SOL    HW164000   6.101   5.506   2.238
20853SOL    HW264001   6.137   5.432   2.111
20854SOL     OW64002   6.986   3.829   2.312
20854SOL    HW164003   6.978   3.806   2.219
20854SOL    HW264004   7.079   3.843   2.326
20855SOL     OW64005   5.859   5.522   3.070
20855SOL    HW164006   5.888   5.437   3.105
20855SOL    HW264007   5.808   5.499   2.993
20856SOL     OW64008   6.510   5.427   2.751
20856SOL    HW164009   6.566   5.369   2.804
20856SOL    HW264010   6.483   5.372   2.677
20857SOL     OW64011   5.983   4.413   2.335
20857SOL    HW164012   5.999   4.320   2.351
20857SOL    HW264013   5.891   4.426   2.355
20858SOL     OW64014   7.108   3.944   3.582
20858SOL    HW164015   7.125   3.962   3.674
20858SOL    HW264016   7.033   3.884   3.583
20859SOL     OW64017   6.244   3.838   1.958
20859SOL    HW164018   6.291   3.758   1.983
20859SOL    HW264019   6.181   3.809   1.892
20860SOL     OW64020   6.346   3.995   3.611
20860SOL    HW164021   6.429   3.948   3.608
20860SOL    HW264022   6.299   3.957   3.685
20861SOL     OW64023   6.459   5.246   3.041
20861SOL    HW164024   6.437   5.196   2.963
20861SOL    HW264025   6.525   5.192   3.085
20862SOL     OW64026   6.926   4.310   3.298
20862SOL    HW164027   6.956   4.282   3.384
20862SOL    HW264028   6.958   4.400   3.290
20863SOL     OW64029   6.406   5.108   2.808
20863SOL    HW164030   6.490   5.095   2.765
20863SOL    HW264031   6.342   5.108   2.736
20864SOL     OW64032   6.526   4.238   2.755
20864SOL    HW164033   6.496   4.226   2.665
20864SOL    HW264034   6.548   4.149   2.785
20865SOL     OW64035   6.145   3.788   2.354
20865SOL    HW164036   6.065   3.789   2.406
20865SOL    HW264037   6.137   3.864   2.296
20866SOL     OW64038   7.015   4.929   1.904
20866SOL    HW164039   7.044   4.854   1.956
20866SOL    HW264040   6.928   4.950   1.939
20867SOL     OW64041   5.871   3.776   2.046
20867SOL    HW164042   5.926   3.844   2.005
20867SOL    HW264043   5.934   3.717   2.087
20868SOL     OW64044   6.532   3.967   2.314
20868SOL    HW164045   6.506   4.005   2.229
20868SOL    HW264046   6.625   3.988   2.322
20869SOL     OW64047   6.666   4.415   3.313
20869SOL    HW164048   6.593   4.353   3.322
20869SOL    HW264049   6.744   4.360   3.316
20870SOL     OW64050   6.815   5.285   2.647
20870SOL    HW164051   6.826   5.359   2.587
20870SOL    HW264052   6.864   5.311   2.725
20871SOL     OW64053   6.067   4.882   2.585
20871SOL    HW164054   6.006   4.860   2.655
20871SOL    HW264055   6.017   4.870   2.504
20872SOL     OW64056   6.846   5.514   2.476
20872SOL    HW164057   6.890   5.581   2.424
20872SOL    HW264058   6.772   5.559   2.516
20873SOL     OW64059   6.615   4.249   1.890
20873SOL    HW164060   6.569   4.331   1.873
20873SOL    HW264061   6.674   4.270   1.962
20874SOL     OW64062   5.677   4.287   3.242
20874SOL    HW164063   5.771   4.286   3.223
20874SOL    HW264064   5.668   4.350   3.314
20875SOL     OW64065   6.148   3.946   3.052
20875SOL    HW164066   6.184   3.900   3.128
20875SOL    HW264067   6.054   3.953   3.070
20876SOL     OW64068   6.456   4.179   2.498
20876SOL    HW164069   6.403   4.237   2.444
20876SOL    HW264070   6.472   4.103   2.442
20877SOL     OW64071   6.613   3.769   2.604
20877SOL    HW164072   6.548   3.777   2.534
20877SOL    HW264073   6.576   3.704   2.664
20878SOL     OW64074   7.017   4.881   2.716
20878SOL    HW164075   6.949   4.816   2.737
20878SOL    HW264076   7.017   4.884   2.620
20879SOL     OW64077   7.051   4.331   2.817
20879SOL    HW164078   6.987   4.261   2.828
20879SOL    HW264079   7.105   4.328   2.895
20880SOL     OW64080   7.429   4.530   2.251
20880SOL    HW164081   7.485   4.481   2.311
20880SOL    HW264082   7.406   4.467   2.182
20881SOL     OW64083   6.076   5.148   2.011
20881SOL    HW164084   6.001   5.122   2.063
20881SOL    HW264085   6.071   5.094   1.932
20882SOL     OW64086   7.275   5.005   2.482
20882SOL    HW164087   7.367   5.000   2.510
20882SOL    HW264088   7.242   5.086   2.520
20883SOL     OW64089   6.977   4.298   1.934
20883SOL    HW164090   6.913   4.277   2.002
20883SOL    HW264091   7.061   4.274   1.972
20884SOL     OW64092   6.116   3.983   2.165
20884SOL    HW164093   6.166   3.942   2.094
20884SOL    HW264094   6.084   4.065   2.127
20885SOL     OW64095   7.326   4.968   3.412
20885SOL    HW164096   7.411   4.925   3.421
20885SOL    HW264097   7.341   5.057   3.444
20886SOL     OW64098   6.633   5.064   3.170
20886SOL    HW164099   6.557   5.040   3.223
20886SOL    HW264100   6.708   5.039   3.224
20887SOL     OW64101   7.198   5.363   3.527
20887SOL    HW164102   7.186   5.391   3.437
20887SOL    HW264103   7.275   5.306   3.525
20888SOL     OW64104   6.724   4.925   2.952
20888SOL    HW164105   6.674   4.965   3.024
20888SOL    HW264106   6.693   4.970   2.873
20889SOL     OW64107   7.212   4.826   2.937
20889SOL    HW164108   7.207   4.885   3.012
20889SOL    HW264109   7.132   4.842   2.887
20890SOL     OW64110   6.516   3.805   3.254
20890SOL    HW164111   6.537   3.800   3.161
20890SOL    HW264112   6.590   3.851   3.293
20891SOL     OW64113   6.567   4.842   3.588
20891SOL    HW164114   6.477   4.855   3.617
20891SOL    HW264115   6.564   4.761   3.536
20892SOL     OW64116   6.299   4.789   2.232
20892SOL    HW164117   6.283   4.766   2.324
20892SOL    HW264118   6.373   4.734   2.207
20893SOL     OW64119   6.011   4.546   3.114
20893SOL    HW164120   6.075   4.557   3.184
20893SOL    HW264121   5.977   4.458   3.126
20894SOL     OW64122   6.852   4.102   3.140
20894SOL    HW164123   6.882   4.179   3.190
20894SOL    HW264124   6.761   4.120   3.120
20895SOL     OW64125   5.670   5.352   3.256
20895SOL    HW164126   5.620   5.373   3.177
20895SOL    HW264127   5.745   5.301   3.224
20896SOL     OW64128   5.925   4.846   2.352
20896SOL    HW164129   5.911   4.921   2.295
20896SOL    HW264130   5.918   4.770   2.294
20897SOL     OW64131   6.131   4.247   2.717
20897SOL    HW164132   6.146   4.305   2.643
20897SOL    HW264133   6.194   4.274   2.783
20898SOL     OW64134   6.833   5.075   2.254
20898SOL    HW164135   6.888   5.145   2.290
20898SOL    HW264136   6.745   5.095   2.287
20899SOL     OW64137   6.877   5.192   3.011
20899SOL    HW164138   6.935   5.200   3.087
20899SOL    HW264139   6.809   5.131   3.040
20900SOL     OW64140   7.161   4.346   2.342
20900SOL    HW164141   7.112   4.379   2.418
20900SOL    HW264142   7.191   4.425   2.298
20901SOL     OW64143   5.928   5.265   3.165
20901SOL    HW164144   5.909   5.212   3.088
20901SOL    HW264145   6.024   5.271   3.167
20902SOL     OW64146   5.999   4.481   3.468
20902SOL    HW164147   6.072   4.507   3.411
20902SOL    HW264148   6.013   4.388   3.484
20903SOL     OW64149   7.204   4.500   3.553
20903SOL    HW164150   7.117   4.540   3.550
20903SOL    HW264151   7.253   4.545   3.484
20904SOL     OW64152   6.583   3.861   3.603
20904SOL    HW164153   6.640   3.937   3.592
20904SOL    HW264154   6.641   3.785   3.594
20905SOL     OW64155   6.080   3.760   3.615
20905SOL    HW164156   6.026   3.710   3.553
20905SOL    HW264157   6.027   3.837   3.636
20906SOL     OW64158   6.171   4.595   2.897
20906SOL    HW164159   6.201   4.686   2.899
20906SOL    HW264160   6.114   4.587   2.973
20907SOL     OW64161   6.916   4.580   2.865
20907SOL    HW164162   6.825   4.559   2.845
20907SOL    HW264163   6.963   4.497   2.855
20908SOL     OW64164   6.783   4.250   2.122
20908SOL    HW164165   6.789   4.173   2.177
20908SOL    HW264166   6.740   4.316   2.178
20909SOL     OW64167   5.882   3.935   3.106
20909SOL    HW164168   5.831   3.963   3.182
20909SOL    HW264169   5.867   3.841   3.099
20910SOL     OW64170   5.667   5.055   3.147
20910SOL    HW164171   5.698   4.985   3.205
20910SOL    HW264172   5.579   5.075   3.178
20911SOL     OW64173   6.300   4.351   2.906
20911SOL    HW164174   6.380   4.350   2.853
20911SOL    HW264175   6.266   4.440   2.897
20912SOL     OW64176   7.325   4.686   3.723
20912SOL    HW164177   7.283   4.613   3.678
20912SOL    HW264178   7.266   4.707   3.796
20913SOL     OW64179   5.901   3.793   2.479
20913SOL    HW164180   5.867   3.881   2.497
20913SOL    HW264181   5.903   3.749   2.564
20914SOL     OW64182   7.215   4.111   2.215
20914SOL    HW164183   7.240   4.046   2.281
20914SOL    HW264184   7.187   4.187   2.266
20915SOL     OW64185   6.627   4.482   2.821
20915SOL    HW164186   6.608   4.499   2.913
20915SOL    HW264187   6.596   4.393   2.806
20916SOL     OW64188   6.629   5.323   3.571
20916SOL    HW164189   6.536   5.320   3.548
20916SOL    HW264190   6.658   5.231   3.568
20917SOL     OW64191   7.431   5.222   3.468
20917SOL    HW164192   7.456   5.252   3.381
20917SOL    HW264193   7.510   5.233   3.521
20918SOL     OW64194   5.935   4.658   3.664
20918SOL    HW164195   6.014   4.665   3.719
20918SOL    HW264196   5.958   4.592   3.599
20919SOL     OW64197   7.118   3.989   1.986
20919SOL    HW164198   7.052   3.928   2.020
20919SOL    HW264199   7.151   4.033   2.064
20920SOL     OW64200   6.870   4.549   1.881
20920SOL    HW164201   6.910   4.462   1.890
20920SOL    HW264202   6.903   4.582   1.797
20921SOL     OW64203   6.654   5.067   2.713
20921SOL    HW164204   6.663   4.993   2.654
20921SOL    HW264205   6.715   5.133   2.679
20922SOL     OW64206   5.895   4.528   2.805
20922SOL    HW164207   5.989   4.546   2.809
20922SOL    HW264208   5.887   4.438   2.838
20923SOL     OW64209   5.909   4.249   2.873
20923SOL    HW164210   5.871   4.162   2.860
20923SOL    HW264211   5.985   4.250   2.815
20924SOL     OW64212   6.725   4.095   3.546
20924SOL    HW164213   6.675   4.145   3.609
20924SOL    HW264214   6.812   4.137   3.544
20925SOL     OW64215   6.753   3.922   3.331
20925SOL    HW164216   6.739   3.982   3.404
20925SOL    HW264217   6.792   3.978   3.263
20926SOL     OW64218   5.604   5.034   2.042
20926SOL    HW164219   5.515   5.052   2.010
20926SOL    HW264220   5.597   4.948   2.083
20927SOL     OW64221   5.707   5.496   2.836
20927SOL    HW164222   5.662   5.426   2.788
20927SOL    HW264223   5.786   5.514   2.785
20928SOL     OW64224   6.075   5.295   2.759
20928SOL    HW164225   6.143   5.355   2.789
20928SOL    HW264226   6.122   5.231   2.706
20929SOL     OW64227   6.552   4.506   3.080
20929SOL    HW164228   6.611   4.490   3.153
20929SOL    HW264229   6.467   4.473   3.110
20930SOL     OW64230   5.616   4.268   2.979
20930SOL    HW164231   5.700   4.266   2.934
20930SOL    HW264232   5.638   4.274   3.072
20931SOL     OW64233   5.776   4.252   3.595
20931SOL    HW164234   5.784   4.183   3.529
20931SOL    HW264235   5.731   4.323   3.550
20932SOL     OW64236   6.975   4.647   3.517
20932SOL    HW164237   6.991   4.741   3.514
20932SOL    HW264238   6.967   4.621   3.425
20933SOL     OW64239   6.407   4.298   2.225
20933SOL    HW164240   6.408   4.221   2.169
20933SOL    HW264241   6.328   4.347   2.199
20934SOL     OW64242   7.223   4.328   3.029
20934SOL    HW164243   7.212   4.273   3.106
20934SOL    HW264244   7.312   4.311   3.000
20935SOL     OW64245   5.822   5.271   3.621
20935SOL    HW164246   5.894   5.293   3.681
20935SOL    HW264247   5.808   5.178   3.633
20936SOL     OW64248   6.312   4.166   3.107
20936SOL    HW164249   6.247   4.098   3.093
20936SOL    HW264250   6.296   4.230   3.037
20937SOL     OW64251   6.567   5.414   3.284
20937SOL    HW164252   6.503   5.345   3.262
20937SOL    HW264253   6.513   5.490   3.306
20938SOL     OW64254   6.040   4.212   2.035
20938SOL    HW164255   6.099   4.282   2.063
20938SOL    HW264256   5.953   4.254   2.031
20939SOL     OW64257   5.742   4.869   3.339
20939SOL    HW164258   5.732   4.824   3.423
20939SOL    HW264259   5.749   4.799   3.274
20940SOL     OW64260   6.910   4.762   3.069
20940SOL    HW164261   6.922   4.697   3.000
20940SOL    HW264262   6.844   4.822   3.035
20941SOL     OW64263   6.910   4.580   2.160
20941SOL    HW164264   6.839   4.552   2.218
20941SOL    HW264265   6.874   4.567   2.072
20942SOL     OW64266   7.361   5.459   3.014
20942SOL    HW164267   7.426   5.480   2.947
20942SOL    HW264268   7.337   5.368   2.995
20943SOL     OW64269   6.823   5.462   2.953
20943SOL    HW164270   6.911   5.484   2.921
20943SOL    HW264271   6.831   5.372   2.986
20944SOL     OW64272   5.689   4.982   2.880
20944SOL    HW164273   5.675   5.005   2.972
20944SOL    HW264274   5.609   4.935   2.855
20945SOL     OW64275   6.235   5.465   3.621
20945SOL    HW164276   6.169   5.463   3.551
20945SOL    HW264277   6.291   5.389   3.603
20946SOL     OW64278   7.309   3.885   2.363
20946SOL    HW164279   7.378   3.871   2.299
20946SOL    HW264280   7.295   3.799   2.403
20947SOL     OW64281   6.982   5.292   2.356
20947SOL    HW164282   7.035   5.331   2.287
20947SOL    HW264283   6.928   5.364   2.388
20948SOL     OW64284   5.720   5.576   3.724
20948SOL    HW164285   5.668   5.498   3.742
20948SOL    HW264286   5.776   5.586   3.801
20949SOL     OW64287   6.863   4.649   2.523
20949SOL    HW164288   6.937   4.591   2.539
20949SOL    HW264289   6.900   4.724   2.476
20950SOL     OW64290   6.383   5.004   3.281
20950SOL    HW164291   6.375   5.055   3.362
20950SOL    HW264292   6.297   5.014   3.239
20951SOL     OW64293   6.267   5.343   2.015
20951SOL    HW164294   6.273   5.360   1.921
20951SOL    HW264295   6.208   5.268   2.021
20952SOL     OW64296   7.205   5.454   3.256
20952SOL    HW164297   7.257   5.457   3.175
20952SOL    HW264298   7.190   5.546   3.278
20953SOL     OW64299   7.431   3.887   2.822
20953SOL    HW164300   7.458   3.798   2.798
20953SOL    HW264301   7.342   3.895   2.788
20954SOL     OW64302   5.829   4.040   2.569
20954SOL    HW164303   5.741   4.073   2.547
20954SOL    HW264304   5.829   4.034   2.664
20955SOL     OW64305   6.796   5.318   1.897
20955SOL    HW164306   6.784   5.229   1.929
20955SOL    HW264307   6.725   5.331   1.834
20956SOL     OW64308   6.411   4.732   3.240
20956SOL    HW164309   6.450   4.727   3.153
20956SOL    HW264310   6.403   4.825   3.258
20957SOL     OW64311   6.505   4.637   2.147
20957SOL    HW164312   6.569   4.673   2.085
20957SOL    HW264313   6.554   4.570   2.195
20958SOL     OW64314   7.071   5.365   1.911
20958SOL    HW164315   6.978   5.347   1.897
20958SOL    HW264316   7.108   5.367   1.823
20959SOL     OW64317   5.943   5.057   3.374
20959SOL    HW164318   5.931   5.113   3.297
20959SOL    HW264319   5.879   4.986   3.362
20960SOL     OW64320   7.200   5.011   3.147
20960SOL    HW164321   7.247   4.988   3.228
20960SOL    HW264322   7.136   5.076   3.174
20961SOL     OW64323   6.656   4.834   2.575
20961SOL    HW164324   6.582   4.788   2.614
20961SOL    HW264325   6.718   4.765   2.552
20962SOL     OW64326   6.618   3.971   2.822
20962SOL    HW164327   6.614   3.923   2.739
20962SOL    HW264328   6.610   3.903   2.889
20963SOL     OW64329   6.188   5.216   2.338
20963SOL    HW164330   6.231   5.165   2.269
20963SOL    HW264331   6.095   5.215   2.314
20964SOL     OW64332   7.308   4.123   3.227
20964SOL    HW164333   7.382   4.183   3.233
20964SOL    HW264334   7.341   4.050   3.174
20965SOL     OW64335   5.856   5.069   2.156
20965SOL    HW164336   5.765   5.061   2.126
20965SOL    HW264337   5.849   5.104   2.244
20966SOL     OW64338   5.701   4.781   3.598
20966SOL    HW164339   5.622   4.746   3.639
20966SOL    HW264340   5.772   4.726   3.631
20967SOL     OW64341   6.268   3.902   3.353
20967SOL    HW164342   6.356   3.881   3.322
20967SOL    HW264343   6.281   3.939   3.440
20968SOL     OW64344   5.674   4.042   1.890
20968SOL    HW164345   5.580   4.028   1.879
20968SOL    HW264346   5.692   4.123   1.843
20969SOL     OW64347   7.008   4.577   3.253
20969SOL    HW164348   6.958   4.639   3.199
20969SOL    HW264349   7.097   4.583   3.219
20970SOL     OW64350   5.645   3.871   2.167
20970SOL    HW164351   5.631   3.957   2.126
20970SOL    HW264352   5.728   3.841   2.131
20971SOL     OW64353   6.763   5.055   1.982
20971SOL    HW164354   6.673   5.021   1.982
20971SOL    HW264355   6.788   5.056   2.074
20972SOL     OW64356   6.212   4.548   3.298
20972SOL    HW164357   6.269   4.624   3.287
20972SOL    HW264358   6.272   4.474   3.306
20973SOL     OW64359   7.076   5.520   2.858
20973SOL    HW164360   7.106   5.585   2.794
20973SOL    HW264361   7.157   5.484   2.895
20974SOL     OW64362   6.320   4.273   3.552
20974SOL    HW164363   6.354   4.329   3.622
20974SOL    HW264364   6.323   4.185   3.588
20975SOL     OW64365   7.055   4.911   3.488
20975SOL    HW164366   7.041   4.929   3.581
20975SOL    HW264367   7.147   4.935   3.473
20976SOL     OW64368   5.990   5.456   3.436
20976SOL    HW164369   5.903   5.480   3.404
20976SOL    HW264370   5.985   5.361   3.451
20977SOL     OW64371   7.248   4.604   3.112
20977SOL    HW164372   7.241   4.519   3.067
20977SOL    HW264373   7.238   4.668   3.042
20978SOL     OW64374   6.803   4.045   2.319
20978SOL    HW164375   6.862   3.969   2.317
20978SOL    HW264376   6.831   4.096   2.394
20979SOL     OW64377   6.183   4.449   2.529
20979SOL    HW164378   6.216   4.538   2.519
20979SOL    HW264379   6.112   4.443   2.465
20980SOL     OW64380   7.342   4.079   3.494
20980SOL    HW164381   7.313   4.102   3.406
20980SOL    HW264382   7.269   4.028   3.530
20981SOL     OW64383   7.331   4.655   3.368
20981SOL    HW164384   7.315   4.748   3.383
20981SOL    HW264385   7.310   4.642   3.275
20982SOL     OW64386   6.451   5.087   1.918
20982SOL    HW164387   6.415   5.092   2.007
20982SOL    HW264388   6.454   5.178   1.889
20983SOL     OW64389   6.247   5.521   2.790
20983SOL    HW164390   6.246   5.614   2.767
20983SOL    HW264391   6.339   5.496   2.787
20984SOL     OW64392   6.459   4.700   2.716
20984SOL    HW164393   6.508   4.628   2.755
20984SOL    HW264394   6.414   4.742   2.790
20985SOL     OW64395   6.674   4.725   1.953
20985SOL    HW164396   6.644   4.770   1.873
20985SOL    HW264397   6.741   4.664   1.922
20986SOL     OW64398   7.422   5.277   2.702
20986SOL    HW164399   7.340   5.268   2.654
20986SOL    HW264400   7.411   5.224   2.780
20987SOL     OW64401   5.781   5.016   3.700
20987SOL    HW164402   5.745   4.936   3.661
20987SOL    HW264403   5.772   5.002   3.795
20988SOL     OW64404   5.686   4.953   2.542
20988SOL    HW164405   5.660   4.904   2.620
20988SOL    HW264406   5.753   4.899   2.500
20989SOL     OW64407   7.398   3.908   3.093
20989SOL    HW164408   7.408   3.815   3.112
20989SOL    HW264409   7.411   3.914   2.998
20990SOL     OW64410   6.016   4.153   2.389
20990SOL    HW164411   6.038   4.078   2.333
20990SOL    HW264412   5.958   4.116   2.456
20991SOL     OW64413   7.285   5.204   2.949
20991SOL    HW164414   7.204   5.184   2.903
20991SOL    HW264415   7.288   5.141   3.021
20992SOL     OW64416   5.935   4.289   3.151
20992SOL    HW164417   5.979   4.223   3.205
20992SOL    HW264418   5.938   4.253   3.062
20993SOL     OW64419   6.417   5.293   2.531
20993SOL    HW164420   6.373   5.345   2.464
20993SOL    HW264421   6.352   5.227   2.556
20994SOL     OW64422   7.015   3.954   2.984
20994SOL    HW164423   7.034   3.876   3.036
20994SOL    HW264424   6.963   4.009   3.042
20995SOL     OW64425   6.601   3.745   2.988
20995SOL    HW164426   6.535   3.684   2.957
20995SOL    HW264427   6.684   3.698   2.980
20996SOL     OW64428   6.365   5.056   2.180
20996SOL    HW164429   6.337   4.965   2.195
20996SOL    HW264430   6.441   5.067   2.237
20997SOL     OW64431   6.204   5.290   3.134
20997SOL    HW164432   6.205   5.376   3.174
20997SOL    HW264433   6.294   5.276   3.103
20998SOL     OW64434   6.945   3.776   2.043
20998SOL    HW164435   6.971   3.716   1.973
20998SOL    HW264436   6.857   3.748   2.067
20999SOL     OW64437   6.891   4.188   2.538
20999SOL    HW164438   6.837   4.268   2.538
20999SOL    HW264439   6.881   4.153   2.627
21000SOL     OW64440   7.168   3.912   2.755
21000SOL    HW164441   7.115   3.938   2.830
21000SOL    HW264442   7.166   3.988   2.696
21001SOL     OW64443   5.632   4.784   2.163
21001SOL    HW164444   5.726   4.773   2.146
21001SOL    HW264445   5.602   4.696   2.189
21002SOL     OW64446   6.484   5.395   2.196
21002SOL    HW164447   6.408   5.374   2.142
21002SOL    HW264448   6.453   5.463   2.256
21003SOL     OW64449   5.803   4.353   3.858
21003SOL    HW164450   5.717   4.344   3.899
21003SOL    HW264451   5.789   4.328   3.766
21004SOL     OW64452   5.800   4.012   4.716
21004SOL    HW164453   5.829   3.978   4.801
21004SOL    HW264454   5.713   3.974   4.703
21005SOL     OW64455   5.578   4.115   4.357
21005SOL    HW164456   5.502   4.148   4.406
21005SOL    HW264457   5.547   4.034   4.315
21006SOL     OW64458   6.164   5.016   4.924
21006SOL    HW164459   6.072   4.994   4.917
21006SOL    HW264460   6.165   5.110   4.944
21007SOL     OW64461   7.166   5.242   4.436
21007SOL    HW164462   7.121   5.214   4.515
21007SOL    HW264463   7.098   5.242   4.369
21008SOL     OW64464   6.727   4.421   4.412
21008SOL    HW164465   6.770   4.507   4.408
21008SOL    HW264466   6.674   4.424   4.491
21009SOL     OW64467   7.379   4.316   3.937
21009SOL    HW164468   7.345   4.307   3.848
21009SOL    HW264469   7.332   4.250   3.988
21010SOL     OW64470   6.345   4.867   4.782
21010SOL    HW164471   6.275   4.899   4.839
21010SOL    HW264472   6.383   4.945   4.743
21011SOL     OW64473   6.471   4.511   5.590
21011SOL    HW164474   6.410   4.550   5.653
21011SOL    HW264475   6.439   4.538   5.504
21012SOL     OW64476   6.271   4.721   4.368
21012SOL    HW164477   6.337   4.712   4.436
21012SOL    HW264478   6.202   4.775   4.407
21013SOL     OW64479   6.319   4.884   5.510
21013SOL    HW164480   6.352   4.959   5.560
21013SOL    HW264481   6.228   4.906   5.490
21014SOL     OW64482   5.907   5.157   4.791
21014SOL    HW164483   5.833   5.105   4.758
21014SOL    HW264484   5.950   5.190   4.712
21015SOL     OW64485   7.043   5.226   5.090
21015SOL    HW164486   7.095   5.306   5.101
21015SOL    HW264487   6.971   5.236   5.153
21016SOL     OW64488   6.037   4.098   5.186
21016SOL    HW164489   6.102   4.032   5.208
21016SOL    HW264490   5.955   4.064   5.222
21017SOL     OW64491   7.174   4.158   4.465
21017SOL    HW164492   7.093   4.166   4.415
21017SOL    HW264493   7.177   4.237   4.519
21018SOL     OW64494   5.796   5.483   4.159
21018SOL    HW164495   5.823   5.536   4.234
21018SOL    HW264496   5.877   5.441   4.129
21019SOL     OW64497   6.724   5.066   5.423
21019SOL    HW164498   6.755   5.065   5.513
21019SOL    HW264499   6.670   4.987   5.415
21020SOL     OW64500   5.793   5.164   4.261
21020SOL    HW164501   5.768   5.237   4.318
21020SOL    HW264502   5.761   5.086   4.306
21021SOL     OW64503   5.875   4.813   4.637
21021SOL    HW164504   5.864   4.722   4.663
21021SOL    HW264505   5.809   4.861   4.687
21022SOL     OW64506   6.185   5.518   5.159
21022SOL    HW164507   6.106   5.491   5.207
21022SOL    HW264508   6.200   5.608   5.188
21023SOL     OW64509   6.162   4.714   3.864
21023SOL    HW164510   6.213   4.758   3.797
21023SOL    HW264511   6.200   4.743   3.947
21024SOL     OW64512   7.186   3.853   5.187
21024SOL    HW164513   7.176   3.938   5.144
21024SOL    HW264514   7.162   3.869   5.278
21025SOL     OW64515   5.712   4.378   4.284
21025SOL    HW164516   5.671   4.293   4.303
21025SOL    HW264517   5.702   4.427   4.365
21026SOL     OW64518   7.433   5.476   4.047
21026SOL    HW164519   7.506   5.453   4.105
21026SOL    HW264520   7.446   5.569   4.028
21027SOL     OW64521   7.287   4.641   4.381
21027SOL    HW164522   7.367   4.590   4.370
21027SOL    HW264523   7.272   4.680   4.294
21028SOL     OW64524   7.242   4.824   4.152
21028SOL    HW164525   7.328   4.823   4.111
21028SOL    HW264526   7.250   4.887   4.224
21029SOL     OW64527   5.697   4.479   5.292
21029SOL    HW164528   5.768   4.524   5.338
21029SOL    HW264529   5.630   4.547   5.279
21030SOL     OW64530   6.218   5.111   4.458
21030SOL    HW164531   6.170   5.029   4.470
21030SOL    HW264532   6.198   5.137   4.368
21031SOL     OW64533   6.868   4.961   5.145
21031SOL    HW164534   6.907   4.891   5.091
21031SOL    HW264535   6.921   4.962   5.224
21032SOL     OW64536   6.412   3.732   4.237
21032SOL    HW164537   6.450   3.816   4.215
21032SOL    HW264538   6.318   3.749   4.243
21033SOL     OW64539   5.758   4.697   4.963
21033SOL    HW164540   5.826   4.630   4.961
21033SOL    HW264541   5.676   4.648   4.953
21034SOL     OW64542   7.117   4.728   3.924
21034SOL    HW164543   7.047   4.671   3.956
21034SOL    HW264544   7.162   4.757   4.003
21035SOL     OW64545   6.792   5.553   5.354
21035SOL    HW164546   6.777   5.602   5.274
21035SOL    HW264547   6.793   5.461   5.327
21036SOL     OW64548   5.934   3.985   5.556
21036SOL    HW164549   5.962   4.075   5.575
21036SOL    HW264550   5.840   3.986   5.569
21037SOL     OW64551   7.054   5.142   4.667
21037SOL    HW164552   6.988   5.159   4.734
21037SOL    HW264553   7.038   5.052   4.639
21038SOL     OW64554   7.229   5.494   4.298
21038SOL    HW164555   7.210   5.455   4.213
21038SOL    HW264556   7.220   5.422   4.360
21039SOL     OW64557   6.174   4.434   3.998
21039SOL    HW164558   6.174   4.521   3.959
21039SOL    HW264559   6.110   4.439   4.069
21040SOL     OW64560   6.868   4.103   4.659
21040SOL    HW164561   6.778   4.071   4.665
21040SOL    HW264562   6.918   4.045   4.717
21041SOL     OW64563   7.165   5.405   4.039
21041SOL    HW164564   7.258   5.423   4.031
21041SOL    HW264565   7.136   5.387   3.949
21042SOL     OW64566   6.397   4.346   5.173
21042SOL    HW164567   6.371   4.319   5.261
21042SOL    HW264568   6.360   4.278   5.116
21043SOL     OW64569   6.991   4.200   5.398
21043SOL    HW164570   6.991   4.236   5.486
21043SOL    HW264571   7.033   4.114   5.407
21044SOL     OW64572   6.604   4.624   5.276
21044SOL    HW164573   6.607   4.529   5.269
21044SOL    HW264574   6.537   4.651   5.214
21045SOL     OW64575   6.593   4.133   4.939
21045SOL    HW164576   6.505   4.148   4.973
21045SOL    HW264577   6.580   4.075   4.863
21046SOL     OW64578   6.644   4.426   4.144
21046SOL    HW164579   6.663   4.417   4.238
21046SOL    HW264580   6.559   4.382   4.133
21047SOL     OW64581   5.684   4.550   4.494
21047SOL    HW164582   5.763   4.537   4.547
21047SOL    HW264583   5.622   4.593   4.553
21048SOL     OW64584   5.718   5.594   5.311
21048SOL    HW164585   5.707   5.580   5.405
21048SOL    HW264586   5.665   5.525   5.270
21049SOL     OW64587   6.474   4.074   3.922
21049SOL    HW164588   6.523   4.126   3.859
21049SOL    HW264589   6.446   3.996   3.873
21050SOL     OW64590   7.298   4.292   5.546
21050SOL    HW164591   7.254   4.364   5.501
21050SOL    HW264592   7.318   4.228   5.477
21051SOL     OW64593   6.975   4.867   4.266
21051SOL    HW164594   7.052   4.852   4.211
21051SOL    HW264595   6.920   4.926   4.214
21052SOL     OW64596   6.156   3.901   4.639
21052SOL    HW164597   6.152   3.926   4.731
21052SOL    HW264598   6.138   3.982   4.591
21053SOL     OW64599   6.585   5.169   4.189
21053SOL    HW164600   6.558   5.246   4.139
21053SOL    HW264601   6.558   5.188   4.279
21054SOL     OW64602   5.940   5.531   4.585
21054SOL    HW164603   5.975   5.442   4.590
21054SOL    HW264604   6.006   5.586   4.627
21055SOL     OW64605   7.390   4.789   4.597
21055SOL    HW164606   7.343   4.758   4.520
21055SOL    HW264607   7.324   4.791   4.666
21056SOL     OW64608   6.813   5.264   5.240
21056SOL    HW164609   6.797   5.197   5.306
21056SOL    HW264610   6.736   5.260   5.183
21057SOL     OW64611   5.902   4.678   3.977
21057SOL    HW164612   5.985   4.691   3.930
21057SOL    HW264613   5.874   4.590   3.949
21058SOL     OW64614   7.071   4.477   4.440
21058SOL    HW164615   7.067   4.435   4.525
21058SOL    HW264616   7.150   4.530   4.443
21059SOL     OW64617   6.067   4.991   5.452
21059SOL    HW164618   6.037   4.998   5.362
21059SOL    HW264619   5.990   4.963   5.502
21060SOL     OW64620   6.709   5.512   3.945
21060SOL    HW164621   6.635   5.472   3.992
21060SOL    HW264622   6.739   5.443   3.886
21061SOL     OW64623   5.769   4.005   5.247
21061SOL    HW164624   5.681   4.041   5.245
21061SOL    HW264625   5.758   3.915   5.278
21062SOL     OW64626   7.215   5.109   3.812
21062SOL    HW164627   7.171   5.194   3.801
21062SOL    HW264628   7.147   5.045   3.793
21063SOL     OW64629   6.051   5.466   4.040
21063SOL    HW164630   6.100   5.502   4.113
21063SOL    HW264631   6.115   5.415   3.990
21064SOL     OW64632   6.986   3.834   4.171
21064SOL    HW164633   6.982   3.806   4.080
21064SOL    HW264634   7.080   3.837   4.191
21065SOL     OW64635   5.868   5.527   4.931
21065SOL    HW164636   5.894   5.453   4.987
21065SOL    HW264637   5.813   5.487   4.863
21066SOL     OW64638   6.519   5.427   4.614
21066SOL    HW164639   6.583   5.369   4.656
21066SOL    HW264640   6.484   5.375   4.541
21067SOL     OW64641   5.983   4.414   4.199
21067SOL    HW164642   6.000   4.321   4.214
21067SOL    HW264643   5.889   4.423   4.217
21068SOL     OW64644   7.111   3.942   5.449
21068SOL    HW164645   7.119   3.966   5.541
21068SOL    HW264646   7.052   3.867   5.449
21069SOL     OW64647   6.245   3.839   3.820
21069SOL    HW164648   6.274   3.759   3.864
21069SOL    HW264649   6.182   3.810   3.755
21070SOL     OW64650   6.343   4.002   5.473
21070SOL    HW164651   6.426   3.954   5.470
21070SOL    HW264652   6.293   3.961   5.543
21071SOL     OW64653   6.467   5.258   4.920
21071SOL    HW164654   6.442   5.215   4.838
21071SOL    HW264655   6.527   5.197   4.962
21072SOL     OW64656   6.943   4.381   5.181
21072SOL    HW164657   6.975   4.319   5.247
21072SOL    HW264658   6.848   4.377   5.189
21073SOL     OW64659   6.411   5.120   4.678
21073SOL    HW164660   6.495   5.102   4.636
21073SOL    HW264661   6.347   5.113   4.608
21074SOL     OW64662   6.526   4.243   4.615
21074SOL    HW164663   6.498   4.227   4.525
21074SOL    HW264664   6.544   4.155   4.650
21075SOL     OW64665   6.145   3.790   4.214
21075SOL    HW164666   6.069   3.789   4.273
21075SOL    HW264667   6.131   3.865   4.157
21076SOL     OW64668   7.013   4.928   3.761
21076SOL    HW164669   7.041   4.854   3.814
21076SOL    HW264670   6.927   4.952   3.796
21077SOL     OW64671   5.876   3.781   3.906
21077SOL    HW164672   5.933   3.858   3.903
21077SOL    HW264673   5.929   3.714   3.951
21078SOL     OW64674   6.532   3.977   4.177
21078SOL    HW164675   6.508   4.012   4.091
21078SOL    HW264676   6.626   3.993   4.184
21079SOL     OW64677   6.665   4.346   5.198
21079SOL    HW164678   6.571   4.343   5.182
21079SOL    HW264679   6.682   4.273   5.257
21080SOL     OW64680   6.808   5.291   4.513
21080SOL    HW164681   6.822   5.359   4.447
21080SOL    HW264682   6.872   5.310   4.581
21081SOL     OW64683   6.064   4.885   4.456
21081SOL    HW164684   6.003   4.862   4.526
21081SOL    HW264685   6.015   4.869   4.375
21082SOL     OW64686   6.849   5.514   4.336
21082SOL    HW164687   6.896   5.579   4.285
21082SOL    HW264688   6.776   5.562   4.376
21083SOL     OW64689   6.614   4.245   3.749
21083SOL    HW164690   6.569   4.328   3.734
21083SOL    HW264691   6.672   4.263   3.823
21084SOL     OW64692   5.685   4.290   5.099
21084SOL    HW164693   5.779   4.287   5.083
21084SOL    HW264694   5.675   4.354   5.169
21085SOL     OW64695   6.147   3.955   4.911
21085SOL    HW164696   6.183   3.893   4.974
21085SOL    HW264697   6.053   3.958   4.931
21086SOL     OW64698   6.460   4.185   4.359
21086SOL    HW164699   6.400   4.238   4.305
21086SOL    HW264700   6.476   4.107   4.307
21087SOL     OW64701   6.614   3.773   4.460
21087SOL    HW164702   6.547   3.770   4.392
21087SOL    HW264703   6.589   3.704   4.522
21088SOL     OW64704   7.024   4.883   4.575
21088SOL    HW164705   6.948   4.824   4.578
21088SOL    HW264706   7.047   4.888   4.482
21089SOL     OW64707   7.047   4.331   4.680
21089SOL    HW164708   6.987   4.257   4.680
21089SOL    HW264709   7.102   4.318   4.757
21090SOL     OW64710   7.411   4.540   4.093
21090SOL    HW164711   7.450   4.490   4.165
21090SOL    HW264712   7.396   4.475   4.025
21091SOL     OW64713   6.060   5.159   3.853
21091SOL    HW164714   5.989   5.121   3.904
21091SOL    HW264715   6.073   5.097   3.781
21092SOL     OW64716   7.277   4.994   4.356
21092SOL    HW164717   7.371   4.991   4.374
21092SOL    HW264718   7.250   5.081   4.383
21093SOL     OW64719   6.977   4.297   3.797
21093SOL    HW164720   6.910   4.277   3.863
21093SOL    HW264721   7.060   4.277   3.840
21094SOL     OW64722   6.103   3.981   4.020
21094SOL    HW164723   6.162   3.945   3.954
21094SOL    HW264724   6.075   4.065   3.985
21095SOL     OW64725   7.330   4.957   5.272
21095SOL    HW164726   7.419   4.922   5.266
21095SOL    HW264727   7.341   5.047   5.302
21096SOL     OW64728   6.630   5.076   5.056
21096SOL    HW164729   6.552   5.044   5.102
21096SOL    HW264730   6.703   5.036   5.103
21097SOL     OW64731   7.189   5.363   5.387
21097SOL    HW164732   7.176   5.397   5.299
21097SOL    HW264733   7.259   5.299   5.379
21098SOL     OW64734   6.742   4.938   4.837
21098SOL    HW164735   6.676   4.967   4.900
21098SOL    HW264736   6.705   4.962   4.752
21099SOL     OW64737   7.202   4.823   4.791
21099SOL    HW164738   7.191   4.884   4.864
21099SOL    HW264739   7.130   4.844   4.732
21100SOL     OW64740   6.519   3.809   5.117
21100SOL    HW164741   6.540   3.798   5.024
21100SOL    HW264742   6.596   3.852   5.154
21101SOL     OW64743   6.580   4.834   5.448
21101SOL    HW164744   6.487   4.847   5.467
21101SOL    HW264745   6.581   4.758   5.389
21102SOL     OW64746   6.296   4.788   4.096
21102SOL    HW164747   6.280   4.766   4.188
21102SOL    HW264748   6.370   4.733   4.071
21103SOL     OW64749   6.007   4.544   4.971
21103SOL    HW164750   6.066   4.559   5.045
21103SOL    HW264751   5.974   4.455   4.984
21104SOL     OW64752   6.858   4.125   4.998
21104SOL    HW164753   6.881   4.212   5.031
21104SOL    HW264754   6.766   4.132   4.975
21105SOL     OW64755   5.670   5.357   5.116
21105SOL    HW164756   5.617   5.365   5.037
21105SOL    HW264757   5.745   5.304   5.090
21106SOL     OW64758   5.930   4.838   4.221
21106SOL    HW164759   5.921   4.894   4.144
21106SOL    HW264760   5.924   4.749   4.186
21107SOL     OW64761   6.144   4.239   4.576
21107SOL    HW164762   6.157   4.302   4.505
21107SOL    HW264763   6.202   4.269   4.646
21108SOL     OW64764   6.834   5.072   4.117
21108SOL    HW164765   6.889   5.142   4.152
21108SOL    HW264766   6.746   5.093   4.149
21109SOL     OW64767   6.880   5.189   4.871
21109SOL    HW164768   6.931   5.194   4.952
21109SOL    HW264769   6.826   5.111   4.880
21110SOL     OW64770   7.160   4.346   4.199
21110SOL    HW164771   7.107   4.383   4.269
21110SOL    HW264772   7.229   4.411   4.184
21111SOL     OW64773   5.925   5.270   5.032
21111SOL    HW164774   5.908   5.221   4.951
21111SOL    HW264775   6.021   5.270   5.039
21112SOL     OW64776   6.009   4.482   5.353
21112SOL    HW164777   6.072   4.494   5.282
21112SOL    HW264778   5.986   4.389   5.349
21113SOL     OW64779   7.184   4.506   5.411
21113SOL    HW164780   7.091   4.527   5.403
21113SOL    HW264781   7.227   4.561   5.346
21114SOL     OW64782   6.578   3.872   5.465
21114SOL    HW164783   6.646   3.938   5.451
21114SOL    HW264784   6.620   3.789   5.441
21115SOL     OW64785   6.085   3.772   5.472
21115SOL    HW164786   6.033   3.715   5.416
21115SOL    HW264787   6.027   3.845   5.494
21116SOL     OW64788   6.170   4.593   4.760
21116SOL    HW164789   6.183   4.688   4.759
21116SOL    HW264790   6.112   4.577   4.835
21117SOL     OW64791   6.915   4.564   4.758
21117SOL    HW164792   6.827   4.551   4.722
21117SOL    HW264793   6.963   4.486   4.730
21118SOL     OW64794   6.778   4.250   3.980
21118SOL    HW164795   6.788   4.173   4.037
21118SOL    HW264796   6.737   4.316   4.036
21119SOL     OW64797   5.881   3.929   4.967
21119SOL    HW164798   5.823   3.957   5.038
21119SOL    HW264799   5.869   3.834   4.962
21120SOL     OW64800   5.667   5.050   5.008
21120SOL    HW164801   5.707   4.983   5.063
21120SOL    HW264802   5.576   5.055   5.039
21121SOL     OW64803   6.306   4.352   4.771
21121SOL    HW164804   6.381   4.349   4.712
21121SOL    HW264805   6.269   4.439   4.759
21122SOL     OW64806   7.318   4.686   5.583
21122SOL    HW164807   7.275   4.611   5.540
21122SOL    HW264808   7.262   4.706   5.658
21123SOL     OW64809   5.905   3.794   4.345
21123SOL    HW164810   5.871   3.880   4.368
21123SOL    HW264811   5.910   3.747   4.428
21124SOL     OW64812   7.219   4.111   4.074
21124SOL    HW164813   7.240   4.045   4.139
21124SOL    HW264814   7.188   4.186   4.124
21125SOL     OW64815   6.624   4.485   4.684
21125SOL    HW164816   6.610   4.496   4.778
21125SOL    HW264817   6.594   4.396   4.666
21126SOL     OW64818   6.584   5.311   5.442
21126SOL    HW164819   6.557   5.343   5.355
21126SOL    HW264820   6.596   5.217   5.430
21127SOL     OW64821   7.416   5.215   5.326
21127SOL    HW164822   7.452   5.245   5.243
21127SOL    HW264823   7.482   5.241   5.391
21128SOL     OW64824   5.924   4.687   5.515
21128SOL    HW164825   5.933   4.665   5.608
21128SOL    HW264826   5.962   4.612   5.469
21129SOL     OW64827   7.124   3.988   3.846
21129SOL    HW164828   7.060   3.925   3.876
21129SOL    HW264829   7.155   4.032   3.925
21130SOL     OW64830   6.868   4.547   3.749
21130SOL    HW164831   6.909   4.460   3.757
21130SOL    HW264832   6.904   4.582   3.667
21131SOL     OW64833   6.658   5.065   4.585
21131SOL    HW164834   6.664   4.991   4.524
21131SOL    HW264835   6.715   5.132   4.547
21132SOL     OW64836   5.899   4.524   4.663
21132SOL    HW164837   5.993   4.537   4.673
21132SOL    HW264838   5.882   4.439   4.703
21133SOL     OW64839   5.926   4.248   4.737
21133SOL    HW164840   5.879   4.165   4.725
21133SOL    HW264841   5.999   4.243   4.675
21134SOL     OW64842   6.719   4.143   5.378
21134SOL    HW164843   6.671   4.178   5.454
21134SOL    HW264844   6.811   4.159   5.399
21135SOL     OW64845   6.748   3.947   5.181
21135SOL    HW164846   6.730   4.008   5.253
21135SOL    HW264847   6.794   4.000   5.116
21136SOL     OW64848   5.569   5.012   3.948
21136SOL    HW164849   5.521   4.997   3.867
21136SOL    HW264850   5.591   4.924   3.980
21137SOL     OW64851   5.673   5.500   4.658
21137SOL    HW164852   5.641   5.420   4.617
21137SOL    HW264853   5.764   5.506   4.628
21138SOL     OW64854   6.074   5.296   4.609
21138SOL    HW164855   6.141   5.354   4.645
21138SOL    HW264856   6.122   5.227   4.563
21139SOL     OW64857   6.568   4.489   4.949
21139SOL    HW164858   6.622   4.449   5.019
21139SOL    HW264859   6.478   4.467   4.973
21140SOL     OW64860   5.613   4.283   4.836
21140SOL    HW164861   5.677   4.223   4.798
21140SOL    HW264862   5.638   4.288   4.929
21141SOL     OW64863   5.785   4.253   5.444
21141SOL    HW164864   5.771   4.172   5.394
21141SOL    HW264865   5.721   4.314   5.409
21142SOL     OW64866   6.941   4.662   5.324
21142SOL    HW164867   6.978   4.748   5.343
21142SOL    HW264868   6.846   4.674   5.331
21143SOL     OW64869   6.408   4.302   4.083
21143SOL    HW164870   6.409   4.223   4.029
21143SOL    HW264871   6.328   4.347   4.057
21144SOL     OW64872   7.219   4.322   4.896
21144SOL    HW164873   7.213   4.260   4.968
21144SOL    HW264874   7.308   4.312   4.863
21145SOL     OW64875   5.832   5.270   5.472
21145SOL    HW164876   5.785   5.297   5.551
21145SOL    HW264877   5.849   5.177   5.484
21146SOL     OW64878   6.320   4.172   4.977
21146SOL    HW164879   6.254   4.103   4.971
21146SOL    HW264880   6.299   4.232   4.905
21147SOL     OW64881   6.516   5.403   5.186
21147SOL    HW164882   6.486   5.357   5.108
21147SOL    HW264883   6.494   5.495   5.169
21148SOL     OW64884   6.038   4.214   3.892
21148SOL    HW164885   6.097   4.283   3.923
21148SOL    HW264886   5.952   4.255   3.888
21149SOL     OW64887   5.767   4.862   5.185
21149SOL    HW164888   5.729   4.829   5.266
21149SOL    HW264889   5.755   4.792   5.122
21150SOL     OW64890   6.915   4.743   4.960
21150SOL    HW164891   6.923   4.682   4.887
21150SOL    HW264892   6.853   4.810   4.930
21151SOL     OW64893   6.902   4.585   4.024
21151SOL    HW164894   6.832   4.550   4.080
21151SOL    HW264895   6.870   4.571   3.935
21152SOL     OW64896   7.372   5.454   4.887
21152SOL    HW164897   7.434   5.478   4.819
21152SOL    HW264898   7.340   5.367   4.862
21153SOL     OW64899   6.824   5.460   4.823
21153SOL    HW164900   6.909   5.484   4.786
21153SOL    HW264901   6.833   5.368   4.847
21154SOL     OW64902   5.678   5.013   4.733
21154SOL    HW164903   5.666   5.018   4.828
21154SOL    HW264904   5.610   4.952   4.704
21155SOL     OW64905   6.267   5.407   5.464
21155SOL    HW164906   6.202   5.477   5.457
21155SOL    HW264907   6.327   5.422   5.390
21156SOL     OW64908   7.305   3.882   4.223
21156SOL    HW164909   7.377   3.865   4.162
21156SOL    HW264910   7.288   3.797   4.265
21157SOL     OW64911   6.984   5.290   4.220
21157SOL    HW164912   7.038   5.326   4.150
21157SOL    HW264913   6.930   5.364   4.249
21158SOL     OW64914   5.709   5.561   5.588
21158SOL    HW164915   5.681   5.469   5.591
21158SOL    HW264916   5.697   5.592   5.678
21159SOL     OW64917   6.868   4.657   4.399
21159SOL    HW164918   6.940   4.594   4.407
21159SOL    HW264919   6.903   4.727   4.343
21160SOL     OW64920   6.374   5.004   5.140
21160SOL    HW164921   6.349   5.049   5.221
21160SOL    HW264922   6.297   5.009   5.085
21161SOL     OW64923   6.250   5.355   3.888
21161SOL    HW164924   6.265   5.379   3.797
21161SOL    HW264925   6.201   5.273   3.884
21162SOL     OW64926   7.202   5.453   5.117
21162SOL    HW164927   7.257   5.455   5.039
21162SOL    HW264928   7.189   5.545   5.139
21163SOL     OW64929   7.421   3.886   4.686
21163SOL    HW164930   7.451   3.798   4.663
21163SOL    HW264931   7.332   3.891   4.649
21164SOL     OW64932   5.833   4.043   4.437
21164SOL    HW164933   5.746   4.073   4.412
21164SOL    HW264934   5.829   4.035   4.532
21165SOL     OW64935   6.809   5.324   3.773
21165SOL    HW164936   6.797   5.233   3.800
21165SOL    HW264937   6.747   5.337   3.701
21166SOL     OW64938   6.416   4.733   5.102
21166SOL    HW164939   6.423   4.736   5.007
21166SOL    HW264940   6.401   4.824   5.128
21167SOL     OW64941   6.502   4.637   4.014
21167SOL    HW164942   6.563   4.670   3.949
21167SOL    HW264943   6.551   4.569   4.061
21168SOL     OW64944   7.079   5.368   3.777
21168SOL    HW164945   6.986   5.349   3.764
21168SOL    HW264946   7.116   5.371   3.688
21169SOL     OW64947   5.971   5.037   5.202
21169SOL    HW164948   5.930   5.112   5.160
21169SOL    HW264949   5.904   4.968   5.198
21170SOL     OW64950   7.184   5.006   5.003
21170SOL    HW164951   7.244   4.988   5.076
21170SOL    HW264952   7.125   5.074   5.037
21171SOL     OW64953   6.655   4.836   4.443
21171SOL    HW164954   6.580   4.787   4.477
21171SOL    HW264955   6.718   4.768   4.418
21172SOL     OW64956   6.619   3.969   4.685
21172SOL    HW164957   6.613   3.925   4.601
21172SOL    HW264958   6.612   3.899   4.750
21173SOL     OW64959   6.196   5.212   4.198
21173SOL    HW164960   6.251   5.161   4.140
21173SOL    HW264961   6.108   5.206   4.159
21174SOL     OW64962   7.308   4.130   5.091
21174SOL    HW164963   7.386   4.186   5.092
21174SOL    HW264964   7.334   4.052   5.042
21175SOL     OW64965   5.838   5.073   4.008
21175SOL    HW164966   5.746   5.052   3.990
21175SOL    HW264967   5.837   5.111   4.096
21176SOL     OW64968   5.683   4.802   5.449
21176SOL    HW164969   5.609   4.764   5.496
21176SOL    HW264970   5.759   4.751   5.479
21177SOL     OW64971   6.271   3.909   5.214
21177SOL    HW164972   6.359   3.884   5.185
21177SOL    HW264973   6.284   3.943   5.303
21178SOL     OW64974   5.674   4.038   3.753
21178SOL    HW164975   5.582   4.017   3.738
21178SOL    HW264976   5.685   4.125   3.715
21179SOL     OW64977   5.644   3.871   4.027
21179SOL    HW164978   5.629   3.957   3.990
21179SOL    HW264979   5.727   3.842   3.988
21180SOL     OW64980   6.767   5.059   3.842
21180SOL    HW164981   6.672   5.062   3.835
21180SOL    HW264982   6.784   5.050   3.936
21181SOL     OW64983   6.209   4.548   5.157
21181SOL    HW164984   6.266   4.624   5.154
21181SOL    HW264985   6.269   4.473   5.165
21182SOL     OW64986   7.071   5.520   4.715
21182SOL    HW164987   7.100   5.587   4.653
21182SOL    HW264988   7.152   5.476   4.742
21183SOL     OW64989   6.332   4.273   5.422
21183SOL    HW164990   6.293   4.312   5.500
21183SOL    HW264991   6.333   4.179   5.439
21184SOL     OW64992   7.056   4.907   5.353
21184SOL    HW164993   7.042   4.923   5.447
21184SOL    HW264994   7.149   4.928   5.340
21185SOL     OW64995   5.961   5.461   5.312
21185SOL    HW164996   5.878   5.500   5.287
21185SOL    HW264997   5.937   5.380   5.357
21186SOL     OW64998   7.207   4.596   4.958
21186SOL    HW164999   7.224   4.511   4.917
21186SOL    HW265000   7.214   4.659   4.886
21187SOL     OW65001   6.806   4.049   4.177
21187SOL    HW165002   6.864   3.972   4.175
21187SOL    HW265003   6.834   4.098   4.254
21188SOL     OW65004   6.184   4.449   4.392
21188SOL    HW165005   6.215   4.539   4.380
21188SOL    HW265006   6.112   4.441   4.331
21189SOL     OW65007   7.342   4.087   5.360
21189SOL    HW165008   7.315   4.105   5.270
21189SOL    HW265009   7.276   4.026   5.393
21190SOL     OW65010   7.255   4.680   5.218
21190SOL    HW165011   7.286   4.767   5.243
21190SOL    HW265012   7.290   4.666   5.130
21191SOL     OW65013   6.502   5.113   3.799
21191SOL    HW165014   6.432   5.097   3.862
21191SOL    HW265015   6.456   5.142   3.720
21192SOL     OW65016   6.248   5.506   4.657
21192SOL    HW165017   6.237   5.599   4.639
21192SOL    HW265018   6.343   5.491   4.651
21193SOL     OW65019   6.457   4.700   4.579
21193SOL    HW165020   6.504   4.625   4.616
21193SOL    HW265021   6.415   4.741   4.655
21194SOL     OW65022   6.664   4.714   3.815
21194SOL    HW165023   6.644   4.770   3.739
21194SOL    HW265024   6.735   4.658   3.785
21195SOL     OW65025   7.430   5.281   4.563
21195SOL    HW165026   7.347   5.268   4.517
21195SOL    HW265027   7.432   5.211   4.629
21196SOL     OW65028   5.813   5.014   5.564
21196SOL    HW165029   5.761   4.943   5.525
21196SOL    HW265030   5.775   5.025   5.651
21197SOL     OW65031   5.685   4.945   4.387
21197SOL    HW165032   5.649   4.911   4.469
21197SOL    HW265033   5.747   4.878   4.358
21198SOL     OW65034   6.273   5.148   5.352
21198SOL    HW165035   6.202   5.092   5.383
21198SOL    HW265036   6.263   5.230   5.399
21199SOL     OW65037   7.397   3.915   4.957
21199SOL    HW165038   7.388   3.823   4.984
21199SOL    HW265039   7.406   3.911   4.862
21200SOL     OW65040   6.016   4.153   4.251
21200SOL    HW165041   6.034   4.076   4.196
21200SOL    HW265042   5.960   4.119   4.322
21201SOL     OW65043   7.277   5.209   4.818
21201SOL    HW165044   7.201   5.189   4.764
21201SOL    HW265045   7.279   5.140   4.884
21202SOL     OW65046   5.945   4.287   5.014
21202SOL    HW165047   5.983   4.217   5.068
21202SOL    HW265048   5.945   4.251   4.925
21203SOL     OW65049   6.416   5.296   4.397
21203SOL    HW165050   6.373   5.338   4.323
21203SOL    HW265051   6.354   5.228   4.425
21204SOL     OW65052   7.009   3.954   4.839
21204SOL    HW165053   7.007   3.864   4.873
21204SOL    HW265054   6.964   4.006   4.906
21205SOL     OW65055   6.602   3.746   4.851
21205SOL    HW165056   6.540   3.684   4.813
21205SOL    HW265057   6.686   3.700   4.852
21206SOL     OW65058   6.360   5.054   4.046
21206SOL    HW165059   6.334   4.962   4.056
21206SOL    HW265060   6.445   5.060   4.089
21207SOL     OW65061   6.203   5.286   5.006
21207SOL    HW165062   6.202   5.364   5.060
21207SOL    HW265063   6.294   5.278   4.976
21208SOL     OW65064   6.953   3.774   3.900
21208SOL    HW165065   6.988   3.698   3.854
21208SOL    HW265066   6.862   3.752   3.918
21209SOL     OW65067   6.892   4.191   4.399
21209SOL    HW165068   6.838   4.270   4.398
21209SOL    HW265069   6.879   4.155   4.487
21210SOL     OW65070   7.162   3.912   4.609
21210SOL    HW165071   7.109   3.938   4.685
21210SOL    HW265072   7.160   3.989   4.552
21211SOL     OW65073   5.653   4.775   4.035
21211SOL    HW165074   5.744   4.756   4.013
21211SOL    HW265075   5.616   4.691   4.060
21212SOL     OW65076   6.481   5.393   4.063
21212SOL    HW165077   6.404   5.370   4.011
21212SOL    HW265078   6.451   5.462   4.122
21213SOL     OW65079   5.806   4.336   5.716
21213SOL    HW165080   5.720   4.333   5.758
21213SOL    HW265081   5.788   4.318   5.624
21214SOL     OW65082   5.587   4.112   6.224
21214SOL    HW165083   5.507   4.143   6.268
21214SOL    HW265084   5.561   4.031   6.181
21215SOL     OW65085   6.169   5.017   6.781
21215SOL    HW165086   6.083   4.998   6.744
21215SOL    HW265087   6.165   5.110   6.804
21216SOL     OW65088   7.174   5.242   6.304
21216SOL    HW165089   7.126   5.210   6.380
21216SOL    HW265090   7.108   5.247   6.235
21217SOL     OW65091   6.733   4.411   6.274
21217SOL    HW165092   6.765   4.501   6.275
21217SOL    HW265093   6.677   4.406   6.351
21218SOL     OW65094   7.377   4.322   5.805
21218SOL    HW165095   7.344   4.314   5.715
21218SOL    HW265096   7.336   4.249   5.852
21219SOL     OW65097   6.386   4.884   6.665
21219SOL    HW165098   6.304   4.892   6.713
21219SOL    HW265099   6.392   4.964   6.613
21220SOL     OW65100   6.487   4.491   7.431
21220SOL    HW165101   6.424   4.547   7.476
21220SOL    HW265102   6.493   4.527   7.343
21221SOL     OW65103   6.283   4.727   6.228
21221SOL    HW165104   6.343   4.711   6.301
21221SOL    HW265105   6.210   4.775   6.266
21222SOL     OW65106   5.923   5.127   6.643
21222SOL    HW165107   5.842   5.086   6.613
21222SOL    HW265108   5.953   5.178   6.569
21223SOL     OW65109   7.040   5.238   6.942
21223SOL    HW165110   7.099   5.311   6.961
21223SOL    HW265111   6.971   5.244   7.009
21224SOL     OW65112   6.033   4.118   7.083
21224SOL    HW165113   6.091   4.046   7.060
21224SOL    HW265114   5.947   4.078   7.093
21225SOL     OW65115   7.182   4.164   6.336
21225SOL    HW165116   7.106   4.167   6.278
21225SOL    HW265117   7.163   4.229   6.404
21226SOL     OW65118   5.829   5.468   6.018
21226SOL    HW165119   5.844   5.527   6.092
21226SOL    HW265120   5.824   5.381   6.057
21227SOL     OW65121   6.742   5.071   7.286
21227SOL    HW165122   6.773   5.065   7.377
21227SOL    HW265123   6.697   4.989   7.270
21228SOL     OW65124   5.811   5.237   6.161
21228SOL    HW165125   5.733   5.206   6.208
21228SOL    HW265126   5.861   5.158   6.143
21229SOL     OW65127   5.885   4.808   6.518
21229SOL    HW165128   5.855   4.718   6.535
21229SOL    HW265129   5.809   4.863   6.538
21230SOL     OW65130   6.189   5.498   7.030
21230SOL    HW165131   6.101   5.472   7.057
21230SOL    HW265132   6.208   5.576   7.084
21231SOL     OW65133   6.262   4.657   5.709
21231SOL    HW165134   6.218   4.713   5.646
21231SOL    HW265135   6.269   4.710   5.789
21232SOL     OW65136   7.200   3.838   7.062
21232SOL    HW165137   7.198   3.916   7.007
21232SOL    HW265138   7.159   3.865   7.144
21233SOL     OW65139   5.719   4.369   6.136
21233SOL    HW165140   5.671   4.289   6.155
21233SOL    HW265141   5.706   4.424   6.214
21234SOL     OW65142   7.435   5.471   5.909
21234SOL    HW165143   7.504   5.448   5.971
21234SOL    HW265144   7.449   5.564   5.891
21235SOL     OW65145   5.640   5.310   5.673
21235SOL    HW165146   5.620   5.218   5.688
21235SOL    HW265147   5.604   5.355   5.749
21236SOL     OW65148   7.284   4.654   6.237
21236SOL    HW165149   7.353   4.596   6.204
21236SOL    HW265150   7.253   4.701   6.159
21237SOL     OW65151   7.239   4.825   6.011
21237SOL    HW165152   7.325   4.818   5.971
21237SOL    HW265153   7.248   4.894   6.077
21238SOL     OW65154   5.699   4.465   7.162
21238SOL    HW165155   5.781   4.513   7.172
21238SOL    HW265156   5.633   4.533   7.147
21239SOL     OW65157   6.211   5.110   6.320
21239SOL    HW165158   6.173   5.025   6.344
21239SOL    HW265159   6.175   5.128   6.233
21240SOL     OW65160   6.874   4.967   6.993
21240SOL    HW165161   6.899   4.894   6.937
21240SOL    HW265162   6.926   4.956   7.072
21241SOL     OW65163   6.411   3.730   6.108
21241SOL    HW165164   6.449   3.813   6.081
21241SOL    HW265165   6.316   3.747   6.110
21242SOL     OW65166   5.773   4.676   6.865
21242SOL    HW165167   5.855   4.632   6.843
21242SOL    HW265168   5.706   4.626   6.818
21243SOL     OW65169   7.118   4.725   5.785
21243SOL    HW165170   7.048   4.667   5.816
21243SOL    HW265171   7.159   4.757   5.865
21244SOL     OW65172   6.791   5.545   7.214
21244SOL    HW165173   6.779   5.602   7.138
21244SOL    HW265174   6.793   5.457   7.176
21245SOL     OW65175   5.927   3.973   7.432
21245SOL    HW165176   5.955   4.059   7.400
21245SOL    HW265177   5.833   3.984   7.448
21246SOL     OW65178   7.044   5.125   6.525
21246SOL    HW165179   6.982   5.120   6.599
21246SOL    HW265180   7.040   5.038   6.485
21247SOL     OW65181   7.234   5.497   6.158
21247SOL    HW165182   7.211   5.455   6.075
21247SOL    HW265183   7.232   5.427   6.222
21248SOL     OW65184   6.181   4.429   5.862
21248SOL    HW165185   6.183   4.510   5.811
21248SOL    HW265186   6.110   4.441   5.925
21249SOL     OW65187   6.870   4.103   6.522
21249SOL    HW165188   6.779   4.075   6.527
21249SOL    HW265189   6.917   4.043   6.580
21250SOL     OW65190   7.163   5.398   5.903
21250SOL    HW165191   7.257   5.417   5.892
21250SOL    HW265192   7.131   5.383   5.814
21251SOL     OW65193   6.396   4.340   7.040
21251SOL    HW165194   6.369   4.309   7.127
21251SOL    HW265195   6.363   4.273   6.980
21252SOL     OW65196   6.981   4.206   7.262
21252SOL    HW165197   6.983   4.246   7.349
21252SOL    HW265198   7.029   4.123   7.273
21253SOL     OW65199   6.537   4.612   7.179
21253SOL    HW165200   6.588   4.542   7.139
21253SOL    HW265201   6.483   4.646   7.107
21254SOL     OW65202   6.593   4.124   6.808
21254SOL    HW165203   6.505   4.143   6.838
21254SOL    HW265204   6.582   4.082   6.723
21255SOL     OW65205   6.650   4.422   6.006
21255SOL    HW165206   6.664   4.409   6.100
21255SOL    HW265207   6.565   4.382   5.988
21256SOL     OW65208   5.693   4.537   6.344
21256SOL    HW165209   5.741   4.534   6.426
21256SOL    HW265210   5.613   4.585   6.364
21257SOL     OW65211   5.718   5.594   7.170
21257SOL    HW165212   5.714   5.573   7.263
21257SOL    HW265213   5.648   5.541   7.130
21258SOL     OW65214   6.473   4.063   5.782
21258SOL    HW165215   6.514   4.112   5.711
21258SOL    HW265216   6.430   3.989   5.738
21259SOL     OW65217   7.299   4.291   7.414
21259SOL    HW165218   7.262   4.366   7.369
21259SOL    HW265219   7.314   4.226   7.346
21260SOL     OW65220   6.976   4.873   6.132
21260SOL    HW165221   7.051   4.856   6.074
21260SOL    HW265222   6.917   4.926   6.079
21261SOL     OW65223   6.204   3.909   6.466
21261SOL    HW165224   6.121   3.914   6.513
21261SOL    HW265225   6.207   3.988   6.412
21262SOL     OW65226   6.599   5.189   6.071
21262SOL    HW165227   6.569   5.253   6.006
21262SOL    HW265228   6.539   5.202   6.145
21263SOL     OW65229   5.934   5.529   6.447
21263SOL    HW165230   5.966   5.438   6.448
21263SOL    HW265231   5.994   5.576   6.504
21264SOL     OW65232   7.387   4.790   6.457
21264SOL    HW165233   7.339   4.758   6.381
21264SOL    HW265234   7.323   4.791   6.528
21265SOL     OW65235   6.811   5.270   7.098
21265SOL    HW165236   6.810   5.203   7.166
21265SOL    HW265237   6.739   5.247   7.040
21266SOL     OW65238   5.932   4.641   5.787
21266SOL    HW165239   5.940   4.688   5.869
21266SOL    HW265240   5.867   4.573   5.805
21267SOL     OW65241   7.069   4.480   6.301
21267SOL    HW165242   7.061   4.432   6.383
21267SOL    HW265243   7.150   4.531   6.311
21268SOL     OW65244   6.022   4.978   7.321
21268SOL    HW165245   6.000   4.985   7.228
21268SOL    HW265246   5.938   4.970   7.365
21269SOL     OW65247   6.715   5.505   5.811
21269SOL    HW165248   6.636   5.471   5.854
21269SOL    HW265249   6.736   5.439   5.745
21270SOL     OW65250   5.766   4.026   7.136
21270SOL    HW165251   5.690   4.051   7.082
21270SOL    HW265252   5.753   3.933   7.154
21271SOL     OW65253   7.212   5.106   5.672
21271SOL    HW165254   7.167   5.191   5.664
21271SOL    HW265255   7.143   5.041   5.655
21272SOL     OW65256   6.107   5.496   5.885
21272SOL    HW165257   6.058   5.444   5.949
21272SOL    HW265258   6.158   5.432   5.836
21273SOL     OW65259   6.980   3.826   6.026
21273SOL    HW165260   6.970   3.798   5.935
21273SOL    HW265261   7.072   3.808   6.046
21274SOL     OW65262   5.867   5.526   6.810
21274SOL    HW165263   5.891   5.463   6.878
21274SOL    HW265264   5.822   5.474   6.744
21275SOL     OW65265   6.512   5.416   6.466
21275SOL    HW165266   6.521   5.346   6.530
21275SOL    HW265267   6.476   5.372   6.388
21276SOL     OW65268   5.983   4.411   6.058
21276SOL    HW165269   6.006   4.319   6.073
21276SOL    HW265270   5.889   4.416   6.075
21277SOL     OW65271   7.095   3.945   7.306
21277SOL    HW165272   7.109   3.961   7.399
21277SOL    HW265273   7.018   3.889   7.302
21278SOL     OW65274   6.247   3.840   5.680
21278SOL    HW165275   6.273   3.758   5.723
21278SOL    HW265276   6.184   3.813   5.614
21279SOL     OW65277   6.356   3.997   7.349
21279SOL    HW165278   6.436   3.945   7.343
21279SOL    HW265279   6.301   3.950   7.412
21280SOL     OW65280   6.479   5.269   6.762
21280SOL    HW165281   6.446   5.211   6.693
21280SOL    HW265282   6.532   5.212   6.818
21281SOL     OW65283   6.926   4.311   7.014
21281SOL    HW165284   6.953   4.283   7.102
21281SOL    HW265285   6.952   4.403   7.009
21282SOL     OW65286   6.410   5.128   6.530
21282SOL    HW165287   6.488   5.101   6.482
21282SOL    HW265288   6.338   5.118   6.468
21283SOL     OW65289   6.540   4.240   6.475
21283SOL    HW165290   6.503   4.229   6.387
21283SOL    HW265291   6.546   4.151   6.510
21284SOL     OW65292   6.147   3.789   6.075
21284SOL    HW165293   6.069   3.786   6.129
21284SOL    HW265294   6.134   3.865   6.018
21285SOL     OW65295   7.010   4.923   5.624
21285SOL    HW165296   7.039   4.849   5.677
21285SOL    HW265297   6.922   4.942   5.655
21286SOL     OW65298   5.871   3.784   5.762
21286SOL    HW165299   5.923   3.861   5.738
21286SOL    HW265300   5.933   3.724   5.803
21287SOL     OW65301   6.533   3.975   6.040
21287SOL    HW165302   6.507   4.005   5.953
21287SOL    HW265303   6.627   3.993   6.045
21288SOL     OW65304   6.658   4.414   7.035
21288SOL    HW165305   6.577   4.363   7.041
21288SOL    HW265306   6.727   4.349   7.029
21289SOL     OW65307   6.857   5.341   6.411
21289SOL    HW165308   6.847   5.404   6.339
21289SOL    HW265309   6.880   5.259   6.367
21290SOL     OW65310   6.085   4.871   6.349
21290SOL    HW165311   6.013   4.848   6.408
21290SOL    HW265312   6.042   4.892   6.266
21291SOL     OW65313   6.844   5.520   6.202
21291SOL    HW165314   6.890   5.584   6.148
21291SOL    HW265315   6.765   5.565   6.231
21292SOL     OW65316   6.621   4.268   5.603
21292SOL    HW165317   6.567   4.347   5.601
21292SOL    HW265318   6.667   4.272   5.687
21293SOL     OW65319   5.683   4.287   6.955
21293SOL    HW165320   5.776   4.286   6.934
21293SOL    HW265321   5.675   4.348   7.028
21294SOL     OW65322   6.174   3.957   6.796
21294SOL    HW165323   6.189   3.863   6.798
21294SOL    HW265324   6.079   3.967   6.799
21295SOL     OW65325   6.459   4.186   6.222
21295SOL    HW165326   6.382   4.229   6.185
21295SOL    HW265327   6.474   4.111   6.165
21296SOL     OW65328   6.613   3.776   6.324
21296SOL    HW165329   6.545   3.778   6.256
21296SOL    HW265330   6.586   3.706   6.383
21297SOL     OW65331   7.008   4.878   6.419
21297SOL    HW165332   6.950   4.804   6.438
21297SOL    HW265333   7.013   4.881   6.323
21298SOL     OW65334   7.049   4.332   6.539
21298SOL    HW165335   6.984   4.263   6.545
21298SOL    HW265336   7.100   4.325   6.620
21299SOL     OW65337   7.430   4.531   5.975
21299SOL    HW165338   7.484   4.479   6.035
21299SOL    HW265339   7.401   4.468   5.909
21300SOL     OW65340   6.083   5.154   5.713
21300SOL    HW165341   6.005   5.147   5.768
21300SOL    HW265342   6.069   5.091   5.642
21301SOL     OW65343   7.283   5.004   6.201
21301SOL    HW165344   7.374   4.995   6.228
21301SOL    HW265345   7.255   5.087   6.240
21302SOL     OW65346   6.977   4.283   5.658
21302SOL    HW165347   6.906   4.269   5.721
21302SOL    HW265348   7.050   4.231   5.692
21303SOL     OW65349   6.113   3.984   5.883
21303SOL    HW165350   6.163   3.942   5.813
21303SOL    HW265351   6.083   4.066   5.844
21304SOL     OW65352   7.325   4.971   7.131
21304SOL    HW165353   7.411   4.932   7.119
21304SOL    HW265354   7.343   5.058   7.167
21305SOL     OW65355   6.632   5.108   6.941
21305SOL    HW165356   6.553   5.062   6.968
21305SOL    HW265357   6.704   5.048   6.963
21306SOL     OW65358   7.193   5.360   7.248
21306SOL    HW165359   7.185   5.395   7.160
21306SOL    HW265360   7.273   5.306   7.245
21307SOL     OW65361   6.707   4.942   6.683
21307SOL    HW165362   6.623   4.913   6.720
21307SOL    HW265363   6.687   4.964   6.592
21308SOL     OW65364   7.208   4.820   6.664
21308SOL    HW165365   7.202   4.880   6.738
21308SOL    HW265366   7.120   4.822   6.625
21309SOL     OW65367   6.517   3.804   6.981
21309SOL    HW165368   6.529   3.797   6.887
21309SOL    HW265369   6.595   3.850   7.012
21310SOL     OW65370   6.589   4.845   7.301
21310SOL    HW165371   6.501   4.880   7.305
21310SOL    HW265372   6.580   4.762   7.255
21311SOL     OW65373   6.308   4.798   5.946
21311SOL    HW165374   6.272   4.778   6.032
21311SOL    HW265375   6.390   4.748   5.941
21312SOL     OW65376   6.016   4.541   6.839
21312SOL    HW165377   6.077   4.549   6.911
21312SOL    HW265378   5.981   4.452   6.847
21313SOL     OW65379   6.854   4.095   6.867
21313SOL    HW165380   6.883   4.174   6.912
21313SOL    HW265381   6.763   4.112   6.842
21314SOL     OW65382   5.660   5.314   6.962
21314SOL    HW165383   5.621   5.359   6.887
21314SOL    HW265384   5.748   5.290   6.932
21315SOL     OW65385   6.195   4.290   6.450
21315SOL    HW165386   6.192   4.333   6.365
21315SOL    HW265387   6.159   4.355   6.511
21316SOL     OW65388   6.835   5.078   5.983
21316SOL    HW165389   6.892   5.146   6.017
21316SOL    HW265390   6.748   5.101   6.015
21317SOL     OW65391   6.871   5.164   6.733
21317SOL    HW165392   6.911   5.158   6.820
21317SOL    HW265393   6.805   5.094   6.733
21318SOL     OW65394   7.160   4.347   6.068
21318SOL    HW165395   7.112   4.377   6.145
21318SOL    HW265396   7.161   4.423   6.010
21319SOL     OW65397   5.921   5.249   6.881
21319SOL    HW165398   5.908   5.198   6.800
21319SOL    HW265399   6.015   5.265   6.884
21320SOL     OW65400   6.004   4.466   7.197
21320SOL    HW165401   6.075   4.493   7.138
21320SOL    HW265402   5.999   4.371   7.188
21321SOL     OW65403   7.204   4.507   7.280
21321SOL    HW165404   7.116   4.544   7.273
21321SOL    HW265405   7.252   4.546   7.208
21322SOL     OW65406   6.590   3.859   7.339
21322SOL    HW165407   6.646   3.934   7.318
21322SOL    HW265408   6.644   3.782   7.321
21323SOL     OW65409   6.071   3.756   7.352
21323SOL    HW165410   6.027   3.710   7.280
21323SOL    HW265411   6.016   3.832   7.369
21324SOL     OW65412   6.161   4.579   6.613
21324SOL    HW165413   6.135   4.663   6.576
21324SOL    HW265414   6.106   4.569   6.691
21325SOL     OW65415   6.910   4.579   6.596
21325SOL    HW165416   6.820   4.555   6.573
21325SOL    HW265417   6.960   4.498   6.582
21326SOL     OW65418   6.779   4.248   5.840
21326SOL    HW165419   6.787   4.170   5.895
21326SOL    HW265420   6.737   4.313   5.896
21327SOL     OW65421   5.903   3.946   6.873
21327SOL    HW165422   5.823   3.915   6.915
21327SOL    HW265423   5.888   3.935   6.779
21328SOL     OW65424   5.669   5.040   6.854
21328SOL    HW165425   5.691   4.972   6.919
21328SOL    HW265426   5.621   5.106   6.904
21329SOL     OW65427   6.357   4.395   6.666
21329SOL    HW165428   6.362   4.340   6.588
21329SOL    HW265429   6.290   4.460   6.646
21330SOL     OW65430   7.329   4.687   7.450
21330SOL    HW165431   7.289   4.617   7.399
21330SOL    HW265432   7.265   4.705   7.520
21331SOL     OW65433   5.905   3.792   6.197
21331SOL    HW165434   5.873   3.881   6.216
21331SOL    HW265435   5.904   3.747   6.281
21332SOL     OW65436   7.224   4.112   5.939
21332SOL    HW165437   7.249   4.043   6.000
21332SOL    HW265438   7.194   4.184   5.994
21333SOL     OW65439   6.641   4.483   6.550
21333SOL    HW165440   6.615   4.504   6.640
21333SOL    HW265441   6.603   4.397   6.534
21334SOL     OW65442   6.574   5.289   7.311
21334SOL    HW165443   6.556   5.333   7.229
21334SOL    HW265444   6.619   5.208   7.286
21335SOL     OW65445   7.429   5.227   7.187
21335SOL    HW165446   7.456   5.252   7.099
21335SOL    HW265447   7.507   5.236   7.241
21336SOL     OW65448   5.918   4.659   7.373
21336SOL    HW165449   5.937   4.629   7.462
21336SOL    HW265450   5.953   4.589   7.317
21337SOL     OW65451   7.107   4.004   5.712
21337SOL    HW165452   7.048   3.933   5.739
21337SOL    HW265453   7.146   4.035   5.793
21338SOL     OW65454   6.877   4.539   5.610
21338SOL    HW165455   6.910   4.451   5.628
21338SOL    HW265456   6.908   4.559   5.522
21339SOL     OW65457   6.651   5.063   6.422
21339SOL    HW165458   6.648   4.976   6.381
21339SOL    HW265459   6.685   5.121   6.354
21340SOL     OW65460   5.872   4.522   6.552
21340SOL    HW165461   5.963   4.516   6.523
21340SOL    HW265462   5.851   4.433   6.582
21341SOL     OW65463   5.957   4.237   6.594
21341SOL    HW165464   5.916   4.150   6.598
21341SOL    HW265465   6.023   4.230   6.525
21342SOL     OW65466   6.726   4.094   7.270
21342SOL    HW165467   6.672   4.145   7.331
21342SOL    HW265468   6.808   4.143   7.265
21343SOL     OW65469   6.756   3.919   7.058
21343SOL    HW165470   6.737   3.983   7.128
21343SOL    HW265471   6.792   3.972   6.987
21344SOL     OW65472   5.592   5.046   5.762
21344SOL    HW165473   5.502   5.059   5.733
21344SOL    HW265474   5.591   4.962   5.808
21345SOL     OW65475   5.669   5.499   6.525
21345SOL    HW165476   5.633   5.421   6.482
21345SOL    HW265477   5.758   5.505   6.490
21346SOL     OW65478   6.075   5.299   6.477
21346SOL    HW165479   6.145   5.359   6.501
21346SOL    HW265480   6.118   5.232   6.422
21347SOL     OW65481   6.553   4.532   6.804
21347SOL    HW165482   6.590   4.493   6.883
21347SOL    HW265483   6.480   4.475   6.781
21348SOL     OW65484   5.623   4.269   6.687
21348SOL    HW165485   5.642   4.179   6.659
21348SOL    HW265486   5.643   4.270   6.780
21349SOL     OW65487   5.778   4.241   7.314
21349SOL    HW165488   5.776   4.169   7.251
21349SOL    HW265489   5.737   4.314   7.268
21350SOL     OW65490   6.972   4.651   7.244
21350SOL    HW165491   6.989   4.745   7.237
21350SOL    HW265492   6.962   4.622   7.154
21351SOL     OW65493   6.419   4.307   5.927
21351SOL    HW165494   6.410   4.221   5.885
21351SOL    HW265495   6.335   4.351   5.911
21352SOL     OW65496   7.218   4.330   6.760
21352SOL    HW165497   7.204   4.269   6.832
21352SOL    HW265498   7.308   4.311   6.730
21353SOL     OW65499   5.831   5.269   7.318
21353SOL    HW165500   5.798   5.333   7.380
21353SOL    HW265501   5.817   5.184   7.361
21354SOL     OW65502   6.327   4.170   6.845
21354SOL    HW165503   6.270   4.095   6.831
21354SOL    HW265504   6.301   4.233   6.777
21355SOL     OW65505   6.515   5.406   7.065
21355SOL    HW165506   6.468   5.360   6.996
21355SOL    HW265507   6.497   5.498   7.049
21356SOL     OW65508   6.046   4.214   5.753
21356SOL    HW165509   6.099   4.285   5.790
21356SOL    HW265510   5.958   4.251   5.746
21357SOL     OW65511   5.758   4.867   7.053
21357SOL    HW165512   5.732   4.827   7.136
21357SOL    HW265513   5.759   4.795   6.991
21358SOL     OW65514   6.906   4.772   6.788
21358SOL    HW165515   6.911   4.700   6.725
21358SOL    HW265516   6.836   4.828   6.756
21359SOL     OW65517   6.908   4.580   5.892
21359SOL    HW165518   6.840   4.548   5.951
21359SOL    HW265519   6.870   4.571   5.805
21360SOL     OW65520   7.346   5.462   6.723
21360SOL    HW165521   7.418   5.481   6.664
21360SOL    HW265522   7.329   5.368   6.711
21361SOL     OW65523   5.679   5.011   6.582
21361SOL    HW165524   5.659   5.014   6.676
21361SOL    HW265525   5.614   4.951   6.546
21362SOL     OW65526   6.259   5.378   7.328
21362SOL    HW165527   6.202   5.455   7.320
21362SOL    HW265528   6.337   5.401   7.278
21363SOL     OW65529   7.326   3.893   6.091
21363SOL    HW165530   7.391   3.873   6.024
21363SOL    HW265531   7.302   3.808   6.128
21364SOL     OW65532   6.986   5.294   6.098
21364SOL    HW165533   7.038   5.323   6.023
21364SOL    HW265534   6.929   5.368   6.117
21365SOL     OW65535   5.716   5.520   7.429
21365SOL    HW165536   5.669   5.451   7.476
21365SOL    HW265537   5.767   5.564   7.497
21366SOL     OW65538   6.864   4.655   6.257
21366SOL    HW165539   6.935   4.592   6.266
21366SOL    HW265540   6.900   4.723   6.201
21367SOL     OW65541   6.375   5.010   6.990
21367SOL    HW165542   6.340   5.042   7.073
21367SOL    HW265543   6.301   5.012   6.930
21368SOL     OW65544   6.275   5.340   5.731
21368SOL    HW165545   6.278   5.362   5.638
21368SOL    HW265546   6.215   5.266   5.737
21369SOL     OW65547   7.203   5.459   6.976
21369SOL    HW165548   7.257   5.461   6.897
21369SOL    HW265549   7.189   5.551   6.999
21370SOL     OW65550   7.432   3.896   6.548
21370SOL    HW165551   7.460   3.808   6.525
21370SOL    HW265552   7.343   3.903   6.512
21371SOL     OW65553   5.847   4.047   6.282
21371SOL    HW165554   5.756   4.077   6.271
21371SOL    HW265555   5.853   4.023   6.374
21372SOL     OW65556   6.795   5.320   5.623
21372SOL    HW165557   6.782   5.230   5.654
21372SOL    HW265558   6.727   5.332   5.557
21373SOL     OW65559   6.408   4.731   6.969
21373SOL    HW165560   6.441   4.705   6.884
21373SOL    HW265561   6.399   4.826   6.963
21374SOL     OW65562   6.540   4.665   5.905
21374SOL    HW165563   6.592   4.685   5.828
21374SOL    HW265564   6.571   4.579   5.933
21375SOL     OW65565   7.069   5.363   5.638
21375SOL    HW165566   6.976   5.345   5.625
21375SOL    HW265567   7.106   5.369   5.550
21376SOL     OW65568   5.968   5.040   7.066
21376SOL    HW165569   5.941   5.113   7.011
21376SOL    HW265570   5.899   4.974   7.054
21377SOL     OW65571   7.188   5.008   6.872
21377SOL    HW165572   7.240   4.987   6.950
21377SOL    HW265573   7.127   5.076   6.902
21378SOL     OW65574   6.650   4.826   6.308
21378SOL    HW165575   6.574   4.777   6.342
21378SOL    HW265576   6.711   4.758   6.280
21379SOL     OW65577   6.621   3.969   6.551
21379SOL    HW165578   6.610   3.926   6.466
21379SOL    HW265579   6.608   3.899   6.615
21380SOL     OW65580   6.175   5.222   6.046
21380SOL    HW165581   6.230   5.174   5.985
21380SOL    HW265582   6.095   5.170   6.053
21381SOL     OW65583   7.310   4.113   6.964
21381SOL    HW165584   7.383   4.176   6.965
21381SOL    HW265585   7.340   4.042   6.907
21382SOL     OW65586   5.849   5.120   5.846
21382SOL    HW165587   5.755   5.103   5.846
21382SOL    HW265588   5.882   5.072   5.922
21383SOL     OW65589   5.691   4.800   7.316
21383SOL    HW165590   5.616   4.760   7.359
21383SOL    HW265591   5.765   4.743   7.339
21384SOL     OW65592   6.271   3.896   7.094
21384SOL    HW165593   6.356   3.884   7.053
21384SOL    HW265594   6.290   3.945   7.175
21385SOL     OW65595   5.666   4.031   5.611
21385SOL    HW165596   5.579   3.992   5.604
21385SOL    HW265597   5.653   4.124   5.591
21386SOL     OW65598   7.004   4.585   6.981
21386SOL    HW165599   6.953   4.641   6.923
21386SOL    HW265600   7.092   4.585   6.942
21387SOL     OW65601   5.644   3.871   5.888
21387SOL    HW165602   5.624   3.959   5.856
21387SOL    HW265603   5.725   3.847   5.843
21388SOL     OW65604   6.762   5.057   5.706
21388SOL    HW165605   6.673   5.022   5.703
21388SOL    HW265606   6.786   5.052   5.799
21389SOL     OW65607   6.212   4.544   7.029
21389SOL    HW165608   6.269   4.620   7.013
21389SOL    HW265609   6.272   4.470   7.032
21390SOL     OW65610   7.097   5.510   6.593
21390SOL    HW165611   7.111   5.580   6.530
21390SOL    HW265612   7.182   5.498   6.635
21391SOL     OW65613   6.335   4.264   7.287
21391SOL    HW165614   6.332   4.308   7.372
21391SOL    HW265615   6.334   4.170   7.308
21392SOL     OW65616   7.056   4.916   7.210
21392SOL    HW165617   7.045   4.931   7.304
21392SOL    HW265618   7.148   4.936   7.192
21393SOL     OW65619   5.943   5.437   7.119
21393SOL    HW165620   5.876   5.505   7.131
21393SOL    HW265621   5.916   5.366   7.177
21394SOL     OW65622   7.246   4.599   6.842
21394SOL    HW165623   7.239   4.512   6.802
21394SOL    HW265624   7.239   4.660   6.769
21395SOL     OW65625   6.811   4.049   6.037
21395SOL    HW165626   6.866   3.971   6.034
21395SOL    HW265627   6.840   4.096   6.115
21396SOL     OW65628   6.178   4.466   6.245
21396SOL    HW165629   6.211   4.554   6.225
21396SOL    HW265630   6.106   4.453   6.183
21397SOL     OW65631   7.328   4.082   7.237
21397SOL    HW165632   7.316   4.099   7.144
21397SOL    HW265633   7.254   4.026   7.261
21398SOL     OW65634   7.342   4.652   7.093
21398SOL    HW165635   7.323   4.745   7.106
21398SOL    HW265636   7.316   4.635   7.003
21399SOL     OW65637   6.460   5.095   5.646
21399SOL    HW165638   6.420   5.088   5.733
21399SOL    HW265639   6.444   5.185   5.620
21400SOL     OW65640   6.249   5.513   6.513
21400SOL    HW165641   6.233   5.607   6.501
21400SOL    HW265642   6.343   5.503   6.497
21401SOL     OW65643   6.456   4.699   6.453
21401SOL    HW165644   6.494   4.617   6.485
21401SOL    HW265645   6.420   4.740   6.531
21402SOL     OW65646   6.697   4.739   5.684
21402SOL    HW165647   6.646   4.768   5.609
21402SOL    HW265648   6.745   4.663   5.652
21403SOL     OW65649   7.437   5.274   6.422
21403SOL    HW165650   7.351   5.263   6.382
21403SOL    HW265651   7.444   5.203   6.485
21404SOL     OW65652   5.780   5.026   7.436
21404SOL    HW165653   5.744   4.950   7.390
21404SOL    HW265654   5.725   5.034   7.514
21405SOL     OW65655   5.686   4.972   6.261
21405SOL    HW165656   5.659   4.901   6.319
21405SOL    HW265657   5.759   4.935   6.210
21406SOL     OW65658   6.255   5.111   7.223
21406SOL    HW165659   6.164   5.094   7.198
21406SOL    HW265660   6.254   5.202   7.255
21407SOL     OW65661   7.399   3.904   6.819
21407SOL    HW165662   7.395   3.809   6.829
21407SOL    HW265663   7.410   3.918   6.724
21408SOL     OW65664   6.038   4.152   6.114
21408SOL    HW165665   6.047   4.082   6.050
21408SOL    HW265666   5.972   4.120   6.176
21409SOL     OW65667   7.275   5.203   6.678
21409SOL    HW165668   7.202   5.168   6.626
21409SOL    HW265669   7.288   5.138   6.747
21410SOL     OW65670   5.943   4.283   6.873
21410SOL    HW165671   5.979   4.214   6.928
21410SOL    HW265672   5.947   4.247   6.784
21411SOL     OW65673   6.402   5.290   6.248
21411SOL    HW165674   6.356   5.335   6.177
21411SOL    HW265675   6.341   5.222   6.276
21412SOL     OW65676   7.008   3.946   6.700
21412SOL    HW165677   6.991   3.855   6.725
21412SOL    HW265678   6.962   3.998   6.766
21413SOL     OW65679   6.600   3.744   6.717
21413SOL    HW165680   6.540   3.681   6.677
21413SOL    HW265681   6.684   3.698   6.720
21414SOL     OW65682   6.366   5.063   5.904
21414SOL    HW165683   6.320   4.979   5.906
21414SOL    HW265684   6.441   5.051   5.963
21415SOL     OW65685   6.205   5.282   6.865
21415SOL    HW165686   6.200   5.358   6.922
21415SOL    HW265687   6.290   5.290   6.822
21416SOL     OW65688   6.949   3.770   5.754
21416SOL    HW165689   6.986   3.693   5.710
21416SOL    HW265690   6.858   3.746   5.772
21417SOL     OW65691   6.901   4.189   6.262
21417SOL    HW165692   6.844   4.266   6.257
21417SOL    HW265693   6.885   4.152   6.349
21418SOL     OW65694   7.171   3.916   6.475
21418SOL    HW165695   7.115   3.938   6.550
21418SOL    HW265696   7.166   3.992   6.417
21419SOL     OW65697   5.635   4.809   5.900
21419SOL    HW165698   5.722   4.820   5.938
21419SOL    HW265699   5.620   4.714   5.903
21420SOL     OW65700   6.482   5.392   5.919
21420SOL    HW165701   6.410   5.365   5.863
21420SOL    HW265702   6.445   5.458   5.977
21421SOL     OW65703   5.813   4.353   7.569
21421SOL    HW165704   5.726   4.347   7.608
21421SOL    HW265705   5.801   4.323   7.479
21422SOL     OW65706   5.804   4.010   8.442
21422SOL    HW165707   5.832   3.965   8.522
21422SOL    HW265708   5.714   3.979   8.427
21423SOL     OW65709   5.587   4.126   8.096
21423SOL    HW165710   5.506   4.158   8.136
21423SOL    HW265711   5.563   4.042   8.058
21424SOL     OW65712   6.140   5.007   8.607
21424SOL    HW165713   6.062   5.034   8.558
21424SOL    HW265714   6.150   5.075   8.674
21425SOL     OW65715   7.167   5.245   8.159
21425SOL    HW165716   7.121   5.214   8.236
21425SOL    HW265717   7.101   5.247   8.090
21426SOL     OW65718   6.732   4.418   8.140
21426SOL    HW165719   6.772   4.504   8.128
21426SOL    HW265720   6.678   4.427   8.218
21427SOL     OW65721   7.374   4.322   7.671
21427SOL    HW165722   7.345   4.317   7.580
21427SOL    HW265723   7.333   4.247   7.714
21428SOL     OW65724   6.367   4.879   8.523
21428SOL    HW165725   6.282   4.896   8.563
21428SOL    HW265726   6.387   4.960   8.475
21429SOL     OW65727   6.469   4.486   9.274
21429SOL    HW165728   6.453   4.557   9.336
21429SOL    HW265729   6.486   4.531   9.190
21430SOL     OW65730   6.277   4.719   8.093
21430SOL    HW165731   6.337   4.716   8.167
21430SOL    HW265732   6.204   4.773   8.123
21431SOL     OW65733   6.302   4.877   9.277
21431SOL    HW165734   6.349   4.958   9.296
21431SOL    HW265735   6.220   4.906   9.237
21432SOL     OW65736   5.933   5.134   8.448
21432SOL    HW165737   5.856   5.086   8.479
21432SOL    HW265738   5.917   5.146   8.355
21433SOL     OW65739   7.040   5.226   8.813
21433SOL    HW165740   7.094   5.305   8.824
21433SOL    HW265741   6.969   5.236   8.876
21434SOL     OW65742   6.036   4.107   8.929
21434SOL    HW165743   6.102   4.037   8.930
21434SOL    HW265744   5.953   4.062   8.940
21435SOL     OW65745   7.184   4.161   8.196
21435SOL    HW165746   7.108   4.167   8.137
21435SOL    HW265747   7.173   4.234   8.257
21436SOL     OW65748   5.798   5.450   7.895
21436SOL    HW165749   5.832   5.515   7.956
21436SOL    HW265750   5.873   5.426   7.841
21437SOL     OW65751   6.726   5.064   9.144
21437SOL    HW165752   6.761   5.054   9.232
21437SOL    HW265753   6.674   4.986   9.129
21438SOL     OW65754   5.852   5.209   8.082
21438SOL    HW165755   5.816   5.251   8.003
21438SOL    HW265756   5.805   5.126   8.089
21439SOL     OW65757   5.879   4.816   8.364
21439SOL    HW165758   5.862   4.725   8.388
21439SOL    HW265759   5.798   4.862   8.386
21440SOL     OW65760   6.230   5.523   8.890
21440SOL    HW165761   6.150   5.474   8.875
21440SOL    HW265762   6.200   5.609   8.919
21441SOL     OW65763   6.197   4.781   7.576
21441SOL    HW165764   6.115   4.733   7.587
21441SOL    HW265765   6.236   4.781   7.664
21442SOL     OW65766   7.181   3.849   8.918
21442SOL    HW165767   7.211   3.927   8.870
21442SOL    HW265768   7.153   3.883   9.003
21443SOL     OW65769   5.715   4.368   8.001
21443SOL    HW165770   5.669   4.285   8.014
21443SOL    HW265771   5.702   4.416   8.082
21444SOL     OW65772   7.432   5.476   7.777
21444SOL    HW165773   7.503   5.452   7.837
21444SOL    HW265774   7.451   5.567   7.752
21445SOL     OW65775   5.626   5.316   7.575
21445SOL    HW165776   5.607   5.222   7.585
21445SOL    HW265777   5.588   5.356   7.653
21446SOL     OW65778   7.287   4.651   8.092
21446SOL    HW165779   7.349   4.594   8.047
21446SOL    HW265780   7.250   4.706   8.023
21447SOL     OW65781   7.234   4.828   7.877
21447SOL    HW165782   7.320   4.824   7.835
21447SOL    HW265783   7.243   4.895   7.944
21448SOL     OW65784   5.703   4.473   9.036
21448SOL    HW165785   5.785   4.521   9.026
21448SOL    HW265786   5.635   4.537   9.015
21449SOL     OW65787   6.204   5.119   8.186
21449SOL    HW165788   6.160   5.035   8.199
21449SOL    HW265789   6.182   5.144   8.097
21450SOL     OW65790   6.865   4.961   8.864
21450SOL    HW165791   6.890   4.891   8.804
21450SOL    HW265792   6.924   4.952   8.939
21451SOL     OW65793   6.419   3.752   7.956
21451SOL    HW165794   6.450   3.839   7.929
21451SOL    HW265795   6.324   3.761   7.960
21452SOL     OW65796   5.769   4.679   8.746
21452SOL    HW165797   5.854   4.644   8.719
21452SOL    HW265798   5.708   4.650   8.679
21453SOL     OW65799   7.119   4.726   7.647
21453SOL    HW165800   7.049   4.667   7.677
21453SOL    HW265801   7.158   4.759   7.728
21454SOL     OW65802   6.779   5.543   9.078
21454SOL    HW165803   6.772   5.600   9.002
21454SOL    HW265804   6.787   5.455   9.041
21455SOL     OW65805   5.919   3.968   9.293
21455SOL    HW165806   5.961   4.051   9.270
21455SOL    HW265807   5.825   3.988   9.293
21456SOL     OW65808   7.051   5.143   8.387
21456SOL    HW165809   6.986   5.158   8.455
21456SOL    HW265810   7.037   5.053   8.359
21457SOL     OW65811   7.231   5.496   8.021
21457SOL    HW165812   7.214   5.459   7.934
21457SOL    HW265813   7.220   5.422   8.081
21458SOL     OW65814   6.171   4.448   7.739
21458SOL    HW165815   6.133   4.522   7.693
21458SOL    HW265816   6.114   4.434   7.815
21459SOL     OW65817   6.865   4.100   8.384
21459SOL    HW165818   6.777   4.064   8.384
21459SOL    HW265819   6.914   4.042   8.443
21460SOL     OW65820   7.164   5.404   7.761
21460SOL    HW165821   7.257   5.422   7.750
21460SOL    HW265822   7.133   5.387   7.672
21461SOL     OW65823   6.385   4.338   8.891
21461SOL    HW165824   6.354   4.314   8.979
21461SOL    HW265825   6.349   4.270   8.834
21462SOL     OW65826   6.975   4.205   9.120
21462SOL    HW165827   6.979   4.250   9.205
21462SOL    HW265828   7.035   4.131   9.129
21463SOL     OW65829   6.532   4.614   9.031
21463SOL    HW165830   6.585   4.545   8.991
21463SOL    HW265831   6.484   4.653   8.958
21464SOL     OW65832   6.583   4.122   8.674
21464SOL    HW165833   6.493   4.139   8.700
21464SOL    HW265834   6.577   4.090   8.584
21465SOL     OW65835   6.646   4.421   7.869
21465SOL    HW165836   6.661   4.411   7.963
21465SOL    HW265837   6.560   4.382   7.855
21466SOL     OW65838   5.681   4.514   8.223
21466SOL    HW165839   5.745   4.536   8.291
21466SOL    HW265840   5.620   4.587   8.223
21467SOL     OW65841   5.705   5.603   9.036
21467SOL    HW165842   5.692   5.590   9.131
21467SOL    HW265843   5.652   5.534   8.996
21468SOL     OW65844   6.469   4.079   7.644
21468SOL    HW165845   6.517   4.125   7.575
21468SOL    HW265846   6.416   4.014   7.598
21469SOL     OW65847   7.291   4.295   9.283
21469SOL    HW165848   7.260   4.370   9.232
21469SOL    HW265849   7.315   4.230   9.217
21470SOL     OW65850   6.973   4.872   7.994
21470SOL    HW165851   7.047   4.856   7.935
21470SOL    HW265852   6.915   4.929   7.944
21471SOL     OW65853   6.133   3.894   8.340
21471SOL    HW165854   6.128   3.953   8.415
21471SOL    HW265855   6.120   3.952   8.264
21472SOL     OW65856   6.586   5.178   7.915
21472SOL    HW165857   6.555   5.252   7.862
21472SOL    HW265858   6.547   5.192   8.001
21473SOL     OW65859   5.925   5.548   8.330
21473SOL    HW165860   5.980   5.469   8.330
21473SOL    HW265861   5.987   5.620   8.341
21474SOL     OW65862   7.393   4.782   8.314
21474SOL    HW165863   7.344   4.751   8.238
21474SOL    HW265864   7.329   4.784   8.385
21475SOL     OW65865   6.809   5.266   8.965
21475SOL    HW165866   6.802   5.194   9.026
21475SOL    HW265867   6.744   5.247   8.897
21476SOL     OW65868   5.972   4.641   7.663
21476SOL    HW165869   5.954   4.702   7.734
21476SOL    HW265870   5.903   4.575   7.670
21477SOL     OW65871   7.073   4.482   8.164
21477SOL    HW165872   7.067   4.437   8.249
21477SOL    HW265873   7.154   4.533   8.170
21478SOL     OW65874   6.051   4.988   9.204
21478SOL    HW165875   6.029   4.992   9.111
21478SOL    HW265876   5.966   4.979   9.248
21479SOL     OW65877   6.721   5.496   7.687
21479SOL    HW165878   6.637   5.467   7.722
21479SOL    HW265879   6.741   5.433   7.617
21480SOL     OW65880   5.768   4.023   8.958
21480SOL    HW165881   5.706   4.081   8.915
21480SOL    HW265882   5.721   3.941   8.969
21481SOL     OW65883   7.217   5.111   7.546
21481SOL    HW165884   7.173   5.194   7.529
21481SOL    HW265885   7.152   5.044   7.522
21482SOL     OW65886   6.046   5.469   7.760
21482SOL    HW165887   6.096   5.518   7.825
21482SOL    HW265888   6.112   5.424   7.708
21483SOL     OW65889   6.987   3.837   7.888
21483SOL    HW165890   6.975   3.809   7.797
21483SOL    HW265891   7.081   3.830   7.902
21484SOL     OW65892   5.850   5.535   8.642
21484SOL    HW165893   5.891   5.471   8.700
21484SOL    HW265894   5.848   5.491   8.557
21485SOL     OW65895   6.552   5.395   8.315
21485SOL    HW165896   6.603   5.325   8.356
21485SOL    HW265897   6.497   5.349   8.251
21486SOL     OW65898   5.987   4.400   7.934
21486SOL    HW165899   6.003   4.307   7.949
21486SOL    HW265900   5.892   4.410   7.944
21487SOL     OW65901   7.101   3.953   9.169
21487SOL    HW165902   7.117   3.966   9.263
21487SOL    HW265903   7.019   3.904   9.165
21488SOL     OW65904   6.244   3.839   7.546
21488SOL    HW165905   6.282   3.757   7.579
21488SOL    HW265906   6.178   3.811   7.483
21489SOL     OW65907   6.358   3.993   9.223
21489SOL    HW165908   6.436   3.939   9.209
21489SOL    HW265909   6.368   4.026   9.313
21490SOL     OW65910   6.510   5.287   8.608
21490SOL    HW165911   6.467   5.231   8.544
21490SOL    HW265912   6.555   5.226   8.666
21491SOL     OW65913   6.917   4.313   8.874
21491SOL    HW165914   6.948   4.284   8.960
21491SOL    HW265915   6.951   4.401   8.864
21492SOL     OW65916   6.406   5.125   8.398
21492SOL    HW165917   6.485   5.104   8.349
21492SOL    HW265918   6.336   5.120   8.333
21493SOL     OW65919   6.521   4.236   8.342
21493SOL    HW165920   6.492   4.230   8.251
21493SOL    HW265921   6.544   4.146   8.366
21494SOL     OW65922   6.149   3.793   7.944
21494SOL    HW165923   6.066   3.788   7.992
21494SOL    HW265924   6.137   3.865   7.883
21495SOL     OW65925   7.019   4.927   7.485
21495SOL    HW165926   7.049   4.850   7.534
21495SOL    HW265927   6.932   4.945   7.519
21496SOL     OW65928   5.868   3.781   7.627
21496SOL    HW165929   5.913   3.848   7.575
21496SOL    HW265930   5.938   3.727   7.662
21497SOL     OW65931   6.536   3.998   7.899
21497SOL    HW165932   6.509   4.024   7.811
21497SOL    HW265933   6.631   4.009   7.900
21498SOL     OW65934   6.659   4.413   8.902
21498SOL    HW165935   6.587   4.350   8.901
21498SOL    HW265936   6.738   4.360   8.891
21499SOL     OW65937   6.819   5.287   8.233
21499SOL    HW165938   6.832   5.358   8.170
21499SOL    HW265939   6.889   5.299   8.297
21500SOL     OW65940   6.068   4.880   8.177
21500SOL    HW165941   6.001   4.858   8.243
21500SOL    HW265942   6.022   4.871   8.093
21501SOL     OW65943   6.854   5.514   8.058
21501SOL    HW165944   6.905   5.575   8.004
21501SOL    HW265945   6.773   5.562   8.078
21502SOL     OW65946   6.617   4.250   7.474
21502SOL    HW165947   6.573   4.334   7.457
21502SOL    HW265948   6.673   4.268   7.549
21503SOL     OW65949   5.705   4.288   8.835
21503SOL    HW165950   5.797   4.300   8.810
21503SOL    HW265951   5.689   4.355   8.901
21504SOL     OW65952   6.142   3.959   8.623
21504SOL    HW165953   6.173   3.868   8.616
21504SOL    HW265954   6.051   3.950   8.651
21505SOL     OW65955   6.455   4.193   8.083
21505SOL    HW165956   6.397   4.245   8.028
21505SOL    HW265957   6.478   4.118   8.030
21506SOL     OW65958   6.583   3.747   8.185
21506SOL    HW165959   6.528   3.765   8.109
21506SOL    HW265960   6.582   3.652   8.193
21507SOL     OW65961   7.019   4.883   8.298
21507SOL    HW165962   6.949   4.818   8.308
21507SOL    HW265963   7.031   4.890   8.203
21508SOL     OW65964   7.052   4.336   8.405
21508SOL    HW165965   6.988   4.265   8.409
21508SOL    HW265966   7.105   4.327   8.484
21509SOL     OW65967   7.426   4.529   7.845
21509SOL    HW165968   7.488   4.478   7.898
21509SOL    HW265969   7.400   4.470   7.775
21510SOL     OW65970   6.075   5.129   7.573
21510SOL    HW165971   6.018   5.115   7.649
21510SOL    HW265972   6.015   5.143   7.500
21511SOL     OW65973   7.272   4.998   8.077
21511SOL    HW165974   7.365   4.996   8.097
21511SOL    HW265975   7.243   5.086   8.104
21512SOL     OW65976   6.980   4.294   7.521
21512SOL    HW165977   6.912   4.275   7.586
21512SOL    HW265978   7.058   4.250   7.554
21513SOL     OW65979   6.121   3.987   7.754
21513SOL    HW165980   6.160   3.939   7.682
21513SOL    HW265981   6.088   4.068   7.715
21514SOL     OW65982   7.327   4.971   8.999
21514SOL    HW165983   7.414   4.932   8.990
21514SOL    HW265984   7.344   5.059   9.032
21515SOL     OW65985   6.638   5.110   8.796
21515SOL    HW165986   6.560   5.067   8.831
21515SOL    HW265987   6.710   5.052   8.821
21516SOL     OW65988   7.198   5.360   9.117
21516SOL    HW165989   7.184   5.391   9.028
21516SOL    HW265990   7.277   5.307   9.111
21517SOL     OW65991   6.723   4.953   8.547
21517SOL    HW165992   6.639   4.941   8.591
21517SOL    HW265993   6.699   4.981   8.458
21518SOL     OW65994   7.209   4.820   8.518
21518SOL    HW165995   7.199   4.881   8.591
21518SOL    HW265996   7.132   4.835   8.463
21519SOL     OW65997   6.512   3.805   8.854
21519SOL    HW165998   6.527   3.799   8.760
21519SOL    HW265999   6.590   3.850   8.888
21520SOL     OW66000   6.568   4.838   9.174
21520SOL    HW166001   6.476   4.851   9.200
21520SOL    HW266002   6.566   4.762   9.117
21521SOL     OW66003   6.317   4.799   7.823
21521SOL    HW166004   6.284   4.768   7.907
21521SOL    HW266005   6.390   4.740   7.802
21522SOL     OW66006   6.013   4.555   8.703
21522SOL    HW166007   6.080   4.565   8.771
21522SOL    HW266008   5.986   4.463   8.710
21523SOL     OW66009   6.845   4.087   8.738
21523SOL    HW166010   6.876   4.169   8.777
21523SOL    HW266011   6.755   4.105   8.711
21524SOL     OW66012   5.664   5.305   8.814
21524SOL    HW166013   5.633   5.358   8.741
21524SOL    HW266014   5.759   5.307   8.807
21525SOL     OW66015   6.135   4.259   8.318
21525SOL    HW166016   6.145   4.312   8.239
21525SOL    HW266017   6.206   4.288   8.376
21526SOL     OW66018   6.833   5.076   7.844
21526SOL    HW166019   6.890   5.146   7.879
21526SOL    HW266020   6.745   5.100   7.874
21527SOL     OW66021   6.877   5.189   8.590
21527SOL    HW166022   6.925   5.188   8.673
21527SOL    HW266023   6.817   5.114   8.596
21528SOL     OW66024   7.161   4.343   7.932
21528SOL    HW166025   7.111   4.380   8.005
21528SOL    HW266026   7.175   4.416   7.873
21529SOL     OW66027   6.003   4.477   9.055
21529SOL    HW166028   6.071   4.514   8.999
21529SOL    HW266029   6.015   4.382   9.048
21530SOL     OW66030   7.205   4.510   9.143
21530SOL    HW166031   7.118   4.547   9.134
21530SOL    HW266032   7.255   4.547   9.070
21531SOL     OW66033   6.597   3.859   9.221
21531SOL    HW166034   6.647   3.936   9.195
21531SOL    HW266035   6.645   3.785   9.184
21532SOL     OW66036   6.061   3.740   9.214
21532SOL    HW166037   6.020   3.699   9.137
21532SOL    HW266038   6.015   3.823   9.225
21533SOL     OW66039   6.188   4.598   8.493
21533SOL    HW166040   6.169   4.684   8.454
21533SOL    HW266041   6.118   4.585   8.557
21534SOL     OW66042   6.915   4.581   8.463
21534SOL    HW166043   6.827   4.561   8.431
21534SOL    HW266044   6.966   4.501   8.448
21535SOL     OW66045   6.786   4.251   7.707
21535SOL    HW166046   6.793   4.173   7.761
21535SOL    HW266047   6.740   4.315   7.762
21536SOL     OW66048   5.884   3.904   8.695
21536SOL    HW166049   5.815   3.940   8.750
21536SOL    HW266050   5.864   3.810   8.690
21537SOL     OW66051   5.654   5.039   8.717
21537SOL    HW166052   5.676   4.979   8.788
21537SOL    HW266053   5.647   5.125   8.759
21538SOL     OW66054   6.320   4.358   8.511
21538SOL    HW166055   6.387   4.348   8.444
21538SOL    HW266056   6.283   4.445   8.496
21539SOL     OW66057   7.320   4.700   9.313
21539SOL    HW166058   7.290   4.627   9.260
21539SOL    HW266059   7.252   4.710   9.380
21540SOL     OW66060   5.907   3.797   8.070
21540SOL    HW166061   5.866   3.882   8.085
21540SOL    HW266062   5.898   3.751   8.154
21541SOL     OW66063   7.221   4.109   7.803
21541SOL    HW166064   7.245   4.042   7.867
21541SOL    HW266065   7.191   4.182   7.856
21542SOL     OW66066   6.627   4.481   8.403
21542SOL    HW166067   6.609   4.497   8.496
21542SOL    HW266068   6.595   4.391   8.389
21543SOL     OW66069   6.575   5.292   9.174
21543SOL    HW166070   6.552   5.338   9.094
21543SOL    HW266071   6.617   5.211   9.145
21544SOL     OW66072   7.433   5.225   9.056
21544SOL    HW166073   7.455   5.252   8.967
21544SOL    HW266074   7.515   5.235   9.105
21545SOL     OW66075   5.934   4.626   9.274
21545SOL    HW166076   6.019   4.650   9.309
21545SOL    HW266077   5.954   4.569   9.199
21546SOL     OW66078   7.113   3.997   7.571
21546SOL    HW166079   7.050   3.931   7.601
21546SOL    HW266080   7.150   4.033   7.652
21547SOL     OW66081   6.876   4.549   7.482
21547SOL    HW166082   6.911   4.460   7.484
21547SOL    HW266083   6.905   4.584   7.397
21548SOL     OW66084   6.653   5.073   8.300
21548SOL    HW166085   6.658   4.996   8.244
21548SOL    HW266086   6.715   5.135   8.261
21549SOL     OW66087   5.891   4.533   8.402
21549SOL    HW166088   5.972   4.532   8.350
21549SOL    HW266089   5.883   4.443   8.435
21550SOL     OW66090   5.915   4.253   8.470
21550SOL    HW166091   5.871   4.170   8.452
21550SOL    HW266092   5.990   4.255   8.410
21551SOL     OW66093   6.722   4.094   9.145
21551SOL    HW166094   6.673   4.150   9.204
21551SOL    HW266095   6.806   4.140   9.132
21552SOL     OW66096   6.753   3.915   8.935
21552SOL    HW166097   6.738   3.983   9.001
21552SOL    HW266098   6.791   3.961   8.861
21553SOL     OW66099   5.600   5.045   7.641
21553SOL    HW166100   5.509   5.056   7.613
21553SOL    HW266101   5.601   4.960   7.686
21554SOL     OW66102   5.642   5.538   8.343
21554SOL    HW166103   5.623   5.445   8.327
21554SOL    HW266104   5.737   5.545   8.334
21555SOL     OW66105   6.120   5.337   8.357
21555SOL    HW166106   6.082   5.282   8.425
21555SOL    HW266107   6.138   5.278   8.284
21556SOL     OW66108   6.555   4.507   8.662
21556SOL    HW166109   6.603   4.490   8.743
21556SOL    HW266110   6.470   4.465   8.676
21557SOL     OW66111   5.605   4.244   8.581
21557SOL    HW166112   5.666   4.248   8.507
21557SOL    HW266113   5.659   4.266   8.657
21558SOL     OW66114   5.779   4.242   9.172
21558SOL    HW166115   5.788   4.181   9.100
21558SOL    HW266116   5.745   4.323   9.132
21559SOL     OW66117   6.975   4.653   9.100
21559SOL    HW166118   6.993   4.746   9.093
21559SOL    HW266119   6.966   4.623   9.010
21560SOL     OW66120   6.407   4.308   7.809
21560SOL    HW166121   6.405   4.229   7.754
21560SOL    HW266122   6.327   4.356   7.784
21561SOL     OW66123   7.222   4.325   8.623
21561SOL    HW166124   7.211   4.266   8.698
21561SOL    HW266125   7.312   4.312   8.594
21562SOL     OW66126   5.799   5.262   9.206
21562SOL    HW166127   5.761   5.291   9.288
21562SOL    HW266128   5.823   5.171   9.220
21563SOL     OW66129   6.310   4.162   8.700
21563SOL    HW166130   6.247   4.093   8.677
21563SOL    HW266131   6.299   4.228   8.631
21564SOL     OW66132   6.491   5.405   8.937
21564SOL    HW166133   6.448   5.342   8.880
21564SOL    HW266134   6.449   5.489   8.915
21565SOL     OW66135   6.048   4.220   7.638
21565SOL    HW166136   6.098   4.297   7.666
21565SOL    HW266137   5.961   4.255   7.616
21566SOL     OW66138   5.725   4.871   8.931
21566SOL    HW166139   5.726   4.827   9.016
21566SOL    HW266140   5.739   4.801   8.867
21567SOL     OW66141   6.902   4.771   8.659
21567SOL    HW166142   6.914   4.704   8.592
21567SOL    HW266143   6.840   4.833   8.621
21568SOL     OW66144   6.909   4.578   7.755
21568SOL    HW166145   6.836   4.544   7.807
21568SOL    HW266146   6.883   4.564   7.664
21569SOL     OW66147   7.379   5.453   8.617
21569SOL    HW166148   7.436   5.477   8.545
21569SOL    HW266149   7.341   5.369   8.590
21570SOL     OW66150   6.834   5.465   8.557
21570SOL    HW166151   6.918   5.487   8.516
21570SOL    HW266152   6.839   5.371   8.573
21571SOL     OW66153   5.671   5.020   8.446
21571SOL    HW166154   5.650   5.019   8.540
21571SOL    HW266155   5.612   4.955   8.408
21572SOL     OW66156   6.262   5.396   9.186
21572SOL    HW166157   6.182   5.438   9.156
21572SOL    HW266158   6.328   5.419   9.121
21573SOL     OW66159   7.323   3.888   7.954
21573SOL    HW166160   7.387   3.871   7.885
21573SOL    HW266161   7.303   3.801   7.990
21574SOL     OW66162   6.989   5.290   7.945
21574SOL    HW166163   7.042   5.324   7.873
21574SOL    HW266164   6.932   5.363   7.970
21575SOL     OW66165   5.687   5.564   9.303
21575SOL    HW166166   5.660   5.475   9.326
21575SOL    HW266167   5.753   5.587   9.368
21576SOL     OW66168   6.866   4.656   8.119
21576SOL    HW166169   6.939   4.595   8.128
21576SOL    HW266170   6.900   4.727   8.065
21577SOL     OW66171   6.394   5.014   8.879
21577SOL    HW166172   6.365   5.036   8.967
21577SOL    HW266173   6.344   5.073   8.822
21578SOL     OW66174   6.252   5.344   7.607
21578SOL    HW166175   6.260   5.364   7.513
21578SOL    HW266176   6.201   5.263   7.610
21579SOL     OW66177   7.202   5.451   8.846
21579SOL    HW166178   7.259   5.451   8.769
21579SOL    HW266179   7.187   5.544   8.865
21580SOL     OW66180   7.432   3.890   8.411
21580SOL    HW166181   7.457   3.801   8.386
21580SOL    HW266182   7.344   3.901   8.375
21581SOL     OW66183   5.838   4.046   8.163
21581SOL    HW166184   5.754   4.079   8.134
21581SOL    HW266185   5.829   4.038   8.258
21582SOL     OW66186   6.792   5.317   7.489
21582SOL    HW166187   6.780   5.226   7.518
21582SOL    HW266188   6.724   5.330   7.423
21583SOL     OW66189   6.404   4.742   8.822
21583SOL    HW166190   6.416   4.737   8.728
21583SOL    HW266191   6.395   4.836   8.840
21584SOL     OW66192   6.527   4.650   7.745
21584SOL    HW166193   6.587   4.679   7.676
21584SOL    HW266194   6.567   4.570   7.780
21585SOL     OW66195   7.070   5.363   7.498
21585SOL    HW166196   6.977   5.345   7.483
21585SOL    HW266197   7.109   5.367   7.410
21586SOL     OW66198   5.972   5.025   8.952
21586SOL    HW166199   5.970   5.107   8.902
21586SOL    HW266200   5.895   4.976   8.922
21587SOL     OW66201   7.193   5.011   8.728
21587SOL    HW166202   7.245   4.988   8.805
21587SOL    HW266203   7.129   5.074   8.760
21588SOL     OW66204   6.655   4.838   8.171
21588SOL    HW166205   6.578   4.791   8.203
21588SOL    HW266206   6.714   4.769   8.140
21589SOL     OW66207   6.614   3.965   8.403
21589SOL    HW166208   6.600   3.915   8.323
21589SOL    HW266209   6.608   3.901   8.473
21590SOL     OW66210   6.184   5.213   7.927
21590SOL    HW166211   6.224   5.158   7.860
21590SOL    HW266212   6.090   5.209   7.907
21591SOL     OW66213   7.311   4.101   8.836
21591SOL    HW166214   7.383   4.164   8.840
21591SOL    HW266215   7.341   4.035   8.774
21592SOL     OW66216   5.866   5.118   7.752
21592SOL    HW166217   5.775   5.110   7.724
21592SOL    HW266218   5.883   5.039   7.804
21593SOL     OW66219   5.709   4.768   9.192
21593SOL    HW166220   5.628   4.736   9.231
21593SOL    HW266221   5.777   4.708   9.224
21594SOL     OW66222   6.261   3.910   8.962
21594SOL    HW166223   6.344   3.902   8.916
21594SOL    HW266224   6.283   3.948   9.047
21595SOL     OW66225   5.662   4.042   7.480
21595SOL    HW166226   5.579   4.016   7.442
21595SOL    HW266227   5.683   4.126   7.439
21596SOL     OW66228   7.004   4.580   8.839
21596SOL    HW166229   6.953   4.640   8.784
21596SOL    HW266230   7.092   4.582   8.800
21597SOL     OW66231   5.644   3.884   7.748
21597SOL    HW166232   5.619   3.957   7.692
21597SOL    HW266233   5.725   3.851   7.710
21598SOL     OW66234   6.768   5.046   7.573
21598SOL    HW166235   6.705   4.973   7.574
21598SOL    HW266236   6.794   5.056   7.664
21599SOL     OW66237   6.212   4.555   8.891
21599SOL    HW166238   6.268   4.630   8.872
21599SOL    HW266239   6.272   4.480   8.891
21600SOL     OW66240   7.074   5.525   8.440
21600SOL    HW166241   7.106   5.588   8.375
21600SOL    HW266242   7.149   5.468   8.455
21601SOL     OW66243   6.315   4.284   9.145
21601SOL    HW166244   6.358   4.345   9.205
21601SOL    HW266245   6.329   4.198   9.185
21602SOL     OW66246   7.059   4.915   9.073
21602SOL    HW166247   7.049   4.933   9.166
21602SOL    HW266248   7.150   4.936   9.053
21603SOL     OW66249   5.968   5.507   9.048
21603SOL    HW166250   5.876   5.534   9.047
21603SOL    HW266251   5.972   5.432   8.989
21604SOL     OW66252   7.245   4.600   8.701
21604SOL    HW166253   7.242   4.513   8.660
21604SOL    HW266254   7.236   4.661   8.628
21605SOL     OW66255   6.812   4.052   7.902
21605SOL    HW166256   6.868   3.975   7.897
21605SOL    HW266257   6.843   4.099   7.980
21606SOL     OW66258   6.169   4.461   8.130
21606SOL    HW166259   6.209   4.545   8.106
21606SOL    HW266260   6.104   4.444   8.062
21607SOL     OW66261   7.339   4.077   9.116
21607SOL    HW166262   7.340   4.096   9.022
21607SOL    HW266263   7.259   4.027   9.129
21608SOL     OW66264   7.340   4.650   8.953
21608SOL    HW166265   7.321   4.744   8.963
21608SOL    HW266266   7.317   4.630   8.863
21609SOL     OW66267   6.417   5.080   7.487
21609SOL    HW166268   6.418   5.091   7.582
21609SOL    HW266269   6.456   5.160   7.453
21610SOL     OW66270   6.283   5.563   8.393
21610SOL    HW166271   6.217   5.628   8.369
21610SOL    HW266272   6.238   5.479   8.386
21611SOL     OW66273   6.457   4.706   8.312
21611SOL    HW166274   6.501   4.627   8.344
21611SOL    HW266275   6.420   4.747   8.391
21612SOL     OW66276   6.692   4.749   7.540
21612SOL    HW166277   6.654   4.774   7.457
21612SOL    HW266278   6.749   4.675   7.519
21613SOL     OW66279   7.431   5.281   8.289
21613SOL    HW166280   7.351   5.269   8.238
21613SOL    HW266281   7.433   5.206   8.349
21614SOL     OW66282   5.795   5.000   9.300
21614SOL    HW166283   5.763   4.924   9.252
21614SOL    HW266284   5.728   5.017   9.367
21615SOL     OW66285   5.699   4.968   8.107
21615SOL    HW166286   5.671   4.899   8.167
21615SOL    HW266287   5.756   4.925   8.044
21616SOL     OW66288   6.283   5.125   9.108
21616SOL    HW166289   6.194   5.091   9.112
21616SOL    HW266290   6.274   5.218   9.130
21617SOL     OW66291   7.393   3.894   8.682
21617SOL    HW166292   7.392   3.798   8.689
21617SOL    HW266293   7.407   3.912   8.589
21618SOL     OW66294   6.034   4.142   7.989
21618SOL    HW166295   6.045   4.078   7.920
21618SOL    HW266296   5.966   4.106   8.045
21619SOL     OW66297   7.269   5.215   8.544
21619SOL    HW166298   7.196   5.193   8.486
21619SOL    HW266299   7.270   5.145   8.609
21620SOL     OW66300   5.956   4.294   8.740
21620SOL    HW166301   5.998   4.223   8.788
21620SOL    HW266302   5.952   4.263   8.649
21621SOL     OW66303   6.407   5.291   8.113
21621SOL    HW166304   6.364   5.336   8.040
21621SOL    HW266305   6.343   5.225   8.141
21622SOL     OW66306   7.011   3.954   8.565
21622SOL    HW166307   7.020   3.865   8.599
21622SOL    HW266308   6.960   4.000   8.633
21623SOL     OW66309   6.607   3.764   8.599
21623SOL    HW166310   6.557   3.701   8.547
21623SOL    HW266311   6.696   3.728   8.602
21624SOL     OW66312   6.374   5.058   7.762
21624SOL    HW166313   6.346   4.968   7.780
21624SOL    HW266314   6.449   5.072   7.819
21625SOL     OW66315   6.266   5.224   8.762
21625SOL    HW166316   6.178   5.253   8.785
21625SOL    HW266317   6.295   5.288   8.697
21626SOL     OW66318   6.949   3.777   7.621
21626SOL    HW166319   6.979   3.711   7.559
21626SOL    HW266320   6.860   3.749   7.645
21627SOL     OW66321   6.900   4.192   8.127
21627SOL    HW166322   6.844   4.270   8.123
21627SOL    HW266323   6.883   4.155   8.214
21628SOL     OW66324   7.173   3.919   8.338
21628SOL    HW166325   7.116   3.943   8.410
21628SOL    HW266326   7.170   3.993   8.278
21629SOL     OW66327   5.627   4.805   7.777
21629SOL    HW166328   5.713   4.818   7.816
21629SOL    HW266329   5.613   4.710   7.780
21630SOL     OW66330   6.473   5.394   7.783
21630SOL    HW166331   6.397   5.373   7.729
21630SOL    HW266332   6.444   5.466   7.839
21631SOL     OW66333   5.806   4.331   9.438
21631SOL    HW166334   5.714   4.344   9.461
21631SOL    HW266335   5.805   4.318   9.343
21632SOL     OW66336   5.807   4.011  10.301
21632SOL    HW166337   5.837   3.963  10.379
21632SOL    HW266338   5.718   3.981  10.287
21633SOL     OW66339   5.580   4.110   9.959
21633SOL    HW166340   5.496   4.140   9.994
21633SOL    HW266341   5.558   4.032   9.908
21634SOL     OW66342   7.169   5.246  10.018
21634SOL    HW166343   7.122   5.217  10.095
21634SOL    HW266344   7.103   5.250   9.949
21635SOL     OW66345   6.747   4.417  10.020
21635SOL    HW166346   6.776   4.503   9.990
21635SOL    HW266347   6.686   4.437  10.092
21636SOL     OW66348   7.368   4.325   9.538
21636SOL    HW166349   7.340   4.321   9.447
21636SOL    HW266350   7.330   4.246   9.578
21637SOL     OW66351   6.337   4.891  10.407
21637SOL    HW166352   6.286   4.829  10.355
21637SOL    HW266353   6.355   4.963  10.346
21638SOL     OW66354   6.475   4.482  11.132
21638SOL    HW166355   6.509   4.551  11.190
21638SOL    HW266356   6.482   4.520  11.045
21639SOL     OW66357   6.275   4.716   9.958
21639SOL    HW166358   6.340   4.715  10.029
21639SOL    HW266359   6.208   4.777   9.987
21640SOL     OW66360   6.313   4.878  11.125
21640SOL    HW166361   6.350   4.963  11.151
21640SOL    HW266362   6.230   4.900  11.083
21641SOL     OW66363   5.935   5.128  10.383
21641SOL    HW166364   5.858   5.085  10.346
21641SOL    HW266365   5.970   5.182  10.312
21642SOL     OW66366   7.043   5.224  10.676
21642SOL    HW166367   7.097   5.303  10.684
21642SOL    HW266368   6.975   5.235  10.743
21643SOL     OW66369   6.050   4.112  10.776
21643SOL    HW166370   6.122   4.051  10.790
21643SOL    HW266371   5.972   4.065  10.807
21644SOL     OW66372   7.199   4.158  10.058
21644SOL    HW166373   7.110   4.163  10.024
21644SOL    HW266374   7.226   4.249  10.070
21645SOL     OW66375   5.804   5.444   9.774
21645SOL    HW166376   5.830   5.519   9.827
21645SOL    HW266377   5.876   5.433   9.711
21646SOL     OW66378   6.722   5.066  11.011
21646SOL    HW166379   6.766   5.056  11.095
21646SOL    HW266380   6.670   4.987  11.000
21647SOL     OW66381   5.829   5.178   9.859
21647SOL    HW166382   5.800   5.269   9.850
21647SOL    HW266383   5.763   5.138   9.917
21648SOL     OW66384   5.897   4.817  10.240
21648SOL    HW166385   5.873   4.725  10.249
21648SOL    HW266386   5.819   4.865  10.267
21649SOL     OW66387   6.187   5.499  10.739
21649SOL    HW166388   6.102   5.491  10.782
21649SOL    HW266389   6.212   5.591  10.752
21650SOL     OW66390   6.163   4.709   9.454
21650SOL    HW166391   6.212   4.753   9.385
21650SOL    HW266392   6.202   4.742   9.536
21651SOL     OW66393   7.182   3.851  10.774
21651SOL    HW166394   7.217   3.925  10.726
21651SOL    HW266395   7.158   3.887  10.860
21652SOL     OW66396   5.711   4.370   9.877
21652SOL    HW166397   5.670   4.284   9.888
21652SOL    HW266398   5.692   4.416   9.959
21653SOL     OW66399   7.428   5.475   9.636
21653SOL    HW166400   7.498   5.452   9.696
21653SOL    HW266401   7.445   5.566   9.613
21654SOL     OW66402   5.648   5.316   9.427
21654SOL    HW166403   5.617   5.227   9.441
21654SOL    HW266404   5.612   5.365   9.501
21655SOL     OW66405   7.295   4.648   9.952
21655SOL    HW166406   7.350   4.590   9.899
21655SOL    HW266407   7.251   4.705   9.888
21656SOL     OW66408   7.231   4.827   9.741
21656SOL    HW166409   7.317   4.827   9.698
21656SOL    HW266410   7.239   4.894   9.810
21657SOL     OW66411   5.706   4.471  10.892
21657SOL    HW166412   5.794   4.509  10.893
21657SOL    HW266413   5.647   4.547  10.890
21658SOL     OW66414   6.190   5.114  10.054
21658SOL    HW166415   6.148   5.028  10.051
21658SOL    HW266416   6.185   5.147   9.965
21659SOL     OW66417   6.873   4.957  10.730
21659SOL    HW166418   6.898   4.887  10.669
21659SOL    HW266419   6.934   4.947  10.803
21660SOL     OW66420   6.401   3.716   9.836
21660SOL    HW166421   6.443   3.797   9.808
21660SOL    HW266422   6.307   3.736   9.834
21661SOL     OW66423   5.774   4.686  10.598
21661SOL    HW166424   5.857   4.642  10.577
21661SOL    HW266425   5.715   4.659  10.527
21662SOL     OW66426   7.113   4.725   9.511
21662SOL    HW166427   7.047   4.663   9.539
21662SOL    HW266428   7.153   4.757   9.592
21663SOL     OW66429   6.772   5.539  10.907
21663SOL    HW166430   6.827   5.561  10.832
21663SOL    HW266431   6.772   5.443  10.909
21664SOL     OW66432   5.936   3.969  11.149
21664SOL    HW166433   5.977   4.054  11.167
21664SOL    HW266434   5.842   3.985  11.161
21665SOL     OW66435   7.048   5.147  10.245
21665SOL    HW166436   6.985   5.160  10.315
21665SOL    HW266437   7.037   5.055  10.219
21666SOL     OW66438   7.233   5.496   9.882
21666SOL    HW166439   7.215   5.461   9.795
21666SOL    HW266440   7.222   5.422   9.941
21667SOL     OW66441   6.179   4.445   9.586
21667SOL    HW166442   6.181   4.525   9.534
21667SOL    HW266443   6.113   4.460   9.653
21668SOL     OW66444   6.863   4.095  10.255
21668SOL    HW166445   6.774   4.059  10.258
21668SOL    HW266446   6.913   4.038  10.313
21669SOL     OW66447   7.161   5.403   9.624
21669SOL    HW166448   7.254   5.420   9.612
21669SOL    HW266449   7.128   5.387   9.536
21670SOL     OW66450   6.373   4.339  10.753
21670SOL    HW166451   6.347   4.312  10.841
21670SOL    HW266452   6.344   4.267  10.697
21671SOL     OW66453   6.975   4.200  10.988
21671SOL    HW166454   6.979   4.246  11.072
21671SOL    HW266455   7.035   4.127  10.997
21672SOL     OW66456   6.531   4.608  10.893
21672SOL    HW166457   6.586   4.541  10.851
21672SOL    HW266458   6.483   4.649  10.820
21673SOL     OW66459   6.583   4.125  10.535
21673SOL    HW166460   6.490   4.138  10.556
21673SOL    HW266461   6.583   4.096  10.444
21674SOL     OW66462   6.593   4.458   9.770
21674SOL    HW166463   6.659   4.411   9.820
21674SOL    HW266464   6.543   4.389   9.726
21675SOL     OW66465   5.665   4.516  10.106
21675SOL    HW166466   5.749   4.529  10.150
21675SOL    HW266467   5.618   4.598  10.118
21676SOL     OW66468   5.706   5.607  10.892
21676SOL    HW166469   5.706   5.589  10.986
21676SOL    HW266470   5.631   5.559  10.858
21677SOL     OW66471   6.479   4.050   9.479
21677SOL    HW166472   6.517   4.129   9.440
21677SOL    HW266473   6.546   3.983   9.469
21678SOL     OW66474   7.278   4.292  11.145
21678SOL    HW166475   7.248   4.368  11.095
21678SOL    HW266476   7.311   4.231  11.079
21679SOL     OW66477   6.968   4.871   9.848
21679SOL    HW166478   7.042   4.851   9.790
21679SOL    HW266479   6.913   4.930   9.797
21680SOL     OW66480   6.135   3.890  10.207
21680SOL    HW166481   6.136   3.936  10.291
21680SOL    HW266482   6.137   3.960  10.142
21681SOL     OW66483   6.598   5.187   9.784
21681SOL    HW166484   6.561   5.253   9.725
21681SOL    HW266485   6.550   5.199   9.866
21682SOL     OW66486   5.942   5.540  10.180
21682SOL    HW166487   5.986   5.456  10.190
21682SOL    HW266488   6.010   5.605  10.198
21683SOL     OW66489   7.395   4.776  10.181
21683SOL    HW166490   7.349   4.748  10.101
21683SOL    HW266491   7.327   4.779  10.248
21684SOL     OW66492   6.812   5.262  10.831
21684SOL    HW166493   6.803   5.192  10.896
21684SOL    HW266494   6.755   5.235  10.759
21685SOL     OW66495   5.899   4.684   9.568
21685SOL    HW166496   5.981   4.708   9.526
21685SOL    HW266497   5.863   4.615   9.512
21686SOL     OW66498   7.067   4.501  10.039
21686SOL    HW166499   7.069   4.442  10.114
21686SOL    HW266500   7.157   4.534  10.032
21687SOL     OW66501   6.061   4.923  11.034
21687SOL    HW166502   6.021   4.969  10.960
21687SOL    HW266503   5.995   4.928  11.103
21688SOL     OW66504   6.718   5.495   9.546
21688SOL    HW166505   6.635   5.461   9.581
21688SOL    HW266506   6.740   5.434   9.475
21689SOL     OW66507   5.796   4.012  10.816
21689SOL    HW166508   5.731   4.080  10.800
21689SOL    HW266509   5.750   3.947  10.870
21690SOL     OW66510   7.222   5.113   9.414
21690SOL    HW166511   7.179   5.196   9.392
21690SOL    HW266512   7.157   5.046   9.389
21691SOL     OW66513   6.047   5.461   9.625
21691SOL    HW166514   6.100   5.513   9.686
21691SOL    HW266515   6.111   5.420   9.567
21692SOL     OW66516   6.999   3.807   9.755
21692SOL    HW166517   6.982   3.795   9.662
21692SOL    HW266518   7.087   3.846   9.758
21693SOL     OW66519   5.818   5.553  10.512
21693SOL    HW166520   5.855   5.471  10.545
21693SOL    HW266521   5.781   5.529  10.427
21694SOL     OW66522   6.536   5.417  10.199
21694SOL    HW166523   6.623   5.378  10.196
21694SOL    HW266524   6.486   5.370  10.132
21695SOL     OW66525   5.987   4.413   9.798
21695SOL    HW166526   6.008   4.320   9.806
21695SOL    HW266527   5.891   4.417   9.799
21696SOL     OW66528   7.109   3.952  11.030
21696SOL    HW166529   7.120   3.969  11.124
21696SOL    HW266530   7.036   3.890  11.026
21697SOL     OW66531   6.199   3.797   9.446
21697SOL    HW166532   6.287   3.827   9.420
21697SOL    HW266533   6.155   3.779   9.363
21698SOL     OW66534   6.348   4.003  11.066
21698SOL    HW166535   6.431   3.955  11.064
21698SOL    HW266536   6.302   3.970  11.143
21699SOL     OW66537   6.449   5.225  10.519
21699SOL    HW166538   6.443   5.206  10.425
21699SOL    HW266539   6.534   5.189  10.545
21700SOL     OW66540   6.920   4.315  10.742
21700SOL    HW166541   6.952   4.286  10.828
21700SOL    HW266542   6.959   4.402  10.730
21701SOL     OW66543   6.392   5.114  10.254
21701SOL    HW166544   6.478   5.104  10.215
21701SOL    HW266545   6.333   5.124  10.180
21702SOL     OW66546   6.507   4.232  10.206
21702SOL    HW166547   6.485   4.227  10.114
21702SOL    HW266548   6.544   4.146  10.227
21703SOL     OW66549   6.137   3.781   9.808
21703SOL    HW166550   6.054   3.781   9.856
21703SOL    HW266551   6.133   3.859   9.752
21704SOL     OW66552   7.021   4.933   9.350
21704SOL    HW166553   7.045   4.854   9.397
21704SOL    HW266554   6.931   4.951   9.377
21705SOL     OW66555   5.879   3.786   9.491
21705SOL    HW166556   5.897   3.856   9.428
21705SOL    HW266557   5.965   3.749   9.510
21706SOL     OW66558   6.516   3.956   9.775
21706SOL    HW166559   6.495   4.004   9.695
21706SOL    HW266560   6.610   3.968   9.786
21707SOL     OW66561   6.664   4.411  10.762
21707SOL    HW166562   6.602   4.338  10.761
21707SOL    HW266563   6.750   4.369  10.754
21708SOL     OW66564   6.787   5.317  10.118
21708SOL    HW166565   6.806   5.373  10.043
21708SOL    HW266566   6.871   5.308  10.163
21709SOL     OW66567   6.065   4.874  10.034
21709SOL    HW166568   6.003   4.855  10.105
21709SOL    HW266569   6.014   4.863   9.954
21710SOL     OW66570   6.844   5.518   9.927
21710SOL    HW166571   6.894   5.576   9.869
21710SOL    HW266572   6.771   5.573   9.957
21711SOL     OW66573   6.603   4.252   9.342
21711SOL    HW166574   6.569   4.340   9.324
21711SOL    HW266575   6.664   4.265   9.415
21712SOL     OW66576   5.681   4.264  10.717
21712SOL    HW166577   5.770   4.275  10.683
21712SOL    HW266578   5.668   4.338  10.776
21713SOL     OW66579   6.128   3.951  10.485
21713SOL    HW166580   6.178   3.881  10.527
21713SOL    HW266581   6.038   3.936  10.512
21714SOL     OW66582   6.445   4.181   9.945
21714SOL    HW166583   6.415   4.238   9.874
21714SOL    HW266584   6.473   4.101   9.902
21715SOL     OW66585   6.596   3.796  10.072
21715SOL    HW166586   6.550   3.806   9.988
21715SOL    HW266587   6.567   3.711  10.105
21716SOL     OW66588   7.028   4.885  10.158
21716SOL    HW166589   6.957   4.821  10.148
21716SOL    HW266590   7.063   4.896  10.069
21717SOL     OW66591   7.051   4.349  10.276
21717SOL    HW166592   6.999   4.270  10.262
21717SOL    HW266593   7.107   4.328  10.351
21718SOL     OW66594   7.430   4.532   9.709
21718SOL    HW166595   7.489   4.478   9.761
21718SOL    HW266596   7.400   4.474   9.639
21719SOL     OW66597   6.080   5.142   9.456
21719SOL    HW166598   6.008   5.108   9.510
21719SOL    HW266599   6.071   5.095   9.373
21720SOL     OW66600   7.262   4.990   9.955
21720SOL    HW166601   7.357   4.987   9.967
21720SOL    HW266602   7.239   5.082   9.968
21721SOL     OW66603   6.984   4.303   9.372
21721SOL    HW166604   6.924   4.276   9.442
21721SOL    HW266605   7.071   4.278   9.404
21722SOL     OW66606   6.108   3.984   9.632
21722SOL    HW166607   6.142   3.928   9.562
21722SOL    HW266608   6.084   4.066   9.588
21723SOL     OW66609   7.327   4.969  10.860
21723SOL    HW166610   7.414   4.933  10.846
21723SOL    HW266611   7.343   5.056  10.896
21724SOL     OW66612   6.649   5.094  10.667
21724SOL    HW166613   6.578   5.049  10.713
21724SOL    HW266614   6.727   5.043  10.687
21725SOL     OW66615   7.193   5.360  10.973
21725SOL    HW166616   7.186   5.391  10.883
21725SOL    HW266617   7.271   5.306  10.974
21726SOL     OW66618   6.728   4.952  10.412
21726SOL    HW166619   6.645   4.953  10.459
21726SOL    HW266620   6.706   4.982  10.324
21727SOL     OW66621   7.205   4.815  10.379
21727SOL    HW166622   7.193   4.879  10.450
21727SOL    HW266623   7.131   4.831  10.320
21728SOL     OW66624   6.507   3.807  10.698
21728SOL    HW166625   6.526   3.792  10.606
21728SOL    HW266626   6.585   3.850  10.732
21729SOL     OW66627   6.571   4.837  11.033
21729SOL    HW166628   6.480   4.855  11.057
21729SOL    HW266629   6.567   4.760  10.978
21730SOL     OW66630   6.290   4.789   9.686
21730SOL    HW166631   6.280   4.760   9.777
21730SOL    HW266632   6.366   4.742   9.654
21731SOL     OW66633   6.007   4.545  10.560
21731SOL    HW166634   6.077   4.555  10.625
21731SOL    HW266635   5.973   4.457  10.575
21732SOL     OW66636   6.846   4.091  10.603
21732SOL    HW166637   6.878   4.172  10.642
21732SOL    HW266638   6.757   4.111  10.574
21733SOL     OW66639   5.652   5.303  10.679
21733SOL    HW166640   5.609   5.361  10.617
21733SOL    HW266641   5.746   5.312  10.660
21734SOL     OW66642   5.917   4.845   9.803
21734SOL    HW166643   5.917   4.919   9.742
21734SOL    HW266644   5.917   4.767   9.746
21735SOL     OW66645   6.132   4.253  10.183
21735SOL    HW166646   6.138   4.305  10.103
21735SOL    HW266647   6.208   4.280  10.235
21736SOL     OW66648   6.834   5.074   9.706
21736SOL    HW166649   6.893   5.144   9.735
21736SOL    HW266650   6.747   5.102   9.736
21737SOL     OW66651   6.880   5.187  10.455
21737SOL    HW166652   6.932   5.186  10.535
21737SOL    HW266653   6.827   5.108  10.460
21738SOL     OW66654   7.174   4.346   9.804
21738SOL    HW166655   7.096   4.374   9.852
21738SOL    HW266656   7.181   4.406   9.730
21739SOL     OW66657   5.910   5.311  10.583
21739SOL    HW166658   5.906   5.251  10.508
21739SOL    HW266659   6.002   5.311  10.609
21740SOL     OW66660   6.008   4.469  10.917
21740SOL    HW166661   6.067   4.514  10.857
21740SOL    HW266662   6.052   4.386  10.935
21741SOL     OW66663   7.196   4.505  10.999
21741SOL    HW166664   7.110   4.547  10.993
21741SOL    HW266665   7.247   4.545  10.928
21742SOL     OW66666   6.582   3.861  11.071
21742SOL    HW166667   6.639   3.936  11.051
21742SOL    HW266668   6.632   3.785  11.042
21743SOL     OW66669   6.079   3.750  11.061
21743SOL    HW166670   6.028   3.702  10.996
21743SOL    HW266671   6.027   3.828  11.080
21744SOL     OW66672   6.188   4.617  10.355
21744SOL    HW166673   6.142   4.623  10.272
21744SOL    HW266674   6.121   4.595  10.419
21745SOL     OW66675   6.923   4.586  10.329
21745SOL    HW166676   6.853   4.581  10.264
21745SOL    HW266677   6.974   4.506  10.315
21746SOL     OW66678   5.856   3.894  10.566
21746SOL    HW166679   5.861   3.939  10.650
21746SOL    HW266680   5.762   3.876  10.554
21747SOL     OW66681   5.654   5.040  10.588
21747SOL    HW166682   5.675   4.983  10.662
21747SOL    HW266683   5.642   5.127  10.626
21748SOL     OW66684   6.315   4.357  10.369
21748SOL    HW166685   6.388   4.338  10.311
21748SOL    HW266686   6.297   4.450  10.355
21749SOL     OW66687   7.330   4.681  11.168
21749SOL    HW166688   7.285   4.613  11.118
21749SOL    HW266689   7.270   4.702  11.239
21750SOL     OW66690   5.894   3.776   9.936
21750SOL    HW166691   5.867   3.867   9.948
21750SOL    HW266692   5.900   3.741  10.025
21751SOL     OW66693   7.219   4.105   9.672
21751SOL    HW166694   7.250   4.041   9.736
21751SOL    HW266695   7.189   4.179   9.725
21752SOL     OW66696   6.603   4.483  10.260
21752SOL    HW166697   6.599   4.496  10.354
21752SOL    HW266698   6.582   4.391  10.247
21753SOL     OW66699   6.580   5.303  11.030
21753SOL    HW166700   6.546   5.335  10.947
21753SOL    HW266701   6.612   5.215  11.010
21754SOL     OW66702   7.430   5.225  10.917
21754SOL    HW166703   7.455   5.251  10.828
21754SOL    HW266704   7.510   5.235  10.968
21755SOL     OW66705   5.940   4.632  11.129
21755SOL    HW166706   6.022   4.681  11.139
21755SOL    HW266707   5.959   4.568  11.060
21756SOL     OW66708   7.118   3.988   9.437
21756SOL    HW166709   7.044   3.937   9.469
21756SOL    HW266710   7.151   4.035   9.513
21757SOL     OW66711   6.878   4.556   9.336
21757SOL    HW166712   6.913   4.467   9.340
21757SOL    HW266713   6.909   4.590   9.252
21758SOL     OW66714   6.650   5.070  10.174
21758SOL    HW166715   6.653   4.996  10.113
21758SOL    HW266716   6.701   5.139  10.131
21759SOL     OW66717   5.912   4.527  10.228
21759SOL    HW166718   5.973   4.512  10.156
21759SOL    HW266719   5.908   4.444  10.275
21760SOL     OW66720   5.911   4.257  10.330
21760SOL    HW166721   5.871   4.172  10.313
21760SOL    HW266722   5.991   4.257  10.277
21761SOL     OW66723   6.722   4.091  11.003
21761SOL    HW166724   6.674   4.147  11.064
21761SOL    HW266725   6.807   4.134  10.992
21762SOL     OW66726   6.746   3.915  10.790
21762SOL    HW166727   6.733   3.979  10.860
21762SOL    HW266728   6.788   3.964  10.719
21763SOL     OW66729   5.606   5.038   9.500
21763SOL    HW166730   5.517   5.060   9.471
21763SOL    HW266731   5.598   4.951   9.538
21764SOL     OW66732   5.686   5.496  10.267
21764SOL    HW166733   5.647   5.425  10.216
21764SOL    HW266734   5.771   5.512  10.224
21765SOL     OW66735   6.080   5.300  10.223
21765SOL    HW166736   6.151   5.361  10.242
21765SOL    HW266737   6.116   5.240  10.158
21766SOL     OW66738   6.549   4.510  10.529
21766SOL    HW166739   6.609   4.494  10.601
21766SOL    HW266740   6.469   4.465  10.555
21767SOL     OW66741   5.619   4.258  10.436
21767SOL    HW166742   5.689   4.269  10.372
21767SOL    HW266743   5.662   4.269  10.521
21768SOL     OW66744   5.778   4.254  11.044
21768SOL    HW166745   5.838   4.219  10.978
21768SOL    HW266746   5.739   4.330  11.003
21769SOL     OW66747   6.966   4.653  10.967
21769SOL    HW166748   6.989   4.746  10.963
21769SOL    HW266749   6.962   4.625  10.876
21770SOL     OW66750   6.386   4.278   9.682
21770SOL    HW166751   6.397   4.216   9.610
21770SOL    HW266752   6.320   4.339   9.652
21771SOL     OW66753   7.224   4.322  10.490
21771SOL    HW166754   7.216   4.260  10.563
21771SOL    HW266755   7.311   4.305  10.454
21772SOL     OW66756   6.306   4.161  10.556
21772SOL    HW166757   6.240   4.096  10.532
21772SOL    HW266758   6.299   4.228  10.489
21773SOL     OW66759   6.492   5.403  10.785
21773SOL    HW166760   6.480   5.350  10.707
21773SOL    HW266761   6.492   5.493  10.754
21774SOL     OW66762   6.044   4.215   9.512
21774SOL    HW166763   6.099   4.292   9.526
21774SOL    HW266764   5.959   4.251   9.488
21775SOL     OW66765   5.732   4.866  10.794
21775SOL    HW166766   5.729   4.820  10.878
21775SOL    HW266767   5.744   4.797  10.729
21776SOL     OW66768   6.898   4.766  10.528
21776SOL    HW166769   6.915   4.701  10.460
21776SOL    HW266770   6.841   4.830  10.486
21777SOL     OW66771   6.911   4.558   9.611
21777SOL    HW166772   6.862   4.484   9.646
21777SOL    HW266773   6.882   4.565   9.520
21778SOL     OW66774   7.380   5.453  10.481
21778SOL    HW166775   7.438   5.478  10.409
21778SOL    HW266776   7.341   5.371  10.453
21779SOL     OW66777   6.830   5.463  10.434
21779SOL    HW166778   6.909   5.488  10.386
21779SOL    HW266779   6.837   5.368  10.443
21780SOL     OW66780   5.694   4.984  10.326
21780SOL    HW166781   5.667   5.002  10.416
21780SOL    HW266782   5.617   4.944  10.286
21781SOL     OW66783   6.266   5.406  11.042
21781SOL    HW166784   6.191   5.465  11.042
21781SOL    HW266785   6.307   5.417  10.956
21782SOL     OW66786   7.328   3.886   9.819
21782SOL    HW166787   7.388   3.871   9.746
21782SOL    HW266788   7.309   3.798   9.853
21783SOL     OW66789   6.987   5.292   9.812
21783SOL    HW166790   7.039   5.324   9.738
21783SOL    HW266791   6.927   5.364   9.831
21784SOL     OW66792   5.707   5.544  11.152
21784SOL    HW166793   5.674   5.459  11.181
21784SOL    HW266794   5.760   5.575  11.225
21785SOL     OW66795   6.864   4.672   9.999
21785SOL    HW166796   6.936   4.608  10.007
21785SOL    HW266797   6.895   4.734   9.933
21786SOL     OW66798   6.393   5.012  10.746
21786SOL    HW166799   6.352   5.041  10.827
21786SOL    HW266800   6.376   5.083  10.684
21787SOL     OW66801   6.253   5.350   9.463
21787SOL    HW166802   6.263   5.369   9.370
21787SOL    HW266803   6.197   5.273   9.466
21788SOL     OW66804   7.199   5.453  10.706
21788SOL    HW166805   7.258   5.453  10.631
21788SOL    HW266806   7.183   5.546  10.723
21789SOL     OW66807   7.429   3.888  10.278
21789SOL    HW166808   7.456   3.802  10.247
21789SOL    HW266809   7.343   3.901  10.238
21790SOL     OW66810   5.835   4.028  10.018
21790SOL    HW166811   5.751   4.066   9.993
21790SOL    HW266812   5.837   4.035  10.114
21791SOL     OW66813   6.795   5.322   9.348
21791SOL    HW166814   6.786   5.230   9.372
21791SOL    HW266815   6.730   5.335   9.279
21792SOL     OW66816   6.403   4.740  10.689
21792SOL    HW166817   6.429   4.733  10.597
21792SOL    HW266818   6.400   4.834  10.706
21793SOL     OW66819   6.501   4.654   9.601
21793SOL    HW166820   6.569   4.677   9.537
21793SOL    HW266821   6.542   4.589   9.657
21794SOL     OW66822   7.071   5.367   9.362
21794SOL    HW166823   6.979   5.348   9.344
21794SOL    HW266824   7.112   5.370   9.275
21795SOL     OW66825   5.953   5.028  10.748
21795SOL    HW166826   5.941   5.098  10.813
21795SOL    HW266827   5.879   4.969  10.763
21796SOL     OW66828   7.188   5.007  10.585
21796SOL    HW166829   7.247   4.988  10.658
21796SOL    HW266830   7.127   5.072  10.621
21797SOL     OW66831   6.647   4.842  10.035
21797SOL    HW166832   6.570   4.787  10.052
21797SOL    HW266833   6.714   4.780  10.006
21798SOL     OW66834   6.610   3.972  10.285
21798SOL    HW166835   6.607   3.929  10.200
21798SOL    HW266836   6.604   3.901  10.348
21799SOL     OW66837   6.200   5.220   9.803
21799SOL    HW166838   6.251   5.166   9.743
21799SOL    HW266839   6.118   5.237   9.757
21800SOL     OW66840   7.322   4.111  10.695
21800SOL    HW166841   7.392   4.176  10.689
21800SOL    HW266842   7.348   4.042  10.633
21801SOL     OW66843   5.869   5.057   9.622
21801SOL    HW166844   5.784   5.057   9.578
21801SOL    HW266845   5.854   5.107   9.703
21802SOL     OW66846   5.699   4.745  11.036
21802SOL    HW166847   5.621   4.723  11.088
21802SOL    HW266848   5.771   4.705  11.085
21803SOL     OW66849   6.265   3.912  10.812
21803SOL    HW166850   6.349   3.893  10.770
21803SOL    HW266851   6.288   3.948  10.897
21804SOL     OW66852   5.651   4.045   9.328
21804SOL    HW166853   5.575   4.028   9.272
21804SOL    HW266854   5.684   4.129   9.299
21805SOL     OW66855   7.006   4.581  10.706
21805SOL    HW166856   6.954   4.639  10.651
21805SOL    HW266857   7.094   4.582  10.666
21806SOL     OW66858   5.640   3.881   9.596
21806SOL    HW166859   5.614   3.945   9.530
21806SOL    HW266860   5.729   3.855   9.572
21807SOL     OW66861   6.761   5.057   9.425
21807SOL    HW166862   6.666   5.046   9.419
21807SOL    HW266863   6.781   5.047   9.519
21808SOL     OW66864   6.207   4.556  10.744
21808SOL    HW166865   6.265   4.631  10.731
21808SOL    HW266866   6.266   4.480  10.748
21809SOL     OW66867   7.066   5.525  10.304
21809SOL    HW166868   7.090   5.587  10.236
21809SOL    HW266869   7.143   5.468  10.312
21810SOL     OW66870   6.303   4.282  11.009
21810SOL    HW166871   6.350   4.339  11.069
21810SOL    HW266872   6.321   4.193  11.041
21811SOL     OW66873   7.060   4.913  10.938
21811SOL    HW166874   7.051   4.931  11.031
21811SOL    HW266875   7.151   4.934  10.917
21812SOL     OW66876   5.955   5.486  10.874
21812SOL    HW166877   5.867   5.524  10.865
21812SOL    HW266878   5.939   5.399  10.910
21813SOL     OW66879   7.243   4.600  10.563
21813SOL    HW166880   7.240   4.514  10.521
21813SOL    HW266881   7.233   4.662  10.491
21814SOL     OW66882   6.780   3.993   9.801
21814SOL    HW166883   6.863   3.947   9.786
21814SOL    HW266884   6.788   4.073   9.749
21815SOL     OW66885   6.126   4.487  10.021
21815SOL    HW166886   6.191   4.551   9.991
21815SOL    HW266887   6.081   4.460   9.941
21816SOL     OW66888   7.340   4.087  10.967
21816SOL    HW166889   7.329   4.106  10.874
21816SOL    HW266890   7.265   4.032  10.990
21817SOL     OW66891   7.339   4.651  10.817
21817SOL    HW166892   7.323   4.745  10.830
21817SOL    HW266893   7.316   4.636  10.725
21818SOL     OW66894   6.481   5.105   9.376
21818SOL    HW166895   6.409   5.134   9.432
21818SOL    HW266896   6.486   5.170   9.307
21819SOL     OW66897   6.259   5.504  10.257
21819SOL    HW166898   6.234   5.592  10.230
21819SOL    HW266899   6.351   5.496  10.231
21820SOL     OW66900   6.449   4.698  10.176
21820SOL    HW166901   6.499   4.617  10.186
21820SOL    HW266902   6.446   4.736  10.264
21821SOL     OW66903   6.673   4.723   9.403
21821SOL    HW166904   6.646   4.768   9.324
21821SOL    HW266905   6.743   4.664   9.375
21822SOL     OW66906   7.433   5.283  10.150
21822SOL    HW166907   7.354   5.272  10.097
21822SOL    HW266908   7.437   5.203  10.203
21823SOL     OW66909   5.835   4.966  11.181
21823SOL    HW166910   5.754   4.923  11.153
21823SOL    HW266911   5.832   5.052  11.140
21824SOL     OW66912   5.677   4.959   9.973
21824SOL    HW166913   5.663   4.892  10.040
21824SOL    HW266914   5.737   4.918   9.910
21825SOL     OW66915   6.255   5.136  10.949
21825SOL    HW166916   6.170   5.100  10.976
21825SOL    HW266917   6.256   5.224  10.987
21826SOL     OW66918   7.390   3.897  10.547
21826SOL    HW166919   7.402   3.803  10.557
21826SOL    HW266920   7.403   3.913  10.453
21827SOL     OW66921   6.029   4.151   9.852
21827SOL    HW166922   6.054   4.093   9.781
21827SOL    HW266923   5.963   4.102   9.901
21828SOL     OW66924   7.266   5.218  10.408
21828SOL    HW166925   7.196   5.196  10.347
21828SOL    HW266926   7.268   5.144  10.469
21829SOL     OW66927   5.924   4.286  10.604
21829SOL    HW166928   5.984   4.229  10.652
21829SOL    HW266929   5.937   4.263  10.512
21830SOL     OW66930   6.411   5.324   9.972
21830SOL    HW166931   6.414   5.404   9.919
21830SOL    HW266932   6.337   5.274   9.936
21831SOL     OW66933   7.010   3.951  10.435
21831SOL    HW166934   7.038   3.872  10.483
21831SOL    HW266935   6.959   4.001  10.499
21832SOL     OW66936   6.593   3.731  10.438
21832SOL    HW166937   6.547   3.675  10.375
21832SOL    HW266938   6.681   3.695  10.442
21833SOL     OW66939   6.352   5.057   9.651
21833SOL    HW166940   6.318   4.968   9.650
21833SOL    HW266941   6.447   5.047   9.655
21834SOL     OW66942   6.192   5.255  10.602
21834SOL    HW166943   6.193   5.335  10.656
21834SOL    HW266944   6.277   5.254  10.559
21835SOL     OW66945   6.937   3.778   9.490
21835SOL    HW166946   6.958   3.730   9.410
21835SOL    HW266947   6.851   3.744   9.516
21836SOL     OW66948   6.937   4.210  10.016
21836SOL    HW166949   6.873   4.276   9.991
21836SOL    HW266950   6.895   4.160  10.087
21837SOL     OW66951   7.169   3.916  10.201
21837SOL    HW166952   7.111   3.946  10.271
21837SOL    HW266953   7.173   3.990  10.140
21838SOL     OW66954   5.630   4.790   9.633
21838SOL    HW166955   5.720   4.779   9.603
21838SOL    HW266956   5.600   4.702   9.653
21839SOL     OW66957   6.472   5.391   9.644
21839SOL    HW166958   6.399   5.370   9.585
21839SOL    HW266959   6.439   5.463   9.698
21840SOL     OW66960   5.806   4.337  11.312
21840SOL    HW166961   5.718   4.333  11.348
21840SOL    HW266962   5.794   4.322  11.218
21841SOL     OW66963   5.812   3.990  12.156
21841SOL    HW166964   5.839   3.968  12.246
21841SOL    HW266965   5.721   3.961  12.152
21842SOL     OW66966   5.577   4.121  11.813
21842SOL    HW166967   5.500   4.148  11.862
21842SOL    HW266968   5.549   4.045  11.761
21843SOL     OW66969   6.125   4.970  12.321
21843SOL    HW166970   6.051   5.023  12.295
21843SOL    HW266971   6.146   4.998  12.410
21844SOL     OW66972   7.159   5.241  11.886
21844SOL    HW166973   7.114   5.222  11.968
21844SOL    HW266974   7.090   5.240  11.820
21845SOL     OW66975   6.718   4.426  11.863
21845SOL    HW166976   6.766   4.508  11.853
21845SOL    HW266977   6.677   4.432  11.950
21846SOL     OW66978   7.378   4.320  11.395
21846SOL    HW166979   7.342   4.318  11.306
21846SOL    HW266980   7.335   4.247  11.440
21847SOL     OW66981   6.368   4.884  12.232
21847SOL    HW166982   6.276   4.889  12.258
21847SOL    HW266983   6.386   4.969  12.192
21848SOL     OW66984   6.297   4.763  11.824
21848SOL    HW166985   6.348   4.742  11.902
21848SOL    HW266986   6.218   4.805  11.857
21849SOL     OW66987   5.919   5.146  12.242
21849SOL    HW166988   5.842   5.109  12.198
21849SOL    HW266989   5.963   5.197  12.174
21850SOL     OW66990   7.191   4.162  11.919
21850SOL    HW166991   7.125   4.179  11.852
21850SOL    HW266992   7.179   4.232  11.983
21851SOL     OW66993   5.802   5.445  11.639
21851SOL    HW166994   5.826   5.518  11.696
21851SOL    HW266995   5.875   5.436  11.578
21852SOL     OW66996   5.811   5.176  11.715
21852SOL    HW166997   5.791   5.269  11.712
21852SOL    HW266998   5.753   5.141  11.784
21853SOL     OW66999   5.849   4.815  12.049
21853SOL    HW167000   5.860   4.727  12.084
21853SOL    HW267001   5.809   4.865  12.120
21854SOL     OW67002   6.210   4.691  11.299
21854SOL    HW167003   6.232   4.761  11.238
21854SOL    HW267004   6.295   4.655  11.326
21855SOL     OW67005   5.703   4.381  11.739
21855SOL    HW167006   5.666   4.297  11.763
21855SOL    HW267007   5.693   4.435  11.817
21856SOL     OW67008   7.427   5.475  11.494
21856SOL    HW167009   7.494   5.451  11.559
21856SOL    HW267010   7.444   5.567  11.475
21857SOL     OW67011   5.618   5.321  11.283
21857SOL    HW167012   5.618   5.228  11.306
21857SOL    HW267013   5.594   5.366  11.364
21858SOL     OW67014   7.273   4.608  11.808
21858SOL    HW167015   7.368   4.596  11.813
21858SOL    HW267016   7.261   4.679  11.745
21859SOL     OW67017   5.753   4.456   0.222
21859SOL    HW167018   5.756   4.465   0.317
21859SOL    HW267019   5.678   4.510   0.196
21860SOL     OW67020   6.209   5.124  11.897
21860SOL    HW167021   6.162   5.041  11.908
21860SOL    HW267022   6.188   5.152  11.808
21861SOL     OW67023   6.405   3.724  11.690
21861SOL    HW167024   6.445   3.806  11.663
21861SOL    HW267025   6.312   3.743  11.695
21862SOL     OW67026   5.759   4.709  12.420
21862SOL    HW167027   5.823   4.638  12.420
21862SOL    HW267028   5.679   4.668  12.453
21863SOL     OW67029   7.119   4.722  11.361
21863SOL    HW167030   7.054   4.665  11.401
21863SOL    HW267031   7.165   4.761  11.435
21864SOL     OW67032   7.060   5.136  12.132
21864SOL    HW167033   6.990   5.151  12.195
21864SOL    HW267034   7.044   5.047  12.100
21865SOL     OW67035   7.233   5.492  11.746
21865SOL    HW167036   7.211   5.453  11.661
21865SOL    HW267037   7.218   5.422  11.810
21866SOL     OW67038   6.175   4.478  11.483
21866SOL    HW167039   6.147   4.539  11.415
21866SOL    HW267040   6.097   4.460  11.534
21867SOL     OW67041   6.880   4.097  12.109
21867SOL    HW167042   6.790   4.064  12.107
21867SOL    HW267043   6.925   4.040  12.170
21868SOL     OW67044   7.161   5.406  11.483
21868SOL    HW167045   7.254   5.424  11.477
21868SOL    HW267046   7.134   5.387  11.393
21869SOL     OW67047   6.569   4.074  12.386
21869SOL    HW167048   6.578   4.146  12.448
21869SOL    HW267049   6.475   4.070  12.367
21870SOL     OW67050   6.636   4.427  11.597
21870SOL    HW167051   6.660   4.421  11.689
21870SOL    HW267052   6.557   4.373  11.589
21871SOL     OW67053   5.668   4.560  11.945
21871SOL    HW167054   5.748   4.547  11.997
21871SOL    HW267055   5.624   4.634  11.988
21872SOL     OW67056   6.487   4.074  11.369
21872SOL    HW167057   6.528   4.139  11.313
21872SOL    HW267058   6.496   3.991  11.322
21873SOL     OW67059   6.963   4.872  11.713
21873SOL    HW167060   7.050   4.867  11.674
21873SOL    HW267061   6.916   4.935  11.658
21874SOL     OW67062   6.115   3.905  12.061
21874SOL    HW167063   6.123   3.928  12.153
21874SOL    HW267064   6.116   3.989  12.015
21875SOL     OW67065   6.576   5.179  11.642
21875SOL    HW167066   6.559   5.260  11.593
21875SOL    HW267067   6.552   5.200  11.732
21876SOL     OW67068   5.943   5.538  12.039
21876SOL    HW167069   5.984   5.452  12.049
21876SOL    HW267070   6.010   5.600  12.067
21877SOL     OW67071   7.391   4.786  12.045
21877SOL    HW167072   7.339   4.836  11.981
21877SOL    HW267073   7.332   4.772  12.119
21878SOL     OW67074   5.898   4.671  11.422
21878SOL    HW167075   5.941   4.710  11.346
21878SOL    HW267076   5.863   4.588  11.389
21879SOL     OW67077   7.059   4.468  11.882
21879SOL    HW167078   7.063   4.434  11.972
21879SOL    HW267079   7.139   4.519  11.872
21880SOL     OW67080   6.703   5.521  11.362
21880SOL    HW167081   6.634   5.487  11.419
21880SOL    HW267082   6.733   5.445  11.312
21881SOL     OW67083   7.226   5.115  11.255
21881SOL    HW167084   7.178   5.197  11.246
21881SOL    HW267085   7.159   5.047  11.242
21882SOL     OW67086   6.042   5.464  11.488
21882SOL    HW167087   6.090   5.515  11.553
21882SOL    HW267088   6.111   5.421  11.437
21883SOL     OW67089   6.986   3.829  11.623
21883SOL    HW167090   6.979   3.807  11.530
21883SOL    HW267091   7.080   3.844  11.638
21884SOL     OW67092   5.846   5.506  12.386
21884SOL    HW167093   5.886   5.432  12.432
21884SOL    HW267094   5.798   5.465  12.313
21885SOL     OW67095   6.513   5.436  12.081
21885SOL    HW167096   6.586   5.381  12.111
21885SOL    HW267097   6.479   5.390  12.004
21886SOL     OW67098   5.969   4.409  11.646
21886SOL    HW167099   5.989   4.317  11.664
21886SOL    HW267100   5.876   4.418  11.668
21887SOL     OW67101   6.235   3.843  11.270
21887SOL    HW167102   6.292   3.769  11.293
21887SOL    HW267103   6.177   3.808  11.202
21888SOL     OW67104   6.406   5.116  12.101
21888SOL    HW167105   6.492   5.105  12.061
21888SOL    HW267106   6.345   5.113  12.028
21889SOL     OW67107   6.521   4.226  12.068
21889SOL    HW167108   6.491   4.218  11.978
21889SOL    HW267109   6.559   4.141  12.089
21890SOL     OW67110   6.135   3.780  11.678
21890SOL    HW167111   6.060   3.779  11.738
21890SOL    HW267112   6.120   3.857  11.623
21891SOL     OW67113   7.020   4.932  11.211
21891SOL    HW167114   7.051   4.856  11.260
21891SOL    HW267115   6.937   4.955  11.251
21892SOL     OW67116   5.872   3.776  11.346
21892SOL    HW167117   5.919   3.847  11.302
21892SOL    HW267118   5.942   3.722  11.385
21893SOL     OW67119   6.529   3.967  11.624
21893SOL    HW167120   6.505   4.007  11.540
21893SOL    HW267121   6.622   3.985  11.633
21894SOL     OW67122   6.817   5.291  11.961
21894SOL    HW167123   6.822   5.356  11.891
21894SOL    HW267124   6.875   5.325  12.029
21895SOL     OW67125   6.060   4.891  11.885
21895SOL    HW167126   5.996   4.864  11.951
21895SOL    HW267127   6.018   4.871  11.802
21896SOL     OW67128   6.862   5.503  11.772
21896SOL    HW167129   6.904   5.578  11.730
21896SOL    HW267130   6.778   5.537  11.802
21897SOL     OW67131   6.612   4.252  11.201
21897SOL    HW167132   6.571   4.336  11.178
21897SOL    HW267133   6.678   4.275  11.267
21898SOL     OW67134   6.131   3.920  12.328
21898SOL    HW167135   6.165   3.853  12.387
21898SOL    HW267136   6.043   3.938  12.361
21899SOL     OW67137   6.448   4.175  11.807
21899SOL    HW167138   6.403   4.233  11.745
21899SOL    HW267139   6.472   4.098  11.755
21900SOL     OW67140   6.614   3.762  11.910
21900SOL    HW167141   6.550   3.770  11.839
21900SOL    HW267142   6.578   3.694  11.966
21901SOL     OW67143   7.032   4.878  12.039
21901SOL    HW167144   6.959   4.827  12.003
21901SOL    HW267145   7.088   4.895  11.963
21902SOL     OW67146   7.048   4.330  12.125
21902SOL    HW167147   6.988   4.256  12.131
21902SOL    HW267148   7.105   4.323  12.202
21903SOL     OW67149   7.510   4.522  11.530
21903SOL    HW167150   7.532   4.469  11.607
21903SOL    HW267151   7.450   4.467  11.479
21904SOL     OW67152   6.066   5.161  11.316
21904SOL    HW167153   6.005   5.114  11.372
21904SOL    HW267154   6.021   5.168  11.232
21905SOL     OW67155   7.254   4.971  11.887
21905SOL    HW167156   7.258   4.937  11.798
21905SOL    HW267157   7.234   5.064  11.878
21906SOL     OW67158   6.974   4.304  11.240
21906SOL    HW167159   6.918   4.279  11.314
21906SOL    HW267160   7.063   4.286  11.270
21907SOL     OW67161   6.108   3.981  11.486
21907SOL    HW167162   6.158   3.937  11.417
21907SOL    HW267163   6.084   4.065  11.447
21908SOL     OW67164   6.696   4.957  12.276
21908SOL    HW167165   6.612   4.948  12.320
21908SOL    HW267166   6.673   4.981  12.186
21909SOL     OW67167   7.195   4.812  12.251
21909SOL    HW167168   7.158   4.853  12.328
21909SOL    HW267169   7.131   4.829  12.181
21910SOL     OW67170   5.980   4.501  12.442
21910SOL    HW167171   6.018   4.584  12.414
21910SOL    HW267172   6.053   4.439  12.438
21911SOL     OW67173   6.844   4.086  12.427
21911SOL    HW167174   6.873   4.170  12.463
21911SOL    HW267175   6.754   4.102  12.398
21912SOL     OW67176   5.955   4.838  11.636
21912SOL    HW167177   5.935   4.916  11.585
21912SOL    HW267178   5.936   4.765  11.577
21913SOL     OW67179   6.137   4.211  12.047
21913SOL    HW167180   6.144   4.262  11.966
21913SOL    HW267181   6.187   4.261  12.111
21914SOL     OW67182   6.824   5.078  11.562
21914SOL    HW167183   6.883   5.145  11.596
21914SOL    HW267184   6.739   5.099  11.601
21915SOL     OW67185   6.869   5.164  12.327
21915SOL    HW167186   6.882   5.148  12.420
21915SOL    HW267187   6.805   5.099  12.300
21916SOL     OW67188   7.155   4.342  11.653
21916SOL    HW167189   7.109   4.380  11.728
21916SOL    HW267190   7.178   4.418  11.598
21917SOL     OW67191   5.968   5.273  12.482
21917SOL    HW167192   5.946   5.225  12.402
21917SOL    HW267193   6.018   5.211  12.534
21918SOL     OW67194   6.904   4.569  12.179
21918SOL    HW167195   6.816   4.544  12.153
21918SOL    HW267196   6.958   4.492  12.160
21919SOL     OW67197   6.782   4.251  11.433
21919SOL    HW167198   6.790   4.173  11.489
21919SOL    HW267199   6.745   4.318  11.491
21920SOL     OW67200   5.879   3.933  12.418
21920SOL    HW167201   5.817   3.994  12.459
21920SOL    HW267202   5.869   3.852  12.467
21921SOL     OW67203   5.640   5.049  12.432
21921SOL    HW167204   5.684   4.973  12.470
21921SOL    HW267205   5.646   5.117  12.500
21922SOL     OW67206   6.330   4.319  12.251
21922SOL    HW167207   6.398   4.296  12.187
21922SOL    HW267208   6.291   4.399  12.216
21923SOL     OW67209   5.907   3.791  11.853
21923SOL    HW167210   5.888   3.884  11.858
21923SOL    HW267211   5.823   3.751  11.830
21924SOL     OW67212   7.211   4.109  11.524
21924SOL    HW167213   7.242   4.045  11.588
21924SOL    HW267214   7.184   4.184  11.577
21925SOL     OW67215   6.641   4.461  12.144
21925SOL    HW167216   6.620   4.478  12.235
21925SOL    HW267217   6.597   4.378  12.124
21926SOL     OW67218   7.112   3.992  11.295
21926SOL    HW167219   7.050   3.929  11.330
21926SOL    HW267220   7.149   4.035  11.372
21927SOL     OW67221   6.850   4.548  11.196
21927SOL    HW167222   6.896   4.465  11.201
21927SOL    HW267223   6.886   4.591  11.118
21928SOL     OW67224   6.660   5.065  12.018
21928SOL    HW167225   6.666   4.995  11.954
21928SOL    HW267226   6.719   5.133  11.985
21929SOL     OW67227   5.886   4.538  12.112
21929SOL    HW167228   5.980   4.552  12.106
21929SOL    HW267229   5.877   4.451  12.150
21930SOL     OW67230   5.891   4.255  12.168
21930SOL    HW167231   5.863   4.164  12.166
21930SOL    HW267232   5.977   4.255  12.127
21931SOL     OW67233   6.755   3.943   0.143
21931SOL    HW167234   6.733   4.010   0.208
21931SOL    HW267235   6.785   3.993   0.067
21932SOL     OW67236   5.599   5.054  11.377
21932SOL    HW167237   5.512   5.069  11.340
21932SOL    HW267238   5.597   4.963  11.408
21933SOL     OW67239   5.679   5.503  12.113
21933SOL    HW167240   5.649   5.424  12.068
21933SOL    HW267241   5.769   5.515  12.083
21934SOL     OW67242   6.080   5.302  12.075
21934SOL    HW167243   6.149   5.356  12.113
21934SOL    HW267244   6.126   5.238  12.021
21935SOL     OW67245   6.575   4.505  12.418
21935SOL    HW167246   6.633   4.560  12.471
21935SOL    HW267247   6.493   4.553  12.414
21936SOL     OW67248   5.641   4.284  12.285
21936SOL    HW167249   5.719   4.288  12.229
21936SOL    HW267250   5.676   4.277  12.374
21937SOL     OW67251   6.399   4.298  11.542
21937SOL    HW167252   6.405   4.223  11.482
21937SOL    HW267253   6.319   4.344  11.515
21938SOL     OW67254   7.228   4.318  12.329
21938SOL    HW167255   7.229   4.270  12.412
21938SOL    HW267256   7.318   4.311  12.297
21939SOL     OW67257   6.298   4.116  12.430
21939SOL    HW167258   6.228   4.072  12.382
21939SOL    HW267259   6.306   4.201  12.387
21940SOL     OW67260   6.526   5.373   0.024
21940SOL    HW167261   6.523   5.439  -0.045
21940SOL    HW267262   6.482   5.414   0.099
21941SOL     OW67263   6.049   4.220  11.363
21941SOL    HW167264   6.103   4.295  11.388
21941SOL    HW267265   5.961   4.256  11.352
21942SOL     OW67266   6.867   4.755  12.375
21942SOL    HW167267   6.888   4.701  12.299
21942SOL    HW267268   6.817   4.828  12.341
21943SOL     OW67269   6.910   4.570  11.467
21943SOL    HW167270   6.835   4.555  11.524
21943SOL    HW267271   6.875   4.562  11.378
21944SOL     OW67272   7.324   5.464  12.288
21944SOL    HW167273   7.399   5.485  12.234
21944SOL    HW267274   7.317   5.369  12.283
21945SOL     OW67275   6.824   5.444  12.276
21945SOL    HW167276   6.906   5.474  12.236
21945SOL    HW267277   6.838   5.350  12.292
21946SOL     OW67278   5.669   5.007  12.166
21946SOL    HW167279   5.656   5.022  12.260
21946SOL    HW267280   5.610   4.935  12.145
21947SOL     OW67281   7.317   3.888  11.669
21947SOL    HW167282   7.385   3.872  11.603
21947SOL    HW267283   7.303   3.803  11.710
21948SOL     OW67284   6.981   5.286  11.659
21948SOL    HW167285   7.039   5.323  11.593
21948SOL    HW267286   6.934   5.361  11.695
21949SOL     OW67287   6.863   4.654  11.834
21949SOL    HW167288   6.937   4.594  11.846
21949SOL    HW267289   6.900   4.728  11.785
21950SOL     OW67290   6.252   5.362  11.321
21950SOL    HW167291   6.267   5.374  11.227
21950SOL    HW267292   6.197   5.284  11.326
21951SOL     OW67293   7.328   5.511   0.061
21951SOL    HW167294   7.325   5.489  -0.032
21951SOL    HW267295   7.270   5.587   0.069
21952SOL     OW67296   7.427   3.890  12.146
21952SOL    HW167297   7.456   3.805  12.114
21952SOL    HW267298   7.341   3.902  12.106
21953SOL     OW67299   5.837   4.049  11.882
21953SOL    HW167300   5.749   4.078  11.857
21953SOL    HW267301   5.834   4.044  11.978
21954SOL     OW67302   6.795   5.316  11.204
21954SOL    HW167303   6.791   5.227  11.238
21954SOL    HW267304   6.724   5.320  11.140
21955SOL     OW67305   6.456   4.772  12.461
21955SOL    HW167306   6.427   4.806  12.377
21955SOL    HW267307   6.388   4.796  12.523
21956SOL     OW67308   6.475   4.629  11.488
21956SOL    HW167309   6.520   4.670  11.414
21956SOL    HW267310   6.538   4.566  11.522
21957SOL     OW67311   7.068   5.372  11.220
21957SOL    HW167312   6.977   5.348  11.203
21957SOL    HW267313   7.110   5.372  11.134
21958SOL     OW67314   6.654   4.839  11.868
21958SOL    HW167315   6.589   4.794  11.922
21958SOL    HW267316   6.720   4.772  11.851
21959SOL     OW67317   6.635   3.970  12.105
21959SOL    HW167318   6.629   3.901  12.039
21959SOL    HW267319   6.613   3.927  12.188
21960SOL     OW67320   6.179   5.223  11.643
21960SOL    HW167321   6.225   5.185  11.568
21960SOL    HW267322   6.090   5.238  11.612
21961SOL     OW67323   7.353   4.161   0.043
21961SOL    HW167324   7.448   4.171   0.051
21961SOL    HW267325   7.341   4.071   0.011
21962SOL     OW67326   5.870   5.054  11.484
21962SOL    HW167327   5.791   5.055  11.431
21962SOL    HW267328   5.846   5.100  11.565
21963SOL     OW67329   5.673   4.044  11.190
21963SOL    HW167330   5.582   4.032  11.164
21963SOL    HW267331   5.699   4.126  11.149
21964SOL     OW67332   5.642   3.873  11.460
21964SOL    HW167333   5.633   3.954  11.410
21964SOL    HW267334   5.726   3.837  11.432
21965SOL     OW67335   6.766   5.054  11.294
21965SOL    HW167336   6.672   5.035  11.292
21965SOL    HW267337   6.788   5.056  11.387
21966SOL     OW67338   7.072   5.504  12.164
21966SOL    HW167339   7.085   5.575  12.101
21966SOL    HW267340   7.158   5.492  12.204
21967SOL     OW67341   7.292   4.590  12.389
21967SOL    HW167342   7.251   4.510  12.357
21967SOL    HW267343   7.254   4.660  12.336
21968SOL     OW67344   6.798   4.041  11.628
21968SOL    HW167345   6.861   3.969  11.626
21968SOL    HW267346   6.825   4.093  11.704
21969SOL     OW67347   6.199   4.475  11.795
21969SOL    HW167348   6.199   4.498  11.888
21969SOL    HW267349   6.108   4.453  11.776
21970SOL     OW67350   7.390   4.631   0.134
21970SOL    HW167351   7.324   4.686   0.175
21970SOL    HW267352   7.355   4.613   0.047
21971SOL     OW67353   6.460   5.097  11.218
21971SOL    HW167354   6.420   5.110  11.304
21971SOL    HW267355   6.462   5.184  11.179
21972SOL     OW67356   6.248   5.522  12.135
21972SOL    HW167357   6.236   5.608  12.095
21972SOL    HW267358   6.341   5.501  12.119
21973SOL     OW67359   6.481   4.712  12.036
21973SOL    HW167360   6.489   4.622  12.068
21973SOL    HW267361   6.430   4.757  12.104
21974SOL     OW67362   6.620   4.686  11.260
21974SOL    HW167363   6.613   4.753  11.192
21974SOL    HW267364   6.704   4.643  11.242
21975SOL     OW67365   7.437   5.279  12.018
21975SOL    HW167366   7.361   5.266  11.962
21975SOL    HW267367   7.430   5.211  12.085
21976SOL     OW67368   5.672   4.955  11.847
21976SOL    HW167369   5.692   4.920  11.934
21976SOL    HW267370   5.738   4.917  11.789
21977SOL     OW67371   7.406   3.907  12.421
21977SOL    HW167372   7.425   3.813  12.431
21977SOL    HW267373   7.408   3.922  12.327
21978SOL     OW67374   6.023   4.153  11.706
21978SOL    HW167375   6.044   4.083  11.645
21978SOL    HW267376   5.961   4.114  11.768
21979SOL     OW67377   7.289   5.199  12.276
21979SOL    HW167378   7.210   5.169  12.230
21979SOL    HW267379   7.289   5.150  12.358
21980SOL     OW67380   6.414   5.314  11.849
21980SOL    HW167381   6.378   5.375  11.785
21980SOL    HW267382   6.345   5.250  11.863
21981SOL     OW67383   7.038   3.956  12.300
21981SOL    HW167384   7.103   3.934  12.367
21981SOL    HW267385   6.966   3.997  12.349
21982SOL     OW67386   6.594   3.717  12.302
21982SOL    HW167387   6.548   3.671  12.232
21982SOL    HW267388   6.684   3.686  12.296
21983SOL     OW67389   6.370   5.084  11.480
21983SOL    HW167390   6.339   4.997  11.505
21983SOL    HW267391   6.444   5.101  11.539
21984SOL     OW67392   6.946   3.776  11.356
21984SOL    HW167393   6.981   3.710  11.296
21984SOL    HW267394   6.857   3.746  11.375
21985SOL     OW67395   6.877   4.187  11.845
21985SOL    HW167396   6.830   4.270  11.849
21985SOL    HW267397   6.878   4.156  11.936
21986SOL     OW67398   7.170   3.913  12.060
21986SOL    HW167399   7.116   3.939  12.135
21986SOL    HW267400   7.168   3.990  12.002
21987SOL     OW67401   5.625   4.790  11.481
21987SOL    HW167402   5.718   4.786  11.458
21987SOL    HW267403   5.601   4.700  11.500
21988SOL     OW67404   6.484   5.398  11.497
21988SOL    HW167405   6.406   5.377  11.446
21988SOL    HW267406   6.454   5.463  11.561
21989SOL     OW67407   5.865   6.198   0.025
21989SOL    HW167408   5.823   6.240   0.100
21989SOL    HW267409   5.794   6.184  -0.038
21990SOL     OW67410   5.803   5.879   1.000
21990SOL    HW167411   5.831   5.839   1.083
21990SOL    HW267412   5.717   5.842   0.983
21991SOL     OW67413   6.164   6.886   1.197
21991SOL    HW167414   6.078   6.879   1.154
21991SOL    HW267415   6.170   6.978   1.223
21992SOL     OW67416   7.144   7.107   0.713
21992SOL    HW167417   7.092   7.079   0.789
21992SOL    HW267418   7.080   7.112   0.641
21993SOL     OW67419   6.728   6.284   0.692
21993SOL    HW167420   6.769   6.370   0.680
21993SOL    HW267421   6.676   6.294   0.772
21994SOL     OW67422   7.285   6.195   0.265
21994SOL    HW167423   7.318   6.200   0.175
21994SOL    HW267424   7.268   6.101   0.278
21995SOL     OW67425   6.360   6.736   1.071
21995SOL    HW167426   6.285   6.765   1.123
21995SOL    HW267427   6.383   6.813   1.018
21996SOL     OW67428   6.473   6.341   1.833
21996SOL    HW167429   6.440   6.407   1.893
21996SOL    HW267430   6.487   6.388   1.751
21997SOL     OW67431   6.275   6.582   0.646
21997SOL    HW167432   6.339   6.576   0.717
21997SOL    HW267433   6.205   6.638   0.681
21998SOL     OW67434   6.302   6.737   1.822
21998SOL    HW167435   6.348   6.814   1.855
21998SOL    HW267436   6.222   6.771   1.783
21999SOL     OW67437   5.921   6.996   1.067
21999SOL    HW167438   5.845   6.954   1.028
21999SOL    HW267439   5.960   7.047   0.996
22000SOL     OW67440   7.038   7.098   1.366
22000SOL    HW167441   7.090   7.177   1.378
22000SOL    HW267442   6.967   7.105   1.430
22001SOL     OW67443   6.042   5.971   1.470
22001SOL    HW167444   6.114   5.910   1.480
22001SOL    HW267445   5.964   5.921   1.495
22002SOL     OW67446   7.190   6.019   0.745
22002SOL    HW167447   7.120   6.031   0.680
22002SOL    HW267448   7.201   6.106   0.784
22003SOL     OW67449   5.795   7.312   0.473
22003SOL    HW167450   5.821   7.388   0.525
22003SOL    HW267451   5.873   7.290   0.422
22004SOL     OW67452   6.723   6.927   1.704
22004SOL    HW167453   6.754   6.920   1.794
22004SOL    HW267454   6.668   6.849   1.691
22005SOL     OW67455   5.814   7.039   0.549
22005SOL    HW167456   5.784   7.130   0.554
22005SOL    HW267457   5.759   6.993   0.611
22006SOL     OW67458   5.880   6.678   0.917
22006SOL    HW167459   5.861   6.586   0.939
22006SOL    HW267460   5.808   6.727   0.956
22007SOL     OW67461   6.193   7.371   1.452
22007SOL    HW167462   6.105   7.353   1.485
22007SOL    HW267463   6.205   7.465   1.467
22008SOL     OW67464   6.158   6.549   0.160
22008SOL    HW167465   6.220   6.576   0.092
22008SOL    HW267466   6.190   6.592   0.240
22009SOL     OW67467   7.185   5.703   1.468
22009SOL    HW167468   7.190   5.783   1.415
22009SOL    HW267469   7.153   5.733   1.553
22010SOL     OW67470   5.715   6.254   0.543
22010SOL    HW167471   5.682   6.165   0.557
22010SOL    HW267472   5.706   6.296   0.628
22011SOL     OW67473   7.416   7.334   0.344
22011SOL    HW167474   7.488   7.313   0.404
22011SOL    HW267475   7.440   7.419   0.308
22012SOL     OW67476   5.617   7.109   0.129
22012SOL    HW167477   5.528   7.071   0.128
22012SOL    HW267478   5.609   7.187   0.183
22013SOL     OW67479   7.297   6.518   0.654
22013SOL    HW167480   7.341   6.466   0.587
22013SOL    HW267481   7.240   6.577   0.605
22014SOL     OW67482   7.229   6.701   0.445
22014SOL    HW167483   7.319   6.699   0.411
22014SOL    HW267484   7.231   6.767   0.515
22015SOL     OW67485   5.703   6.330   1.582
22015SOL    HW167486   5.789   6.371   1.583
22015SOL    HW267487   5.642   6.403   1.571
22016SOL     OW67488   6.204   6.979   0.740
22016SOL    HW167489   6.161   6.894   0.748
22016SOL    HW267490   6.190   7.004   0.648
22017SOL     OW67491   6.870   6.822   1.418
22017SOL    HW167492   6.897   6.753   1.357
22017SOL    HW267493   6.926   6.810   1.495
22018SOL     OW67494   6.411   5.599   0.533
22018SOL    HW167495   6.447   5.681   0.499
22018SOL    HW267496   6.316   5.612   0.532
22019SOL     OW67497   5.772   6.540   1.286
22019SOL    HW167498   5.858   6.502   1.268
22019SOL    HW267499   5.712   6.494   1.226
22020SOL     OW67500   7.104   6.596   0.228
22020SOL    HW167501   7.036   6.534   0.253
22020SOL    HW267502   7.141   6.627   0.311
22021SOL     OW67503   6.770   7.394   1.600
22021SOL    HW167504   6.826   7.423   1.528
22021SOL    HW267505   6.772   7.299   1.596
22022SOL     OW67506   5.931   5.835   1.846
22022SOL    HW167507   5.968   5.922   1.858
22022SOL    HW267508   5.837   5.847   1.858
22023SOL     OW67509   7.078   6.977   0.968
22023SOL    HW167510   7.002   7.008   1.017
22023SOL    HW267511   7.047   6.899   0.922
22024SOL     OW67512   7.242   7.343   0.591
22024SOL    HW167513   7.245   7.313   0.500
22024SOL    HW267514   7.207   7.268   0.640
22025SOL     OW67515   6.177   6.297   0.282
22025SOL    HW167516   6.177   6.382   0.239
22025SOL    HW267517   6.111   6.304   0.351
22026SOL     OW67518   6.867   5.968   0.938
22026SOL    HW167519   6.778   5.934   0.942
22026SOL    HW267520   6.918   5.908   0.993
22027SOL     OW67521   7.158   7.256   0.319
22027SOL    HW167522   7.252   7.276   0.310
22027SOL    HW267523   7.130   7.237   0.229
22028SOL     OW67524   6.387   6.197   1.447
22028SOL    HW167525   6.359   6.170   1.534
22028SOL    HW267526   6.353   6.129   1.389
22029SOL     OW67527   6.997   6.081   1.679
22029SOL    HW167528   6.990   6.107   1.771
22029SOL    HW267529   7.032   5.992   1.682
22030SOL     OW67530   6.536   6.472   1.589
22030SOL    HW167531   6.586   6.401   1.549
22030SOL    HW267532   6.486   6.509   1.517
22031SOL     OW67533   6.586   5.990   1.220
22031SOL    HW167534   6.495   6.002   1.248
22031SOL    HW267535   6.579   5.950   1.133
22032SOL     OW67536   6.645   6.284   0.424
22032SOL    HW167537   6.660   6.276   0.518
22032SOL    HW267538   6.559   6.245   0.410
22033SOL     OW67539   5.684   6.417   0.766
22033SOL    HW167540   5.758   6.402   0.825
22033SOL    HW267541   5.632   6.485   0.809
22034SOL     OW67542   5.706   7.459   1.583
22034SOL    HW167543   5.710   7.439   1.677
22034SOL    HW267544   5.618   7.431   1.557
22035SOL     OW67545   6.461   5.939   0.205
22035SOL    HW167546   6.424   5.989   0.131
22035SOL    HW267547   6.471   5.850   0.170
22036SOL     OW67548   7.314   6.203   1.772
22036SOL    HW167549   7.398   6.206   1.818
22036SOL    HW267550   7.312   6.115   1.734
22037SOL     OW67551   6.971   6.735   0.550
22037SOL    HW167552   7.043   6.718   0.489
22037SOL    HW267553   6.912   6.794   0.502
22038SOL     OW67554   6.134   5.750   0.900
22038SOL    HW167555   6.137   5.792   0.985
22038SOL    HW267556   6.121   5.821   0.837
22039SOL     OW67557   6.588   7.033   0.479
22039SOL    HW167558   6.553   7.103   0.423
22039SOL    HW267559   6.551   7.050   0.565
22040SOL     OW67560   5.943   7.404   0.866
22040SOL    HW167561   5.985   7.319   0.875
22040SOL    HW267562   6.012   7.467   0.889
22041SOL     OW67563   7.398   6.640   0.873
22041SOL    HW167564   7.358   6.607   0.793
22041SOL    HW267565   7.326   6.646   0.936
22042SOL     OW67566   6.809   7.122   1.519
22042SOL    HW167567   6.800   7.054   1.586
22042SOL    HW267568   6.745   7.097   1.452
22043SOL     OW67569   5.893   6.567   0.267
22043SOL    HW167570   5.972   6.572   0.213
22043SOL    HW267571   5.856   6.481   0.247
22044SOL     OW67572   7.063   6.369   0.746
22044SOL    HW167573   7.062   6.302   0.814
22044SOL    HW267574   7.155   6.383   0.727
22045SOL     OW67575   6.059   6.859   1.737
22045SOL    HW167576   6.031   6.866   1.646
22045SOL    HW267577   5.977   6.847   1.786
22046SOL     OW67578   6.698   7.361   0.261
22046SOL    HW167579   6.624   7.317   0.302
22046SOL    HW267580   6.736   7.296   0.202
22047SOL     OW67581   5.789   5.856   1.509
22047SOL    HW167582   5.705   5.901   1.495
22047SOL    HW267583   5.766   5.770   1.543
22048SOL     OW67584   7.230   7.003   0.117
22048SOL    HW167585   7.175   7.075   0.086
22048SOL    HW267586   7.179   6.924   0.100
22049SOL     OW67587   6.038   7.311   0.337
22049SOL    HW167588   6.088   7.372   0.391
22049SOL    HW267589   6.102   7.275   0.276
22050SOL     OW67590   6.984   5.680   0.446
22050SOL    HW167591   6.975   5.655   0.354
22050SOL    HW267592   7.078   5.672   0.463
22051SOL     OW67593   5.862   7.380   1.215
22051SOL    HW167594   5.893   7.299   1.254
22051SOL    HW267595   5.825   7.354   1.131
22052SOL     OW67596   6.522   7.286   0.891
22052SOL    HW167597   6.586   7.224   0.926
22052SOL    HW267598   6.481   7.240   0.818
22053SOL     OW67599   5.988   6.277   0.482
22053SOL    HW167600   6.006   6.184   0.496
22053SOL    HW267601   5.894   6.286   0.495
22054SOL     OW67602   7.091   5.811   1.723
22054SOL    HW167603   7.100   5.830   1.817
22054SOL    HW267604   7.027   5.740   1.720
22055SOL     OW67605   6.214   5.706   0.122
22055SOL    HW167606   6.307   5.681   0.122
22055SOL    HW267607   6.198   5.740   0.034
22056SOL     OW67608   6.352   5.861   1.761
22056SOL    HW167609   6.434   5.813   1.754
22056SOL    HW267610   6.303   5.816   1.831
22057SOL     OW67611   6.464   7.117   1.195
22057SOL    HW167612   6.442   7.075   1.112
22057SOL    HW267613   6.530   7.060   1.235
22058SOL     OW67614   6.920   6.165   1.428
22058SOL    HW167615   6.953   6.142   1.515
22058SOL    HW267616   6.949   6.256   1.415
22059SOL     OW67617   6.409   6.981   0.949
22059SOL    HW167618   6.493   6.968   0.903
22059SOL    HW267619   6.344   6.985   0.879
22060SOL     OW67620   6.517   6.101   0.892
22060SOL    HW167621   6.491   6.092   0.800
22060SOL    HW267622   6.542   6.012   0.918
22061SOL     OW67623   6.142   5.645   0.506
22061SOL    HW167624   6.059   5.641   0.552
22061SOL    HW267625   6.136   5.723   0.450
22062SOL     OW67626   7.057   6.800   0.051
22062SOL    HW167627   7.074   6.730   0.114
22062SOL    HW267628   6.987   6.766  -0.004
22063SOL     OW67629   5.908   5.674   0.192
22063SOL    HW167630   5.998   5.705   0.185
22063SOL    HW267631   5.916   5.582   0.219
22064SOL     OW67632   6.532   5.841   0.460
22064SOL    HW167633   6.504   5.876   0.376
22064SOL    HW267634   6.627   5.851   0.460
22065SOL     OW67635   6.656   6.269   1.453
22065SOL    HW167636   6.577   6.215   1.456
22065SOL    HW267637   6.728   6.206   1.444
22066SOL     OW67638   6.829   7.158   0.798
22066SOL    HW167639   6.828   7.218   0.724
22066SOL    HW267640   6.847   7.213   0.874
22067SOL     OW67641   6.068   6.742   0.733
22067SOL    HW167642   6.003   6.721   0.800
22067SOL    HW267643   6.021   6.733   0.651
22068SOL     OW67644   6.846   7.381   0.623
22068SOL    HW167645   6.892   7.442   0.566
22068SOL    HW267646   6.771   7.430   0.655
22069SOL     OW67647   6.636   6.205   0.057
22069SOL    HW167648   6.613   6.130   0.002
22069SOL    HW267649   6.685   6.167   0.130
22070SOL     OW67650   5.681   6.130   1.397
22070SOL    HW167651   5.772   6.136   1.368
22070SOL    HW267652   5.671   6.201   1.460
22071SOL     OW67653   6.143   5.820   1.172
22071SOL    HW167654   6.181   5.740   1.208
22071SOL    HW267655   6.052   5.817   1.199
22072SOL     OW67656   6.457   6.051   0.633
22072SOL    HW167657   6.414   6.104   0.567
22072SOL    HW267658   6.478   5.968   0.589
22073SOL     OW67659   6.600   5.648   0.745
22073SOL    HW167660   6.540   5.643   0.670
22073SOL    HW267661   6.580   5.571   0.797
22074SOL     OW67662   7.016   6.739   0.845
22074SOL    HW167663   6.944   6.677   0.845
22074SOL    HW267664   7.036   6.753   0.752
22075SOL     OW67665   7.046   6.198   0.966
22075SOL    HW167666   6.987   6.123   0.959
22075SOL    HW267667   7.098   6.181   1.044
22076SOL     OW67668   7.413   6.400   0.437
22076SOL    HW167669   7.471   6.330   0.464
22076SOL    HW267670   7.369   6.367   0.359
22077SOL     OW67671   6.072   6.998   0.171
22077SOL    HW167672   6.010   6.948   0.224
22077SOL    HW267673   6.018   7.038   0.102
22078SOL     OW67674   7.256   6.859   0.661
22078SOL    HW167675   7.351   6.870   0.656
22078SOL    HW267676   7.222   6.949   0.667
22079SOL     OW67677   6.973   6.137   0.077
22079SOL    HW167678   6.914   6.132   0.152
22079SOL    HW267679   7.029   6.060   0.085
22080SOL     OW67680   6.124   5.853   0.332
22080SOL    HW167681   6.168   5.801   0.264
22080SOL    HW267682   6.094   5.931   0.286
22081SOL     OW67683   7.331   6.827   1.562
22081SOL    HW167684   7.417   6.790   1.541
22081SOL    HW267685   7.349   6.916   1.591
22082SOL     OW67686   6.637   6.963   1.355
22082SOL    HW167687   6.559   6.919   1.387
22082SOL    HW267688   6.709   6.905   1.379
22083SOL     OW67689   7.195   7.220   1.660
22083SOL    HW167690   7.189   7.254   1.571
22083SOL    HW267691   7.275   7.167   1.660
22084SOL     OW67692   6.726   6.810   1.100
22084SOL    HW167693   6.641   6.795   1.139
22084SOL    HW267694   6.707   6.841   1.011
22085SOL     OW67695   7.204   6.705   1.058
22085SOL    HW167696   7.163   6.731   1.141
22085SOL    HW267697   7.131   6.701   0.996
22086SOL     OW67698   6.502   5.672   1.392
22086SOL    HW167699   6.520   5.659   1.299
22086SOL    HW267700   6.582   5.712   1.426
22087SOL     OW67701   6.568   6.700   1.726
22087SOL    HW167702   6.478   6.717   1.752
22087SOL    HW267703   6.564   6.621   1.672
22088SOL     OW67704   6.299   6.652   0.377
22088SOL    HW167705   6.284   6.626   0.468
22088SOL    HW267706   6.378   6.605   0.352
22089SOL     OW67707   6.011   6.407   1.254
22089SOL    HW167708   6.078   6.415   1.322
22089SOL    HW267709   5.977   6.319   1.265
22090SOL     OW67710   6.847   5.949   1.281
22090SOL    HW167711   6.877   6.029   1.324
22090SOL    HW267712   6.757   5.969   1.254
22091SOL     OW67713   5.658   7.169   1.365
22091SOL    HW167714   5.622   7.230   1.300
22091SOL    HW267715   5.752   7.167   1.347
22092SOL     OW67716   5.929   6.712   0.501
22092SOL    HW167717   5.919   6.787   0.442
22092SOL    HW267718   5.927   6.636   0.444
22093SOL     OW67719   6.137   6.119   0.868
22093SOL    HW167720   6.147   6.175   0.791
22093SOL    HW267721   6.210   6.142   0.925
22094SOL     OW67722   6.834   6.931   0.412
22094SOL    HW167723   6.886   7.008   0.436
22094SOL    HW267724   6.744   6.955   0.434
22095SOL     OW67725   6.877   7.045   1.142
22095SOL    HW167726   6.918   7.045   1.228
22095SOL    HW267727   6.817   6.971   1.144
22096SOL     OW67728   7.159   6.194   0.509
22096SOL    HW167729   7.083   6.252   0.513
22096SOL    HW267730   7.199   6.215   0.424
22097SOL     OW67731   5.927   7.124   1.303
22097SOL    HW167732   5.916   7.072   1.223
22097SOL    HW267733   6.022   7.131   1.312
22098SOL     OW67734   5.999   6.339   1.606
22098SOL    HW167735   6.069   6.373   1.549
22098SOL    HW267736   6.017   6.245   1.611
22099SOL     OW67737   6.586   5.727   1.749
22099SOL    HW167738   6.649   5.796   1.729
22099SOL    HW267739   6.635   5.646   1.735
22100SOL     OW67740   6.080   5.621   1.759
22100SOL    HW167741   6.031   5.569   1.695
22100SOL    HW267742   6.024   5.697   1.776
22101SOL     OW67743   6.182   6.455   1.041
22101SOL    HW167744   6.176   6.548   1.019
22101SOL    HW267745   6.115   6.442   1.108
22102SOL     OW67746   6.921   6.440   1.029
22102SOL    HW167747   6.837   6.429   0.984
22102SOL    HW267748   6.970   6.361   1.008
22103SOL     OW67749   6.784   6.100   0.274
22103SOL    HW167750   6.801   6.030   0.337
22103SOL    HW267751   6.739   6.168   0.325
22104SOL     OW67752   5.883   5.782   1.249
22104SOL    HW167753   5.845   5.810   1.332
22104SOL    HW267754   5.867   5.688   1.244
22105SOL     OW67755   5.650   6.903   1.272
22105SOL    HW167756   5.672   6.842   1.343
22105SOL    HW267757   5.637   6.987   1.316
22106SOL     OW67758   6.322   6.220   1.061
22106SOL    HW167759   6.388   6.207   0.992
22106SOL    HW267760   6.283   6.305   1.041
22107SOL     OW67761   7.266   6.547   1.843
22107SOL    HW167762   7.269   6.640   1.822
22107SOL    HW267763   7.224   6.543   1.929
22108SOL     OW67764   5.895   5.642   0.625
22108SOL    HW167765   5.871   5.733   0.643
22108SOL    HW267766   5.900   5.601   0.711
22109SOL     OW67767   7.203   5.945   0.379
22109SOL    HW167768   7.244   5.877   0.432
22109SOL    HW267769   7.179   6.014   0.441
22110SOL     OW67770   6.619   6.346   0.954
22110SOL    HW167771   6.605   6.361   1.048
22110SOL    HW267772   6.590   6.256   0.939
22111SOL     OW67773   6.582   7.168   1.719
22111SOL    HW167774   6.546   7.198   1.636
22111SOL    HW267775   6.605   7.076   1.704
22112SOL     OW67776   7.432   7.083   1.599
22112SOL    HW167777   7.457   7.109   1.511
22112SOL    HW267778   7.510   7.098   1.652
22113SOL     OW67779   5.940   6.506   1.815
22113SOL    HW167780   6.023   6.517   1.862
22113SOL    HW267781   5.960   6.444   1.745
22114SOL     OW67782   7.082   5.886   0.137
22114SOL    HW167783   7.040   5.801   0.147
22114SOL    HW267784   7.127   5.901   0.220
22115SOL     OW67785   6.899   6.414   0.058
22115SOL    HW167786   6.925   6.322   0.045
22115SOL    HW267787   6.936   6.460  -0.018
22116SOL     OW67788   6.663   6.937   0.858
22116SOL    HW167789   6.662   6.862   0.799
22116SOL    HW267790   6.724   6.999   0.818
22117SOL     OW67791   5.892   6.391   0.944
22117SOL    HW167792   5.982   6.396   0.913
22117SOL    HW267793   5.884   6.302   0.980
22118SOL     OW67794   5.918   6.119   1.020
22118SOL    HW167795   5.877   6.034   1.005
22118SOL    HW267796   5.994   6.119   0.962
22119SOL     OW67797   6.731   5.963   1.680
22119SOL    HW167798   6.678   6.010   1.745
22119SOL    HW267799   6.813   6.014   1.676
22120SOL     OW67800   6.744   5.780   1.471
22120SOL    HW167801   6.734   5.844   1.541
22120SOL    HW267802   6.785   5.828   1.400
22121SOL     OW67803   5.680   7.363   0.937
22121SOL    HW167804   5.649   7.285   0.891
22121SOL    HW267805   5.769   7.377   0.903
22122SOL     OW67806   6.077   7.165   0.903
22122SOL    HW167807   6.148   7.223   0.930
22122SOL    HW267808   6.118   7.102   0.845
22123SOL     OW67809   6.552   6.371   1.216
22123SOL    HW167810   6.600   6.348   1.296
22123SOL    HW267811   6.470   6.322   1.223
22124SOL     OW67812   5.617   6.144   1.118
22124SOL    HW167813   5.682   6.114   1.054
22124SOL    HW267814   5.661   6.133   1.203
22125SOL     OW67815   5.776   6.107   1.732
22125SOL    HW167816   5.800   6.046   1.662
22125SOL    HW267817   5.741   6.184   1.687
22126SOL     OW67818   6.994   6.499   1.660
22126SOL    HW167819   7.001   6.594   1.660
22126SOL    HW267820   6.970   6.476   1.570
22127SOL     OW67821   6.404   6.163   0.376
22127SOL    HW167822   6.410   6.087   0.319
22127SOL    HW267823   6.327   6.210   0.345
22128SOL     OW67824   7.220   6.190   1.188
22128SOL    HW167825   7.210   6.120   1.254
22128SOL    HW267826   7.305   6.174   1.148
22129SOL     OW67827   5.840   7.135   1.739
22129SOL    HW167828   5.804   7.183   1.813
22129SOL    HW267829   5.838   7.043   1.767
22130SOL     OW67830   6.312   6.026   1.251
22130SOL    HW167831   6.249   5.958   1.229
22130SOL    HW267832   6.302   6.091   1.181
22131SOL     OW67833   6.499   7.260   1.471
22131SOL    HW167834   6.485   7.204   1.394
22131SOL    HW267835   6.486   7.349   1.438
22132SOL     OW67836   6.053   6.067   0.186
22132SOL    HW167837   6.103   6.145   0.213
22132SOL    HW267838   5.988   6.100   0.125
22133SOL     OW67839   5.730   6.728   1.476
22133SOL    HW167840   5.731   6.684   1.561
22133SOL    HW267841   5.744   6.658   1.413
22134SOL     OW67842   6.916   6.638   1.211
22134SOL    HW167843   6.922   6.566   1.148
22134SOL    HW267844   6.850   6.697   1.174
22135SOL     OW67845   6.893   6.427   0.332
22135SOL    HW167846   6.811   6.393   0.368
22135SOL    HW267847   6.885   6.414   0.237
22136SOL     OW67848   7.356   7.322   1.149
22136SOL    HW167849   7.431   7.341   1.093
22136SOL    HW267850   7.282   7.314   1.088
22137SOL     OW67851   6.832   7.313   1.093
22137SOL    HW167852   6.920   7.341   1.071
22137SOL    HW267853   6.841   7.221   1.117
22138SOL     OW67854   5.678   6.861   1.005
22138SOL    HW167855   5.660   6.872   1.098
22138SOL    HW267856   5.611   6.799   0.975
22139SOL     OW67857   6.260   7.271   1.729
22139SOL    HW167858   6.191   7.338   1.737
22139SOL    HW267859   6.289   7.278   1.638
22140SOL     OW67860   6.493   5.672   0.099
22140SOL    HW167861   6.520   5.662   0.008
22140SOL    HW267862   6.574   5.666   0.149
22141SOL     OW67863   7.332   5.741   0.515
22141SOL    HW167864   7.393   5.716   0.445
22141SOL    HW267865   7.303   5.659   0.553
22142SOL     OW67866   6.979   7.158   0.499
22142SOL    HW167867   7.035   7.190   0.429
22142SOL    HW267868   6.922   7.232   0.519
22143SOL     OW67869   5.726   7.398   1.844
22143SOL    HW167870   5.679   7.324   1.884
22143SOL    HW267871   5.774   7.438   1.917
22144SOL     OW67872   6.857   6.526   0.681
22144SOL    HW167873   6.931   6.469   0.700
22144SOL    HW267874   6.891   6.590   0.619
22145SOL     OW67875   6.379   6.869   1.412
22145SOL    HW167876   6.351   6.911   1.493
22145SOL    HW267877   6.304   6.877   1.353
22146SOL     OW67878   6.251   7.196   0.194
22146SOL    HW167879   6.305   7.196   0.116
22146SOL    HW267880   6.198   7.116   0.187
22147SOL     OW67881   7.204   7.320   1.393
22147SOL    HW167882   7.260   7.321   1.316
22147SOL    HW267883   7.189   7.413   1.413
22148SOL     OW67884   7.430   5.747   0.968
22148SOL    HW167885   7.457   5.659   0.943
22148SOL    HW267886   7.343   5.758   0.929
22149SOL     OW67887   5.859   5.895   0.722
22149SOL    HW167888   5.776   5.921   0.681
22149SOL    HW267889   5.841   5.896   0.816
22150SOL     OW67890   6.804   7.198   0.072
22150SOL    HW167891   6.790   7.106   0.094
22150SOL    HW267892   6.752   7.213  -0.007
22151SOL     OW67893   6.408   6.595   1.380
22151SOL    HW167894   6.429   6.584   1.288
22151SOL    HW267895   6.399   6.690   1.391
22152SOL     OW67896   6.527   6.524   0.311
22152SOL    HW167897   6.575   6.549   0.233
22152SOL    HW267898   6.565   6.441   0.338
22153SOL     OW67899   7.075   7.223   0.041
22153SOL    HW167900   6.980   7.208   0.048
22153SOL    HW267901   7.095   7.203  -0.050
22154SOL     OW67902   5.952   6.898   1.492
22154SOL    HW167903   5.932   6.973   1.436
22154SOL    HW267904   5.877   6.839   1.480
22155SOL     OW67905   7.191   6.894   1.279
22155SOL    HW167906   7.239   6.863   1.356
22155SOL    HW267907   7.127   6.956   1.314
22156SOL     OW67908   6.649   6.705   0.726
22156SOL    HW167909   6.572   6.655   0.755
22156SOL    HW267910   6.710   6.639   0.694
22157SOL     OW67911   6.614   5.835   0.962
22157SOL    HW167912   6.609   5.791   0.877
22157SOL    HW267913   6.602   5.766   1.026
22158SOL     OW67914   6.199   7.068   0.483
22158SOL    HW167915   6.246   7.019   0.416
22158SOL    HW267916   6.119   7.098   0.439
22159SOL     OW67917   7.325   5.982   1.387
22159SOL    HW167918   7.398   6.043   1.379
22159SOL    HW267919   7.348   5.909   1.330
22160SOL     OW67920   5.860   6.910   0.320
22160SOL    HW167921   5.774   6.903   0.278
22160SOL    HW267922   5.845   6.963   0.398
22161SOL     OW67923   5.707   6.634   1.736
22161SOL    HW167924   5.628   6.605   1.781
22161SOL    HW267925   5.777   6.582   1.775
22162SOL     OW67926   6.262   5.778   1.502
22162SOL    HW167927   6.345   5.753   1.462
22162SOL    HW267928   6.286   5.811   1.589
22163SOL     OW67929   7.005   6.433   1.394
22163SOL    HW167930   6.949   6.489   1.341
22163SOL    HW267931   7.090   6.437   1.351
22164SOL     OW67932   5.654   5.740   0.286
22164SOL    HW167933   5.659   5.806   0.355
22164SOL    HW267934   5.745   5.728   0.257
22165SOL     OW67935   6.772   6.939   0.119
22165SOL    HW167936   6.684   6.906   0.101
22165SOL    HW267937   6.796   6.900   0.202
22166SOL     OW67938   6.211   6.410   1.440
22166SOL    HW167939   6.268   6.486   1.426
22166SOL    HW267940   6.270   6.335   1.444
22167SOL     OW67941   7.094   7.378   0.981
22167SOL    HW167942   7.082   7.373   0.886
22167SOL    HW267943   7.116   7.470   0.997
22168SOL     OW67944   6.318   6.132   1.697
22168SOL    HW167945   6.358   6.185   1.767
22168SOL    HW267946   6.325   6.042   1.728
22169SOL     OW67947   7.058   6.769   1.630
22169SOL    HW167948   7.040   6.793   1.721
22169SOL    HW267949   7.147   6.800   1.614
22170SOL     OW67950   5.950   7.327   1.572
22170SOL    HW167951   5.867   7.370   1.551
22170SOL    HW267952   5.925   7.248   1.619
22171SOL     OW67953   7.249   6.458   1.252
22171SOL    HW167954   7.242   6.368   1.222
22171SOL    HW267955   7.240   6.511   1.173
22172SOL     OW67956   6.810   5.901   0.459
22172SOL    HW167957   6.867   5.824   0.452
22172SOL    HW267958   6.842   5.947   0.537
22173SOL     OW67959   6.168   6.326   0.686
22173SOL    HW167960   6.211   6.408   0.662
22173SOL    HW267961   6.107   6.309   0.614
22174SOL     OW67962   7.318   5.956   1.659
22174SOL    HW167963   7.315   5.964   1.564
22174SOL    HW267964   7.249   5.893   1.680
22175SOL     OW67965   7.293   6.507   1.519
22175SOL    HW167966   7.319   6.599   1.529
22175SOL    HW267967   7.289   6.493   1.425
22176SOL     OW67968   6.493   6.946   0.066
22176SOL    HW167969   6.435   6.936   0.141
22176SOL    HW267970   6.485   7.039   0.042
22177SOL     OW67971   6.254   7.373   0.946
22177SOL    HW167972   6.234   7.463   0.918
22177SOL    HW267973   6.347   7.361   0.924
22178SOL     OW67974   6.453   6.563   0.861
22178SOL    HW167975   6.501   6.486   0.891
22178SOL    HW267976   6.417   6.602   0.941
22179SOL     OW67977   6.672   6.580   0.082
22179SOL    HW167978   6.623   6.531   0.016
22179SOL    HW267979   6.759   6.541   0.081
22180SOL     OW67980   7.373   7.102   0.895
22180SOL    HW167981   7.312   7.119   0.823
22180SOL    HW267982   7.437   7.041   0.859
22181SOL     OW67983   5.801   6.876   1.840
22181SOL    HW167984   5.765   6.801   1.793
22181SOL    HW267985   5.741   6.890   1.913
22182SOL     OW67986   5.674   6.822   0.670
22182SOL    HW167987   5.668   6.765   0.746
22182SOL    HW267988   5.730   6.775   0.608
22183SOL     OW67989   6.277   7.000   1.634
22183SOL    HW167990   6.199   6.953   1.664
22183SOL    HW267991   6.271   7.086   1.674
22184SOL     OW67992   7.397   5.770   1.238
22184SOL    HW167993   7.392   5.677   1.257
22184SOL    HW267994   7.407   5.775   1.143
22185SOL     OW67995   6.031   6.020   0.540
22185SOL    HW167996   6.058   5.952   0.479
22185SOL    HW267997   5.974   5.974   0.602
22186SOL     OW67998   5.930   6.150   1.295
22186SOL    HW167999   5.981   6.086   1.344
22186SOL    HW268000   5.939   6.123   1.203
22187SOL     OW68001   6.417   7.169   0.673
22187SOL    HW168002   6.398   7.239   0.610
22187SOL    HW268003   6.342   7.110   0.666
22188SOL     OW68004   7.009   5.809   1.111
22188SOL    HW168005   7.004   5.716   1.132
22188SOL    HW268006   6.958   5.852   1.179
22189SOL     OW68007   6.588   5.611   1.129
22189SOL    HW168008   6.539   5.542   1.084
22189SOL    HW268009   6.677   5.578   1.135
22190SOL     OW68010   6.369   6.913   0.318
22190SOL    HW168011   6.332   6.825   0.327
22190SOL    HW268012   6.450   6.910   0.370
22191SOL     OW68013   6.205   7.146   1.291
22191SOL    HW168014   6.207   7.224   1.347
22191SOL    HW268015   6.292   7.142   1.252
22192SOL     OW68016   6.964   5.635   0.173
22192SOL    HW168017   6.964   5.554   0.122
22192SOL    HW268018   6.872   5.660   0.177
22193SOL     OW68019   6.890   6.053   0.676
22193SOL    HW168020   6.835   6.131   0.675
22193SOL    HW268021   6.882   6.019   0.766
22194SOL     OW68022   7.175   5.781   0.888
22194SOL    HW168023   7.116   5.803   0.960
22194SOL    HW268024   7.171   5.857   0.830
22195SOL     OW68025   5.632   6.659   0.351
22195SOL    HW168026   5.721   6.649   0.317
22195SOL    HW268027   5.608   6.571   0.379
22196SOL     OW68028   6.468   7.246   0.355
22196SOL    HW168029   6.389   7.221   0.307
22196SOL    HW268030   6.440   7.318   0.412
22197SOL     OW68031   5.800   6.210   1.995
22197SOL    HW168032   5.711   6.202   2.031
22197SOL    HW268033   5.791   6.187   1.903
22198SOL     OW68034   5.815   5.872   2.821
22198SOL    HW168035   5.860   5.831   2.895
22198SOL    HW268036   5.727   5.835   2.823
22199SOL     OW68037   5.592   5.976   2.521
22199SOL    HW168038   5.515   6.007   2.570
22199SOL    HW268039   5.556   5.914   2.458
22200SOL     OW68040   6.158   6.887   3.053
22200SOL    HW168041   6.072   6.892   3.010
22200SOL    HW268042   6.174   6.976   3.084
22201SOL     OW68043   7.167   7.100   2.572
22201SOL    HW168044   7.126   7.077   2.656
22201SOL    HW268045   7.094   7.103   2.510
22202SOL     OW68046   6.721   6.283   2.552
22202SOL    HW168047   6.767   6.367   2.544
22202SOL    HW268048   6.672   6.290   2.634
22203SOL     OW68049   7.366   6.176   2.071
22203SOL    HW168050   7.291   6.183   2.013
22203SOL    HW268051   7.345   6.103   2.130
22204SOL     OW68052   6.324   6.719   2.912
22204SOL    HW168053   6.260   6.758   2.972
22204SOL    HW268054   6.367   6.794   2.871
22205SOL     OW68055   6.467   6.345   3.695
22205SOL    HW168056   6.482   6.415   3.757
22205SOL    HW268057   6.483   6.385   3.609
22206SOL     OW68058   6.271   6.575   2.505
22206SOL    HW168059   6.337   6.571   2.573
22206SOL    HW268060   6.203   6.633   2.539
22207SOL     OW68061   6.308   6.744   3.679
22207SOL    HW168062   6.355   6.819   3.714
22207SOL    HW268063   6.228   6.781   3.640
22208SOL     OW68064   5.922   6.994   2.929
22208SOL    HW168065   5.846   6.953   2.888
22208SOL    HW268066   5.961   7.048   2.860
22209SOL     OW68067   7.039   7.087   3.228
22209SOL    HW168068   7.092   7.165   3.240
22209SOL    HW268069   6.964   7.099   3.286
22210SOL     OW68070   6.027   5.968   3.351
22210SOL    HW168071   6.109   5.919   3.355
22210SOL    HW268072   5.959   5.902   3.367
22211SOL     OW68073   7.179   6.025   2.611
22211SOL    HW168074   7.099   6.033   2.559
22211SOL    HW268075   7.170   6.089   2.680
22212SOL     OW68076   5.798   7.313   2.328
22212SOL    HW168077   5.825   7.385   2.386
22212SOL    HW268078   5.874   7.299   2.271
22213SOL     OW68079   6.729   6.920   3.550
22213SOL    HW168080   6.760   6.924   3.641
22213SOL    HW268081   6.671   6.845   3.547
22214SOL     OW68082   5.822   7.038   2.405
22214SOL    HW168083   5.792   7.129   2.412
22214SOL    HW268084   5.767   6.990   2.468
22215SOL     OW68085   5.870   6.678   2.754
22215SOL    HW168086   5.860   6.589   2.788
22215SOL    HW268087   5.808   6.731   2.805
22216SOL     OW68088   6.187   7.370   3.291
22216SOL    HW168089   6.104   7.355   3.338
22216SOL    HW268090   6.213   7.459   3.316
22217SOL     OW68091   6.165   6.570   2.005
22217SOL    HW168092   6.213   6.615   1.936
22217SOL    HW268093   6.201   6.603   2.087
22218SOL     OW68094   7.181   5.718   3.320
22218SOL    HW168095   7.203   5.802   3.280
22218SOL    HW268096   7.152   5.741   3.408
22219SOL     OW68097   5.708   6.238   2.429
22219SOL    HW168098   5.659   6.158   2.449
22219SOL    HW268099   5.697   6.292   2.507
22220SOL     OW68100   7.438   7.335   2.192
22220SOL    HW168101   7.508   7.311   2.253
22220SOL    HW268102   7.456   7.426   2.170
22221SOL     OW68103   5.646   7.176   1.979
22221SOL    HW168104   5.620   7.085   1.990
22221SOL    HW268105   5.607   7.221   2.054
22222SOL     OW68106   7.277   6.506   2.515
22222SOL    HW168107   7.364   6.467   2.510
22222SOL    HW268108   7.267   6.553   2.432
22223SOL     OW68109   7.243   6.685   2.287
22223SOL    HW168110   7.330   6.682   2.247
22223SOL    HW268111   7.252   6.750   2.357
22224SOL     OW68112   5.711   6.326   3.448
22224SOL    HW168113   5.799   6.365   3.451
22224SOL    HW268114   5.652   6.401   3.443
22225SOL     OW68115   6.210   6.980   2.594
22225SOL    HW168116   6.166   6.896   2.603
22225SOL    HW268117   6.192   7.008   2.504
22226SOL     OW68118   6.850   6.814   3.276
22226SOL    HW168119   6.884   6.744   3.220
22226SOL    HW268120   6.853   6.777   3.364
22227SOL     OW68121   6.410   5.601   2.372
22227SOL    HW168122   6.448   5.686   2.350
22227SOL    HW268123   6.317   5.618   2.384
22228SOL     OW68124   5.773   6.541   3.153
22228SOL    HW168125   5.859   6.504   3.135
22228SOL    HW268126   5.715   6.504   3.087
22229SOL     OW68127   7.114   6.581   2.068
22229SOL    HW168128   7.043   6.529   2.103
22229SOL    HW268129   7.160   6.615   2.146
22230SOL     OW68130   6.786   7.402   3.493
22230SOL    HW168131   6.783   7.467   3.424
22230SOL    HW268132   6.801   7.319   3.448
22231SOL     OW68133   7.073   7.005   2.812
22231SOL    HW168134   7.004   7.024   2.876
22231SOL    HW268135   7.055   6.915   2.784
22232SOL     OW68136   7.237   7.348   2.441
22232SOL    HW168137   7.219   7.310   2.355
22232SOL    HW268138   7.222   7.276   2.502
22233SOL     OW68139   6.178   6.304   2.139
22233SOL    HW168140   6.177   6.388   2.094
22233SOL    HW268141   6.111   6.312   2.207
22234SOL     OW68142   6.862   5.958   2.795
22234SOL    HW168143   6.774   5.922   2.803
22234SOL    HW268144   6.916   5.904   2.852
22235SOL     OW68145   7.168   7.267   2.174
22235SOL    HW168146   7.262   7.287   2.169
22235SOL    HW268147   7.143   7.247   2.084
22236SOL     OW68148   6.370   6.205   3.306
22236SOL    HW168149   6.349   6.176   3.395
22236SOL    HW268150   6.342   6.133   3.250
22237SOL     OW68151   6.988   6.064   3.541
22237SOL    HW168152   6.991   6.101   3.629
22237SOL    HW268153   7.032   5.980   3.549
22238SOL     OW68154   6.533   6.466   3.452
22238SOL    HW168155   6.587   6.398   3.411
22238SOL    HW268156   6.483   6.503   3.379
22239SOL     OW68157   6.583   5.999   3.084
22239SOL    HW168158   6.494   6.007   3.118
22239SOL    HW268159   6.577   5.935   3.014
22240SOL     OW68160   6.640   6.290   2.285
22240SOL    HW168161   6.661   6.282   2.378
22240SOL    HW268162   6.556   6.245   2.276
22241SOL     OW68163   5.680   6.406   2.640
22241SOL    HW168164   5.758   6.403   2.696
22241SOL    HW268165   5.629   6.480   2.673
22242SOL     OW68166   5.709   7.457   3.448
22242SOL    HW168167   5.715   7.429   3.539
22242SOL    HW268168   5.616   7.451   3.427
22243SOL     OW68169   6.472   5.942   2.061
22243SOL    HW168170   6.522   5.988   1.993
22243SOL    HW268171   6.434   5.867   2.017
22244SOL     OW68172   7.288   6.151   3.694
22244SOL    HW168173   7.261   6.227   3.643
22244SOL    HW268174   7.315   6.086   3.628
22245SOL     OW68175   6.974   6.731   2.408
22245SOL    HW168176   7.052   6.721   2.354
22245SOL    HW268177   6.919   6.792   2.358
22246SOL     OW68178   6.153   5.800   2.758
22246SOL    HW168179   6.154   5.803   2.854
22246SOL    HW268180   6.157   5.891   2.731
22247SOL     OW68181   6.582   7.035   2.326
22247SOL    HW168182   6.557   7.111   2.274
22247SOL    HW268183   6.553   7.056   2.414
22248SOL     OW68184   5.935   7.399   2.735
22248SOL    HW168185   5.982   7.316   2.741
22248SOL    HW268186   6.000   7.465   2.761
22249SOL     OW68187   7.376   6.646   2.742
22249SOL    HW168188   7.325   6.623   2.664
22249SOL    HW268189   7.312   6.647   2.813
22250SOL     OW68190   6.808   7.131   3.372
22250SOL    HW168191   6.793   7.056   3.430
22250SOL    HW268192   6.722   7.149   3.333
22251SOL     OW68193   5.894   6.541   2.121
22251SOL    HW168194   5.972   6.563   2.069
22251SOL    HW268195   5.860   6.461   2.082
22252SOL     OW68196   7.066   6.340   2.579
22252SOL    HW168197   7.067   6.295   2.664
22252SOL    HW268198   7.146   6.393   2.580
22253SOL     OW68199   6.060   6.855   3.596
22253SOL    HW168200   6.034   6.860   3.504
22253SOL    HW268201   5.977   6.852   3.644
22254SOL     OW68202   6.711   7.375   2.062
22254SOL    HW168203   6.638   7.342   2.113
22254SOL    HW268204   6.737   7.301   2.007
22255SOL     OW68205   5.780   5.833   3.412
22255SOL    HW168206   5.708   5.886   3.377
22255SOL    HW268207   5.755   5.743   3.395
22256SOL     OW68208   7.213   6.960   1.946
22256SOL    HW168209   7.177   7.049   1.938
22256SOL    HW268210   7.137   6.903   1.935
22257SOL     OW68211   6.043   7.327   2.178
22257SOL    HW168212   6.091   7.373   2.247
22257SOL    HW268213   6.111   7.281   2.129
22258SOL     OW68214   6.985   5.697   2.304
22258SOL    HW168215   6.981   5.665   2.214
22258SOL    HW268216   7.076   5.685   2.329
22259SOL     OW68217   5.833   7.370   3.092
22259SOL    HW168218   5.887   7.304   3.135
22259SOL    HW268219   5.835   7.347   2.999
22260SOL     OW68220   6.524   7.285   2.757
22260SOL    HW168221   6.596   7.235   2.795
22260SOL    HW268222   6.490   7.229   2.688
22261SOL     OW68223   5.978   6.256   2.339
22261SOL    HW168224   5.980   6.161   2.348
22261SOL    HW268225   5.887   6.280   2.355
22262SOL     OW68226   7.101   5.805   3.581
22262SOL    HW168227   7.111   5.826   3.674
22262SOL    HW268228   7.041   5.731   3.580
22263SOL     OW68229   6.241   5.705   1.965
22263SOL    HW168230   6.271   5.626   2.010
22263SOL    HW268231   6.182   5.673   1.897
22264SOL     OW68232   6.352   5.872   3.622
22264SOL    HW168233   6.436   5.826   3.615
22264SOL    HW268234   6.308   5.829   3.696
22265SOL     OW68235   6.461   7.113   3.050
22265SOL    HW168236   6.439   7.070   2.967
22265SOL    HW268237   6.527   7.057   3.090
22266SOL     OW68238   6.922   6.176   3.299
22266SOL    HW168239   6.955   6.141   3.382
22266SOL    HW268240   6.963   6.262   3.291
22267SOL     OW68241   6.408   6.968   2.812
22267SOL    HW168242   6.493   6.959   2.769
22267SOL    HW268243   6.346   6.977   2.740
22268SOL     OW68244   6.514   6.097   2.756
22268SOL    HW168245   6.488   6.083   2.665
22268SOL    HW268246   6.543   6.010   2.786
22269SOL     OW68247   6.141   5.661   2.376
22269SOL    HW168248   6.058   5.648   2.423
22269SOL    HW268249   6.120   5.727   2.310
22270SOL     OW68250   7.007   6.783   1.905
22270SOL    HW168251   7.031   6.710   1.962
22270SOL    HW268252   6.921   6.810   1.935
22271SOL     OW68253   5.876   5.640   2.040
22271SOL    HW168254   5.918   5.706   1.986
22271SOL    HW268255   5.947   5.588   2.076
22272SOL     OW68256   6.534   5.845   2.315
22272SOL    HW168257   6.512   5.877   2.228
22272SOL    HW268258   6.629   5.857   2.321
22273SOL     OW68259   6.665   6.270   3.316
22273SOL    HW168260   6.603   6.197   3.324
22273SOL    HW268261   6.751   6.228   3.313
22274SOL     OW68262   6.818   7.155   2.653
22274SOL    HW168263   6.824   7.224   2.586
22274SOL    HW268264   6.875   7.185   2.723
22275SOL     OW68265   6.065   6.745   2.579
22275SOL    HW168266   6.002   6.723   2.648
22275SOL    HW268267   6.016   6.734   2.497
22276SOL     OW68268   6.846   7.375   2.472
22276SOL    HW168269   6.894   7.444   2.426
22276SOL    HW268270   6.772   7.420   2.511
22277SOL     OW68271   6.619   6.112   1.886
22277SOL    HW168272   6.573   6.194   1.871
22277SOL    HW268273   6.672   6.128   1.964
22278SOL     OW68274   5.684   6.135   3.254
22278SOL    HW168275   5.776   6.138   3.228
22278SOL    HW268276   5.676   6.203   3.321
22279SOL     OW68277   6.155   5.803   3.035
22279SOL    HW168278   6.192   5.723   3.072
22279SOL    HW268279   6.062   5.799   3.060
22280SOL     OW68280   6.447   6.044   2.495
22280SOL    HW168281   6.415   6.100   2.425
22280SOL    HW268282   6.474   5.963   2.451
22281SOL     OW68283   6.604   5.634   2.599
22281SOL    HW168284   6.543   5.624   2.526
22281SOL    HW268285   6.580   5.565   2.660
22282SOL     OW68286   7.022   6.746   2.718
22282SOL    HW168287   6.951   6.682   2.731
22282SOL    HW268288   7.031   6.751   2.623
22283SOL     OW68289   7.052   6.193   2.820
22283SOL    HW168290   6.989   6.121   2.830
22283SOL    HW268291   7.108   6.186   2.898
22284SOL     OW68292   7.424   6.388   2.240
22284SOL    HW168293   7.479   6.343   2.303
22284SOL    HW268294   7.403   6.321   2.175
22285SOL     OW68295   6.076   7.012   2.011
22285SOL    HW168296   6.004   6.982   2.066
22285SOL    HW268297   6.065   6.964   1.929
22286SOL     OW68298   7.279   6.856   2.487
22286SOL    HW168299   7.370   6.850   2.516
22286SOL    HW268300   7.249   6.941   2.519
22287SOL     OW68301   6.982   6.141   1.944
22287SOL    HW168302   6.911   6.141   2.007
22287SOL    HW268303   7.034   6.063   1.967
22288SOL     OW68304   6.106   5.854   2.179
22288SOL    HW168305   6.154   5.803   2.114
22288SOL    HW268306   6.079   5.933   2.134
22289SOL     OW68307   7.343   6.846   3.461
22289SOL    HW168308   7.411   6.794   3.417
22289SOL    HW268309   7.377   6.936   3.459
22290SOL     OW68310   6.626   6.935   3.178
22290SOL    HW168311   6.551   6.907   3.231
22290SOL    HW268312   6.702   6.902   3.225
22291SOL     OW68313   7.190   7.187   3.529
22291SOL    HW168314   7.172   7.231   3.446
22291SOL    HW268315   7.281   7.156   3.520
22292SOL     OW68316   6.728   6.803   2.958
22292SOL    HW168317   6.669   6.840   3.024
22292SOL    HW268318   6.698   6.839   2.875
22293SOL     OW68319   7.196   6.678   2.941
22293SOL    HW168320   7.190   6.744   3.010
22293SOL    HW268321   7.123   6.699   2.882
22294SOL     OW68322   6.486   5.708   3.241
22294SOL    HW168323   6.514   5.669   3.157
22294SOL    HW268324   6.568   5.737   3.282
22295SOL     OW68325   6.569   6.702   3.577
22295SOL    HW168326   6.480   6.720   3.606
22295SOL    HW268327   6.563   6.620   3.529
22296SOL     OW68328   6.300   6.652   2.235
22296SOL    HW168329   6.283   6.627   2.325
22296SOL    HW268330   6.374   6.598   2.208
22297SOL     OW68331   6.010   6.406   3.115
22297SOL    HW168332   6.076   6.419   3.183
22297SOL    HW268333   5.979   6.316   3.128
22298SOL     OW68334   6.852   5.967   3.137
22298SOL    HW168335   6.882   6.042   3.188
22298SOL    HW268336   6.761   5.986   3.116
22299SOL     OW68337   5.663   7.157   3.221
22299SOL    HW168338   5.639   7.237   3.175
22299SOL    HW268339   5.758   7.153   3.215
22300SOL     OW68340   5.918   6.711   2.347
22300SOL    HW168341   5.912   6.785   2.287
22300SOL    HW268342   5.915   6.633   2.291
22301SOL     OW68343   6.131   6.100   2.708
22301SOL    HW168344   6.143   6.168   2.642
22301SOL    HW268345   6.193   6.123   2.777
22302SOL     OW68346   6.833   6.939   2.256
22302SOL    HW168347   6.888   7.009   2.290
22302SOL    HW268348   6.746   6.959   2.289
22303SOL     OW68349   6.885   7.046   3.005
22303SOL    HW168350   6.933   7.053   3.088
22303SOL    HW268351   6.829   6.970   3.016
22304SOL     OW68352   7.164   6.215   2.341
22304SOL    HW168353   7.111   6.242   2.416
22304SOL    HW268354   7.210   6.295   2.315
22305SOL     OW68355   5.932   7.113   3.170
22305SOL    HW168356   5.922   7.067   3.087
22305SOL    HW268357   6.026   7.127   3.178
22306SOL     OW68358   6.010   6.335   3.477
22306SOL    HW168359   6.068   6.379   3.416
22306SOL    HW268360   6.053   6.252   3.496
22307SOL     OW68361   7.205   6.367   3.551
22307SOL    HW168362   7.111   6.362   3.533
22307SOL    HW268363   7.240   6.418   3.478
22308SOL     OW68364   6.582   5.731   3.618
22308SOL    HW168365   6.650   5.790   3.588
22308SOL    HW268366   6.621   5.644   3.609
22309SOL     OW68367   6.003   5.660   3.619
22309SOL    HW168368   6.011   5.599   3.545
22309SOL    HW268369   6.026   5.608   3.696
22310SOL     OW68370   6.174   6.457   2.896
22310SOL    HW168371   6.209   6.546   2.899
22310SOL    HW268372   6.117   6.451   2.973
22311SOL     OW68373   6.920   6.440   2.875
22311SOL    HW168374   6.831   6.417   2.848
22311SOL    HW268375   6.971   6.360   2.863
22312SOL     OW68376   6.776   6.119   2.120
22312SOL    HW168377   6.788   6.041   2.174
22312SOL    HW268378   6.734   6.182   2.178
22313SOL     OW68379   5.887   5.786   3.087
22313SOL    HW168380   5.815   5.810   3.144
22313SOL    HW268381   5.883   5.690   3.082
22314SOL     OW68382   5.641   6.897   3.131
22314SOL    HW168383   5.667   6.842   3.204
22314SOL    HW268384   5.640   6.986   3.166
22315SOL     OW68385   6.293   6.201   2.902
22315SOL    HW168386   6.376   6.191   2.855
22315SOL    HW268387   6.271   6.294   2.892
22316SOL     OW68388   7.269   6.586   3.709
22316SOL    HW168389   7.258   6.502   3.664
22316SOL    HW268390   7.229   6.572   3.795
22317SOL     OW68391   5.842   5.679   2.522
22317SOL    HW168392   5.756   5.639   2.507
22317SOL    HW268393   5.886   5.620   2.583
22318SOL     OW68394   7.222   5.975   2.216
22318SOL    HW168395   7.245   5.906   2.278
22318SOL    HW268396   7.192   6.048   2.271
22319SOL     OW68397   6.618   6.343   2.821
22319SOL    HW168398   6.602   6.358   2.915
22319SOL    HW268399   6.589   6.252   2.807
22320SOL     OW68400   6.574   7.153   3.586
22320SOL    HW168401   6.555   7.197   3.503
22320SOL    HW268402   6.605   7.066   3.560
22321SOL     OW68403   7.441   7.092   3.456
22321SOL    HW168404   7.460   7.142   3.376
22321SOL    HW268405   7.519   7.104   3.511
22322SOL     OW68406   5.935   6.496   3.690
22322SOL    HW168407   6.018   6.529   3.726
22322SOL    HW268408   5.962   6.437   3.619
22323SOL     OW68409   7.095   5.882   1.989
22323SOL    HW168410   7.043   5.804   2.014
22323SOL    HW268411   7.143   5.905   2.069
22324SOL     OW68412   6.868   6.402   1.891
22324SOL    HW168413   6.905   6.315   1.900
22324SOL    HW268414   6.904   6.435   1.808
22325SOL     OW68415   6.659   6.932   2.717
22325SOL    HW168416   6.666   6.858   2.655
22325SOL    HW268417   6.719   6.998   2.683
22326SOL     OW68418   5.897   6.397   2.810
22326SOL    HW168419   5.991   6.417   2.808
22326SOL    HW268420   5.892   6.308   2.845
22327SOL     OW68421   5.913   6.117   2.875
22327SOL    HW168422   5.875   6.031   2.860
22327SOL    HW268423   5.991   6.119   2.819
22328SOL     OW68424   6.724   5.972   3.536
22328SOL    HW168425   6.677   6.016   3.607
22328SOL    HW268426   6.813   6.008   3.539
22329SOL     OW68427   6.729   5.796   3.324
22329SOL    HW168428   6.727   5.857   3.399
22329SOL    HW268429   6.784   5.840   3.259
22330SOL     OW68430   5.608   6.897   2.042
22330SOL    HW168431   5.518   6.918   2.015
22330SOL    HW268432   5.601   6.811   2.083
22331SOL     OW68433   5.669   7.363   2.800
22331SOL    HW168434   5.640   7.285   2.753
22331SOL    HW268435   5.759   7.377   2.771
22332SOL     OW68436   6.075   7.160   2.762
22332SOL    HW168437   6.143   7.225   2.781
22332SOL    HW268438   6.118   7.096   2.705
22333SOL     OW68439   6.548   6.368   3.085
22333SOL    HW168440   6.610   6.349   3.155
22333SOL    HW268441   6.467   6.326   3.113
22334SOL     OW68442   5.632   6.158   2.981
22334SOL    HW168443   5.716   6.146   2.934
22334SOL    HW268444   5.655   6.147   3.073
22335SOL     OW68445   5.794   6.101   3.586
22335SOL    HW168446   5.863   6.075   3.525
22335SOL    HW268447   5.752   6.176   3.544
22336SOL     OW68448   6.952   6.500   3.519
22336SOL    HW168449   7.007   6.577   3.534
22336SOL    HW268450   6.959   6.483   3.426
22337SOL     OW68451   6.404   6.160   2.234
22337SOL    HW168452   6.411   6.085   2.175
22337SOL    HW268453   6.329   6.209   2.201
22338SOL     OW68454   7.225   6.185   3.033
22338SOL    HW168455   7.219   6.124   3.106
22338SOL    HW268456   7.314   6.175   3.000
22339SOL     OW68457   5.823   7.133   3.579
22339SOL    HW168458   5.804   7.204   3.641
22339SOL    HW268459   5.832   7.055   3.634
22340SOL     OW68460   6.301   6.027   3.114
22340SOL    HW168461   6.250   5.948   3.093
22340SOL    HW268462   6.287   6.084   3.038
22341SOL     OW68463   6.533   7.253   3.325
22341SOL    HW168464   6.489   7.217   3.248
22341SOL    HW268465   6.521   7.347   3.318
22342SOL     OW68466   6.037   6.082   2.050
22342SOL    HW168467   6.096   6.154   2.069
22342SOL    HW268468   5.952   6.124   2.036
22343SOL     OW68469   5.720   6.730   3.341
22343SOL    HW168470   5.724   6.687   3.426
22343SOL    HW268471   5.739   6.661   3.278
22344SOL     OW68472   6.898   6.623   3.077
22344SOL    HW168473   6.917   6.558   3.008
22344SOL    HW268474   6.838   6.684   3.036
22345SOL     OW68475   6.901   6.448   2.168
22345SOL    HW168476   6.835   6.414   2.229
22345SOL    HW268477   6.864   6.430   2.081
22346SOL     OW68478   6.815   7.310   2.953
22346SOL    HW168479   6.895   7.338   2.909
22346SOL    HW268480   6.832   7.220   2.980
22347SOL     OW68481   5.684   6.843   2.870
22347SOL    HW168482   5.664   6.862   2.962
22347SOL    HW268483   5.609   6.794   2.838
22348SOL     OW68484   6.258   7.262   3.604
22348SOL    HW168485   6.195   7.333   3.607
22348SOL    HW268486   6.329   7.295   3.548
22349SOL     OW68487   7.315   5.752   2.362
22349SOL    HW168488   7.383   5.732   2.298
22349SOL    HW268489   7.293   5.668   2.402
22350SOL     OW68490   6.981   7.156   2.354
22350SOL    HW168491   7.039   7.196   2.288
22350SOL    HW268492   6.930   7.230   2.388
22351SOL     OW68493   5.737   7.371   3.705
22351SOL    HW168494   5.685   7.310   3.757
22351SOL    HW268495   5.784   7.424   3.769
22352SOL     OW68496   6.863   6.515   2.529
22352SOL    HW168497   6.936   6.455   2.544
22352SOL    HW268498   6.901   6.587   2.479
22353SOL     OW68499   6.379   6.866   3.282
22353SOL    HW168500   6.354   6.911   3.363
22353SOL    HW268501   6.305   6.880   3.223
22354SOL     OW68502   6.252   7.220   2.011
22354SOL    HW168503   6.264   7.233   1.917
22354SOL    HW268504   6.198   7.141   2.017
22355SOL     OW68505   7.199   7.305   3.272
22355SOL    HW168506   7.283   7.306   3.225
22355SOL    HW268507   7.185   7.397   3.296
22356SOL     OW68508   7.433   5.752   2.822
22356SOL    HW168509   7.462   5.662   2.803
22356SOL    HW268510   7.344   5.756   2.787
22357SOL     OW68511   6.798   7.176   1.893
22357SOL    HW168512   6.788   7.087   1.929
22357SOL    HW268513   6.727   7.184   1.829
22358SOL     OW68514   6.409   6.595   3.244
22358SOL    HW168515   6.449   6.586   3.157
22358SOL    HW268516   6.401   6.690   3.258
22359SOL     OW68517   6.507   6.502   2.150
22359SOL    HW168518   6.571   6.538   2.088
22359SOL    HW268519   6.555   6.434   2.197
22360SOL     OW68520   7.073   7.224   1.911
22360SOL    HW168521   6.981   7.205   1.895
22360SOL    HW268522   7.113   7.227   1.824
22361SOL     OW68523   5.952   6.889   3.352
22361SOL    HW168524   5.939   6.967   3.298
22361SOL    HW268525   5.873   6.837   3.339
22362SOL     OW68526   7.190   6.876   3.139
22362SOL    HW168527   7.240   6.849   3.216
22362SOL    HW268528   7.127   6.940   3.172
22363SOL     OW68529   6.655   6.698   2.577
22363SOL    HW168530   6.581   6.651   2.614
22363SOL    HW268531   6.718   6.630   2.554
22364SOL     OW68532   6.612   5.824   2.822
22364SOL    HW168533   6.609   5.778   2.739
22364SOL    HW268534   6.605   5.755   2.888
22365SOL     OW68535   6.190   7.072   2.336
22365SOL    HW168536   6.238   7.022   2.270
22365SOL    HW268537   6.102   7.080   2.300
22366SOL     OW68538   7.313   5.985   3.236
22366SOL    HW168539   7.388   6.044   3.240
22366SOL    HW268540   7.342   5.912   3.181
22367SOL     OW68541   5.864   6.926   2.168
22367SOL    HW168542   5.777   6.920   2.128
22367SOL    HW268543   5.849   6.970   2.251
22368SOL     OW68544   5.705   6.623   3.595
22368SOL    HW168545   5.626   6.594   3.641
22368SOL    HW268546   5.776   6.575   3.638
22369SOL     OW68547   6.257   5.796   3.368
22369SOL    HW168548   6.338   5.774   3.321
22369SOL    HW268549   6.287   5.822   3.456
22370SOL     OW68550   5.665   5.907   1.893
22370SOL    HW168551   5.580   5.885   1.855
22370SOL    HW268552   5.691   5.989   1.851
22371SOL     OW68553   7.010   6.446   3.261
22371SOL    HW168554   6.958   6.500   3.201
22371SOL    HW268555   7.098   6.446   3.223
22372SOL     OW68556   5.648   5.746   2.144
22372SOL    HW168557   5.638   5.814   2.077
22372SOL    HW268558   5.731   5.704   2.123
22373SOL     OW68559   6.764   6.914   1.985
22373SOL    HW168560   6.674   6.881   1.986
22373SOL    HW268561   6.789   6.917   2.078
22374SOL     OW68562   6.205   6.420   3.301
22374SOL    HW168563   6.265   6.494   3.288
22374SOL    HW268564   6.263   6.344   3.305
22375SOL     OW68565   7.049   7.367   2.819
22375SOL    HW168566   7.066   7.444   2.765
22375SOL    HW268567   7.133   7.348   2.862
22376SOL     OW68568   6.305   6.143   3.563
22376SOL    HW168569   6.355   6.197   3.624
22376SOL    HW268570   6.322   6.053   3.591
22377SOL     OW68571   5.949   7.324   3.419
22377SOL    HW168572   5.867   7.372   3.408
22377SOL    HW268573   5.924   7.243   3.462
22378SOL     OW68574   7.245   6.459   3.114
22378SOL    HW168575   7.244   6.372   3.073
22378SOL    HW268576   7.234   6.520   3.041
22379SOL     OW68577   6.810   5.915   2.313
22379SOL    HW168578   6.866   5.838   2.309
22379SOL    HW268579   6.839   5.962   2.392
22380SOL     OW68580   6.166   6.311   2.535
22380SOL    HW168581   6.207   6.396   2.523
22380SOL    HW268582   6.102   6.305   2.464
22381SOL     OW68583   7.333   5.949   3.510
22381SOL    HW168584   7.318   5.966   3.417
22381SOL    HW268585   7.264   5.888   3.535
22382SOL     OW68586   7.299   6.541   3.368
22382SOL    HW168587   7.387   6.577   3.376
22382SOL    HW268588   7.291   6.516   3.276
22383SOL     OW68589   6.455   6.949   1.920
22383SOL    HW168590   6.418   6.952   2.009
22383SOL    HW268591   6.451   7.040   1.890
22384SOL     OW68592   6.247   7.370   2.779
22384SOL    HW168593   6.229   7.463   2.774
22384SOL    HW268594   6.342   7.364   2.789
22385SOL     OW68595   6.458   6.560   2.716
22385SOL    HW168596   6.506   6.486   2.753
22385SOL    HW268597   6.415   6.601   2.791
22386SOL     OW68598   6.677   6.592   1.956
22386SOL    HW168599   6.644   6.632   1.876
22386SOL    HW268600   6.739   6.525   1.926
22387SOL     OW68601   7.445   7.111   2.716
22387SOL    HW168602   7.362   7.107   2.669
22387SOL    HW268603   7.462   7.020   2.741
22388SOL     OW68604   5.814   6.882   3.713
22388SOL    HW168605   5.757   6.816   3.673
22388SOL    HW268606   5.777   6.896   3.800
22389SOL     OW68607   5.685   6.819   2.529
22389SOL    HW168608   5.684   6.772   2.612
22389SOL    HW268609   5.748   6.770   2.475
22390SOL     OW68610   6.275   7.002   3.496
22390SOL    HW168611   6.195   6.960   3.529
22390SOL    HW268612   6.271   7.091   3.531
22391SOL     OW68613   7.394   5.774   3.092
22391SOL    HW168614   7.393   5.681   3.114
22391SOL    HW268615   7.409   5.777   2.998
22392SOL     OW68616   5.987   5.967   2.431
22392SOL    HW168617   6.005   5.925   2.347
22392SOL    HW268618   6.072   5.975   2.473
22393SOL     OW68619   7.294   7.092   2.977
22393SOL    HW168620   7.224   7.078   2.914
22393SOL    HW268621   7.283   7.022   3.042
22394SOL     OW68622   5.938   6.145   3.160
22394SOL    HW168623   5.984   6.084   3.218
22394SOL    HW268624   5.952   6.110   3.072
22395SOL     OW68625   6.422   7.159   2.534
22395SOL    HW168626   6.384   7.226   2.478
22395SOL    HW268627   6.351   7.097   2.550
22396SOL     OW68628   7.013   5.816   2.972
22396SOL    HW168629   7.020   5.727   3.007
22396SOL    HW268630   6.966   5.865   3.040
22397SOL     OW68631   6.591   5.607   2.997
22397SOL    HW168632   6.531   5.534   2.984
22397SOL    HW268633   6.678   5.567   2.995
22398SOL     OW68634   6.366   6.917   2.180
22398SOL    HW168635   6.339   6.827   2.195
22398SOL    HW268636   6.443   6.929   2.237
22399SOL     OW68637   6.207   7.142   3.148
22399SOL    HW168638   6.205   7.222   3.200
22399SOL    HW268639   6.295   7.140   3.111
22400SOL     OW68640   6.958   5.638   2.030
22400SOL    HW168641   6.996   5.560   1.989
22400SOL    HW268642   6.867   5.613   2.048
22401SOL     OW68643   6.893   6.054   2.540
22401SOL    HW168644   6.838   6.133   2.540
22401SOL    HW268645   6.879   6.015   2.626
22402SOL     OW68646   7.172   5.774   2.748
22402SOL    HW168647   7.117   5.798   2.822
22402SOL    HW268648   7.169   5.850   2.690
22403SOL     OW68649   5.630   6.648   2.172
22403SOL    HW168650   5.723   6.637   2.151
22403SOL    HW268651   5.600   6.561   2.195
22404SOL     OW68652   6.483   7.256   2.186
22404SOL    HW168653   6.404   7.237   2.137
22404SOL    HW268654   6.457   7.321   2.251
22405SOL     OW68655   5.801   6.203   3.863
22405SOL    HW168656   5.710   6.197   3.893
22405SOL    HW268657   5.796   6.187   3.769
22406SOL     OW68658   5.805   5.886   4.727
22406SOL    HW168659   5.836   5.847   4.809
22406SOL    HW268660   5.722   5.841   4.710
22407SOL     OW68661   5.567   5.982   4.361
22407SOL    HW168662   5.487   6.010   4.406
22407SOL    HW268663   5.543   5.899   4.319
22408SOL     OW68664   6.155   6.888   4.911
22408SOL    HW168665   6.070   6.899   4.867
22408SOL    HW268666   6.175   6.974   4.947
22409SOL     OW68667   7.163   7.102   4.438
22409SOL    HW168668   7.120   7.076   4.520
22409SOL    HW268669   7.092   7.104   4.374
22410SOL     OW68670   6.713   6.289   4.417
22410SOL    HW168671   6.764   6.370   4.407
22410SOL    HW268672   6.670   6.298   4.502
22411SOL     OW68673   7.369   6.181   3.948
22411SOL    HW168674   7.341   6.171   3.857
22411SOL    HW268675   7.331   6.105   3.993
22412SOL     OW68676   6.315   6.718   4.765
22412SOL    HW168677   6.254   6.758   4.828
22412SOL    HW268678   6.361   6.792   4.725
22413SOL     OW68679   6.469   6.338   5.556
22413SOL    HW168680   6.456   6.406   5.622
22413SOL    HW268681   6.488   6.386   5.476
22414SOL     OW68682   6.276   6.579   4.364
22414SOL    HW168683   6.343   6.571   4.432
22414SOL    HW268684   6.211   6.639   4.401
22415SOL     OW68685   6.300   6.732   5.545
22415SOL    HW168686   6.347   6.808   5.579
22415SOL    HW268687   6.220   6.768   5.508
22416SOL     OW68688   5.924   6.996   4.788
22416SOL    HW168689   5.847   6.959   4.746
22416SOL    HW268690   5.964   7.053   4.722
22417SOL     OW68691   7.045   7.093   5.090
22417SOL    HW168692   7.100   7.170   5.101
22417SOL    HW268693   6.976   7.103   5.156
22418SOL     OW68694   6.031   5.966   5.192
22418SOL    HW168695   6.110   5.912   5.203
22418SOL    HW268696   5.962   5.918   5.238
22419SOL     OW68697   7.181   6.022   4.473
22419SOL    HW168698   7.107   6.038   4.414
22419SOL    HW268699   7.173   6.091   4.539
22420SOL     OW68700   5.813   7.302   4.196
22420SOL    HW168701   5.833   7.378   4.251
22420SOL    HW268702   5.890   7.294   4.139
22421SOL     OW68703   6.721   6.929   5.419
22421SOL    HW168704   6.764   6.921   5.504
22421SOL    HW268705   6.669   6.850   5.410
22422SOL     OW68706   5.813   7.031   4.259
22422SOL    HW168707   5.809   7.127   4.258
22422SOL    HW268708   5.764   7.006   4.337
22423SOL     OW68709   5.852   6.675   4.601
22423SOL    HW168710   5.853   6.589   4.643
22423SOL    HW268711   5.800   6.729   4.661
22424SOL     OW68712   6.178   7.375   5.148
22424SOL    HW168713   6.098   7.358   5.198
22424SOL    HW268714   6.205   7.462   5.176
22425SOL     OW68715   6.167   6.585   3.857
22425SOL    HW168716   6.217   6.629   3.788
22425SOL    HW268717   6.208   6.614   3.939
22426SOL     OW68718   7.182   5.715   5.187
22426SOL    HW168719   7.209   5.795   5.142
22426SOL    HW268720   7.152   5.745   5.273
22427SOL     OW68721   5.720   6.222   4.299
22427SOL    HW168722   5.668   6.143   4.315
22427SOL    HW268723   5.699   6.279   4.372
22428SOL     OW68724   7.438   7.335   4.051
22428SOL    HW168725   7.509   7.308   4.110
22428SOL    HW268726   7.453   7.428   4.036
22429SOL     OW68727   5.624   7.178   3.856
22429SOL    HW168728   5.604   7.086   3.871
22429SOL    HW268729   5.597   7.222   3.937
22430SOL     OW68730   7.279   6.501   4.378
22430SOL    HW168731   7.365   6.461   4.385
22430SOL    HW268732   7.277   6.538   4.290
22431SOL     OW68733   7.245   6.694   4.147
22431SOL    HW168734   7.333   6.685   4.112
22431SOL    HW268735   7.254   6.753   4.221
22432SOL     OW68736   5.743   6.400   5.232
22432SOL    HW168737   5.812   6.374   5.293
22432SOL    HW268738   5.671   6.430   5.287
22433SOL     OW68739   6.202   6.981   4.455
22433SOL    HW168740   6.159   6.895   4.462
22433SOL    HW268741   6.186   7.008   4.364
22434SOL     OW68742   6.870   6.821   5.139
22434SOL    HW168743   6.900   6.751   5.081
22434SOL    HW268744   6.928   6.815   5.216
22435SOL     OW68745   6.414   5.602   4.235
22435SOL    HW168746   6.451   5.688   4.215
22435SOL    HW268747   6.320   5.618   4.243
22436SOL     OW68748   7.108   6.594   3.933
22436SOL    HW168749   7.039   6.537   3.968
22436SOL    HW268750   7.156   6.623   4.011
22437SOL     OW68751   6.771   7.402   5.359
22437SOL    HW168752   6.773   7.464   5.286
22437SOL    HW268753   6.789   7.317   5.319
22438SOL     OW68754   5.921   5.866   5.527
22438SOL    HW168755   5.966   5.931   5.581
22438SOL    HW268756   5.831   5.865   5.559
22439SOL     OW68757   7.053   7.002   4.669
22439SOL    HW168758   6.989   7.018   4.738
22439SOL    HW268759   7.038   6.911   4.644
22440SOL     OW68760   7.234   7.346   4.301
22440SOL    HW168761   7.215   7.304   4.216
22440SOL    HW268762   7.223   7.275   4.365
22441SOL     OW68763   6.192   6.315   3.988
22441SOL    HW168764   6.223   6.361   3.910
22441SOL    HW268765   6.168   6.384   4.049
22442SOL     OW68766   6.860   5.960   4.657
22442SOL    HW168767   6.773   5.920   4.665
22442SOL    HW268768   6.916   5.907   4.713
22443SOL     OW68769   7.169   7.256   4.038
22443SOL    HW168770   7.261   7.281   4.030
22443SOL    HW268771   7.138   7.250   3.947
22444SOL     OW68772   6.367   6.210   5.160
22444SOL    HW168773   6.352   6.182   5.250
22444SOL    HW268774   6.343   6.134   5.107
22445SOL     OW68775   6.982   6.061   5.403
22445SOL    HW168776   6.986   6.103   5.488
22445SOL    HW268777   7.030   5.979   5.414
22446SOL     OW68778   6.534   6.467   5.316
22446SOL    HW168779   6.589   6.399   5.275
22446SOL    HW268780   6.484   6.504   5.243
22447SOL     OW68781   6.585   5.997   4.945
22447SOL    HW168782   6.495   6.009   4.975
22447SOL    HW268783   6.578   5.930   4.876
22448SOL     OW68784   6.642   6.285   4.149
22448SOL    HW168785   6.663   6.282   4.242
22448SOL    HW268786   6.560   6.237   4.141
22449SOL     OW68787   5.683   6.409   4.495
22449SOL    HW168788   5.757   6.403   4.555
22449SOL    HW268789   5.630   6.481   4.528
22450SOL     OW68790   5.706   7.459   5.310
22450SOL    HW168791   5.712   7.434   5.402
22450SOL    HW268792   5.616   7.439   5.286
22451SOL     OW68793   6.481   5.939   3.922
22451SOL    HW168794   6.526   5.996   3.859
22451SOL    HW268795   6.482   5.853   3.881
22452SOL     OW68796   7.287   6.149   5.554
22452SOL    HW168797   7.254   6.226   5.507
22452SOL    HW268798   7.313   6.088   5.485
22453SOL     OW68799   6.973   6.730   4.267
22453SOL    HW168800   7.055   6.723   4.218
22453SOL    HW268801   6.920   6.791   4.215
22454SOL     OW68802   6.150   5.771   4.629
22454SOL    HW168803   6.146   5.786   4.723
22454SOL    HW268804   6.141   5.857   4.590
22455SOL     OW68805   6.579   7.030   4.185
22455SOL    HW168806   6.555   7.107   4.134
22455SOL    HW268807   6.556   7.053   4.275
22456SOL     OW68808   5.937   7.410   4.603
22456SOL    HW168809   5.987   7.328   4.605
22456SOL    HW268810   6.002   7.478   4.621
22457SOL     OW68811   7.380   6.649   4.602
22457SOL    HW168812   7.327   6.625   4.526
22457SOL    HW268813   7.319   6.651   4.675
22458SOL     OW68814   6.811   7.130   5.241
22458SOL    HW168815   6.800   7.057   5.302
22458SOL    HW268816   6.737   7.124   5.181
22459SOL     OW68817   5.933   6.513   3.995
22459SOL    HW168818   6.008   6.547   3.945
22459SOL    HW268819   5.882   6.463   3.932
22460SOL     OW68820   7.065   6.341   4.443
22460SOL    HW168821   7.066   6.298   4.529
22460SOL    HW268822   7.145   6.394   4.442
22461SOL     OW68823   6.062   6.859   5.464
22461SOL    HW168824   6.036   6.861   5.372
22461SOL    HW268825   5.980   6.854   5.513
22462SOL     OW68826   6.724   7.364   3.952
22462SOL    HW168827   6.641   7.334   3.992
22462SOL    HW268828   6.742   7.299   3.884
22463SOL     OW68829   5.751   5.856   5.235
22463SOL    HW168830   5.662   5.878   5.262
22463SOL    HW268831   5.761   5.764   5.261
22464SOL     OW68832   7.201   6.963   3.815
22464SOL    HW168833   7.190   7.056   3.796
22464SOL    HW268834   7.133   6.943   3.879
22465SOL     OW68835   6.057   7.312   4.052
22465SOL    HW168836   6.096   7.377   4.109
22465SOL    HW268837   6.126   7.293   3.988
22466SOL     OW68838   6.985   5.697   4.167
22466SOL    HW168839   6.981   5.665   4.077
22466SOL    HW268840   7.078   5.693   4.190
22467SOL     OW68841   5.835   7.371   4.951
22467SOL    HW168842   5.886   7.301   4.992
22467SOL    HW268843   5.842   7.354   4.857
22468SOL     OW68844   6.528   7.287   4.619
22468SOL    HW168845   6.608   7.240   4.643
22468SOL    HW268846   6.490   7.235   4.548
22469SOL     OW68847   7.102   5.806   5.445
22469SOL    HW168848   7.114   5.826   5.538
22469SOL    HW268849   7.038   5.735   5.443
22470SOL     OW68850   6.248   5.692   3.814
22470SOL    HW168851   6.298   5.629   3.865
22470SOL    HW268852   6.227   5.646   3.732
22471SOL     OW68853   6.346   5.863   5.484
22471SOL    HW168854   6.428   5.813   5.478
22471SOL    HW268855   6.298   5.822   5.556
22472SOL     OW68856   6.461   7.109   4.917
22472SOL    HW168857   6.442   7.068   4.833
22472SOL    HW268858   6.530   7.053   4.955
22473SOL     OW68859   6.925   6.178   5.161
22473SOL    HW168860   6.957   6.144   5.245
22473SOL    HW268861   6.966   6.264   5.153
22474SOL     OW68862   6.406   6.967   4.673
22474SOL    HW168863   6.493   6.959   4.632
22474SOL    HW268864   6.347   6.983   4.599
22475SOL     OW68865   6.514   6.093   4.620
22475SOL    HW168866   6.488   6.080   4.529
22475SOL    HW268867   6.545   6.007   4.649
22476SOL     OW68868   6.146   5.656   4.221
22476SOL    HW168869   6.069   5.652   4.277
22476SOL    HW268870   6.124   5.721   4.155
22477SOL     OW68871   6.998   6.753   3.737
22477SOL    HW168872   7.019   6.690   3.806
22477SOL    HW268873   6.915   6.792   3.765
22478SOL     OW68874   5.908   5.658   3.910
22478SOL    HW168875   5.964   5.728   3.943
22478SOL    HW268876   5.942   5.579   3.951
22479SOL     OW68877   6.532   5.849   4.182
22479SOL    HW168878   6.513   5.880   4.093
22479SOL    HW268879   6.627   5.856   4.190
22480SOL     OW68880   6.669   6.271   5.180
22480SOL    HW168881   6.612   6.195   5.193
22480SOL    HW268882   6.757   6.234   5.177
22481SOL     OW68883   6.804   7.158   4.519
22481SOL    HW168884   6.816   7.225   4.452
22481SOL    HW268885   6.871   7.177   4.584
22482SOL     OW68886   6.061   6.738   4.437
22482SOL    HW168887   5.996   6.719   4.505
22482SOL    HW268888   6.013   6.729   4.355
22483SOL     OW68889   6.844   7.374   4.340
22483SOL    HW168890   6.893   7.437   4.287
22483SOL    HW268891   6.773   7.425   4.379
22484SOL     OW68892   6.616   6.113   3.752
22484SOL    HW168893   6.575   6.199   3.738
22484SOL    HW268894   6.678   6.128   3.823
22485SOL     OW68895   5.683   6.119   5.141
22485SOL    HW168896   5.738   6.042   5.150
22485SOL    HW268897   5.678   6.156   5.229
22486SOL     OW68898   6.143   5.809   4.902
22486SOL    HW168899   6.184   5.733   4.945
22486SOL    HW268900   6.052   5.807   4.933
22487SOL     OW68901   6.427   6.047   4.360
22487SOL    HW168902   6.412   6.098   4.280
22487SOL    HW268903   6.461   5.963   4.328
22488SOL     OW68904   6.600   5.638   4.462
22488SOL    HW168905   6.542   5.623   4.386
22488SOL    HW268906   6.580   5.566   4.522
22489SOL     OW68907   7.021   6.741   4.583
22489SOL    HW168908   6.958   6.670   4.596
22489SOL    HW268909   7.032   6.746   4.488
22490SOL     OW68910   7.051   6.197   4.684
22490SOL    HW168911   6.991   6.123   4.693
22490SOL    HW268912   7.109   6.190   4.760
22491SOL     OW68913   7.420   6.394   4.108
22491SOL    HW168914   7.478   6.350   4.170
22491SOL    HW268915   7.399   6.328   4.043
22492SOL     OW68916   6.074   7.004   3.871
22492SOL    HW168917   6.000   6.977   3.926
22492SOL    HW268918   6.063   6.954   3.790
22493SOL     OW68919   7.278   6.857   4.354
22493SOL    HW168920   7.369   6.849   4.379
22493SOL    HW268921   7.250   6.942   4.388
22494SOL     OW68922   6.982   6.158   3.798
22494SOL    HW168923   6.918   6.134   3.866
22494SOL    HW268924   7.064   6.120   3.827
22495SOL     OW68925   6.095   5.836   4.013
22495SOL    HW168926   6.160   5.803   3.951
22495SOL    HW268927   6.079   5.926   3.986
22496SOL     OW68928   7.328   6.831   5.274
22496SOL    HW168929   7.415   6.791   5.270
22496SOL    HW268930   7.344   6.919   5.307
22497SOL     OW68931   6.639   6.934   5.047
22497SOL    HW168932   6.563   6.907   5.097
22497SOL    HW268933   6.714   6.896   5.093
22498SOL     OW68934   7.194   7.220   5.387
22498SOL    HW168935   7.186   7.254   5.298
22498SOL    HW268936   7.273   7.167   5.385
22499SOL     OW68937   6.715   6.790   4.820
22499SOL    HW168938   6.665   6.836   4.888
22499SOL    HW268939   6.692   6.835   4.739
22500SOL     OW68940   7.202   6.681   4.804
22500SOL    HW168941   7.196   6.743   4.876
22500SOL    HW268942   7.127   6.702   4.748
22501SOL     OW68943   6.497   5.685   5.107
22501SOL    HW168944   6.524   5.661   5.019
22501SOL    HW268945   6.576   5.721   5.148
22502SOL     OW68946   6.568   6.702   5.444
22502SOL    HW168947   6.477   6.717   5.472
22502SOL    HW268948   6.564   6.621   5.394
22503SOL     OW68949   6.296   6.643   4.095
22503SOL    HW168950   6.287   6.628   4.189
22503SOL    HW268951   6.372   6.590   4.070
22504SOL     OW68952   5.994   6.405   4.984
22504SOL    HW168953   6.054   6.437   5.052
22504SOL    HW268954   6.007   6.310   4.984
22505SOL     OW68955   6.852   5.966   5.004
22505SOL    HW168956   6.883   6.042   5.054
22505SOL    HW268957   6.761   5.987   4.982
22506SOL     OW68958   5.665   7.158   5.080
22506SOL    HW168959   5.644   7.239   5.033
22506SOL    HW268960   5.761   7.151   5.074
22507SOL     OW68961   5.913   6.704   4.202
22507SOL    HW168962   5.915   6.781   4.145
22507SOL    HW268963   5.928   6.630   4.143
22508SOL     OW68964   6.142   6.107   4.559
22508SOL    HW168965   6.203   6.100   4.486
22508SOL    HW268966   6.195   6.138   4.632
22509SOL     OW68967   6.833   6.941   4.108
22509SOL    HW168968   6.886   7.010   4.146
22509SOL    HW268969   6.745   6.958   4.142
22510SOL     OW68970   6.882   7.048   4.878
22510SOL    HW168971   6.941   7.059   4.953
22510SOL    HW268972   6.821   6.980   4.905
22511SOL     OW68973   7.155   6.206   4.210
22511SOL    HW168974   7.108   6.248   4.282
22511SOL    HW268975   7.215   6.274   4.178
22512SOL     OW68976   5.932   7.115   5.031
22512SOL    HW168977   5.923   7.067   4.948
22512SOL    HW268978   6.027   7.126   5.042
22513SOL     OW68979   6.008   6.334   5.330
22513SOL    HW168980   6.079   6.369   5.277
22513SOL    HW268981   6.034   6.243   5.349
22514SOL     OW68982   7.200   6.368   5.417
22514SOL    HW168983   7.114   6.408   5.411
22514SOL    HW268984   7.251   6.409   5.347
22515SOL     OW68985   6.581   5.726   5.473
22515SOL    HW168986   6.645   5.794   5.451
22515SOL    HW268987   6.627   5.644   5.461
22516SOL     OW68988   6.077   5.639   5.482
22516SOL    HW168989   6.030   5.575   5.428
22516SOL    HW268990   6.020   5.716   5.482
22517SOL     OW68991   6.153   6.476   4.756
22517SOL    HW168992   6.203   6.558   4.757
22517SOL    HW268993   6.114   6.472   4.843
22518SOL     OW68994   6.922   6.446   4.731
22518SOL    HW168995   6.833   6.419   4.708
22518SOL    HW268996   6.974   6.366   4.724
22519SOL     OW68997   6.779   6.113   3.981
22519SOL    HW168998   6.794   6.035   4.035
22519SOL    HW268999   6.741   6.177   4.041
22520SOL     OW69000   5.879   5.791   4.973
22520SOL    HW169001   5.828   5.809   5.053
22520SOL    HW269002   5.873   5.696   4.962
22521SOL     OW69003   5.659   6.890   5.003
22521SOL    HW169004   5.680   6.838   5.080
22521SOL    HW269005   5.648   6.979   5.036
22522SOL     OW69006   6.296   6.203   4.759
22522SOL    HW169007   6.383   6.183   4.724
22522SOL    HW269008   6.292   6.299   4.760
22523SOL     OW69009   7.326   6.551   5.586
22523SOL    HW169010   7.287   6.478   5.538
22523SOL    HW269011   7.265   6.568   5.658
22524SOL     OW69012   5.903   5.657   4.349
22524SOL    HW169013   5.867   5.740   4.380
22524SOL    HW269014   5.913   5.604   4.429
22525SOL     OW69015   7.213   5.973   4.074
22525SOL    HW169016   7.241   5.903   4.134
22525SOL    HW269017   7.185   6.044   4.132
22526SOL     OW69018   6.614   6.341   4.686
22526SOL    HW169019   6.600   6.356   4.780
22526SOL    HW269020   6.590   6.249   4.673
22527SOL     OW69021   6.567   7.154   5.451
22527SOL    HW169022   6.550   7.195   5.366
22527SOL    HW269023   6.607   7.070   5.430
22528SOL     OW69024   7.432   7.087   5.329
22528SOL    HW169025   7.457   7.114   5.241
22528SOL    HW269026   7.511   7.097   5.381
22529SOL     OW69027   5.931   6.510   5.527
22529SOL    HW169028   6.007   6.525   5.582
22529SOL    HW269029   5.960   6.446   5.461
22530SOL     OW69030   7.102   5.864   3.845
22530SOL    HW169031   7.048   5.791   3.875
22530SOL    HW269032   7.143   5.898   3.925
22531SOL     OW69033   6.859   6.400   3.753
22531SOL    HW169034   6.904   6.316   3.763
22531SOL    HW269035   6.886   6.433   3.668
22532SOL     OW69036   6.658   6.928   4.581
22532SOL    HW169037   6.666   6.856   4.518
22532SOL    HW269038   6.714   6.997   4.547
22533SOL     OW69039   5.897   6.396   4.670
22533SOL    HW169040   5.984   6.425   4.697
22533SOL    HW269041   5.895   6.303   4.693
22534SOL     OW69042   5.918   6.126   4.715
22534SOL    HW169043   5.879   6.039   4.716
22534SOL    HW269044   5.995   6.117   4.658
22535SOL     OW69045   6.722   5.963   5.401
22535SOL    HW169046   6.675   6.011   5.470
22535SOL    HW269047   6.810   6.002   5.402
22536SOL     OW69048   6.738   5.787   5.189
22536SOL    HW169049   6.730   5.847   5.263
22536SOL    HW269050   6.788   5.836   5.123
22537SOL     OW69051   5.595   6.897   3.912
22537SOL    HW169052   5.508   6.919   3.876
22537SOL    HW269053   5.585   6.810   3.949
22538SOL     OW69054   5.671   7.365   4.661
22538SOL    HW169055   5.649   7.283   4.616
22538SOL    HW269056   5.761   7.383   4.635
22539SOL     OW69057   6.074   7.163   4.623
22539SOL    HW169058   6.142   7.226   4.646
22539SOL    HW269059   6.117   7.100   4.565
22540SOL     OW69060   6.543   6.363   4.951
22540SOL    HW169061   6.613   6.349   5.014
22540SOL    HW269062   6.466   6.323   4.991
22541SOL     OW69063   5.647   6.175   4.863
22541SOL    HW169064   5.683   6.132   4.786
22541SOL    HW269065   5.639   6.106   4.928
22542SOL     OW69066   5.745   6.129   5.412
22542SOL    HW169067   5.775   6.039   5.421
22542SOL    HW269068   5.660   6.130   5.455
22543SOL     OW69069   6.970   6.515   5.380
22543SOL    HW169070   6.991   6.608   5.376
22543SOL    HW269071   6.967   6.487   5.289
22544SOL     OW69072   6.404   6.152   4.098
22544SOL    HW169073   6.418   6.078   4.039
22544SOL    HW269074   6.332   6.201   4.058
22545SOL     OW69075   7.224   6.188   4.896
22545SOL    HW169076   7.216   6.128   4.971
22545SOL    HW269077   7.313   6.176   4.864
22546SOL     OW69078   5.818   7.127   5.445
22546SOL    HW169079   5.796   7.191   5.513
22546SOL    HW269080   5.828   7.045   5.492
22547SOL     OW69081   6.307   6.025   4.970
22547SOL    HW169082   6.249   5.950   4.959
22547SOL    HW269083   6.287   6.082   4.896
22548SOL     OW69084   6.510   7.258   5.197
22548SOL    HW169085   6.479   7.218   5.116
22548SOL    HW269086   6.504   7.352   5.181
22549SOL     OW69087   6.037   6.090   3.940
22549SOL    HW169088   6.097   6.165   3.943
22549SOL    HW269089   5.955   6.127   3.906
22550SOL     OW69090   5.737   6.719   5.209
22550SOL    HW169091   5.736   6.707   5.304
22550SOL    HW269092   5.703   6.636   5.175
22551SOL     OW69093   6.900   6.625   4.937
22551SOL    HW169094   6.921   6.563   4.867
22551SOL    HW269095   6.834   6.683   4.899
22552SOL     OW69096   6.896   6.452   4.025
22552SOL    HW169097   6.834   6.409   4.085
22552SOL    HW269098   6.868   6.425   3.938
22553SOL     OW69099   7.369   7.323   4.881
22553SOL    HW169100   7.433   7.344   4.812
22553SOL    HW269101   7.341   7.234   4.860
22554SOL     OW69102   6.823   7.312   4.815
22554SOL    HW169103   6.908   7.341   4.780
22554SOL    HW269104   6.838   7.222   4.843
22555SOL     OW69105   5.683   6.837   4.740
22555SOL    HW169106   5.674   6.857   4.833
22555SOL    HW269107   5.603   6.790   4.717
22556SOL     OW69108   6.267   7.264   5.471
22556SOL    HW169109   6.205   7.335   5.458
22556SOL    HW269110   6.339   7.283   5.411
22557SOL     OW69111   7.307   5.751   4.218
22557SOL    HW169112   7.379   5.734   4.157
22557SOL    HW269113   7.290   5.667   4.261
22558SOL     OW69114   6.979   7.154   4.217
22558SOL    HW169115   7.036   7.193   4.151
22558SOL    HW269116   6.927   7.227   4.250
22559SOL     OW69117   5.727   7.377   5.566
22559SOL    HW169118   5.677   7.310   5.612
22559SOL    HW269119   5.772   7.425   5.636
22560SOL     OW69120   6.862   6.516   4.392
22560SOL    HW169121   6.935   6.457   4.408
22560SOL    HW269122   6.900   6.587   4.340
22561SOL     OW69123   6.387   6.868   5.144
22561SOL    HW169124   6.363   6.910   5.227
22561SOL    HW269125   6.312   6.880   5.087
22562SOL     OW69126   6.261   7.201   3.881
22562SOL    HW169127   6.266   7.228   3.790
22562SOL    HW269128   6.200   7.127   3.881
22563SOL     OW69129   7.203   7.318   5.117
22563SOL    HW169130   7.260   7.320   5.040
22563SOL    HW269131   7.188   7.409   5.139
22564SOL     OW69132   7.427   5.747   4.689
22564SOL    HW169133   7.461   5.660   4.667
22564SOL    HW269134   7.341   5.751   4.648
22565SOL     OW69135   5.825   5.904   4.445
22565SOL    HW169136   5.735   5.929   4.426
22565SOL    HW269137   5.827   5.893   4.540
22566SOL     OW69138   6.799   7.181   3.757
22566SOL    HW169139   6.781   7.091   3.786
22566SOL    HW269140   6.731   7.199   3.692
22567SOL     OW69141   6.413   6.596   5.104
22567SOL    HW169142   6.464   6.587   5.024
22567SOL    HW269143   6.409   6.690   5.120
22568SOL     OW69144   6.498   6.486   4.015
22568SOL    HW169145   6.555   6.523   3.948
22568SOL    HW269146   6.553   6.425   4.063
22569SOL     OW69147   7.074   7.218   3.775
22569SOL    HW169148   6.979   7.208   3.763
22569SOL    HW269149   7.109   7.219   3.686
22570SOL     OW69150   5.959   6.887   5.216
22570SOL    HW169151   5.940   6.963   5.160
22570SOL    HW269152   5.886   6.827   5.201
22571SOL     OW69153   7.189   6.871   5.006
22571SOL    HW169154   7.248   6.852   5.079
22571SOL    HW269155   7.130   6.939   5.040
22572SOL     OW69156   6.652   6.697   4.437
22572SOL    HW169157   6.580   6.646   4.476
22572SOL    HW269158   6.718   6.632   4.416
22573SOL     OW69159   6.610   5.824   4.682
22573SOL    HW169160   6.607   5.777   4.599
22573SOL    HW269161   6.605   5.756   4.749
22574SOL     OW69162   6.188   7.072   4.198
22574SOL    HW169163   6.236   7.025   4.130
22574SOL    HW269164   6.129   7.130   4.150
22575SOL     OW69165   7.313   5.979   5.098
22575SOL    HW169166   7.387   6.039   5.100
22575SOL    HW269167   7.341   5.907   5.042
22576SOL     OW69168   5.848   6.919   4.021
22576SOL    HW169169   5.757   6.920   3.991
22576SOL    HW269170   5.847   6.965   4.104
22577SOL     OW69171   5.698   6.652   5.473
22577SOL    HW169172   5.621   6.618   5.519
22577SOL    HW269173   5.770   6.597   5.503
22578SOL     OW69174   6.260   5.789   5.222
22578SOL    HW169175   6.342   5.760   5.182
22578SOL    HW269176   6.283   5.814   5.311
22579SOL     OW69177   5.652   5.912   3.750
22579SOL    HW169178   5.557   5.906   3.762
22579SOL    HW269179   5.665   5.996   3.707
22580SOL     OW69180   7.007   6.445   5.119
22580SOL    HW169181   6.958   6.505   5.064
22580SOL    HW269182   7.096   6.446   5.083
22581SOL     OW69183   5.645   5.729   4.023
22581SOL    HW169184   5.658   5.810   3.974
22581SOL    HW269185   5.732   5.690   4.028
22582SOL     OW69186   6.763   6.912   3.834
22582SOL    HW169187   6.668   6.896   3.836
22582SOL    HW269188   6.788   6.914   3.926
22583SOL     OW69189   6.205   6.425   5.155
22583SOL    HW169190   6.266   6.498   5.146
22583SOL    HW269191   6.261   6.347   5.160
22584SOL     OW69192   7.071   7.376   4.710
22584SOL    HW169193   7.093   7.449   4.652
22584SOL    HW269194   7.156   7.345   4.742
22585SOL     OW69195   6.316   6.138   5.415
22585SOL    HW169196   6.359   6.191   5.482
22585SOL    HW269197   6.324   6.048   5.448
22586SOL     OW69198   7.057   6.778   5.349
22586SOL    HW169199   7.048   6.793   5.443
22586SOL    HW269200   7.149   6.797   5.331
22587SOL     OW69201   5.949   7.324   5.293
22587SOL    HW169202   5.867   7.372   5.278
22587SOL    HW269203   5.922   7.242   5.333
22588SOL     OW69204   7.245   6.462   4.980
22588SOL    HW169205   7.246   6.377   4.937
22588SOL    HW269206   7.238   6.525   4.908
22589SOL     OW69207   6.807   5.911   4.176
22589SOL    HW169208   6.865   5.836   4.170
22589SOL    HW269209   6.837   5.959   4.254
22590SOL     OW69210   6.099   6.362   4.338
22590SOL    HW169211   6.175   6.419   4.322
22590SOL    HW269212   6.080   6.373   4.431
22591SOL     OW69213   7.333   5.948   5.371
22591SOL    HW169214   7.318   5.966   5.278
22591SOL    HW269215   7.261   5.890   5.397
22592SOL     OW69216   7.334   6.518   5.233
22592SOL    HW169217   7.321   6.612   5.244
22592SOL    HW269218   7.314   6.501   5.141
22593SOL     OW69219   6.466   6.950   3.782
22593SOL    HW169220   6.422   6.962   3.866
22593SOL    HW269221   6.464   7.037   3.741
22594SOL     OW69222   6.249   7.367   4.650
22594SOL    HW169223   6.229   7.460   4.639
22594SOL    HW269224   6.345   7.363   4.651
22595SOL     OW69225   6.457   6.554   4.577
22595SOL    HW169226   6.510   6.485   4.617
22595SOL    HW269227   6.417   6.599   4.652
22596SOL     OW69228   6.647   6.565   3.806
22596SOL    HW169229   6.636   6.622   3.731
22596SOL    HW269230   6.724   6.512   3.785
22597SOL     OW69231   7.432   7.137   4.561
22597SOL    HW169232   7.346   7.126   4.520
22597SOL    HW269233   7.433   7.074   4.632
22598SOL     OW69234   5.816   6.881   5.578
22598SOL    HW169235   5.767   6.807   5.544
22598SOL    HW269236   5.778   6.897   5.665
22599SOL     OW69237   5.672   6.802   4.393
22599SOL    HW169238   5.690   6.757   4.475
22599SOL    HW269239   5.744   6.775   4.334
22600SOL     OW69240   6.274   7.002   5.355
22600SOL    HW169241   6.199   6.955   5.392
22600SOL    HW269242   6.272   7.088   5.396
22601SOL     OW69243   7.390   5.764   4.958
22601SOL    HW169244   7.396   5.670   4.975
22601SOL    HW269245   7.405   5.773   4.864
22602SOL     OW69246   5.998   6.000   4.251
22602SOL    HW169247   6.035   5.930   4.197
22602SOL    HW269248   5.951   5.954   4.320
22603SOL     OW69249   7.281   7.073   4.816
22603SOL    HW169250   7.202   7.050   4.765
22603SOL    HW269251   7.287   7.004   4.882
22604SOL     OW69252   5.946   6.142   5.005
22604SOL    HW169253   5.979   6.082   5.072
22604SOL    HW269254   5.954   6.093   4.923
22605SOL     OW69255   6.423   7.173   4.391
22605SOL    HW169256   6.402   7.249   4.337
22605SOL    HW269257   6.343   7.120   4.389
22606SOL     OW69258   7.012   5.820   4.834
22606SOL    HW169259   7.024   5.731   4.869
22606SOL    HW269260   6.966   5.867   4.903
22607SOL     OW69261   6.594   5.606   4.856
22607SOL    HW169262   6.534   5.537   4.826
22607SOL    HW269263   6.680   5.564   4.856
22608SOL     OW69264   6.365   6.914   4.042
22608SOL    HW169265   6.341   6.823   4.059
22608SOL    HW269266   6.441   6.930   4.097
22609SOL     OW69267   6.207   7.141   5.011
22609SOL    HW169268   6.204   7.223   5.060
22609SOL    HW269269   6.296   7.137   4.976
22610SOL     OW69270   6.954   5.631   3.898
22610SOL    HW169271   6.993   5.555   3.855
22610SOL    HW269272   6.863   5.607   3.912
22611SOL     OW69273   6.881   6.055   4.400
22611SOL    HW169274   6.829   6.135   4.405
22611SOL    HW269275   6.875   6.016   4.488
22612SOL     OW69276   7.168   5.772   4.607
22612SOL    HW169277   7.115   5.800   4.682
22612SOL    HW269278   7.169   5.849   4.549
22613SOL     OW69279   5.615   6.650   4.045
22613SOL    HW169280   5.710   6.656   4.050
22613SOL    HW269281   5.596   6.557   4.059
22614SOL     OW69282   6.481   7.250   4.050
22614SOL    HW169283   6.406   7.235   3.993
22614SOL    HW269284   6.451   7.318   4.111
22615SOL     OW69285   5.814   6.187   5.714
22615SOL    HW169286   5.729   6.187   5.757
22615SOL    HW269287   5.794   6.201   5.621
22616SOL     OW69288   5.806   5.883   6.584
22616SOL    HW169289   5.837   5.848   6.667
22616SOL    HW269290   5.723   5.839   6.568
22617SOL     OW69291   5.568   5.981   6.223
22617SOL    HW169292   5.488   6.012   6.267
22617SOL    HW269293   5.542   5.898   6.183
22618SOL     OW69294   6.165   6.881   6.783
22618SOL    HW169295   6.074   6.861   6.762
22618SOL    HW269296   6.164   6.974   6.806
22619SOL     OW69297   7.167   7.106   6.297
22619SOL    HW169298   7.123   7.079   6.378
22619SOL    HW269299   7.099   7.104   6.231
22620SOL     OW69300   6.721   6.286   6.275
22620SOL    HW169301   6.767   6.370   6.269
22620SOL    HW269302   6.672   6.291   6.357
22621SOL     OW69303   7.374   6.180   5.807
22621SOL    HW169304   7.342   6.174   5.717
22621SOL    HW269305   7.333   6.106   5.852
22622SOL     OW69306   6.339   6.727   6.635
22622SOL    HW169307   6.275   6.759   6.698
22622SOL    HW269308   6.371   6.806   6.592
22623SOL     OW69309   6.478   6.345   7.425
22623SOL    HW169310   6.435   6.411   7.479
22623SOL    HW269311   6.492   6.389   7.341
22624SOL     OW69312   6.271   6.579   6.227
22624SOL    HW169313   6.337   6.571   6.296
22624SOL    HW269314   6.203   6.634   6.266
22625SOL     OW69315   6.297   6.736   7.404
22625SOL    HW169316   6.340   6.815   7.436
22625SOL    HW269317   6.215   6.766   7.366
22626SOL     OW69318   5.903   7.009   6.632
22626SOL    HW169319   5.824   6.956   6.637
22626SOL    HW269320   5.925   7.012   6.539
22627SOL     OW69321   7.042   7.083   6.949
22627SOL    HW169322   7.101   7.158   6.962
22627SOL    HW269323   6.976   7.093   7.018
22628SOL     OW69324   6.043   5.991   7.053
22628SOL    HW169325   6.118   5.932   7.063
22628SOL    HW269326   5.968   5.941   7.087
22629SOL     OW69327   7.183   6.021   6.336
22629SOL    HW169328   7.110   6.035   6.276
22629SOL    HW269329   7.173   6.090   6.402
22630SOL     OW69330   5.798   7.307   6.047
22630SOL    HW169331   5.823   7.379   6.104
22630SOL    HW269332   5.872   7.296   5.988
22631SOL     OW69333   6.717   6.927   7.288
22631SOL    HW169334   6.760   6.917   7.373
22631SOL    HW269335   6.663   6.848   7.278
22632SOL     OW69336   5.837   7.031   6.134
22632SOL    HW169337   5.789   7.114   6.136
22632SOL    HW269338   5.785   6.972   6.189
22633SOL     OW69339   5.884   6.677   6.506
22633SOL    HW169340   5.870   6.585   6.529
22633SOL    HW269341   5.812   6.724   6.547
22634SOL     OW69342   6.175   7.378   7.007
22634SOL    HW169343   6.097   7.356   7.058
22634SOL    HW269344   6.201   7.464   7.040
22635SOL     OW69345   6.160   6.566   5.728
22635SOL    HW169346   6.211   6.608   5.659
22635SOL    HW269347   6.199   6.598   5.810
22636SOL     OW69348   7.174   5.723   7.041
22636SOL    HW169349   7.213   5.803   7.007
22636SOL    HW269350   7.148   5.745   7.130
22637SOL     OW69351   5.715   6.228   6.147
22637SOL    HW169352   5.667   6.148   6.168
22637SOL    HW269353   5.705   6.283   6.225
22638SOL     OW69354   7.434   7.334   5.914
22638SOL    HW169355   7.505   7.311   5.973
22638SOL    HW269356   7.450   7.426   5.891
22639SOL     OW69357   5.622   7.172   5.702
22639SOL    HW169358   5.609   7.079   5.723
22639SOL    HW269359   5.594   7.218   5.781
22640SOL     OW69360   7.277   6.508   6.238
22640SOL    HW169361   7.360   6.462   6.223
22640SOL    HW269362   7.260   6.554   6.155
22641SOL     OW69363   7.238   6.688   6.016
22641SOL    HW169364   7.324   6.684   5.974
22641SOL    HW269365   7.248   6.753   6.085
22642SOL     OW69366   5.701   6.329   7.157
22642SOL    HW169367   5.785   6.369   7.180
22642SOL    HW269368   5.639   6.401   7.159
22643SOL     OW69369   6.195   6.986   6.321
22643SOL    HW169370   6.153   6.901   6.333
22643SOL    HW269371   6.180   7.008   6.229
22644SOL     OW69372   6.864   6.818   7.004
22644SOL    HW169373   6.894   6.749   6.945
22644SOL    HW269374   6.924   6.813   7.079
22645SOL     OW69375   6.408   5.606   6.094
22645SOL    HW169376   6.450   5.688   6.070
22645SOL    HW269377   6.314   5.624   6.089
22646SOL     OW69378   5.773   6.542   6.851
22646SOL    HW169379   5.859   6.500   6.840
22646SOL    HW269380   5.710   6.473   6.828
22647SOL     OW69381   7.117   6.592   5.786
22647SOL    HW169382   7.047   6.534   5.818
22647SOL    HW269383   7.161   6.622   5.866
22648SOL     OW69384   6.811   7.387   7.186
22648SOL    HW169385   6.885   7.419   7.135
22648SOL    HW269386   6.805   7.294   7.164
22649SOL     OW69387   5.891   5.875   7.357
22649SOL    HW169388   5.969   5.820   7.350
22649SOL    HW269389   5.847   5.844   7.437
22650SOL     OW69390   7.051   7.003   6.524
22650SOL    HW169391   6.989   7.019   6.594
22650SOL    HW269392   7.036   6.911   6.500
22651SOL     OW69393   7.228   7.356   6.159
22651SOL    HW169394   7.214   7.312   6.075
22651SOL    HW269395   7.221   7.285   6.224
22652SOL     OW69396   6.176   6.282   5.853
22652SOL    HW169397   6.179   6.368   5.811
22652SOL    HW269398   6.109   6.291   5.922
22653SOL     OW69399   6.866   5.959   6.522
22653SOL    HW169400   6.778   5.923   6.527
22653SOL    HW269401   6.918   5.905   6.581
22654SOL     OW69402   7.164   7.263   5.899
22654SOL    HW169403   7.258   7.280   5.891
22654SOL    HW269404   7.135   7.246   5.809
22655SOL     OW69405   6.382   6.201   7.030
22655SOL    HW169406   6.363   6.174   7.120
22655SOL    HW269407   6.350   6.130   6.975
22656SOL     OW69408   6.983   6.063   7.262
22656SOL    HW169409   6.985   6.106   7.348
22656SOL    HW269410   7.031   5.982   7.275
22657SOL     OW69411   6.536   6.468   7.180
22657SOL    HW169412   6.590   6.400   7.139
22657SOL    HW269413   6.482   6.502   7.108
22658SOL     OW69414   6.586   5.984   6.808
22658SOL    HW169415   6.497   6.005   6.836
22658SOL    HW269416   6.575   5.945   6.721
22659SOL     OW69417   6.642   6.287   6.008
22659SOL    HW169418   6.663   6.281   6.101
22659SOL    HW269419   6.559   6.242   5.999
22660SOL     OW69420   5.691   6.406   6.351
22660SOL    HW169421   5.763   6.398   6.413
22660SOL    HW269422   5.632   6.470   6.391
22661SOL     OW69423   5.714   7.464   7.168
22661SOL    HW169424   5.713   7.445   7.262
22661SOL    HW269425   5.639   7.415   7.134
22662SOL     OW69426   6.474   5.939   5.782
22662SOL    HW169427   6.523   5.992   5.719
22662SOL    HW269428   6.461   5.855   5.738
22663SOL     OW69429   7.286   6.155   7.420
22663SOL    HW169430   7.254   6.230   7.369
22663SOL    HW269431   7.314   6.092   7.354
22664SOL     OW69432   6.974   6.730   6.127
22664SOL    HW169433   7.054   6.715   6.076
22664SOL    HW269434   6.922   6.788   6.072
22665SOL     OW69435   6.172   5.784   6.494
22665SOL    HW169436   6.163   5.791   6.589
22665SOL    HW269437   6.146   5.870   6.461
22666SOL     OW69438   6.589   7.026   6.048
22666SOL    HW169439   6.556   7.104   6.002
22666SOL    HW269440   6.579   7.047   6.140
22667SOL     OW69441   5.943   7.394   6.456
22667SOL    HW169442   6.004   7.321   6.467
22667SOL    HW269443   5.985   7.468   6.500
22668SOL     OW69444   7.384   6.646   6.460
22668SOL    HW169445   7.332   6.620   6.384
22668SOL    HW269446   7.322   6.648   6.532
22669SOL     OW69447   6.807   7.117   7.101
22669SOL    HW169448   6.796   7.050   7.169
22669SOL    HW269449   6.751   7.088   7.029
22670SOL     OW69450   5.906   6.539   5.851
22670SOL    HW169451   5.987   6.551   5.801
22670SOL    HW269452   5.876   6.451   5.827
22671SOL     OW69453   7.066   6.342   6.304
22671SOL    HW169454   7.067   6.298   6.389
22671SOL    HW269455   7.146   6.395   6.304
22672SOL     OW69456   6.057   6.862   7.323
22672SOL    HW169457   6.030   6.868   7.231
22672SOL    HW269458   5.976   6.844   7.371
22673SOL     OW69459   6.716   7.365   5.810
22673SOL    HW169460   6.639   7.328   5.854
22673SOL    HW269461   6.740   7.300   5.744
22674SOL     OW69462   5.790   5.860   7.077
22674SOL    HW169463   5.695   5.874   7.076
22674SOL    HW269464   5.802   5.788   7.140
22675SOL     OW69465   7.217   6.972   5.680
22675SOL    HW169466   7.174   7.056   5.664
22675SOL    HW269467   7.151   6.906   5.658
22676SOL     OW69468   6.046   7.334   5.898
22676SOL    HW169469   6.094   7.376   5.969
22676SOL    HW269470   6.113   7.287   5.848
22677SOL     OW69471   6.983   5.695   6.031
22677SOL    HW169472   6.977   5.665   5.940
22677SOL    HW269473   7.076   5.689   6.052
22678SOL     OW69474   5.853   7.385   6.794
22678SOL    HW169475   5.884   7.304   6.835
22678SOL    HW269476   5.799   7.355   6.721
22679SOL     OW69477   6.518   7.272   6.493
22679SOL    HW169478   6.601   7.237   6.526
22679SOL    HW269479   6.489   7.209   6.428
22680SOL     OW69480   5.980   6.254   6.050
22680SOL    HW169481   5.987   6.158   6.048
22680SOL    HW269482   5.890   6.270   6.079
22681SOL     OW69483   7.102   5.808   7.306
22681SOL    HW169484   7.113   5.828   7.399
22681SOL    HW269485   7.037   5.738   7.304
22682SOL     OW69486   6.214   5.717   5.706
22682SOL    HW169487   6.236   5.637   5.754
22682SOL    HW269488   6.167   5.687   5.628
22683SOL     OW69489   6.385   5.883   7.378
22683SOL    HW169490   6.457   5.821   7.366
22683SOL    HW269491   6.306   5.830   7.363
22684SOL     OW69492   6.466   7.119   6.781
22684SOL    HW169493   6.446   7.074   6.699
22684SOL    HW269494   6.529   7.063   6.825
22685SOL     OW69495   6.922   6.175   7.020
22685SOL    HW169496   6.953   6.143   7.104
22685SOL    HW269497   6.959   6.263   7.013
22686SOL     OW69498   6.396   6.984   6.531
22686SOL    HW169499   6.481   6.966   6.492
22686SOL    HW269500   6.334   6.977   6.458
22687SOL     OW69501   6.522   6.100   6.477
22687SOL    HW169502   6.493   6.089   6.386
22687SOL    HW269503   6.545   6.012   6.506
22688SOL     OW69504   6.150   5.727   6.092
22688SOL    HW169505   6.074   5.674   6.115
22688SOL    HW269506   6.172   5.773   6.172
22689SOL     OW69507   7.017   6.790   5.622
22689SOL    HW169508   7.048   6.716   5.674
22689SOL    HW269509   6.931   6.811   5.658
22690SOL     OW69510   5.916   5.680   5.793
22690SOL    HW169511   5.906   5.655   5.701
22690SOL    HW269512   5.944   5.599   5.836
22691SOL     OW69513   6.533   5.847   6.038
22691SOL    HW169514   6.512   5.879   5.950
22691SOL    HW269515   6.628   5.857   6.045
22692SOL     OW69516   6.664   6.274   7.037
22692SOL    HW169517   6.596   6.208   7.049
22692SOL    HW269518   6.746   6.225   7.037
22693SOL     OW69519   6.795   7.162   6.377
22693SOL    HW169520   6.822   7.222   6.308
22693SOL    HW269521   6.863   7.172   6.445
22694SOL     OW69522   6.064   6.745   6.314
22694SOL    HW169523   6.004   6.719   6.384
22694SOL    HW269524   6.014   6.731   6.233
22695SOL     OW69525   6.858   7.378   6.195
22695SOL    HW169526   6.904   7.431   6.131
22695SOL    HW269527   6.823   7.441   6.258
22696SOL     OW69528   6.615   6.109   5.613
22696SOL    HW169529   6.572   6.193   5.598
22696SOL    HW269530   6.677   6.126   5.685
22697SOL     OW69531   5.671   6.150   6.959
22697SOL    HW169532   5.764   6.139   6.941
22697SOL    HW269533   5.667   6.212   7.031
22698SOL     OW69534   6.148   5.809   6.770
22698SOL    HW169535   6.184   5.756   6.841
22698SOL    HW269536   6.053   5.810   6.786
22699SOL     OW69537   6.453   6.048   6.218
22699SOL    HW169538   6.416   6.104   6.150
22699SOL    HW269539   6.480   5.968   6.172
22700SOL     OW69540   6.603   5.629   6.317
22700SOL    HW169541   6.539   5.623   6.246
22700SOL    HW269542   6.581   5.557   6.376
22701SOL     OW69543   7.017   6.741   6.441
22701SOL    HW169544   6.957   6.667   6.451
22701SOL    HW269545   7.034   6.746   6.347
22702SOL     OW69546   7.051   6.198   6.544
22702SOL    HW169547   6.990   6.124   6.552
22702SOL    HW269548   7.107   6.190   6.622
22703SOL     OW69549   7.419   6.390   5.976
22703SOL    HW169550   7.479   6.343   6.034
22703SOL    HW269551   7.400   6.328   5.906
22704SOL     OW69552   6.077   7.011   5.741
22704SOL    HW169553   5.999   6.984   5.790
22704SOL    HW269554   6.076   6.956   5.662
22705SOL     OW69555   7.275   6.858   6.217
22705SOL    HW169556   7.368   6.851   6.239
22705SOL    HW269557   7.249   6.945   6.247
22706SOL     OW69558   6.978   6.159   5.658
22706SOL    HW169559   6.915   6.136   5.727
22706SOL    HW269560   7.062   6.125   5.691
22707SOL     OW69561   7.327   6.830   7.137
22707SOL    HW169562   7.414   6.790   7.131
22707SOL    HW269563   7.344   6.918   7.169
22708SOL     OW69564   6.635   6.948   6.927
22708SOL    HW169565   6.557   6.910   6.969
22708SOL    HW269566   6.708   6.897   6.962
22709SOL     OW69567   7.193   7.212   7.253
22709SOL    HW169568   7.186   7.251   7.166
22709SOL    HW269569   7.273   7.161   7.249
22710SOL     OW69570   6.728   6.812   6.688
22710SOL    HW169571   6.659   6.835   6.750
22710SOL    HW269572   6.692   6.836   6.603
22711SOL     OW69573   7.203   6.679   6.661
22711SOL    HW169574   7.197   6.740   6.734
22711SOL    HW269575   7.127   6.697   6.606
22712SOL     OW69576   6.504   5.676   6.984
22712SOL    HW169577   6.495   5.720   6.900
22712SOL    HW269578   6.584   5.713   7.022
22713SOL     OW69579   6.563   6.701   7.311
22713SOL    HW169580   6.472   6.714   7.337
22713SOL    HW269581   6.562   6.621   7.259
22714SOL     OW69582   6.299   6.650   5.956
22714SOL    HW169583   6.283   6.627   6.047
22714SOL    HW269584   6.373   6.595   5.930
22715SOL     OW69585   6.014   6.407   6.837
22715SOL    HW169586   6.076   6.415   6.909
22715SOL    HW269587   5.977   6.319   6.846
22716SOL     OW69588   6.851   5.961   6.866
22716SOL    HW169589   6.879   6.039   6.914
22716SOL    HW269590   6.759   5.979   6.845
22717SOL     OW69591   5.659   7.178   6.962
22717SOL    HW169592   5.620   7.228   6.891
22717SOL    HW269593   5.749   7.163   6.935
22718SOL     OW69594   5.923   6.709   6.078
22718SOL    HW169595   5.908   6.781   6.017
22718SOL    HW269596   5.920   6.630   6.023
22719SOL     OW69597   6.140   6.097   6.417
22719SOL    HW169598   6.154   6.168   6.355
22719SOL    HW269599   6.196   6.119   6.492
22720SOL     OW69600   6.838   6.934   5.973
22720SOL    HW169601   6.893   7.004   6.009
22720SOL    HW269602   6.750   6.955   6.005
22721SOL     OW69603   6.881   7.047   6.731
22721SOL    HW169604   6.934   7.052   6.811
22721SOL    HW269605   6.831   6.966   6.741
22722SOL     OW69606   7.159   6.206   6.071
22722SOL    HW169607   7.109   6.246   6.142
22722SOL    HW269608   7.207   6.280   6.032
22723SOL     OW69609   5.920   7.129   6.877
22723SOL    HW169610   5.909   7.079   6.795
22723SOL    HW269611   6.015   7.134   6.887
22724SOL     OW69612   5.999   6.335   7.195
22724SOL    HW169613   6.069   6.364   7.138
22724SOL    HW269614   6.009   6.240   7.200
22725SOL     OW69615   7.201   6.370   7.278
22725SOL    HW169616   7.114   6.409   7.272
22725SOL    HW269617   7.251   6.411   7.208
22726SOL     OW69618   6.602   5.718   7.340
22726SOL    HW169619   6.657   5.794   7.318
22726SOL    HW269620   6.656   5.642   7.317
22727SOL     OW69621   6.170   6.455   6.618
22727SOL    HW169622   6.196   6.547   6.623
22727SOL    HW269623   6.115   6.442   6.696
22728SOL     OW69624   6.916   6.445   6.595
22728SOL    HW169625   6.827   6.419   6.571
22728SOL    HW269626   6.969   6.366   6.585
22729SOL     OW69627   6.779   6.112   5.844
22729SOL    HW169628   6.792   6.035   5.899
22729SOL    HW269629   6.739   6.177   5.902
22730SOL     OW69630   5.884   5.793   6.828
22730SOL    HW169631   5.848   5.819   6.912
22730SOL    HW269632   5.874   5.698   6.825
22731SOL     OW69633   5.665   6.907   6.862
22731SOL    HW169634   5.687   6.839   6.926
22731SOL    HW269635   5.631   6.979   6.914
22732SOL     OW69636   6.292   6.204   6.620
22732SOL    HW169637   6.375   6.201   6.572
22732SOL    HW269638   6.263   6.294   6.612
22733SOL     OW69639   7.326   6.551   7.450
22733SOL    HW169640   7.288   6.479   7.399
22733SOL    HW269641   7.264   6.566   7.521
22734SOL     OW69642   5.911   5.656   6.209
22734SOL    HW169643   5.868   5.736   6.238
22734SOL    HW269644   5.915   5.600   6.286
22735SOL     OW69645   7.217   5.973   5.937
22735SOL    HW169646   7.244   5.906   5.998
22735SOL    HW269647   7.188   6.046   5.992
22736SOL     OW69648   6.619   6.345   6.547
22736SOL    HW169649   6.602   6.361   6.640
22736SOL    HW269650   6.592   6.255   6.532
22737SOL     OW69651   6.578   7.163   7.315
22737SOL    HW169652   6.547   7.200   7.232
22737SOL    HW269653   6.606   7.075   7.292
22738SOL     OW69654   7.431   7.084   7.192
22738SOL    HW169655   7.454   7.113   7.103
22738SOL    HW269656   7.512   7.095   7.242
22739SOL     OW69657   5.953   6.518   7.393
22739SOL    HW169658   6.031   6.516   7.449
22739SOL    HW269659   5.968   6.450   7.328
22740SOL     OW69660   7.109   5.858   5.709
22740SOL    HW169661   7.051   5.789   5.740
22740SOL    HW269662   7.146   5.896   5.789
22741SOL     OW69663   6.867   6.408   5.612
22741SOL    HW169664   6.909   6.322   5.619
22741SOL    HW269665   6.903   6.444   5.531
22742SOL     OW69666   6.642   6.934   6.438
22742SOL    HW169667   6.655   6.857   6.383
22742SOL    HW269668   6.707   6.997   6.407
22743SOL     OW69669   5.897   6.392   6.532
22743SOL    HW169670   5.991   6.407   6.537
22743SOL    HW269671   5.885   6.303   6.565
22744SOL     OW69672   5.929   6.119   6.591
22744SOL    HW169673   5.883   6.035   6.586
22744SOL    HW269674   5.999   6.112   6.525
22745SOL     OW69675   6.727   5.957   7.263
22745SOL    HW169676   6.675   6.006   7.327
22745SOL    HW269677   6.812   6.001   7.263
22746SOL     OW69678   6.748   5.780   7.052
22746SOL    HW169679   6.735   5.840   7.125
22746SOL    HW269680   6.793   5.832   6.985
22747SOL     OW69681   5.598   6.902   5.773
22747SOL    HW169682   5.508   6.913   5.742
22747SOL    HW269683   5.600   6.814   5.811
22748SOL     OW69684   5.677   7.359   6.533
22748SOL    HW169685   5.641   7.282   6.488
22748SOL    HW269686   5.765   7.370   6.495
22749SOL     OW69687   6.162   7.216   6.487
22749SOL    HW169688   6.161   7.176   6.574
22749SOL    HW269689   6.163   7.141   6.427
22750SOL     OW69690   6.543   6.370   6.809
22750SOL    HW169691   6.605   6.352   6.880
22750SOL    HW269692   6.463   6.324   6.835
22751SOL     OW69693   5.617   6.158   6.692
22751SOL    HW169694   5.675   6.096   6.648
22751SOL    HW269695   5.642   6.154   6.784
22752SOL     OW69696   5.756   6.121   7.346
22752SOL    HW169697   5.803   6.044   7.312
22752SOL    HW269698   5.730   6.169   7.268
22753SOL     OW69699   6.969   6.516   7.243
22753SOL    HW169700   6.989   6.609   7.236
22753SOL    HW269701   6.964   6.486   7.152
22754SOL     OW69702   6.406   6.156   5.954
22754SOL    HW169703   6.418   6.083   5.893
22754SOL    HW269704   6.330   6.203   5.920
22755SOL     OW69705   7.223   6.188   6.758
22755SOL    HW169706   7.215   6.130   6.834
22755SOL    HW269707   7.312   6.174   6.726
22756SOL     OW69708   5.825   7.127   7.317
22756SOL    HW169709   5.795   7.176   7.394
22756SOL    HW269710   5.831   7.036   7.347
22757SOL     OW69711   6.315   6.029   6.830
22757SOL    HW169712   6.251   5.958   6.828
22757SOL    HW269713   6.290   6.086   6.758
22758SOL     OW69714   6.485   7.273   7.078
22758SOL    HW169715   6.477   7.220   6.998
22758SOL    HW269716   6.493   7.363   7.046
22759SOL     OW69717   6.041   6.040   5.779
22759SOL    HW169718   6.102   6.112   5.794
22759SOL    HW269719   5.957   6.084   5.764
22760SOL     OW69720   5.755   6.727   7.049
22760SOL    HW169721   5.738   6.686   7.133
22760SOL    HW269722   5.757   6.655   6.987
22761SOL     OW69723   6.903   6.628   6.798
22761SOL    HW169724   6.918   6.563   6.730
22761SOL    HW269725   6.842   6.691   6.759
22762SOL     OW69726   6.903   6.448   5.886
22762SOL    HW169727   6.835   6.408   5.941
22762SOL    HW269728   6.875   6.429   5.797
22763SOL     OW69729   7.351   7.322   6.734
22763SOL    HW169730   7.419   7.345   6.671
22763SOL    HW269731   7.330   7.231   6.715
22764SOL     OW69732   6.818   7.309   6.666
22764SOL    HW169733   6.904   7.342   6.639
22764SOL    HW269734   6.836   7.221   6.698
22765SOL     OW69735   5.677   6.855   6.598
22765SOL    HW169736   5.657   6.864   6.691
22765SOL    HW269737   5.610   6.797   6.564
22766SOL     OW69738   6.271   7.270   7.324
22766SOL    HW169739   6.205   7.337   7.311
22766SOL    HW269740   6.328   7.276   7.248
22767SOL     OW69741   7.316   5.754   6.084
22767SOL    HW169742   7.384   5.734   6.019
22767SOL    HW269743   7.295   5.670   6.124
22768SOL     OW69744   6.982   7.150   6.080
22768SOL    HW169745   7.040   7.184   6.011
22768SOL    HW269746   6.933   7.227   6.109
22769SOL     OW69747   5.723   7.398   7.429
22769SOL    HW169748   5.679   7.322   7.468
22769SOL    HW269749   5.773   7.436   7.500
22770SOL     OW69750   6.864   6.519   6.258
22770SOL    HW169751   6.936   6.458   6.271
22770SOL    HW269752   6.900   6.588   6.203
22771SOL     OW69753   6.378   6.865   6.996
22771SOL    HW169754   6.351   6.908   7.077
22771SOL    HW269755   6.300   6.864   6.941
22772SOL     OW69756   6.256   7.216   5.745
22772SOL    HW169757   6.267   7.230   5.651
22772SOL    HW269758   6.200   7.138   5.750
22773SOL     OW69759   7.203   7.304   6.982
22773SOL    HW169760   7.252   7.318   6.901
22773SOL    HW269761   7.153   7.385   6.994
22774SOL     OW69762   7.429   5.753   6.546
22774SOL    HW169763   7.461   5.665   6.525
22774SOL    HW269764   7.341   5.755   6.508
22775SOL     OW69765   5.820   5.900   6.300
22775SOL    HW169766   5.730   5.929   6.281
22775SOL    HW269767   5.823   5.893   6.395
22776SOL     OW69768   6.793   7.181   5.622
22776SOL    HW169769   6.783   7.090   5.649
22776SOL    HW269770   6.726   7.194   5.555
22777SOL     OW69771   6.409   6.589   6.969
22777SOL    HW169772   6.452   6.573   6.885
22777SOL    HW269773   6.406   6.684   6.976
22778SOL     OW69774   6.504   6.496   5.872
22778SOL    HW169775   6.566   6.532   5.809
22778SOL    HW269776   6.554   6.430   5.920
22779SOL     OW69777   7.070   7.228   5.635
22779SOL    HW169778   6.978   7.208   5.619
22779SOL    HW269779   7.110   7.229   5.548
22780SOL     OW69780   5.962   6.902   7.071
22780SOL    HW169781   5.928   6.977   7.023
22780SOL    HW269782   5.894   6.835   7.061
22781SOL     OW69783   7.190   6.868   6.863
22781SOL    HW169784   7.250   6.850   6.935
22781SOL    HW269785   7.130   6.934   6.898
22782SOL     OW69786   6.654   6.700   6.307
22782SOL    HW169787   6.581   6.648   6.340
22782SOL    HW269788   6.720   6.635   6.282
22783SOL     OW69789   6.615   5.827   6.542
22783SOL    HW169790   6.607   5.782   6.458
22783SOL    HW269791   6.607   5.757   6.607
22784SOL     OW69792   6.193   7.075   6.061
22784SOL    HW169793   6.245   7.024   5.998
22784SOL    HW269794   6.105   7.078   6.023
22785SOL     OW69795   7.314   5.977   6.966
22785SOL    HW169796   7.387   6.039   6.967
22785SOL    HW269797   7.342   5.908   6.906
22786SOL     OW69798   5.853   6.934   5.885
22786SOL    HW169799   5.761   6.921   5.861
22786SOL    HW269800   5.850   6.974   5.972
22787SOL     OW69801   5.719   6.639   7.307
22787SOL    HW169802   5.643   6.624   7.364
22787SOL    HW269803   5.789   6.588   7.347
22788SOL     OW69804   6.255   5.802   7.057
22788SOL    HW169805   6.343   5.764   7.053
22788SOL    HW269806   6.221   5.775   7.143
22789SOL     OW69807   5.662   5.910   5.617
22789SOL    HW169808   5.600   5.838   5.606
22789SOL    HW269809   5.608   5.986   5.637
22790SOL     OW69810   7.007   6.444   6.982
22790SOL    HW169811   6.957   6.504   6.926
22790SOL    HW269812   7.095   6.444   6.945
22791SOL     OW69813   5.656   5.736   5.881
22791SOL    HW169814   5.649   5.827   5.851
22791SOL    HW269815   5.749   5.716   5.873
22792SOL     OW69816   6.765   6.914   5.704
22792SOL    HW169817   6.679   6.873   5.707
22792SOL    HW269818   6.794   6.916   5.795
22793SOL     OW69819   6.207   6.411   7.026
22793SOL    HW169820   6.267   6.484   7.015
22793SOL    HW269821   6.264   6.334   7.033
22794SOL     OW69822   7.071   7.372   6.566
22794SOL    HW169823   7.099   7.449   6.518
22794SOL    HW269824   7.147   7.347   6.618
22795SOL     OW69825   6.335   6.138   7.285
22795SOL    HW169826   6.367   6.193   7.356
22795SOL    HW269827   6.344   6.048   7.319
22796SOL     OW69828   7.056   6.779   7.210
22796SOL    HW169829   7.048   6.793   7.305
22796SOL    HW269830   7.148   6.798   7.191
22797SOL     OW69831   5.953   7.323   7.161
22797SOL    HW169832   5.871   7.369   7.143
22797SOL    HW269833   5.926   7.242   7.204
22798SOL     OW69834   7.244   6.462   6.841
22798SOL    HW169835   7.244   6.376   6.799
22798SOL    HW269836   7.237   6.524   6.768
22799SOL     OW69837   6.806   5.911   6.040
22799SOL    HW169838   6.864   5.835   6.035
22799SOL    HW269839   6.836   5.959   6.117
22800SOL     OW69840   6.173   6.311   6.246
22800SOL    HW169841   6.209   6.399   6.237
22800SOL    HW269842   6.105   6.306   6.180
22801SOL     OW69843   7.334   5.948   7.241
22801SOL    HW169844   7.321   5.967   7.148
22801SOL    HW269845   7.261   5.891   7.264
22802SOL     OW69846   7.336   6.519   7.093
22802SOL    HW169847   7.321   6.613   7.104
22802SOL    HW269848   7.314   6.501   7.002
22803SOL     OW69849   6.443   6.948   5.635
22803SOL    HW169850   6.411   6.968   5.723
22803SOL    HW269851   6.460   7.034   5.596
22804SOL     OW69852   6.457   6.559   6.440
22804SOL    HW169853   6.505   6.484   6.476
22804SOL    HW269854   6.416   6.600   6.515
22805SOL     OW69855   6.667   6.583   5.674
22805SOL    HW169856   6.644   6.629   5.593
22805SOL    HW269857   6.737   6.523   5.649
22806SOL     OW69858   7.430   7.142   6.423
22806SOL    HW169859   7.347   7.130   6.378
22806SOL    HW269860   7.426   7.079   6.496
22807SOL     OW69861   5.797   6.875   7.425
22807SOL    HW169862   5.766   6.796   7.380
22807SOL    HW269863   5.738   6.885   7.500
22808SOL     OW69864   5.707   6.817   6.267
22808SOL    HW169865   5.674   6.765   6.340
22808SOL    HW269866   5.761   6.756   6.217
22809SOL     OW69867   6.270   7.003   7.207
22809SOL    HW169868   6.197   6.953   7.244
22809SOL    HW269869   6.274   7.082   7.261
22810SOL     OW69870   7.386   5.770   6.814
22810SOL    HW169871   7.408   5.679   6.836
22810SOL    HW269872   7.403   5.777   6.720
22811SOL     OW69873   5.996   5.977   6.091
22811SOL    HW169874   5.913   5.945   6.127
22811SOL    HW269875   6.048   6.000   6.168
22812SOL     OW69876   7.282   7.066   6.671
22812SOL    HW169877   7.203   7.045   6.621
22812SOL    HW269878   7.286   6.998   6.739
22813SOL     OW69879   5.930   6.153   6.872
22813SOL    HW169880   5.975   6.093   6.932
22813SOL    HW269881   5.942   6.115   6.785
22814SOL     OW69882   6.374   7.207   6.268
22814SOL    HW169883   6.378   7.246   6.180
22814SOL    HW269884   6.322   7.128   6.256
22815SOL     OW69885   7.019   5.821   6.707
22815SOL    HW169886   7.070   5.762   6.762
22815SOL    HW269887   6.962   5.868   6.768
22816SOL     OW69888   6.585   5.603   6.711
22816SOL    HW169889   6.528   5.539   6.669
22816SOL    HW269890   6.597   5.570   6.800
22817SOL     OW69891   6.364   6.919   5.908
22817SOL    HW169892   6.336   6.828   5.917
22817SOL    HW269893   6.447   6.923   5.957
22818SOL     OW69894   6.199   7.155   6.848
22818SOL    HW169895   6.195   7.231   6.905
22818SOL    HW269896   6.293   7.141   6.833
22819SOL     OW69897   6.953   5.631   5.762
22819SOL    HW169898   6.990   5.557   5.714
22819SOL    HW269899   6.862   5.606   5.778
22820SOL     OW69900   6.887   6.053   6.263
22820SOL    HW169901   6.834   6.132   6.264
22820SOL    HW269902   6.879   6.017   6.351
22821SOL     OW69903   7.165   5.770   6.473
22821SOL    HW169904   7.110   5.799   6.547
22821SOL    HW269905   7.167   5.845   6.414
22822SOL     OW69906   5.654   6.656   5.876
22822SOL    HW169907   5.744   6.625   5.865
22822SOL    HW269908   5.607   6.580   5.911
22823SOL     OW69909   6.479   7.246   5.921
22823SOL    HW169910   6.404   7.229   5.864
22823SOL    HW269911   6.450   7.317   5.977
22824SOL     OW69912   5.811   6.234   7.586
22824SOL    HW169913   5.726   6.218   7.626
22824SOL    HW269914   5.801   6.205   7.496
22825SOL     OW69915   5.802   5.851   8.443
22825SOL    HW169916   5.832   5.833   8.532
22825SOL    HW269917   5.743   5.779   8.422
22826SOL     OW69918   5.585   5.969   8.093
22826SOL    HW169919   5.500   5.997   8.128
22826SOL    HW269920   5.566   5.889   8.045
22827SOL     OW69921   6.157   6.888   8.643
22827SOL    HW169922   6.073   6.890   8.595
22827SOL    HW269923   6.171   6.980   8.668
22828SOL     OW69924   7.168   7.105   8.157
22828SOL    HW169925   7.123   7.077   8.237
22828SOL    HW269926   7.100   7.106   8.090
22829SOL     OW69927   6.721   6.291   8.142
22829SOL    HW169928   6.768   6.373   8.128
22829SOL    HW269929   6.669   6.306   8.221
22830SOL     OW69930   7.359   6.184   7.677
22830SOL    HW169931   7.332   6.181   7.585
22830SOL    HW269932   7.328   6.102   7.714
22831SOL     OW69933   6.328   6.723   8.503
22831SOL    HW169934   6.263   6.761   8.563
22831SOL    HW269935   6.367   6.798   8.459
22832SOL     OW69936   6.472   6.340   9.277
22832SOL    HW169937   6.455   6.412   9.339
22832SOL    HW269938   6.488   6.385   9.194
22833SOL     OW69939   6.273   6.582   8.088
22833SOL    HW169940   6.338   6.577   8.158
22833SOL    HW269941   6.204   6.638   8.124
22834SOL     OW69942   6.301   6.736   9.276
22834SOL    HW169943   6.349   6.812   9.308
22834SOL    HW269944   6.224   6.773   9.232
22835SOL     OW69945   5.916   6.998   8.513
22835SOL    HW169946   5.843   6.955   8.469
22835SOL    HW269947   5.960   7.048   8.445
22836SOL     OW69948   7.044   7.088   8.815
22836SOL    HW169949   7.098   7.166   8.823
22836SOL    HW269950   6.974   7.101   8.879
22837SOL     OW69951   6.035   5.979   8.927
22837SOL    HW169952   6.113   5.923   8.933
22837SOL    HW269953   5.962   5.921   8.949
22838SOL     OW69954   7.196   6.026   8.195
22838SOL    HW169955   7.142   6.047   8.118
22838SOL    HW269956   7.198   6.108   8.245
22839SOL     OW69957   5.799   7.310   7.913
22839SOL    HW169958   5.828   7.382   7.970
22839SOL    HW269959   5.873   7.295   7.855
22840SOL     OW69960   6.724   6.928   9.145
22840SOL    HW169961   6.766   6.919   9.231
22840SOL    HW269962   6.672   6.848   9.135
22841SOL     OW69963   5.832   7.038   7.993
22841SOL    HW169964   5.795   7.126   7.994
22841SOL    HW269965   5.774   6.986   8.048
22842SOL     OW69966   5.870   6.678   8.352
22842SOL    HW169967   5.864   6.586   8.378
22842SOL    HW269968   5.799   6.722   8.399
22843SOL     OW69969   6.174   7.384   8.866
22843SOL    HW169970   6.097   7.362   8.919
22843SOL    HW269971   6.203   7.469   8.898
22844SOL     OW69972   6.167   6.567   7.589
22844SOL    HW169973   6.215   6.614   7.521
22844SOL    HW269974   6.203   6.601   7.671
22845SOL     OW69975   7.179   5.717   8.908
22845SOL    HW169976   7.208   5.796   8.863
22845SOL    HW269977   7.152   5.747   8.995
22846SOL     OW69978   5.711   6.234   8.008
22846SOL    HW169979   5.678   6.146   8.026
22846SOL    HW269980   5.701   6.281   8.090
22847SOL     OW69981   7.433   7.333   7.779
22847SOL    HW169982   7.506   7.310   7.837
22847SOL    HW269983   7.450   7.424   7.755
22848SOL     OW69984   5.641   7.176   7.560
22848SOL    HW169985   5.620   7.084   7.573
22848SOL    HW269986   5.605   7.221   7.636
22849SOL     OW69987   7.282   6.508   8.095
22849SOL    HW169988   7.354   6.456   8.062
22849SOL    HW269989   7.253   6.560   8.020
22850SOL     OW69990   7.237   6.688   7.879
22850SOL    HW169991   7.323   6.685   7.837
22850SOL    HW269992   7.247   6.753   7.949
22851SOL     OW69993   5.713   6.326   9.031
22851SOL    HW169994   5.803   6.357   9.032
22851SOL    HW269995   5.661   6.405   9.014
22852SOL     OW69996   6.206   6.982   8.181
22852SOL    HW169997   6.163   6.897   8.189
22852SOL    HW269998   6.189   7.009   8.091
22853SOL     OW69999   6.866   6.819   8.869
22853SOL    HW170000   6.893   6.750   8.808
22853SOL    HW270001   6.928   6.813   8.941
22854SOL     OW70002   6.416   5.608   7.959
22854SOL    HW170003   6.448   5.692   7.926
22854SOL    HW270004   6.320   5.618   7.963
22855SOL     OW70005   5.771   6.543   8.734
22855SOL    HW170006   5.859   6.507   8.722
22855SOL    HW270007   5.717   6.499   8.668
22856SOL     OW70008   7.117   6.589   7.649
22856SOL    HW170009   7.048   6.531   7.680
22856SOL    HW270010   7.160   6.620   7.729
22857SOL     OW70011   6.771   7.398   9.080
22857SOL    HW170012   6.773   7.460   9.007
22857SOL    HW270013   6.786   7.312   9.039
22858SOL     OW70014   5.923   5.850   9.313
22858SOL    HW170015   5.959   5.937   9.332
22858SOL    HW270016   5.829   5.860   9.325
22859SOL     OW70017   7.049   7.005   8.384
22859SOL    HW170018   6.987   7.021   8.455
22859SOL    HW270019   7.035   6.914   8.360
22860SOL     OW70020   7.230   7.353   8.023
22860SOL    HW170021   7.215   7.314   7.937
22860SOL    HW270022   7.220   7.280   8.084
22861SOL     OW70023   6.181   6.308   7.728
22861SOL    HW170024   6.172   6.390   7.678
22861SOL    HW270025   6.112   6.312   7.794
22862SOL     OW70026   6.847   5.925   8.358
22862SOL    HW170027   6.835   5.846   8.306
22862SOL    HW270028   6.896   5.896   8.435
22863SOL     OW70029   7.163   7.266   7.761
22863SOL    HW170030   7.257   7.281   7.754
22863SOL    HW270031   7.135   7.247   7.672
22864SOL     OW70032   6.386   6.191   8.892
22864SOL    HW170033   6.359   6.166   8.980
22864SOL    HW270034   6.340   6.129   8.834
22865SOL     OW70035   6.979   6.063   9.124
22865SOL    HW170036   6.985   6.104   9.210
22865SOL    HW270037   7.028   5.981   9.134
22866SOL     OW70038   6.533   6.471   9.039
22866SOL    HW170039   6.589   6.405   8.998
22866SOL    HW270040   6.483   6.509   8.966
22867SOL     OW70041   6.581   6.014   8.696
22867SOL    HW170042   6.513   6.038   8.759
22867SOL    HW270043   6.534   5.974   8.624
22868SOL     OW70044   6.642   6.287   7.870
22868SOL    HW170045   6.659   6.280   7.964
22868SOL    HW270046   6.558   6.244   7.856
22869SOL     OW70047   5.679   6.389   8.231
22869SOL    HW170048   5.757   6.391   8.286
22869SOL    HW270049   5.629   6.467   8.257
22870SOL     OW70050   5.709   7.458   9.032
22870SOL    HW170051   5.709   7.440   9.126
22870SOL    HW270052   5.638   7.403   8.998
22871SOL     OW70053   6.464   5.950   7.649
22871SOL    HW170054   6.518   5.988   7.580
22871SOL    HW270055   6.402   5.894   7.603
22872SOL     OW70056   7.292   6.160   9.281
22872SOL    HW170057   7.258   6.234   9.231
22872SOL    HW270058   7.310   6.093   9.215
22873SOL     OW70059   6.973   6.730   7.988
22873SOL    HW170060   7.051   6.716   7.933
22873SOL    HW270061   6.919   6.790   7.937
22874SOL     OW70062   6.108   5.765   8.344
22874SOL    HW170063   6.118   5.802   8.431
22874SOL    HW270064   6.104   5.841   8.285
22875SOL     OW70065   6.587   7.038   7.916
22875SOL    HW170066   6.558   7.112   7.862
22875SOL    HW270067   6.554   7.059   8.004
22876SOL     OW70068   5.941   7.402   8.325
22876SOL    HW170069   5.985   7.317   8.329
22876SOL    HW270070   6.010   7.466   8.342
22877SOL     OW70071   7.390   6.638   8.322
22877SOL    HW170072   7.341   6.614   8.243
22877SOL    HW270073   7.324   6.642   8.391
22878SOL     OW70074   6.808   7.126   8.962
22878SOL    HW170075   6.798   7.056   9.026
22878SOL    HW270076   6.747   7.104   8.892
22879SOL     OW70077   5.893   6.539   7.704
22879SOL    HW170078   5.970   6.559   7.650
22879SOL    HW270079   5.858   6.458   7.668
22880SOL     OW70080   7.069   6.348   8.171
22880SOL    HW170081   7.070   6.306   8.257
22880SOL    HW270082   7.150   6.399   8.168
22881SOL     OW70083   6.059   6.859   9.188
22881SOL    HW170084   6.034   6.865   9.096
22881SOL    HW270085   5.976   6.850   9.235
22882SOL     OW70086   6.707   7.372   7.648
22882SOL    HW170087   6.633   7.338   7.698
22882SOL    HW270088   6.734   7.298   7.593
22883SOL     OW70089   5.785   5.852   8.959
22883SOL    HW170090   5.699   5.887   8.935
22883SOL    HW270091   5.767   5.764   8.992
22884SOL     OW70092   7.214   6.973   7.548
22884SOL    HW170093   7.173   7.056   7.523
22884SOL    HW270094   7.150   6.907   7.523
22885SOL     OW70095   6.041   7.328   7.764
22885SOL    HW170096   6.093   7.371   7.832
22885SOL    HW270097   6.106   7.281   7.711
22886SOL     OW70098   6.988   5.694   7.892
22886SOL    HW170099   6.977   5.667   7.801
22886SOL    HW270100   7.083   5.687   7.907
22887SOL     OW70101   5.845   7.375   8.668
22887SOL    HW170102   5.892   7.299   8.703
22887SOL    HW270103   5.829   7.352   8.577
22888SOL     OW70104   6.530   7.284   8.341
22888SOL    HW170105   6.614   7.239   8.355
22888SOL    HW270106   6.488   7.233   8.272
22889SOL     OW70107   5.987   6.276   7.927
22889SOL    HW170108   6.005   6.183   7.942
22889SOL    HW270109   5.892   6.284   7.935
22890SOL     OW70110   7.101   5.809   9.169
22890SOL    HW170111   7.109   5.828   9.262
22890SOL    HW270112   7.039   5.736   9.165
22891SOL     OW70113   6.255   5.695   7.613
22891SOL    HW170114   6.309   5.617   7.611
22891SOL    HW270115   6.216   5.699   7.525
22892SOL     OW70116   6.356   5.867   9.212
22892SOL    HW170117   6.436   5.815   9.204
22892SOL    HW270118   6.301   5.817   9.272
22893SOL     OW70119   6.460   7.113   8.646
22893SOL    HW170120   6.443   7.073   8.560
22893SOL    HW270121   6.529   7.059   8.684
22894SOL     OW70122   6.921   6.176   8.881
22894SOL    HW170123   6.953   6.145   8.965
22894SOL    HW270124   6.959   6.263   8.872
22895SOL     OW70125   6.404   6.973   8.400
22895SOL    HW170126   6.489   6.962   8.359
22895SOL    HW270127   6.342   6.980   8.327
22896SOL     OW70128   6.529   6.114   8.335
22896SOL    HW170129   6.491   6.094   8.249
22896SOL    HW270130   6.602   6.052   8.344
22897SOL     OW70131   6.147   5.649   7.950
22897SOL    HW170132   6.064   5.641   7.996
22897SOL    HW270133   6.136   5.726   7.894
22898SOL     OW70134   7.019   6.789   7.485
22898SOL    HW170135   7.050   6.713   7.534
22898SOL    HW270136   6.932   6.807   7.520
22899SOL     OW70137   5.886   5.640   7.614
22899SOL    HW170138   5.952   5.660   7.548
22899SOL    HW270139   5.928   5.578   7.673
22900SOL     OW70140   6.536   5.848   7.896
22900SOL    HW170141   6.507   5.878   7.810
22900SOL    HW270142   6.631   5.862   7.895
22901SOL     OW70143   6.666   6.277   8.905
22901SOL    HW170144   6.600   6.208   8.913
22901SOL    HW270145   6.749   6.230   8.897
22902SOL     OW70146   6.794   7.166   8.249
22902SOL    HW170147   6.812   7.229   8.178
22902SOL    HW270148   6.872   7.170   8.304
22903SOL     OW70149   6.064   6.746   8.171
22903SOL    HW170150   5.999   6.722   8.237
22903SOL    HW270151   6.020   6.734   8.088
22904SOL     OW70152   6.844   7.376   8.063
22904SOL    HW170153   6.893   7.439   8.010
22904SOL    HW270154   6.772   7.427   8.099
22905SOL     OW70155   6.626   6.115   7.470
22905SOL    HW170156   6.579   6.197   7.458
22905SOL    HW270157   6.681   6.130   7.547
22906SOL     OW70158   5.684   6.140   8.835
22906SOL    HW170159   5.775   6.139   8.808
22906SOL    HW270160   5.679   6.206   8.903
22907SOL     OW70161   6.147   5.813   8.616
22907SOL    HW170162   6.187   5.735   8.654
22907SOL    HW270163   6.057   5.812   8.649
22908SOL     OW70164   6.453   6.041   8.084
22908SOL    HW170165   6.404   6.097   8.023
22908SOL    HW270166   6.478   5.965   8.032
22909SOL     OW70167   6.599   5.620   8.169
22909SOL    HW170168   6.543   5.631   8.092
22909SOL    HW270169   6.599   5.525   8.185
22910SOL     OW70170   7.025   6.743   8.301
22910SOL    HW170171   6.953   6.679   8.302
22910SOL    HW270172   7.048   6.750   8.208
22911SOL     OW70173   7.056   6.209   8.415
22911SOL    HW170174   7.005   6.128   8.416
22911SOL    HW270175   7.114   6.202   8.491
22912SOL     OW70176   7.422   6.391   7.845
22912SOL    HW170177   7.487   6.342   7.896
22912SOL    HW270178   7.397   6.331   7.775
22913SOL     OW70179   6.075   7.012   7.597
22913SOL    HW170180   6.001   6.980   7.649
22913SOL    HW270181   6.073   6.959   7.517
22914SOL     OW70182   7.273   6.852   8.087
22914SOL    HW170183   7.367   6.848   8.104
22914SOL    HW270184   7.249   6.942   8.111
22915SOL     OW70185   6.979   6.159   7.519
22915SOL    HW170186   6.915   6.137   7.586
22915SOL    HW270187   7.060   6.117   7.547
22916SOL     OW70188   6.115   5.859   7.780
22916SOL    HW170189   6.164   5.805   7.718
22916SOL    HW270190   6.084   5.933   7.729
22917SOL     OW70191   7.331   6.828   9.006
22917SOL    HW170192   7.419   6.793   8.991
22917SOL    HW270193   7.346   6.918   9.036
22918SOL     OW70194   6.637   6.948   8.788
22918SOL    HW170195   6.560   6.911   8.831
22918SOL    HW270196   6.711   6.899   8.824
22919SOL     OW70197   7.198   7.220   9.111
22919SOL    HW170198   7.186   7.253   9.022
22919SOL    HW270199   7.277   7.167   9.107
22920SOL     OW70200   6.730   6.813   8.551
22920SOL    HW170201   6.660   6.840   8.611
22920SOL    HW270202   6.701   6.841   8.465
22921SOL     OW70203   7.202   6.675   8.520
22921SOL    HW170204   7.191   6.740   8.590
22921SOL    HW270205   7.129   6.693   8.460
22922SOL     OW70206   6.493   5.704   8.831
22922SOL    HW170207   6.516   5.651   8.755
22922SOL    HW270208   6.578   5.727   8.870
22923SOL     OW70209   6.569   6.701   9.174
22923SOL    HW170210   6.479   6.718   9.199
22923SOL    HW270211   6.565   6.622   9.120
22924SOL     OW70212   6.303   6.656   7.817
22924SOL    HW170213   6.283   6.629   7.907
22924SOL    HW270214   6.379   6.603   7.792
22925SOL     OW70215   6.011   6.412   8.707
22925SOL    HW170216   6.080   6.418   8.773
22925SOL    HW270217   5.980   6.322   8.712
22926SOL     OW70218   6.847   5.960   8.730
22926SOL    HW170219   6.880   6.037   8.776
22926SOL    HW270220   6.756   5.981   8.710
22927SOL     OW70221   5.664   7.158   8.811
22927SOL    HW170222   5.633   7.223   8.748
22927SOL    HW270223   5.759   7.156   8.798
22928SOL     OW70224   5.937   6.710   7.932
22928SOL    HW170225   5.922   6.779   7.868
22928SOL    HW270226   5.926   6.628   7.882
22929SOL     OW70227   6.122   6.112   8.315
22929SOL    HW170228   6.134   6.166   8.237
22929SOL    HW270229   6.193   6.139   8.374
22930SOL     OW70230   6.835   6.938   7.844
22930SOL    HW170231   6.891   7.008   7.879
22930SOL    HW270232   6.747   6.960   7.876
22931SOL     OW70233   6.883   7.049   8.594
22931SOL    HW170234   6.935   7.052   8.675
22931SOL    HW270235   6.831   6.969   8.602
22932SOL     OW70236   7.163   6.193   7.947
22932SOL    HW170237   7.107   6.247   8.003
22932SOL    HW270238   7.202   6.254   7.885
22933SOL     OW70239   5.931   7.117   8.752
22933SOL    HW170240   5.921   7.070   8.669
22933SOL    HW270241   6.026   7.130   8.761
22934SOL     OW70242   6.000   6.332   9.051
22934SOL    HW170243   6.069   6.369   8.997
22934SOL    HW270244   6.022   6.240   9.060
22935SOL     OW70245   7.202   6.374   9.140
22935SOL    HW170246   7.115   6.412   9.131
22935SOL    HW270247   7.253   6.412   9.068
22936SOL     OW70248   6.586   5.721   9.201
22936SOL    HW170249   6.645   5.793   9.178
22936SOL    HW270250   6.633   5.642   9.176
22937SOL     OW70251   6.091   5.659   9.226
22937SOL    HW170252   6.050   5.602   9.160
22937SOL    HW270253   6.027   5.729   9.240
22938SOL     OW70254   6.182   6.458   8.489
22938SOL    HW170255   6.209   6.550   8.487
22938SOL    HW270256   6.117   6.453   8.559
22939SOL     OW70257   6.918   6.447   8.464
22939SOL    HW170258   6.832   6.427   8.428
22939SOL    HW270259   6.969   6.367   8.451
22940SOL     OW70260   6.784   6.115   7.707
22940SOL    HW170261   6.792   6.035   7.760
22940SOL    HW270262   6.739   6.177   7.764
22941SOL     OW70263   5.888   5.793   8.699
22941SOL    HW170264   5.851   5.813   8.785
22941SOL    HW270265   5.871   5.700   8.686
22942SOL     OW70266   5.619   6.898   8.722
22942SOL    HW170267   5.657   6.840   8.787
22942SOL    HW270268   5.633   6.986   8.756
22943SOL     OW70269   6.309   6.211   8.493
22943SOL    HW170270   6.383   6.204   8.433
22943SOL    HW270271   6.277   6.301   8.481
22944SOL     OW70272   7.330   6.548   9.314
22944SOL    HW170273   7.290   6.479   9.261
22944SOL    HW270274   7.265   6.566   9.382
22945SOL     OW70275   5.902   5.641   8.070
22945SOL    HW170276   5.875   5.731   8.090
22945SOL    HW270277   5.899   5.595   8.154
22946SOL     OW70278   7.216   5.964   7.802
22946SOL    HW170279   7.249   5.896   7.860
22946SOL    HW270280   7.188   6.034   7.861
22947SOL     OW70281   6.618   6.360   8.409
22947SOL    HW170282   6.603   6.373   8.502
22947SOL    HW270283   6.587   6.271   8.392
22948SOL     OW70284   6.568   7.150   9.175
22948SOL    HW170285   6.547   7.194   9.092
22948SOL    HW270286   6.610   7.069   9.150
22949SOL     OW70287   7.434   7.085   9.053
22949SOL    HW170288   7.457   7.110   8.963
22949SOL    HW270289   7.515   7.099   9.103
22950SOL     OW70290   5.937   6.507   9.255
22950SOL    HW170291   6.017   6.521   9.306
22950SOL    HW270292   5.961   6.443   9.189
22951SOL     OW70293   7.103   5.863   7.570
22951SOL    HW170294   7.046   5.792   7.600
22951SOL    HW270295   7.144   5.895   7.650
22952SOL     OW70296   6.872   6.412   7.478
22952SOL    HW170297   6.909   6.324   7.483
22952SOL    HW270298   6.903   6.447   7.395
22953SOL     OW70299   6.654   6.930   8.309
22953SOL    HW170300   6.661   6.858   8.247
22953SOL    HW270301   6.708   7.000   8.271
22954SOL     OW70302   5.897   6.394   8.398
22954SOL    HW170303   5.990   6.404   8.377
22954SOL    HW270304   5.888   6.304   8.428
22955SOL     OW70305   5.897   6.106   8.462
22955SOL    HW170306   5.862   6.018   8.449
22955SOL    HW270307   5.975   6.110   8.406
22956SOL     OW70308   6.721   5.959   9.130
22956SOL    HW170309   6.673   6.009   9.196
22956SOL    HW270310   6.807   6.002   9.125
22957SOL     OW70311   6.745   5.780   8.919
22957SOL    HW170312   6.733   5.843   8.990
22957SOL    HW270313   6.789   5.830   8.850
22958SOL     OW70314   5.606   6.903   7.634
22958SOL    HW170315   5.519   6.930   7.604
22958SOL    HW270316   5.599   6.808   7.644
22959SOL     OW70317   5.679   7.362   8.399
22959SOL    HW170318   5.646   7.285   8.352
22959SOL    HW270319   5.766   7.377   8.362
22960SOL     OW70320   6.076   7.161   8.352
22960SOL    HW170321   6.146   7.222   8.374
22960SOL    HW270322   6.117   7.099   8.292
22961SOL     OW70323   6.548   6.373   8.672
22961SOL    HW170324   6.607   6.354   8.745
22961SOL    HW270325   6.469   6.322   8.691
22962SOL     OW70326   5.623   6.156   8.562
22962SOL    HW170327   5.700   6.137   8.507
22962SOL    HW270328   5.654   6.144   8.652
22963SOL     OW70329   5.771   6.100   9.180
22963SOL    HW170330   5.802   6.038   9.114
22963SOL    HW270331   5.743   6.177   9.129
22964SOL     OW70332   6.970   6.516   9.104
22964SOL    HW170333   6.990   6.609   9.098
22964SOL    HW270334   6.963   6.486   9.013
22965SOL     OW70335   6.405   6.165   7.819
22965SOL    HW170336   6.411   6.089   7.761
22965SOL    HW270337   6.327   6.212   7.788
22966SOL     OW70338   7.226   6.190   8.628
22966SOL    HW170339   7.217   6.127   8.699
22966SOL    HW270340   7.314   6.175   8.594
22967SOL     OW70341   5.817   7.130   9.174
22967SOL    HW170342   5.802   7.182   9.253
22967SOL    HW270343   5.830   7.041   9.206
22968SOL     OW70344   6.289   6.034   8.698
22968SOL    HW170345   6.237   5.958   8.674
22968SOL    HW270346   6.284   6.092   8.622
22969SOL     OW70347   6.490   7.265   8.932
22969SOL    HW170348   6.476   7.219   8.850
22969SOL    HW270349   6.490   7.358   8.907
22970SOL     OW70350   6.041   6.082   7.647
22970SOL    HW170351   6.101   6.155   7.661
22970SOL    HW270352   5.958   6.123   7.622
22971SOL     OW70353   5.722   6.732   8.923
22971SOL    HW170354   5.730   6.690   9.008
22971SOL    HW270355   5.740   6.662   8.860
22972SOL     OW70356   6.900   6.628   8.665
22972SOL    HW170357   6.916   6.564   8.596
22972SOL    HW270358   6.840   6.691   8.625
22973SOL     OW70359   6.904   6.442   7.752
22973SOL    HW170360   6.831   6.404   7.802
22973SOL    HW270361   6.881   6.427   7.661
22974SOL     OW70362   7.330   7.313   8.581
22974SOL    HW170363   7.409   7.340   8.534
22974SOL    HW270364   7.322   7.219   8.563
22975SOL     OW70365   6.830   7.319   8.550
22975SOL    HW170366   6.915   7.346   8.516
22975SOL    HW270367   6.841   7.226   8.570
22976SOL     OW70368   5.665   6.861   8.449
22976SOL    HW170369   5.641   6.868   8.542
22976SOL    HW270370   5.606   6.795   8.414
22977SOL     OW70371   6.271   7.259   9.183
22977SOL    HW170372   6.214   7.335   9.175
22977SOL    HW270373   6.344   7.277   9.123
22978SOL     OW70374   7.324   5.752   7.949
22978SOL    HW170375   7.390   5.732   7.882
22978SOL    HW270376   7.302   5.667   7.986
22979SOL     OW70377   6.984   7.155   7.947
22979SOL    HW170378   7.038   7.189   7.876
22979SOL    HW270379   6.930   7.229   7.975
22980SOL     OW70380   5.712   7.396   9.294
22980SOL    HW170381   5.671   7.319   9.335
22980SOL    HW270382   5.768   7.432   9.362
22981SOL     OW70383   6.865   6.521   8.121
22981SOL    HW170384   6.938   6.461   8.133
22981SOL    HW270385   6.900   6.590   8.064
22982SOL     OW70386   6.381   6.864   8.862
22982SOL    HW170387   6.354   6.907   8.943
22982SOL    HW270388   6.308   6.877   8.802
22983SOL     OW70389   6.251   7.220   7.601
22983SOL    HW170390   6.267   7.233   7.507
22983SOL    HW270391   6.198   7.141   7.606
22984SOL     OW70392   7.204   7.313   8.838
22984SOL    HW170393   7.249   7.317   8.754
22984SOL    HW270394   7.187   7.404   8.861
22985SOL     OW70395   7.430   5.751   8.414
22985SOL    HW170396   7.459   5.662   8.392
22985SOL    HW270397   7.343   5.758   8.373
22986SOL     OW70398   5.840   5.893   8.164
22986SOL    HW170399   5.756   5.928   8.137
22986SOL    HW270400   5.835   5.889   8.260
22987SOL     OW70401   6.794   7.172   7.484
22987SOL    HW170402   6.788   7.082   7.516
22987SOL    HW270403   6.725   7.179   7.418
22988SOL     OW70404   6.407   6.592   8.829
22988SOL    HW170405   6.446   6.578   8.742
22988SOL    HW270406   6.401   6.687   8.838
22989SOL     OW70407   6.516   6.512   7.739
22989SOL    HW170408   6.579   6.544   7.674
22989SOL    HW270409   6.559   6.436   7.779
22990SOL     OW70410   7.067   7.235   7.498
22990SOL    HW170411   6.977   7.208   7.480
22990SOL    HW270412   7.110   7.233   7.412
22991SOL     OW70413   5.948   6.898   8.945
22991SOL    HW170414   5.941   6.969   8.881
22991SOL    HW270415   5.874   6.841   8.926
22992SOL     OW70416   7.186   6.871   8.719
22992SOL    HW170417   7.254   6.856   8.784
22992SOL    HW270418   7.128   6.936   8.758
22993SOL     OW70419   6.654   6.703   8.166
22993SOL    HW170420   6.578   6.653   8.198
22993SOL    HW270421   6.717   6.636   8.139
22994SOL     OW70422   6.193   7.073   7.923
22994SOL    HW170423   6.245   7.024   7.860
22994SOL    HW270424   6.104   7.073   7.886
22995SOL     OW70425   7.321   5.974   8.830
22995SOL    HW170426   7.393   6.036   8.827
22995SOL    HW270427   7.347   5.903   8.771
22996SOL     OW70428   5.864   6.925   7.752
22996SOL    HW170429   5.775   6.913   7.718
22996SOL    HW270430   5.852   6.968   7.836
22997SOL     OW70431   5.705   6.640   9.187
22997SOL    HW170432   5.627   6.605   9.229
22997SOL    HW270433   5.777   6.586   9.219
22998SOL     OW70434   6.257   5.805   8.950
22998SOL    HW170435   6.335   5.772   8.905
22998SOL    HW270436   6.287   5.826   9.038
22999SOL     OW70437   5.634   5.928   7.517
22999SOL    HW170438   5.571   5.894   7.453
22999SOL    HW270439   5.677   6.001   7.471
23000SOL     OW70440   7.007   6.443   8.843
23000SOL    HW170441   6.955   6.502   8.789
23000SOL    HW270442   7.094   6.445   8.804
23001SOL     OW70443   5.654   5.752   7.739
23001SOL    HW170444   5.634   5.821   7.676
23001SOL    HW270445   5.739   5.719   7.712
23002SOL     OW70446   6.769   6.908   7.574
23002SOL    HW170447   6.698   6.844   7.575
23002SOL    HW270448   6.796   6.915   7.665
23003SOL     OW70449   6.212   6.408   8.890
23003SOL    HW170450   6.270   6.483   8.874
23003SOL    HW270451   6.271   6.333   8.894
23004SOL     OW70452   7.081   7.385   8.452
23004SOL    HW170453   7.107   7.442   8.380
23004SOL    HW270454   7.164   7.358   8.492
23005SOL     OW70455   6.314   6.137   9.145
23005SOL    HW170456   6.357   6.191   9.211
23005SOL    HW270457   6.325   6.047   9.177
23006SOL     OW70458   7.060   6.776   9.074
23006SOL    HW170459   7.051   6.795   9.167
23006SOL    HW270460   7.151   6.797   9.053
23007SOL     OW70461   5.952   7.326   9.019
23007SOL    HW170462   5.870   7.372   9.003
23007SOL    HW270463   5.925   7.242   9.057
23008SOL     OW70464   7.246   6.464   8.705
23008SOL    HW170465   7.245   6.378   8.664
23008SOL    HW270466   7.235   6.525   8.633
23009SOL     OW70467   6.809   5.910   7.900
23009SOL    HW170468   6.870   5.836   7.896
23009SOL    HW270469   6.838   5.961   7.975
23010SOL     OW70470   6.167   6.322   8.133
23010SOL    HW170471   6.210   6.404   8.110
23010SOL    HW270472   6.106   6.306   8.061
23011SOL     OW70473   7.329   5.952   9.105
23011SOL    HW170474   7.321   5.967   9.011
23011SOL    HW270475   7.256   5.893   9.125
23012SOL     OW70476   7.345   6.518   8.956
23012SOL    HW170477   7.324   6.610   8.969
23012SOL    HW270478   7.321   6.500   8.865
23013SOL     OW70479   6.424   6.958   7.494
23013SOL    HW170480   6.404   6.965   7.588
23013SOL    HW270481   6.457   7.045   7.471
23014SOL     OW70482   6.251   7.370   8.378
23014SOL    HW170483   6.236   7.463   8.362
23014SOL    HW270484   6.346   7.360   8.375
23015SOL     OW70485   6.455   6.566   8.302
23015SOL    HW170486   6.505   6.493   8.338
23015SOL    HW270487   6.411   6.605   8.378
23016SOL     OW70488   6.684   6.606   7.541
23016SOL    HW170489   6.645   6.634   7.458
23016SOL    HW270490   6.745   6.536   7.516
23017SOL     OW70491   7.429   7.140   8.290
23017SOL    HW170492   7.351   7.131   8.234
23017SOL    HW270493   7.410   7.086   8.366
23018SOL     OW70494   5.807   6.876   9.291
23018SOL    HW170495   5.765   6.800   9.250
23018SOL    HW270496   5.764   6.883   9.377
23019SOL     OW70497   5.677   6.825   8.104
23019SOL    HW170498   5.692   6.767   8.179
23019SOL    HW270499   5.710   6.775   8.029
23020SOL     OW70500   6.275   6.996   9.078
23020SOL    HW170501   6.197   6.955   9.116
23020SOL    HW270502   6.275   7.085   9.113
23021SOL     OW70503   7.397   5.762   8.684
23021SOL    HW170504   7.396   5.668   8.698
23021SOL    HW270505   7.410   5.772   8.589
23022SOL     OW70506   6.027   6.019   7.993
23022SOL    HW170507   6.055   5.958   7.925
23022SOL    HW270508   5.967   5.968   8.047
23023SOL     OW70509   7.286   7.051   8.521
23023SOL    HW170510   7.204   7.039   8.474
23023SOL    HW270511   7.281   6.988   8.593
23024SOL     OW70512   5.936   6.151   8.739
23024SOL    HW170513   5.983   6.089   8.794
23024SOL    HW270514   5.941   6.114   8.651
23025SOL     OW70515   6.417   7.165   8.122
23025SOL    HW170516   6.384   7.227   8.056
23025SOL    HW270517   6.347   7.101   8.132
23026SOL     OW70518   7.007   5.822   8.556
23026SOL    HW170519   7.020   5.732   8.586
23026SOL    HW270520   6.960   5.865   8.627
23027SOL     OW70521   6.582   5.551   8.606
23027SOL    HW170522   6.544   5.464   8.618
23027SOL    HW270523   6.677   5.535   8.602
23028SOL     OW70524   6.369   6.922   7.768
23028SOL    HW170525   6.339   6.832   7.777
23028SOL    HW270526   6.449   6.926   7.820
23029SOL     OW70527   6.204   7.147   8.734
23029SOL    HW170528   6.202   7.231   8.780
23029SOL    HW270529   6.293   7.140   8.700
23030SOL     OW70530   6.951   5.633   7.625
23030SOL    HW170531   6.988   5.561   7.575
23030SOL    HW270532   6.861   5.606   7.643
23031SOL     OW70533   6.878   6.060   8.120
23031SOL    HW170534   6.826   6.141   8.122
23031SOL    HW270535   6.868   6.024   8.208
23032SOL     OW70536   7.171   5.782   8.332
23032SOL    HW170537   7.117   5.810   8.406
23032SOL    HW270538   7.175   5.859   8.275
23033SOL     OW70539   5.653   6.656   7.809
23033SOL    HW170540   5.734   6.636   7.761
23033SOL    HW270541   5.606   6.572   7.812
23034SOL     OW70542   6.480   7.255   7.776
23034SOL    HW170543   6.402   7.236   7.725
23034SOL    HW270544   6.453   7.322   7.838
23035SOL     OW70545   5.804   6.212   9.437
23035SOL    HW170546   5.717   6.195   9.473
23035SOL    HW270547   5.798   6.186   9.345
23036SOL     OW70548   5.807   5.877  10.303
23036SOL    HW170549   5.835   5.845  10.389
23036SOL    HW270550   5.720   5.838  10.291
23037SOL     OW70551   5.580   5.975   9.950
23037SOL    HW170552   5.498   6.000   9.993
23037SOL    HW270553   5.556   5.898   9.897
23038SOL     OW70554   6.158   6.888  10.506
23038SOL    HW170555   6.075   6.891  10.458
23038SOL    HW270556   6.174   6.979  10.532
23039SOL     OW70557   7.166   7.106  10.018
23039SOL    HW170558   7.120   7.077  10.097
23039SOL    HW270559   7.099   7.109   9.950
23040SOL     OW70560   6.724   6.286  10.002
23040SOL    HW170561   6.770   6.369   9.989
23040SOL    HW270562   6.674   6.298  10.082
23041SOL     OW70563   7.364   6.184   9.538
23041SOL    HW170564   7.337   6.182   9.446
23041SOL    HW270565   7.329   6.103   9.575
23042SOL     OW70566   6.328   6.722  10.365
23042SOL    HW170567   6.265   6.762  10.424
23042SOL    HW270568   6.366   6.796  10.317
23043SOL     OW70569   6.465   6.352  11.138
23043SOL    HW170570   6.452   6.420  11.204
23043SOL    HW270571   6.486   6.400  11.058
23044SOL     OW70572   6.272   6.578   9.952
23044SOL    HW170573   6.338   6.575  10.022
23044SOL    HW270574   6.203   6.634   9.987
23045SOL     OW70575   6.300   6.734  11.134
23045SOL    HW170576   6.349   6.810  11.167
23045SOL    HW270577   6.222   6.771  11.094
23046SOL     OW70578   5.919   6.996  10.376
23046SOL    HW170579   5.844   6.957  10.331
23046SOL    HW270580   5.963   7.048  10.310
23047SOL     OW70581   7.042   7.087  10.678
23047SOL    HW170582   7.096   7.166  10.686
23047SOL    HW270583   6.971   7.099  10.741
23048SOL     OW70584   6.043   5.970  10.785
23048SOL    HW170585   6.112   5.904  10.786
23048SOL    HW270586   5.963   5.923  10.808
23049SOL     OW70587   7.190   6.023  10.054
23049SOL    HW170588   7.122   6.033   9.987
23049SOL    HW270589   7.188   6.105  10.103
23050SOL     OW70590   5.802   7.304   9.776
23050SOL    HW170591   5.825   7.378   9.832
23050SOL    HW270592   5.878   7.292   9.720
23051SOL     OW70593   6.724   6.929  11.008
23051SOL    HW170594   6.764   6.920  11.095
23051SOL    HW270595   6.672   6.850  10.997
23052SOL     OW70596   5.819   7.034   9.843
23052SOL    HW170597   5.799   7.127   9.844
23052SOL    HW270598   5.763   6.997   9.911
23053SOL     OW70599   5.856   6.676  10.204
23053SOL    HW170600   5.855   6.587  10.238
23053SOL    HW270601   5.797   6.725  10.261
23054SOL     OW70602   6.179   7.382  10.738
23054SOL    HW170603   6.099   7.362  10.788
23054SOL    HW270604   6.202   7.471  10.764
23055SOL     OW70605   6.157   6.573   9.456
23055SOL    HW170606   6.207   6.616   9.386
23055SOL    HW270607   6.198   6.603   9.537
23056SOL     OW70608   7.166   5.718  10.766
23056SOL    HW170609   7.206   5.789  10.715
23056SOL    HW270610   7.151   5.757  10.853
23057SOL     OW70611   5.704   6.242   9.871
23057SOL    HW170612   5.674   6.153   9.890
23057SOL    HW270613   5.696   6.288   9.954
23058SOL     OW70614   7.430   7.336   9.639
23058SOL    HW170615   7.502   7.314   9.698
23058SOL    HW270616   7.447   7.427   9.613
23059SOL     OW70617   5.629   7.175   9.427
23059SOL    HW170618   5.615   7.082   9.445
23059SOL    HW270619   5.603   7.219   9.508
23060SOL     OW70620   7.284   6.509   9.954
23060SOL    HW170621   7.350   6.455   9.910
23060SOL    HW270622   7.250   6.565   9.885
23061SOL     OW70623   7.233   6.690   9.742
23061SOL    HW170624   7.319   6.688   9.700
23061SOL    HW270625   7.242   6.755   9.811
23062SOL     OW70626   5.707   6.330  10.891
23062SOL    HW170627   5.794   6.368  10.896
23062SOL    HW270628   5.648   6.405  10.884
23063SOL     OW70629   6.193   6.970  10.062
23063SOL    HW170630   6.149   6.885  10.056
23063SOL    HW270631   6.194   7.002   9.972
23064SOL     OW70632   6.865   6.817  10.732
23064SOL    HW170633   6.893   6.749  10.670
23064SOL    HW270634   6.927   6.811  10.804
23065SOL     OW70635   6.413   5.596   9.840
23065SOL    HW170636   6.453   5.675   9.805
23065SOL    HW270637   6.319   5.613   9.836
23066SOL     OW70638   5.771   6.544  10.595
23066SOL    HW170639   5.858   6.507  10.581
23066SOL    HW270640   5.715   6.497  10.534
23067SOL     OW70641   7.117   6.590   9.510
23067SOL    HW170642   7.048   6.531   9.540
23067SOL    HW270643   7.158   6.622   9.591
23068SOL     OW70644   6.771   7.398  10.942
23068SOL    HW170645   6.771   7.459  10.868
23068SOL    HW270646   6.786   7.312  10.903
23069SOL     OW70647   5.938   5.841  11.168
23069SOL    HW170648   5.971   5.926  11.199
23069SOL    HW270649   5.843   5.848  11.177
23070SOL     OW70650   7.052   7.008  10.248
23070SOL    HW170651   6.987   7.023  10.316
23070SOL    HW270652   7.039   6.916  10.223
23071SOL     OW70653   7.233   7.350   9.883
23071SOL    HW170654   7.214   7.316   9.796
23071SOL    HW270655   7.221   7.276   9.942
23072SOL     OW70656   6.180   6.301   9.586
23072SOL    HW170657   6.179   6.385   9.540
23072SOL    HW270658   6.114   6.310   9.654
23073SOL     OW70659   6.865   5.968  10.248
23073SOL    HW170660   6.777   5.929  10.252
23073SOL    HW270661   6.919   5.910  10.301
23074SOL     OW70662   7.162   7.264   9.623
23074SOL    HW170663   7.256   7.283   9.613
23074SOL    HW270664   7.131   7.248   9.534
23075SOL     OW70665   6.378   6.192  10.764
23075SOL    HW170666   6.358   6.155  10.850
23075SOL    HW270667   6.347   6.126  10.702
23076SOL     OW70668   6.966   6.046  10.992
23076SOL    HW170669   6.975   6.095  11.074
23076SOL    HW270670   7.029   5.974  11.001
23077SOL     OW70671   6.533   6.473  10.898
23077SOL    HW170672   6.587   6.406  10.857
23077SOL    HW270673   6.484   6.512  10.825
23078SOL     OW70674   6.585   5.982  10.534
23078SOL    HW170675   6.493   5.999  10.555
23078SOL    HW270676   6.582   5.947  10.444
23079SOL     OW70677   6.643   6.284   9.732
23079SOL    HW170678   6.661   6.277   9.826
23079SOL    HW270679   6.559   6.241   9.721
23080SOL     OW70680   5.675   6.407  10.090
23080SOL    HW170681   5.756   6.399  10.141
23080SOL    HW270682   5.631   6.483  10.128
23081SOL     OW70683   5.712   7.461  10.894
23081SOL    HW170684   5.713   7.441  10.988
23081SOL    HW270685   5.633   7.419  10.861
23082SOL     OW70686   6.474   5.942   9.512
23082SOL    HW170687   6.524   5.991   9.447
23082SOL    HW270688   6.433   5.871   9.461
23083SOL     OW70689   7.286   6.155  11.142
23083SOL    HW170690   7.254   6.231  11.094
23083SOL    HW270691   7.312   6.093  11.074
23084SOL     OW70692   6.969   6.731   9.850
23084SOL    HW170693   7.045   6.717   9.793
23084SOL    HW270694   6.913   6.791   9.801
23085SOL     OW70695   6.138   5.751  10.208
23085SOL    HW170696   6.138   5.795  10.294
23085SOL    HW270697   6.132   5.823  10.145
23086SOL     OW70698   6.583   7.037   9.778
23086SOL    HW170699   6.557   7.105   9.715
23086SOL    HW270700   6.546   7.066   9.861
23087SOL     OW70701   5.934   7.394  10.186
23087SOL    HW170702   5.980   7.310  10.189
23087SOL    HW270703   6.003   7.459  10.198
23088SOL     OW70704   7.392   6.634  10.183
23088SOL    HW170705   7.343   6.611  10.104
23088SOL    HW270706   7.325   6.640  10.251
23089SOL     OW70707   6.807   7.127  10.825
23089SOL    HW170708   6.797   7.056  10.889
23089SOL    HW270709   6.745   7.105  10.755
23090SOL     OW70710   5.891   6.545   9.566
23090SOL    HW170711   5.974   6.566   9.523
23090SOL    HW270712   5.865   6.461   9.529
23091SOL     OW70713   7.070   6.346  10.030
23091SOL    HW170714   7.068   6.303  10.115
23091SOL    HW270715   7.152   6.397  10.030
23092SOL     OW70716   6.058   6.861  11.053
23092SOL    HW170717   6.031   6.866  10.961
23092SOL    HW270718   5.976   6.851  11.101
23093SOL     OW70719   6.728   7.364   9.535
23093SOL    HW170720   6.645   7.337   9.575
23093SOL    HW270721   6.745   7.298   9.467
23094SOL     OW70722   5.786   5.860  10.821
23094SOL    HW170723   5.701   5.903  10.816
23094SOL    HW270724   5.766   5.771  10.851
23095SOL     OW70725   7.222   6.973   9.413
23095SOL    HW170726   7.182   7.057   9.392
23095SOL    HW270727   7.157   6.908   9.388
23096SOL     OW70728   6.036   7.298   9.616
23096SOL    HW170729   6.072   7.361   9.678
23096SOL    HW270730   6.112   7.271   9.563
23097SOL     OW70731   6.983   5.690   9.754
23097SOL    HW170732   6.972   5.664   9.662
23097SOL    HW270733   7.077   5.684   9.770
23098SOL     OW70734   5.849   7.375  10.530
23098SOL    HW170735   5.893   7.299  10.568
23098SOL    HW270736   5.840   7.353  10.437
23099SOL     OW70737   6.534   7.276  10.198
23099SOL    HW170738   6.619   7.233  10.202
23099SOL    HW270739   6.489   7.234  10.125
23100SOL     OW70740   5.983   6.277   9.785
23100SOL    HW170741   6.000   6.183   9.797
23100SOL    HW270742   5.889   6.286   9.798
23101SOL     OW70743   7.118   5.805  11.036
23101SOL    HW170744   7.121   5.833  11.128
23101SOL    HW270745   7.086   5.715  11.039
23102SOL     OW70746   6.258   5.698   9.427
23102SOL    HW170747   6.310   5.618   9.435
23102SOL    HW270748   6.195   5.679   9.358
23103SOL     OW70749   6.381   5.817  11.063
23103SOL    HW170750   6.339   5.772  11.136
23103SOL    HW270751   6.332   5.900  11.054
23104SOL     OW70752   6.459   7.113  10.509
23104SOL    HW170753   6.444   7.077  10.421
23104SOL    HW270754   6.529   7.058  10.544
23105SOL     OW70755   6.915   6.173  10.746
23105SOL    HW170756   6.948   6.143  10.831
23105SOL    HW270757   6.955   6.259  10.734
23106SOL     OW70758   6.403   6.972  10.260
23106SOL    HW170759   6.488   6.965  10.217
23106SOL    HW270760   6.340   6.983  10.189
23107SOL     OW70761   6.514   6.096  10.204
23107SOL    HW170762   6.490   6.088  10.111
23107SOL    HW270763   6.542   6.008  10.229
23108SOL     OW70764   6.148   5.651   9.804
23108SOL    HW170765   6.065   5.647   9.851
23108SOL    HW270766   6.139   5.725   9.745
23109SOL     OW70767   7.020   6.795   9.349
23109SOL    HW170768   7.046   6.717   9.398
23109SOL    HW270769   6.932   6.815   9.381
23110SOL     OW70770   5.873   5.637   9.498
23110SOL    HW170771   5.924   5.695   9.442
23110SOL    HW270772   5.936   5.573   9.532
23111SOL     OW70773   6.534   5.837   9.764
23111SOL    HW170774   6.507   5.870   9.678
23111SOL    HW270775   6.629   5.853   9.767
23112SOL     OW70776   6.660   6.276  10.761
23112SOL    HW170777   6.594   6.207  10.762
23112SOL    HW270778   6.744   6.230  10.755
23113SOL     OW70779   6.792   7.171  10.114
23113SOL    HW170780   6.807   7.231  10.041
23113SOL    HW270781   6.872   7.176  10.166
23114SOL     OW70782   6.057   6.734  10.030
23114SOL    HW170783   5.991   6.714  10.097
23114SOL    HW270784   6.010   6.725   9.947
23115SOL     OW70785   6.845   7.372   9.921
23115SOL    HW170786   6.895   7.434   9.868
23115SOL    HW270787   6.762   7.416   9.938
23116SOL     OW70788   6.615   6.112   9.338
23116SOL    HW170789   6.571   6.195   9.319
23116SOL    HW270790   6.678   6.133   9.407
23117SOL     OW70791   5.678   6.138  10.699
23117SOL    HW170792   5.770   6.140  10.674
23117SOL    HW270793   5.671   6.207  10.766
23118SOL     OW70794   6.144   5.819  10.482
23118SOL    HW170795   6.174   5.732  10.508
23118SOL    HW270796   6.053   5.823  10.510
23119SOL     OW70797   6.454   6.044   9.943
23119SOL    HW170798   6.413   6.099   9.877
23119SOL    HW270799   6.479   5.964   9.896
23120SOL     OW70800   6.594   5.649  10.062
23120SOL    HW170801   6.537   5.644   9.985
23120SOL    HW270802   6.577   5.567  10.109
23121SOL     OW70803   7.028   6.746  10.162
23121SOL    HW170804   6.952   6.687  10.160
23121SOL    HW270805   7.055   6.754  10.071
23122SOL     OW70806   7.049   6.203  10.270
23122SOL    HW170807   6.991   6.127  10.269
23122SOL    HW270808   7.104   6.190  10.347
23123SOL     OW70809   7.423   6.390   9.709
23123SOL    HW170810   7.484   6.339   9.762
23123SOL    HW270811   7.398   6.332   9.637
23124SOL     OW70812   6.077   7.004   9.450
23124SOL    HW170813   6.002   6.976   9.503
23124SOL    HW270814   6.075   6.948   9.373
23125SOL     OW70815   7.265   6.852   9.953
23125SOL    HW170816   7.360   6.849   9.967
23125SOL    HW270817   7.241   6.943   9.970
23126SOL     OW70818   6.981   6.157   9.381
23126SOL    HW170819   6.917   6.135   9.449
23126SOL    HW270820   7.061   6.113   9.409
23127SOL     OW70821   6.120   5.850   9.621
23127SOL    HW170822   6.171   5.803   9.554
23127SOL    HW270823   6.088   5.928   9.575
23128SOL     OW70824   7.328   6.831  10.861
23128SOL    HW170825   7.415   6.795  10.846
23128SOL    HW270826   7.343   6.919  10.895
23129SOL     OW70827   6.637   6.949  10.652
23129SOL    HW170828   6.560   6.912  10.695
23129SOL    HW270829   6.711   6.899  10.687
23130SOL     OW70830   7.196   7.220  10.976
23130SOL    HW170831   7.185   7.252  10.887
23130SOL    HW270832   7.276   7.167  10.972
23131SOL     OW70833   6.731   6.813  10.413
23131SOL    HW170834   6.659   6.839  10.471
23131SOL    HW270835   6.703   6.842  10.327
23132SOL     OW70836   7.205   6.678  10.382
23132SOL    HW170837   7.194   6.742  10.452
23132SOL    HW270838   7.132   6.696  10.322
23133SOL     OW70839   6.514   5.677  10.697
23133SOL    HW170840   6.522   5.649  10.606
23133SOL    HW270841   6.589   5.734  10.712
23134SOL     OW70842   6.570   6.702  11.034
23134SOL    HW170843   6.479   6.719  11.060
23134SOL    HW270844   6.565   6.624  10.979
23135SOL     OW70845   6.298   6.647   9.682
23135SOL    HW170846   6.283   6.624   9.774
23135SOL    HW270847   6.374   6.596   9.656
23136SOL     OW70848   6.010   6.411  10.566
23136SOL    HW170849   6.079   6.419  10.632
23136SOL    HW270850   5.977   6.321  10.576
23137SOL     OW70851   6.853   5.957  10.588
23137SOL    HW170852   6.883   6.037  10.631
23137SOL    HW270853   6.764   5.977  10.560
23138SOL     OW70854   5.664   7.160  10.672
23138SOL    HW170855   5.634   7.226  10.610
23138SOL    HW270856   5.759   7.157  10.659
23139SOL     OW70857   5.907   6.711   9.798
23139SOL    HW170858   5.914   6.783   9.736
23139SOL    HW270859   5.908   6.632   9.743
23140SOL     OW70860   6.130   6.118  10.177
23140SOL    HW170861   6.141   6.175  10.100
23140SOL    HW270862   6.203   6.141  10.234
23141SOL     OW70863   6.830   6.936   9.708
23141SOL    HW170864   6.886   7.007   9.739
23141SOL    HW270865   6.742   6.960   9.738
23142SOL     OW70866   6.882   7.050  10.455
23142SOL    HW170867   6.932   7.051  10.537
23142SOL    HW270868   6.828   6.971  10.462
23143SOL     OW70869   7.162   6.198   9.802
23143SOL    HW170870   7.108   6.248   9.863
23143SOL    HW270871   7.193   6.263   9.739
23144SOL     OW70872   5.932   7.118  10.615
23144SOL    HW170873   5.921   7.070  10.533
23144SOL    HW270874   6.026   7.130  10.624
23145SOL     OW70875   6.000   6.338  10.914
23145SOL    HW170876   6.069   6.373  10.858
23145SOL    HW270877   6.017   6.244  10.916
23146SOL     OW70878   7.200   6.369  11.001
23146SOL    HW170879   7.114   6.411  10.994
23146SOL    HW270880   7.252   6.409  10.930
23147SOL     OW70881   6.083   5.633  11.063
23147SOL    HW170882   6.031   5.584  10.998
23147SOL    HW270883   6.026   5.706  11.088
23148SOL     OW70884   6.181   6.458  10.349
23148SOL    HW170885   6.209   6.549  10.347
23148SOL    HW270886   6.116   6.454  10.419
23149SOL     OW70887   6.920   6.443  10.329
23149SOL    HW170888   6.836   6.429  10.286
23149SOL    HW270889   6.969   6.363  10.313
23150SOL     OW70890   6.785   6.112   9.570
23150SOL    HW170891   6.792   6.033   9.623
23150SOL    HW270892   6.742   6.176   9.626
23151SOL     OW70893   5.884   5.805  10.561
23151SOL    HW170894   5.845   5.829  10.645
23151SOL    HW270895   5.860   5.713  10.549
23152SOL     OW70896   5.636   6.898  10.578
23152SOL    HW170897   5.665   6.840  10.649
23152SOL    HW270898   5.638   6.986  10.617
23153SOL     OW70899   6.313   6.216  10.366
23153SOL    HW170900   6.383   6.204  10.302
23153SOL    HW270901   6.278   6.303  10.348
23154SOL     OW70902   7.330   6.547  11.174
23154SOL    HW170903   7.288   6.477  11.122
23154SOL    HW270904   7.266   6.566  11.243
23155SOL     OW70905   5.904   5.647   9.931
23155SOL    HW170906   5.873   5.735   9.951
23155SOL    HW270907   5.908   5.603  10.016
23156SOL     OW70908   7.216   5.965   9.666
23156SOL    HW170909   7.248   5.898   9.726
23156SOL    HW270910   7.189   6.038   9.722
23157SOL     OW70911   6.615   6.344  10.262
23157SOL    HW170912   6.603   6.360  10.355
23157SOL    HW270913   6.588   6.253  10.249
23158SOL     OW70914   6.568   7.153  11.037
23158SOL    HW170915   6.548   7.195  10.953
23158SOL    HW270916   6.609   7.070  11.013
23159SOL     OW70917   7.432   7.085  10.916
23159SOL    HW170918   7.455   7.113  10.827
23159SOL    HW270919   7.513   7.097  10.965
23160SOL     OW70920   5.936   6.511  11.118
23160SOL    HW170921   6.015   6.522  11.172
23160SOL    HW270922   5.961   6.447  11.052
23161SOL     OW70923   7.101   5.863   9.434
23161SOL    HW170924   7.044   5.791   9.463
23161SOL    HW270925   7.142   5.894   9.515
23162SOL     OW70926   6.876   6.410   9.339
23162SOL    HW170927   6.915   6.323   9.342
23162SOL    HW270928   6.906   6.447   9.256
23163SOL     OW70929   6.658   6.930  10.173
23163SOL    HW170930   6.662   6.858  10.109
23163SOL    HW270931   6.708   7.001  10.132
23164SOL     OW70932   5.897   6.397  10.255
23164SOL    HW170933   5.990   6.409  10.236
23164SOL    HW270934   5.891   6.307  10.288
23165SOL     OW70935   5.909   6.121  10.327
23165SOL    HW170936   5.871   6.035  10.312
23165SOL    HW270937   5.987   6.123  10.271
23166SOL     OW70938   6.716   5.933  11.035
23166SOL    HW170939   6.669   5.995  11.090
23166SOL    HW270940   6.803   5.971  11.026
23167SOL     OW70941   6.731   5.816  10.787
23167SOL    HW170942   6.742   5.889  10.848
23167SOL    HW270943   6.781   5.843  10.709
23168SOL     OW70944   5.598   6.900   9.503
23168SOL    HW170945   5.509   6.919   9.472
23168SOL    HW270946   5.593   6.811   9.538
23169SOL     OW70947   5.672   7.362  10.254
23169SOL    HW170948   5.640   7.284  10.208
23169SOL    HW270949   5.762   7.374  10.222
23170SOL     OW70950   6.076   7.161  10.218
23170SOL    HW170951   6.148   7.216  10.247
23170SOL    HW270952   6.116   7.097  10.160
23171SOL     OW70953   6.551   6.372  10.525
23171SOL    HW170954   6.606   6.356  10.602
23171SOL    HW270955   6.469   6.328  10.545
23172SOL     OW70956   5.620   6.148  10.427
23172SOL    HW170957   5.698   6.134  10.373
23172SOL    HW270958   5.651   6.141  10.517
23173SOL     OW70959   5.772   6.108  11.045
23173SOL    HW170960   5.804   6.048  10.978
23173SOL    HW270961   5.740   6.184  10.995
23174SOL     OW70962   6.970   6.513  10.964
23174SOL    HW170963   6.990   6.607  10.959
23174SOL    HW270964   6.964   6.486  10.873
23175SOL     OW70965   6.405   6.159   9.682
23175SOL    HW170966   6.413   6.084   9.623
23175SOL    HW270967   6.329   6.207   9.649
23176SOL     OW70968   7.221   6.186  10.486
23176SOL    HW170969   7.213   6.123  10.558
23176SOL    HW270970   7.309   6.172  10.452
23177SOL     OW70971   5.820   7.129  11.035
23177SOL    HW170972   5.797   7.185  11.109
23177SOL    HW270973   5.829   7.041  11.072
23178SOL     OW70974   6.311   6.025  10.559
23178SOL    HW170975   6.250   5.956  10.536
23178SOL    HW270976   6.301   6.091  10.491
23179SOL     OW70977   6.492   7.263  10.791
23179SOL    HW170978   6.478   7.216  10.709
23179SOL    HW270979   6.488   7.356  10.766
23180SOL     OW70980   6.040   6.078   9.490
23180SOL    HW170981   6.102   6.147   9.514
23180SOL    HW270982   5.956   6.124   9.481
23181SOL     OW70983   5.724   6.732  10.785
23181SOL    HW170984   5.727   6.689  10.871
23181SOL    HW270985   5.741   6.662  10.722
23182SOL     OW70986   6.900   6.628  10.527
23182SOL    HW170987   6.916   6.563  10.458
23182SOL    HW270988   6.840   6.691  10.487
23183SOL     OW70989   6.905   6.440   9.613
23183SOL    HW170990   6.830   6.407   9.662
23183SOL    HW270991   6.882   6.427   9.521
23184SOL     OW70992   7.378   7.316  10.478
23184SOL    HW170993   7.437   7.341  10.407
23184SOL    HW270994   7.342   7.232  10.451
23185SOL     OW70995   6.830   7.322  10.426
23185SOL    HW170996   6.911   7.348  10.383
23185SOL    HW270997   6.838   7.228  10.439
23186SOL     OW70998   5.668   6.863  10.310
23186SOL    HW170999   5.650   6.872  10.404
23186SOL    HW271000   5.605   6.796  10.281
23187SOL     OW71001   6.271   7.262  11.051
23187SOL    HW171002   6.209   7.333  11.034
23187SOL    HW271003   6.341   7.275  10.987
23188SOL     OW71004   7.326   5.754   9.816
23188SOL    HW171005   7.389   5.735   9.746
23188SOL    HW271006   7.302   5.668   9.850
23189SOL     OW71007   6.985   7.152   9.809
23189SOL    HW171008   7.036   7.186   9.736
23189SOL    HW271009   6.928   7.225   9.834
23190SOL     OW71010   5.722   7.388  11.152
23190SOL    HW171011   5.675   7.316  11.195
23190SOL    HW271012   5.769   7.431  11.224
23191SOL     OW71013   6.865   6.520   9.984
23191SOL    HW171014   6.939   6.460   9.993
23191SOL    HW271015   6.898   6.589   9.927
23192SOL     OW71016   6.381   6.864  10.727
23192SOL    HW171017   6.354   6.908  10.807
23192SOL    HW271018   6.310   6.880  10.665
23193SOL     OW71019   6.252   7.210   9.457
23193SOL    HW171020   6.266   7.226   9.364
23193SOL    HW271021   6.197   7.132   9.460
23194SOL     OW71022   7.201   7.313  10.706
23194SOL    HW171023   7.259   7.315  10.630
23194SOL    HW271024   7.185   7.405  10.726
23195SOL     OW71025   7.431   5.751  10.277
23195SOL    HW171026   7.460   5.663  10.253
23195SOL    HW271027   7.345   5.760  10.236
23196SOL     OW71028   5.837   5.896  10.022
23196SOL    HW171029   5.750   5.929   9.996
23196SOL    HW271030   5.835   5.895  10.117
23197SOL     OW71031   6.797   7.179   9.343
23197SOL    HW171032   6.784   7.089   9.371
23197SOL    HW271033   6.730   7.195   9.277
23198SOL     OW71034   6.408   6.593  10.687
23198SOL    HW171035   6.443   6.586  10.599
23198SOL    HW271036   6.400   6.688  10.702
23199SOL     OW71037   6.510   6.502   9.606
23199SOL    HW171038   6.568   6.534   9.537
23199SOL    HW271039   6.558   6.431   9.647
23200SOL     OW71040   7.073   7.227   9.359
23200SOL    HW171041   6.980   7.208   9.343
23200SOL    HW271042   7.112   7.229   9.272
23201SOL     OW71043   5.951   6.896  10.807
23201SOL    HW171044   5.942   6.968  10.746
23201SOL    HW271045   5.875   6.840  10.790
23202SOL     OW71046   7.188   6.871  10.586
23202SOL    HW171047   7.248   6.852  10.658
23202SOL    HW271048   7.127   6.936  10.621
23203SOL     OW71049   6.654   6.701  10.031
23203SOL    HW171050   6.578   6.651  10.062
23203SOL    HW271051   6.716   6.634  10.002
23204SOL     OW71052   6.613   5.830  10.279
23204SOL    HW171053   6.607   5.787  10.193
23204SOL    HW271054   6.606   5.758  10.342
23205SOL     OW71055   6.207   7.073   9.807
23205SOL    HW171056   6.252   7.021   9.740
23205SOL    HW271057   6.136   7.116   9.759
23206SOL     OW71058   7.320   5.973  10.687
23206SOL    HW171059   7.393   6.036  10.683
23206SOL    HW271060   7.348   5.902  10.630
23207SOL     OW71061   5.856   6.923   9.603
23207SOL    HW171062   5.764   6.921   9.575
23207SOL    HW271063   5.853   6.969   9.687
23208SOL     OW71064   5.703   6.638  11.046
23208SOL    HW171065   5.626   6.606  11.092
23208SOL    HW271066   5.776   6.586  11.081
23209SOL     OW71067   6.264   5.765  10.800
23209SOL    HW171068   6.347   5.753  10.754
23209SOL    HW271069   6.289   5.774  10.892
23210SOL     OW71070   5.653   5.915   9.351
23210SOL    HW171071   5.585   5.870   9.301
23210SOL    HW271072   5.678   5.990   9.297
23211SOL     OW71073   7.005   6.439  10.703
23211SOL    HW171074   6.953   6.499  10.650
23211SOL    HW271075   7.092   6.442  10.665
23212SOL     OW71076   5.645   5.745   9.600
23212SOL    HW171077   5.631   5.814   9.536
23212SOL    HW271078   5.731   5.709   9.578
23213SOL     OW71079   6.765   6.913   9.431
23213SOL    HW171080   6.674   6.884   9.429
23213SOL    HW271081   6.788   6.915   9.524
23214SOL     OW71082   6.212   6.410  10.750
23214SOL    HW171083   6.268   6.486  10.734
23214SOL    HW271084   6.272   6.336  10.754
23215SOL     OW71085   7.069   7.388  10.305
23215SOL    HW171086   7.090   7.445  10.231
23215SOL    HW271087   7.150   7.339  10.321
23216SOL     OW71088   6.347   6.117  11.032
23216SOL    HW171089   6.339   6.208  11.059
23216SOL    HW271090   6.418   6.082  11.086
23217SOL     OW71091   7.059   6.774  10.936
23217SOL    HW171092   7.050   6.793  11.029
23217SOL    HW271093   7.150   6.797  10.916
23218SOL     OW71094   5.954   7.328  10.887
23218SOL    HW171095   5.872   7.374  10.868
23218SOL    HW271096   5.927   7.244  10.924
23219SOL     OW71097   7.244   6.462  10.565
23219SOL    HW171098   7.241   6.377  10.521
23219SOL    HW271099   7.234   6.526  10.494
23220SOL     OW71100   6.805   5.907   9.767
23220SOL    HW171101   6.865   5.832   9.760
23220SOL    HW271102   6.838   5.957   9.842
23221SOL     OW71103   6.163   6.321   9.992
23221SOL    HW171104   6.208   6.404   9.972
23221SOL    HW271105   6.104   6.308   9.919
23222SOL     OW71106   7.337   5.955  10.960
23222SOL    HW171107   7.323   5.969  10.866
23222SOL    HW271108   7.267   5.894  10.985
23223SOL     OW71109   7.342   6.514  10.817
23223SOL    HW171110   7.325   6.607  10.831
23223SOL    HW271111   7.318   6.499  10.726
23224SOL     OW71112   6.452   6.952   9.362
23224SOL    HW171113   6.414   6.980   9.444
23224SOL    HW271114   6.468   7.033   9.313
23225SOL     OW71115   6.266   7.351  10.269
23225SOL    HW171116   6.241   7.435  10.231
23225SOL    HW271117   6.356   7.337  10.242
23226SOL     OW71118   6.455   6.561  10.164
23226SOL    HW171119   6.504   6.486  10.198
23226SOL    HW271120   6.415   6.601  10.241
23227SOL     OW71121   6.667   6.578   9.401
23227SOL    HW171122   6.643   6.626   9.322
23227SOL    HW271123   6.739   6.520   9.373
23228SOL     OW71124   7.431   7.143  10.150
23228SOL    HW171125   7.352   7.133  10.096
23228SOL    HW271126   7.425   7.074  10.215
23229SOL     OW71127   5.801   6.876  11.153
23229SOL    HW171128   5.764   6.798  11.110
23229SOL    HW271129   5.746   6.888  11.231
23230SOL     OW71130   5.682   6.814   9.974
23230SOL    HW171131   5.700   6.767  10.056
23230SOL    HW271132   5.746   6.779   9.912
23231SOL     OW71133   6.274   6.996  10.942
23231SOL    HW171134   6.196   6.954  10.978
23231SOL    HW271135   6.274   7.085  10.980
23232SOL     OW71136   7.394   5.756  10.547
23232SOL    HW171137   7.397   5.660  10.557
23232SOL    HW271138   7.407   5.771  10.454
23233SOL     OW71139   6.017   6.016   9.837
23233SOL    HW171140   6.048   5.949   9.776
23233SOL    HW271141   5.962   5.968   9.899
23234SOL     OW71142   7.274   7.075  10.403
23234SOL    HW171143   7.199   7.056  10.346
23234SOL    HW271144   7.273   7.005  10.468
23235SOL     OW71145   5.933   6.150  10.605
23235SOL    HW171146   5.983   6.085  10.655
23235SOL    HW271147   5.940   6.121  10.514
23236SOL     OW71148   6.417   7.182   9.968
23236SOL    HW171149   6.426   7.268   9.927
23236SOL    HW271150   6.340   7.143   9.927
23237SOL     OW71151   7.014   5.814  10.417
23237SOL    HW171152   7.021   5.723  10.445
23237SOL    HW271153   6.967   5.857  10.489
23238SOL     OW71154   6.590   5.592  10.439
23238SOL    HW171155   6.544   5.533  10.380
23238SOL    HW271156   6.678   5.555  10.446
23239SOL     OW71157   6.360   6.918   9.639
23239SOL    HW171158   6.335   6.825   9.645
23239SOL    HW271159   6.443   6.923   9.685
23240SOL     OW71160   6.204   7.147  10.600
23240SOL    HW171161   6.204   7.229  10.648
23240SOL    HW271162   6.292   7.141  10.562
23241SOL     OW71163   6.950   5.631   9.487
23241SOL    HW171164   6.988   5.560   9.434
23241SOL    HW271165   6.860   5.603   9.503
23242SOL     OW71166   6.888   6.054   9.986
23242SOL    HW171167   6.834   6.134   9.985
23242SOL    HW271168   6.880   6.021  10.076
23243SOL     OW71169   7.174   5.779  10.193
23243SOL    HW171170   7.118   5.806  10.266
23243SOL    HW271171   7.175   5.855  10.134
23244SOL     OW71172   5.624   6.644   9.617
23244SOL    HW171173   5.717   6.636   9.597
23244SOL    HW271174   5.597   6.555   9.640
23245SOL     OW71175   6.484   7.239   9.619
23245SOL    HW171176   6.404   7.230   9.569
23245SOL    HW271177   6.465   7.309   9.682
23246SOL     OW71178   5.803   6.210  11.305
23246SOL    HW171179   5.715   6.201  11.343
23246SOL    HW271180   5.791   6.187  11.213
23247SOL     OW71181   5.809   5.877  12.167
23247SOL    HW171182   5.839   5.839  12.250
23247SOL    HW271183   5.723   5.837  12.153
23248SOL     OW71184   5.581   5.974  11.811
23248SOL    HW171185   5.501   6.000  11.856
23248SOL    HW271186   5.556   5.898  11.759
23249SOL     OW71187   6.132   6.835  12.325
23249SOL    HW171188   6.050   6.872  12.291
23249SOL    HW271189   6.157   6.893  12.397
23250SOL     OW71190   7.166   7.102  11.888
23250SOL    HW171191   7.122   7.074  11.968
23250SOL    HW271192   7.096   7.105  11.822
23251SOL     OW71193   6.707   6.255  11.859
23251SOL    HW171194   6.724   6.341  11.897
23251SOL    HW271195   6.650   6.211  11.922
23252SOL     OW71196   7.380   6.180  11.394
23252SOL    HW171197   7.346   6.176  11.305
23252SOL    HW271198   7.338   6.107  11.440
23253SOL     OW71199   6.356   6.721  12.216
23253SOL    HW171200   6.282   6.738  12.274
23253SOL    HW271201   6.374   6.806  12.176
23254SOL     OW71202   6.269   6.584  11.811
23254SOL    HW171203   6.336   6.573  11.879
23254SOL    HW271204   6.202   6.637  11.852
23255SOL     OW71205   5.916   6.994  12.230
23255SOL    HW171206   5.837   6.961  12.187
23255SOL    HW271207   5.960   7.045  12.162
23256SOL     OW71208   7.183   6.025  11.919
23256SOL    HW171209   7.107   6.031  11.861
23256SOL    HW271210   7.166   6.089  11.988
23257SOL     OW71211   5.802   7.310  11.636
23257SOL    HW171212   5.828   7.382  11.693
23257SOL    HW271213   5.876   7.298  11.577
23258SOL     OW71214   5.823   7.037  11.711
23258SOL    HW171215   5.796   7.128  11.718
23258SOL    HW271216   5.769   6.991  11.775
23259SOL     OW71217   5.854   6.673  12.066
23259SOL    HW171218   5.866   6.579  12.082
23259SOL    HW271219   5.811   6.705  12.146
23260SOL     OW71220   6.157   6.572  11.316
23260SOL    HW171221   6.208   6.615  11.248
23260SOL    HW271222   6.196   6.603  11.398
23261SOL     OW71223   5.704   6.246  11.734
23261SOL    HW171224   5.677   6.157  11.755
23261SOL    HW271225   5.697   6.294  11.816
23262SOL     OW71226   7.427   7.335  11.496
23262SOL    HW171227   7.499   7.310  11.555
23262SOL    HW271228   7.444   7.427  11.476
23263SOL     OW71229   5.633   7.173  11.287
23263SOL    HW171230   5.614   7.081  11.306
23263SOL    HW271231   5.603   7.220  11.365
23264SOL     OW71232   7.285   6.515  11.826
23264SOL    HW171233   7.356   6.460  11.793
23264SOL    HW271234   7.253   6.563  11.750
23265SOL     OW71235   7.235   6.687  11.601
23265SOL    HW171236   7.321   6.684  11.559
23265SOL    HW271237   7.242   6.755  11.668
23266SOL     OW71238   5.754   6.333   0.230
23266SOL    HW171239   5.726   6.287   0.309
23266SOL    HW271240   5.675   6.376   0.197
23267SOL     OW71241   6.203   6.981  11.897
23267SOL    HW171242   6.158   6.898  11.906
23267SOL    HW271243   6.186   7.008  11.806
23268SOL     OW71244   6.403   5.589  11.678
23268SOL    HW171245   6.445   5.673  11.660
23268SOL    HW271246   6.309   5.611  11.683
23269SOL     OW71247   5.776   6.590  12.403
23269SOL    HW171248   5.857   6.538  12.404
23269SOL    HW271249   5.713   6.536  12.450
23270SOL     OW71250   7.117   6.588  11.371
23270SOL    HW171251   7.047   6.531  11.402
23270SOL    HW271252   7.159   6.621  11.451
23271SOL     OW71253   7.052   6.992  12.119
23271SOL    HW171254   6.989   7.002  12.190
23271SOL    HW271255   7.038   6.903  12.086
23272SOL     OW71256   7.235   7.348  11.748
23272SOL    HW171257   7.213   7.312  11.662
23272SOL    HW271258   7.223   7.275  11.809
23273SOL     OW71259   6.174   6.299  11.441
23273SOL    HW171260   6.174   6.386  11.400
23273SOL    HW271261   6.109   6.305  11.511
23274SOL     OW71262   6.896   5.959  12.104
23274SOL    HW171263   6.805   5.929  12.104
23274SOL    HW271264   6.940   5.902  12.166
23275SOL     OW71265   7.160   7.263  11.487
23275SOL    HW171266   7.253   7.283  11.477
23275SOL    HW271267   7.130   7.247  11.397
23276SOL     OW71268   6.574   5.993  12.396
23276SOL    HW171269   6.481   5.985  12.416
23276SOL    HW271270   6.578   6.029  12.308
23277SOL     OW71271   6.645   6.289  11.589
23277SOL    HW171272   6.665   6.279  11.682
23277SOL    HW271273   6.559   6.247  11.579
23278SOL     OW71274   5.672   6.417  11.949
23278SOL    HW171275   5.755   6.404  11.996
23278SOL    HW271276   5.632   6.492  11.992
23279SOL     OW71277   6.477   5.940  11.374
23279SOL    HW171278   6.523   5.998  11.314
23279SOL    HW271279   6.486   5.853  11.335
23280SOL     OW71280   6.972   6.730  11.716
23280SOL    HW171281   7.048   6.715  11.659
23280SOL    HW271282   6.916   6.788  11.665
23281SOL     OW71283   6.144   5.772  12.065
23281SOL    HW171284   6.145   5.826  12.144
23281SOL    HW271285   6.145   5.835  11.993
23282SOL     OW71286   6.585   7.037  11.641
23282SOL    HW171287   6.556   7.112  11.589
23282SOL    HW271288   6.552   7.055  11.729
23283SOL     OW71289   5.941   7.399  12.039
23283SOL    HW171290   5.985   7.315  12.049
23283SOL    HW271291   6.009   7.464  12.058
23284SOL     OW71292   7.385   6.654  12.050
23284SOL    HW171293   7.340   6.621  11.972
23284SOL    HW271294   7.319   6.653  12.119
23285SOL     OW71295   5.891   6.546  11.430
23285SOL    HW171296   5.973   6.565  11.385
23285SOL    HW271297   5.866   6.459  11.399
23286SOL     OW71298   7.067   6.342  11.885
23286SOL    HW171299   7.062   6.294  11.967
23286SOL    HW271300   7.146   6.395  11.893
23287SOL     OW71301   6.716   7.365  11.397
23287SOL    HW171302   6.637   7.331  11.440
23287SOL    HW271303   6.738   7.299  11.331
23288SOL     OW71304   7.220   6.974  11.270
23288SOL    HW171305   7.178   7.058  11.252
23288SOL    HW271306   7.154   6.908  11.247
23289SOL     OW71307   6.044   7.330  11.483
23289SOL    HW171308   6.092   7.374  11.553
23289SOL    HW271309   6.110   7.285  11.431
23290SOL     OW71310   6.989   5.699  11.612
23290SOL    HW171311   6.986   5.666  11.522
23290SOL    HW271312   7.081   5.695  11.637
23291SOL     OW71313   5.812   7.369  12.396
23291SOL    HW171314   5.839   7.291  12.444
23291SOL    HW271315   5.785   7.337  12.310
23292SOL     OW71316   6.540   7.278  12.067
23292SOL    HW171317   6.622   7.229  12.070
23292SOL    HW271318   6.486   7.230  12.004
23293SOL     OW71319   5.979   6.279  11.638
23293SOL    HW171320   5.994   6.186  11.652
23293SOL    HW271321   5.886   6.292  11.658
23294SOL     OW71322   6.251   5.680  11.270
23294SOL    HW171323   6.266   5.596  11.313
23294SOL    HW271324   6.186   5.660  11.202
23295SOL     OW71325   6.394   6.965  12.105
23295SOL    HW171326   6.481   6.963  12.067
23295SOL    HW271327   6.334   6.970  12.030
23296SOL     OW71328   6.139   5.651  11.663
23296SOL    HW171329   6.059   5.651  11.716
23296SOL    HW271330   6.129   5.727  11.605
23297SOL     OW71331   7.019   6.793  11.211
23297SOL    HW171332   7.047   6.716  11.261
23297SOL    HW271333   6.932   6.814  11.244
23298SOL     OW71334   5.868   5.635  11.360
23298SOL    HW171335   5.925   5.698  11.316
23298SOL    HW271336   5.928   5.572  11.400
23299SOL     OW71337   6.530   5.830  11.623
23299SOL    HW171338   6.509   5.877  11.543
23299SOL    HW271339   6.624   5.845  11.636
23300SOL     OW71340   6.802   7.170  11.974
23300SOL    HW171341   6.813   7.232  11.902
23300SOL    HW271342   6.885   7.172  12.021
23301SOL     OW71343   6.057   6.747  11.893
23301SOL    HW171344   5.994   6.723  11.962
23301SOL    HW271345   6.009   6.734  11.812
23302SOL     OW71346   6.843   7.377  11.787
23302SOL    HW171347   6.890   7.438  11.731
23302SOL    HW271348   6.770   7.428  11.823
23303SOL     OW71349   6.600   6.118  11.202
23303SOL    HW171350   6.564   6.204  11.184
23303SOL    HW271351   6.666   6.133  11.270
23304SOL     OW71352   6.149   5.786  12.360
23304SOL    HW171353   6.161   5.702  12.316
23304SOL    HW271354   6.054   5.792  12.376
23305SOL     OW71355   6.402   6.034  11.777
23305SOL    HW171356   6.398   6.092  11.702
23305SOL    HW271357   6.452   5.958  11.746
23306SOL     OW71358   6.625   5.587  11.859
23306SOL    HW171359   6.542   5.590  11.810
23306SOL    HW271360   6.598   5.581  11.951
23307SOL     OW71361   7.016   6.736  12.018
23307SOL    HW171362   6.950   6.667  12.024
23307SOL    HW271363   7.031   6.747  11.925
23308SOL     OW71364   7.053   6.194  12.123
23308SOL    HW171365   6.992   6.120  12.127
23308SOL    HW271366   7.108   6.184  12.200
23309SOL     OW71367   7.425   6.390  11.565
23309SOL    HW171368   7.485   6.341  11.622
23309SOL    HW271369   7.403   6.329  11.495
23310SOL     OW71370   6.077   7.011  11.322
23310SOL    HW171371   6.002   6.980  11.373
23310SOL    HW271372   6.076   6.958  11.243
23311SOL     OW71373   7.270   6.860  11.799
23311SOL    HW171374   7.363   6.856  11.822
23311SOL    HW271375   7.241   6.946  11.829
23312SOL     OW71376   6.976   6.157  11.242
23312SOL    HW171377   6.914   6.136  11.311
23312SOL    HW271378   7.061   6.128  11.275
23313SOL     OW71379   6.118   5.847  11.474
23313SOL    HW171380   6.173   5.807  11.407
23313SOL    HW271381   6.086   5.928  11.433
23314SOL     OW71382   6.691   6.824  12.275
23314SOL    HW171383   6.607   6.811  12.318
23314SOL    HW271384   6.668   6.848  12.185
23315SOL     OW71385   7.188   6.682  12.242
23315SOL    HW171386   7.143   6.702  12.324
23315SOL    HW271387   7.122   6.694  12.174
23316SOL     OW71388   6.298   6.652  11.542
23316SOL    HW171389   6.282   6.629  11.634
23316SOL    HW271390   6.372   6.597  11.516
23317SOL     OW71391   6.010   6.422  12.441
23317SOL    HW171392   6.063   6.445  12.518
23317SOL    HW271393   5.976   6.335  12.461
23318SOL     OW71394   6.837   5.937  12.433
23318SOL    HW171395   6.872   6.022  12.459
23318SOL    HW271396   6.746   5.956  12.407
23319SOL     OW71397   5.909   6.713  11.661
23319SOL    HW171398   5.910   6.783  11.596
23319SOL    HW271399   5.909   6.632  11.610
23320SOL     OW71400   6.153   6.125  12.041
23320SOL    HW171401   6.143   6.193  11.974
23320SOL    HW271402   6.245   6.100  12.037
23321SOL     OW71403   6.832   6.938  11.566
23321SOL    HW171404   6.889   7.007  11.601
23321SOL    HW271405   6.745   6.959  11.598
23322SOL     OW71406   6.874   7.018  12.333
23322SOL    HW171407   6.890   6.993  12.423
23322SOL    HW271408   6.806   6.958  12.302
23323SOL     OW71409   7.158   6.209  11.651
23323SOL    HW171410   7.108   6.241  11.726
23323SOL    HW271411   7.188   6.288  11.606
23324SOL     OW71412   5.960   7.133  12.458
23324SOL    HW171413   5.929   7.074  12.389
23324SOL    HW271414   6.032   7.181  12.419
23325SOL     OW71415   6.149   6.466  12.207
23325SOL    HW171416   6.188   6.553  12.211
23325SOL    HW271417   6.102   6.456  12.290
23326SOL     OW71418   6.919   6.441  12.190
23326SOL    HW171419   6.828   6.428  12.166
23326SOL    HW271420   6.963   6.359  12.168
23327SOL     OW71421   6.776   6.109  11.426
23327SOL    HW171422   6.789   6.034  11.484
23327SOL    HW271423   6.738   6.176  11.483
23328SOL     OW71424   5.881   5.769  12.412
23328SOL    HW171425   5.863   5.786  12.505
23328SOL    HW271426   5.867   5.675  12.402
23329SOL     OW71427   5.633   6.914  12.427
23329SOL    HW171428   5.675   6.837  12.465
23329SOL    HW271429   5.643   6.982  12.493
23330SOL     OW71430   6.336   6.257  12.285
23330SOL    HW171431   6.393   6.214  12.222
23330SOL    HW271432   6.272   6.304  12.232
23331SOL     OW71433   5.900   5.649  11.795
23331SOL    HW171434   5.871   5.738  11.818
23331SOL    HW271435   5.908   5.605  11.880
23332SOL     OW71436   7.219   5.974  11.524
23332SOL    HW171437   7.244   5.906  11.587
23332SOL    HW271438   7.189   6.047  11.578
23333SOL     OW71439   6.648   6.404  12.157
23333SOL    HW171440   6.616   6.418  12.246
23333SOL    HW271441   6.627   6.313  12.139
23334SOL     OW71442   7.107   5.862  11.297
23334SOL    HW171443   7.052   5.791  11.328
23334SOL    HW271444   7.146   5.899  11.376
23335SOL     OW71445   6.869   6.408  11.196
23335SOL    HW171446   6.911   6.323  11.203
23335SOL    HW271447   6.903   6.445  11.115
23336SOL     OW71448   6.651   6.934  12.023
23336SOL    HW171449   6.659   6.859  11.963
23336SOL    HW271450   6.710   7.000  11.985
23337SOL     OW71451   5.899   6.401  12.104
23337SOL    HW171452   5.992   6.419  12.117
23337SOL    HW271453   5.888   6.310  12.131
23338SOL     OW71454   5.900   6.131  12.160
23338SOL    HW171455   5.874   6.039  12.160
23338SOL    HW271456   5.989   6.131  12.124
23339SOL     OW71457   6.744   5.804   0.154
23339SOL    HW171458   6.728   5.881   0.209
23339SOL    HW271459   6.779   5.840   0.072
23340SOL     OW71460   5.604   6.896  11.357
23340SOL    HW171461   5.515   6.915  11.328
23340SOL    HW271462   5.599   6.809  11.397
23341SOL     OW71463   5.679   7.364  12.114
23341SOL    HW171464   5.650   7.284  12.069
23341SOL    HW271465   5.768   7.379  12.081
23342SOL     OW71466   6.078   7.159  12.073
23342SOL    HW171467   6.148   7.221  12.092
23342SOL    HW271468   6.118   7.094  12.015
23343SOL     OW71469   6.530   6.410  12.412
23343SOL    HW171470   6.572   6.344  12.467
23343SOL    HW271471   6.455   6.365  12.374
23344SOL     OW71472   5.664   6.154  12.316
23344SOL    HW171473   5.736   6.154  12.253
23344SOL    HW271474   5.650   6.061  12.336
23345SOL     OW71475   6.406   6.167  11.528
23345SOL    HW171476   6.406   6.089  11.473
23345SOL    HW271477   6.327   6.214  11.502
23346SOL     OW71478   7.236   6.185  12.333
23346SOL    HW171479   7.230   6.132  12.412
23346SOL    HW271480   7.326   6.175  12.304
23347SOL     OW71481   6.312   6.014  12.446
23347SOL    HW171482   6.243   5.956  12.415
23347SOL    HW271483   6.296   6.097  12.400
23348SOL     OW71484   6.478   7.235   0.025
23348SOL    HW171485   6.486   7.281  -0.058
23348SOL    HW271486   6.488   7.304   0.091
23349SOL     OW71487   6.041   6.075  11.337
23349SOL    HW171488   6.101   6.143  11.367
23349SOL    HW271489   5.955   6.117  11.336
23350SOL     OW71490   6.910   6.660  12.354
23350SOL    HW171491   6.914   6.585  12.295
23350SOL    HW271492   6.829   6.705  12.331
23351SOL     OW71493   6.905   6.443  11.472
23351SOL    HW171494   6.835   6.410  11.529
23351SOL    HW271495   6.873   6.429  11.383
23352SOL     OW71496   7.323   7.332  12.287
23352SOL    HW171497   7.403   7.340  12.236
23352SOL    HW271498   7.305   7.238  12.291
23353SOL     OW71499   6.836   7.297  12.286
23353SOL    HW171500   6.913   7.332  12.241
23353SOL    HW271501   6.850   7.202  12.288
23354SOL     OW71502   5.655   6.889  12.156
23354SOL    HW171503   5.646   6.892  12.252
23354SOL    HW271504   5.612   6.807  12.131
23355SOL     OW71505   7.315   5.752  11.673
23355SOL    HW171506   7.383   5.732  11.608
23355SOL    HW271507   7.295   5.668  11.714
23356SOL     OW71508   6.983   7.153  11.674
23356SOL    HW171509   7.037   7.187  11.602
23356SOL    HW271510   6.928   7.228  11.699
23357SOL     OW71511   6.861   6.524  11.857
23357SOL    HW171512   6.924   6.452  11.860
23357SOL    HW271513   6.898   6.587  11.796
23358SOL     OW71514   6.253   7.219  11.327
23358SOL    HW171515   6.268   7.232  11.233
23358SOL    HW271516   6.199   7.140  11.332
23359SOL     OW71517   7.314   7.409   0.047
23359SOL    HW171518   7.321   7.373  -0.042
23359SOL    HW271519   7.226   7.382   0.076
23360SOL     OW71520   7.434   5.756  12.152
23360SOL    HW171521   7.464   5.669  12.128
23360SOL    HW271522   7.348   5.764  12.109
23361SOL     OW71523   5.839   5.899  11.885
23361SOL    HW171524   5.753   5.933  11.862
23361SOL    HW271525   5.839   5.898  11.981
23362SOL     OW71526   6.794   7.181  11.208
23362SOL    HW171527   6.783   7.090  11.235
23362SOL    HW271528   6.728   7.194  11.141
23363SOL     OW71529   6.369   6.634  12.509
23363SOL    HW171530   6.418   6.571  12.456
23363SOL    HW271531   6.432   6.702  12.530
23364SOL     OW71532   6.503   6.499  11.458
23364SOL    HW171533   6.566   6.534  11.394
23364SOL    HW271534   6.552   6.433  11.506
23365SOL     OW71535   7.070   7.228  11.222
23365SOL    HW171536   6.978   7.209  11.205
23365SOL    HW271537   7.111   7.230  11.135
23366SOL     OW71538   6.653   6.703  11.885
23366SOL    HW171539   6.577   6.655  11.918
23366SOL    HW271540   6.719   6.636  11.870
23367SOL     OW71541   6.655   5.811  12.136
23367SOL    HW171542   6.604   5.890  12.118
23367SOL    HW271543   6.612   5.772  12.213
23368SOL     OW71544   6.191   7.076  11.641
23368SOL    HW171545   6.246   7.026  11.581
23368SOL    HW271546   6.106   7.082  11.597
23369SOL     OW71547   7.358   6.019   0.042
23369SOL    HW171548   7.452   6.015   0.020
23369SOL    HW271549   7.323   5.935   0.012
23370SOL     OW71550   5.860   6.926  11.472
23370SOL    HW171551   5.771   6.920  11.438
23370SOL    HW271552   5.850   6.970  11.557
23371SOL     OW71553   5.667   5.908  11.206
23371SOL    HW171554   5.588   5.878  11.162
23371SOL    HW271555   5.691   5.989  11.161
23372SOL     OW71556   5.639   5.740  11.465
23372SOL    HW171557   5.627   5.814  11.406
23372SOL    HW271558   5.725   5.703  11.441
23373SOL     OW71559   6.765   6.914  11.292
23373SOL    HW171560   6.676   6.879  11.292
23373SOL    HW271561   6.790   6.916  11.385
23374SOL     OW71562   7.073   7.373  12.163
23374SOL    HW171563   7.088   7.440  12.096
23374SOL    HW271564   7.158   7.361  12.204
23375SOL     OW71565   7.290   6.452  12.402
23375SOL    HW171566   7.261   6.365  12.374
23375SOL    HW271567   7.251   6.511  12.337
23376SOL     OW71568   6.805   5.910  11.623
23376SOL    HW171569   6.863   5.834  11.619
23376SOL    HW271570   6.833   5.958  11.700
23377SOL     OW71571   6.150   6.327  11.853
23377SOL    HW171572   6.200   6.406  11.834
23377SOL    HW271573   6.094   6.315  11.777
23378SOL     OW71574   7.389   6.497   0.149
23378SOL    HW171575   7.320   6.555   0.181
23378SOL    HW271576   7.360   6.472   0.061
23379SOL     OW71577   6.451   6.948  11.222
23379SOL    HW171578   6.415   6.971  11.308
23379SOL    HW271579   6.465   7.032  11.178
23380SOL     OW71580   6.254   7.364  12.098
23380SOL    HW171581   6.232   7.456  12.082
23380SOL    HW271582   6.349   7.362  12.100
23381SOL     OW71583   6.457   6.563  12.017
23381SOL    HW171584   6.514   6.497  12.057
23381SOL    HW271585   6.418   6.609  12.091
23382SOL     OW71586   6.669   6.582  11.262
23382SOL    HW171587   6.644   6.630  11.183
23382SOL    HW271588   6.739   6.523  11.233
23383SOL     OW71589   7.441   7.133  12.026
23383SOL    HW171590   7.359   7.121  11.979
23383SOL    HW271591   7.461   7.047  12.062
23384SOL     OW71592   5.688   6.816  11.837
23384SOL    HW171593   5.701   6.774  11.922
23384SOL    HW271594   5.750   6.772  11.779
23385SOL     OW71595   7.362   5.768  12.420
23385SOL    HW171596   7.424   5.702  12.451
23385SOL    HW271597   7.381   5.775  12.326
23386SOL     OW71598   6.004   6.018  11.688
23386SOL    HW171599   6.045   5.946  11.640
23386SOL    HW271600   5.957   5.975  11.759
23387SOL     OW71601   7.246   7.077  12.313
23387SOL    HW171602   7.196   7.034  12.244
23387SOL    HW271603   7.298   7.006  12.352
23388SOL     OW71604   6.416   7.166  11.848
23388SOL    HW171605   6.384   7.230  11.785
23388SOL    HW271606   6.343   7.105  11.859
23389SOL     OW71607   7.041   5.820  12.295
23389SOL    HW171608   7.104   5.785  12.357
23389SOL    HW271609   6.968   5.851  12.350
23390SOL     OW71610   6.580   5.569  12.331
23390SOL    HW171611   6.539   5.541  12.249
23390SOL    HW271612   6.672   5.544  12.322
23391SOL     OW71613   6.365   6.920  11.495
23391SOL    HW171614   6.337   6.829  11.504
23391SOL    HW271615   6.446   6.925  11.546
23392SOL     OW71616   6.958   5.627  11.344
23392SOL    HW171617   6.998   5.548  11.310
23392SOL    HW271618   6.865   5.605  11.354
23393SOL     OW71619   6.899   6.050  11.843
23393SOL    HW171620   6.839   6.125  11.843
23393SOL    HW271621   6.891   6.013  11.931
23394SOL     OW71622   7.178   5.775  12.059
23394SOL    HW171623   7.122   5.797  12.133
23394SOL    HW271624   7.171   5.850  12.000
23395SOL     OW71625   5.628   6.646  11.481
23395SOL    HW171626   5.721   6.635  11.460
23395SOL    HW271627   5.597   6.558  11.502
23396SOL     OW71628   6.479   7.255  11.506
23396SOL    HW171629   6.401   7.238  11.453
23396SOL    HW271630   6.452   7.323  11.568
23397SOL     OW71631   5.814   7.734   0.994
23397SOL    HW171632   5.843   7.700   1.079
23397SOL    HW271633   5.727   7.696   0.982
23398SOL     OW71634   5.574   7.811   0.654
23398SOL    HW171635   5.497   7.850   0.693
23398SOL    HW271636   5.541   7.736   0.605
23399SOL     OW71637   7.256   8.032   0.244
23399SOL    HW171638   7.277   7.994   0.159
23399SOL    HW271639   7.230   7.958   0.298
23400SOL     OW71640   6.004   7.849   1.545
23400SOL    HW171641   6.078   7.809   1.501
23400SOL    HW271642   5.931   7.789   1.529
23401SOL     OW71643   7.188   7.936   0.704
23401SOL    HW171644   7.099   7.923   0.669
23401SOL    HW271645   7.174   7.963   0.795
23402SOL     OW71646   7.168   7.584   1.462
23402SOL    HW171647   7.217   7.656   1.423
23402SOL    HW271648   7.143   7.615   1.548
23403SOL     OW71649   5.626   0.096   0.625
23403SOL    HW171650   5.639   0.002   0.623
23403SOL    HW271651   5.713   0.133   0.637
23404SOL     OW71652   6.402   7.441   0.535
23404SOL    HW171653   6.448   7.520   0.506
23404SOL    HW271654   6.309   7.464   0.530
23405SOL     OW71655   5.926   7.699   1.837
23405SOL    HW171656   5.946   7.791   1.822
23405SOL    HW271657   5.832   7.698   1.856
23406SOL     OW71658   6.848   7.798   0.935
23406SOL    HW171659   6.760   7.763   0.948
23406SOL    HW271660   6.904   7.740   0.986
23407SOL     OW71661   6.986   7.924   1.702
23407SOL    HW171662   6.994   7.961   1.790
23407SOL    HW271663   7.042   7.847   1.703
23408SOL     OW71664   6.516   0.388   1.518
23408SOL    HW171665   6.559   0.312   1.479
23408SOL    HW271666   6.429   0.389   1.479
23409SOL     OW71667   6.582   7.806   1.230
23409SOL    HW171668   6.493   7.833   1.254
23409SOL    HW271669   6.571   7.757   1.149
23410SOL     OW71670   6.450   7.765   0.234
23410SOL    HW171671   6.396   7.795   0.161
23410SOL    HW271672   6.492   7.685   0.201
23411SOL     OW71673   7.295   0.006   1.863
23411SOL    HW171674   7.255   0.074   1.810
23411SOL    HW271675   7.331  -0.057   1.800
23412SOL     OW71676   6.141   7.626   0.901
23412SOL    HW171677   6.141   7.650   0.994
23412SOL    HW271678   6.140   7.710   0.855
23413SOL     OW71679   5.771   7.711   1.505
23413SOL    HW171680   5.687   7.752   1.529
23413SOL    HW271681   5.760   7.619   1.529
23414SOL     OW71682   6.997   7.543   0.449
23414SOL    HW171683   6.985   7.510   0.359
23414SOL    HW271684   7.091   7.533   0.466
23415SOL     OW71685   7.105   7.665   1.735
23415SOL    HW171686   7.102   7.695   1.826
23415SOL    HW271687   7.062   7.580   1.737
23416SOL     OW71688   6.195   7.537   0.119
23416SOL    HW171689   6.286   7.508   0.130
23416SOL    HW271690   6.196   7.587   0.037
23417SOL     OW71691   6.385   7.690   1.762
23417SOL    HW171692   6.429   7.717   1.842
23417SOL    HW271693   6.299   7.658   1.792
23418SOL     OW71694   6.920   0.001   1.436
23418SOL    HW171695   6.958  -0.016   1.522
23418SOL    HW271696   6.864   0.078   1.450
23419SOL     OW71697   6.142   7.512   0.497
23419SOL    HW171698   6.060   7.516   0.545
23419SOL    HW271699   6.142   7.590   0.442
23420SOL     OW71700   5.902   7.524   0.207
23420SOL    HW171701   5.982   7.545   0.159
23420SOL    HW271702   5.920   7.438   0.246
23421SOL     OW71703   6.541   7.665   0.473
23421SOL    HW171704   6.500   7.711   0.399
23421SOL    HW271705   6.632   7.693   0.472
23422SOL     OW71706   5.696  -0.004   1.377
23422SOL    HW171707   5.774  -0.047   1.412
23422SOL    HW271708   5.691   0.079   1.425
23423SOL     OW71709   6.144   7.666   1.175
23423SOL    HW171710   6.171   7.579   1.202
23423SOL    HW271711   6.052   7.672   1.202
23424SOL     OW71712   6.613   7.501   0.745
23424SOL    HW171713   6.554   7.512   0.670
23424SOL    HW271714   6.579   7.425   0.791
23425SOL     OW71715   7.089   7.944   0.959
23425SOL    HW171716   6.995   7.926   0.968
23425SOL    HW271717   7.114   7.985   1.041
23426SOL     OW71718   6.138   7.718   0.314
23426SOL    HW171719   6.152   7.650   0.248
23426SOL    HW271720   6.186   7.794   0.281
23427SOL     OW71721   6.516   7.541   1.400
23427SOL    HW171722   6.520   7.507   1.310
23427SOL    HW271723   6.589   7.603   1.404
23428SOL     OW71724   6.850   7.799   1.276
23428SOL    HW171725   6.879   7.878   1.322
23428SOL    HW271726   6.757   7.815   1.258
23429SOL     OW71727   6.136   7.906   0.857
23429SOL    HW171728   6.097   7.961   0.788
23429SOL    HW271729   6.189   7.967   0.908
23430SOL     OW71730   6.077   7.489   1.749
23430SOL    HW171731   6.026   7.436   1.688
23430SOL    HW271732   6.019   7.563   1.770
23431SOL     OW71733   5.884   7.646   1.251
23431SOL    HW171734   5.830   7.672   1.325
23431SOL    HW271735   5.872   7.552   1.244
23432SOL     OW71736   6.342   0.061   1.022
23432SOL    HW171737   6.382   0.075   0.936
23432SOL    HW271738   6.270   0.124   1.025
23433SOL     OW71739   5.898   7.522   0.625
23433SOL    HW171740   5.874   7.610   0.651
23433SOL    HW271741   5.908   7.474   0.707
23434SOL     OW71742   7.189   7.816   0.390
23434SOL    HW171743   7.230   7.744   0.438
23434SOL    HW271744   7.100   7.821   0.426
23435SOL     OW71745   7.068   7.698   0.092
23435SOL    HW171746   7.032   7.622   0.138
23435SOL    HW271747   7.125   7.740   0.157
23436SOL     OW71748   5.895   7.993   1.041
23436SOL    HW171749   5.893   7.901   1.015
23436SOL    HW271750   5.967   8.030   0.991
23437SOL     OW71751   6.727   7.830   1.704
23437SOL    HW171752   6.679   7.909   1.725
23437SOL    HW271753   6.819   7.856   1.706
23438SOL     OW71754   6.738   7.670   1.490
23438SOL    HW171755   6.743   7.742   1.553
23438SOL    HW271756   6.789   7.700   1.415
23439SOL     OW71757   5.616   7.960   1.109
23439SOL    HW171758   5.696   7.937   1.062
23439SOL    HW271759   5.641   7.959   1.201
23440SOL     OW71760   5.785   7.965   1.716
23440SOL    HW171761   5.848   7.937   1.650
23440SOL    HW271762   5.809   8.055   1.737
23441SOL     OW71763   6.410   8.025   0.302
23441SOL    HW171764   6.433   7.932   0.293
23441SOL    HW271765   6.330   8.025   0.355
23442SOL     OW71766   7.212   8.023   1.199
23442SOL    HW171767   7.204   7.999   1.291
23442SOL    HW271768   7.286   7.972   1.166
23443SOL     OW71769   6.319   7.874   1.232
23443SOL    HW171770   6.251   7.809   1.212
23443SOL    HW271771   6.309   7.940   1.164
23444SOL     OW71772   6.496   7.506   0.117
23444SOL    HW171773   6.526   7.539   0.032
23444SOL    HW271774   6.577   7.498   0.169
23445SOL     OW71775   7.311   7.600   0.516
23445SOL    HW171776   7.378   7.583   0.450
23445SOL    HW271777   7.295   7.515   0.557
23446SOL     OW71778   7.427   7.614   0.966
23446SOL    HW171779   7.454   7.527   0.936
23446SOL    HW271780   7.341   7.628   0.925
23447SOL     OW71781   5.838   7.779   0.714
23447SOL    HW171782   5.744   7.787   0.699
23447SOL    HW271783   5.846   7.765   0.809
23448SOL     OW71784   6.613   7.663   0.978
23448SOL    HW171785   6.606   7.627   0.890
23448SOL    HW271786   6.603   7.588   1.036
23449SOL     OW71787   7.327   7.817   1.406
23449SOL    HW171788   7.387   7.891   1.399
23449SOL    HW271789   7.358   7.755   1.339
23450SOL     OW71790   6.263   7.639   1.500
23450SOL    HW171791   6.340   7.631   1.444
23450SOL    HW271792   6.297   7.671   1.584
23451SOL     OW71793   5.652   7.594   0.304
23451SOL    HW171794   5.642   7.686   0.277
23451SOL    HW271795   5.741   7.571   0.276
23452SOL     OW71796   6.373   8.008   1.722
23452SOL    HW171797   6.278   8.024   1.716
23452SOL    HW271798   6.381   7.913   1.721
23453SOL     OW71799   6.807   7.743   0.455
23453SOL    HW171800   6.871   7.671   0.454
23453SOL    HW271801   6.838   7.801   0.525
23454SOL     OW71802   6.208   0.256   0.696
23454SOL    HW171803   6.227   0.336   0.647
23454SOL    HW271804   6.177   0.194   0.631
23455SOL     OW71805   7.339   7.801   1.680
23455SOL    HW171806   7.334   7.821   1.587
23455SOL    HW271807   7.264   7.744   1.697
23456SOL     OW71808   7.394   7.622   1.236
23456SOL    HW171809   7.428   7.533   1.250
23456SOL    HW271810   7.405   7.637   1.142
23457SOL     OW71811   5.951   7.862   0.458
23457SOL    HW171812   6.005   7.797   0.415
23457SOL    HW271813   5.920   7.818   0.538
23458SOL     OW71814   7.017   7.658   1.123
23458SOL    HW171815   7.063   7.604   1.187
23458SOL    HW271816   6.958   7.713   1.175
23459SOL     OW71817   6.588   7.442   1.145
23459SOL    HW171818   6.532   7.381   1.097
23459SOL    HW271819   6.676   7.405   1.137
23460SOL     OW71820   6.953   7.468   0.189
23460SOL    HW171821   6.962   7.400   0.123
23460SOL    HW271822   6.858   7.475   0.203
23461SOL     OW71823   6.910   7.891   0.675
23461SOL    HW171824   6.868   7.976   0.666
23461SOL    HW271825   6.885   7.861   0.762
23462SOL     OW71826   7.169   7.655   0.891
23462SOL    HW171827   7.118   7.680   0.968
23462SOL    HW271828   7.159   7.728   0.830
23463SOL     OW71829   5.817   7.712   2.857
23463SOL    HW171830   5.839   7.686   2.946
23463SOL    HW271831   5.726   7.685   2.846
23464SOL     OW71832   5.568   7.828   2.519
23464SOL    HW171833   5.485   7.868   2.543
23464SOL    HW271834   5.544   7.746   2.476
23465SOL     OW71835   6.038   7.857   3.349
23465SOL    HW171836   6.108   7.792   3.342
23465SOL    HW271837   5.958   7.806   3.356
23466SOL     OW71838   7.164   7.945   2.540
23466SOL    HW171839   7.072   7.923   2.530
23466SOL    HW271840   7.171   7.978   2.630
23467SOL     OW71841   7.186   7.568   3.341
23467SOL    HW171842   7.218   7.637   3.283
23467SOL    HW271843   7.175   7.610   3.426
23468SOL     OW71844   5.655   0.090   2.491
23468SOL    HW171845   5.639  -0.004   2.489
23468SOL    HW271846   5.653   0.113   2.584
23469SOL     OW71847   6.418   7.456   2.369
23469SOL    HW171848   6.450   7.541   2.337
23469SOL    HW271849   6.324   7.469   2.379
23470SOL     OW71850   5.931   7.700   3.672
23470SOL    HW171851   5.970   7.787   3.661
23470SOL    HW271852   5.842   7.717   3.703
23471SOL     OW71853   6.856   7.793   2.791
23471SOL    HW171854   6.766   7.761   2.798
23471SOL    HW271855   6.906   7.737   2.850
23472SOL     OW71856   6.985   7.922   3.551
23472SOL    HW171857   6.980   7.989   3.620
23472SOL    HW271858   7.061   7.869   3.575
23473SOL     OW71859   6.512   0.311   3.403
23473SOL    HW171860   6.586   0.356   3.445
23473SOL    HW271861   6.449   0.380   3.385
23474SOL     OW71862   6.585   7.836   3.146
23474SOL    HW171863   6.559   7.904   3.208
23474SOL    HW271864   6.503   7.806   3.107
23475SOL     OW71865   6.499   7.753   2.003
23475SOL    HW171866   6.558   7.828   2.008
23475SOL    HW271867   6.503   7.713   2.090
23476SOL     OW71868   7.276   0.003   3.641
23476SOL    HW171869   7.289   0.008   3.736
23476SOL    HW271870   7.227   0.082   3.620
23477SOL     OW71871   6.141   7.630   2.769
23477SOL    HW171872   6.137   7.642   2.864
23477SOL    HW271873   6.137   7.719   2.733
23478SOL     OW71874   5.788   7.725   3.376
23478SOL    HW171875   5.751   7.787   3.438
23478SOL    HW271876   5.769   7.639   3.414
23479SOL     OW71877   6.992   7.557   2.306
23479SOL    HW171878   6.991   7.523   2.216
23479SOL    HW271879   7.085   7.559   2.329
23480SOL     OW71880   7.150   7.693   3.596
23480SOL    HW171881   7.148   7.713   3.690
23480SOL    HW271882   7.071   7.640   3.582
23481SOL     OW71883   6.213   7.554   1.974
23481SOL    HW171884   6.255   7.474   2.006
23481SOL    HW271885   6.161   7.525   1.899
23482SOL     OW71886   6.357   7.715   3.606
23482SOL    HW171887   6.435   7.659   3.600
23482SOL    HW271888   6.357   7.747   3.696
23483SOL     OW71889   6.938  -0.006   3.289
23483SOL    HW171890   6.961  -0.032   3.378
23483SOL    HW271891   6.889   0.076   3.300
23484SOL     OW71892   6.149   7.502   2.361
23484SOL    HW171893   6.072   7.504   2.418
23484SOL    HW271894   6.142   7.582   2.310
23485SOL     OW71895   5.875   7.503   2.052
23485SOL    HW171896   5.934   7.566   2.010
23485SOL    HW271897   5.933   7.440   2.094
23486SOL     OW71898   6.523   7.717   2.285
23486SOL    HW171899   6.488   7.786   2.341
23486SOL    HW271900   6.618   7.721   2.298
23487SOL     OW71901   5.682   0.000   3.246
23487SOL    HW171902   5.736  -0.039   3.315
23487SOL    HW271903   5.655   0.085   3.282
23488SOL     OW71904   6.127   7.655   3.041
23488SOL    HW171905   6.172   7.610   3.113
23488SOL    HW271906   6.036   7.659   3.069
23489SOL     OW71907   6.608   7.481   2.588
23489SOL    HW171908   6.542   7.474   2.519
23489SOL    HW271909   6.582   7.415   2.652
23490SOL     OW71910   7.100   7.934   2.813
23490SOL    HW171911   7.007   7.916   2.826
23490SOL    HW271912   7.128   7.974   2.895
23491SOL     OW71913   6.133   7.714   2.190
23491SOL    HW171914   6.164   7.672   2.110
23491SOL    HW271915   6.155   7.807   2.178
23492SOL     OW71916   6.508   7.528   3.256
23492SOL    HW171917   6.528   7.518   3.163
23492SOL    HW271918   6.585   7.570   3.294
23493SOL     OW71919   6.851   7.799   3.130
23493SOL    HW171920   6.884   7.873   3.182
23493SOL    HW271921   6.756   7.812   3.128
23494SOL     OW71922   6.134   7.926   2.729
23494SOL    HW171923   6.101   7.991   2.667
23494SOL    HW271924   6.202   7.973   2.779
23495SOL     OW71925   6.589   7.575   3.599
23495SOL    HW171926   6.644   7.653   3.594
23495SOL    HW271927   6.648   7.502   3.583
23496SOL     OW71928   6.079   7.477   3.608
23496SOL    HW171929   6.028   7.430   3.542
23496SOL    HW271930   6.030   7.557   3.625
23497SOL     OW71931   5.867   7.641   3.119
23497SOL    HW171932   5.830   7.677   3.200
23497SOL    HW271933   5.847   7.547   3.123
23498SOL     OW71934   6.329   0.067   2.896
23498SOL    HW171935   6.362   0.121   2.824
23498SOL    HW271936   6.268   0.124   2.943
23499SOL     OW71937   5.903   7.512   2.489
23499SOL    HW171938   5.872   7.599   2.512
23499SOL    HW271939   5.910   7.466   2.573
23500SOL     OW71940   7.212   7.832   2.213
23500SOL    HW171941   7.249   7.752   2.251
23500SOL    HW271942   7.180   7.882   2.288
23501SOL     OW71943   7.066   7.741   1.995
23501SOL    HW171944   7.026   7.658   2.019
23501SOL    HW271945   7.123   7.763   2.069
23502SOL     OW71946   6.919   0.239   1.909
23502SOL    HW171947   6.879   0.158   1.940
23502SOL    HW271948   6.849   0.284   1.861
23503SOL     OW71949   5.884   7.971   2.877
23503SOL    HW171950   5.873   7.876   2.869
23503SOL    HW271951   5.968   7.989   2.835
23504SOL     OW71952   6.739   7.805   3.538
23504SOL    HW171953   6.685   7.880   3.561
23504SOL    HW271954   6.829   7.838   3.538
23505SOL     OW71955   6.758   7.626   3.332
23505SOL    HW171956   6.744   7.690   3.402
23505SOL    HW271957   6.795   7.677   3.260
23506SOL     OW71958   5.627   7.961   2.982
23506SOL    HW171959   5.712   7.959   2.938
23506SOL    HW271960   5.648   7.967   3.075
23507SOL     OW71961   5.751   7.973   3.524
23507SOL    HW171962   5.842   7.981   3.553
23507SOL    HW271963   5.703   8.032   3.583
23508SOL     OW71964   6.376   8.012   2.106
23508SOL    HW171965   6.408   7.924   2.120
23508SOL    HW271966   6.322   8.032   2.183
23509SOL     OW71967   7.211   8.020   3.056
23509SOL    HW171968   7.197   8.006   3.149
23509SOL    HW271969   7.288   7.967   3.035
23510SOL     OW71970   6.328   7.844   3.060
23510SOL    HW171971   6.246   7.794   3.054
23510SOL    HW271972   6.312   7.922   3.006
23511SOL     OW71973   7.299   7.601   2.341
23511SOL    HW171974   7.379   7.588   2.290
23511SOL    HW271975   7.289   7.520   2.391
23512SOL     OW71976   7.417   7.599   2.840
23512SOL    HW171977   7.448   7.514   2.809
23512SOL    HW271978   7.334   7.613   2.795
23513SOL     OW71979   5.827   7.757   2.580
23513SOL    HW171980   5.735   7.785   2.570
23513SOL    HW271981   5.839   7.749   2.675
23514SOL     OW71982   6.617   7.670   2.805
23514SOL    HW171983   6.609   7.611   2.730
23514SOL    HW271984   6.598   7.615   2.881
23515SOL     OW71985   7.351   7.812   3.299
23515SOL    HW171986   7.400   7.890   3.272
23515SOL    HW271987   7.370   7.748   3.231
23516SOL     OW71988   6.260   7.631   3.354
23516SOL    HW171989   6.347   7.613   3.319
23516SOL    HW271990   6.275   7.661   3.444
23517SOL     OW71991   5.659   7.772   1.883
23517SOL    HW171992   5.593   7.753   1.817
23517SOL    HW271993   5.695   7.858   1.858
23518SOL     OW71994   5.638   7.598   2.150
23518SOL    HW171995   5.625   7.673   2.092
23518SOL    HW271996   5.726   7.566   2.128
23519SOL     OW71997   6.379   8.007   3.573
23519SOL    HW171998   6.322   8.011   3.649
23519SOL    HW271999   6.376   7.915   3.545
23520SOL     OW72000   6.797   7.757   2.320
23520SOL    HW172001   6.861   7.685   2.316
23520SOL    HW272002   6.826   7.811   2.393
23521SOL     OW72003   6.235   0.207   2.478
23521SOL    HW172004   6.226   0.303   2.482
23521SOL    HW272005   6.157   0.174   2.521
23522SOL     OW72006   7.409   7.626   3.113
23522SOL    HW172007   7.503   7.614   3.123
23522SOL    HW272008   7.395   7.627   3.018
23523SOL     OW72009   5.949   7.856   2.356
23523SOL    HW172010   5.991   7.781   2.313
23523SOL    HW272011   5.908   7.819   2.434
23524SOL     OW72012   7.015   7.654   2.980
23524SOL    HW172013   7.028   7.576   3.034
23524SOL    HW272014   6.962   7.712   3.034
23525SOL     OW72015   6.590   7.461   2.996
23525SOL    HW172016   6.531   7.394   2.961
23525SOL    HW272017   6.676   7.421   2.994
23526SOL     OW72018   6.959   7.490   2.033
23526SOL    HW172019   7.000   7.409   2.002
23526SOL    HW272020   6.867   7.467   2.046
23527SOL     OW72021   6.890   7.900   2.541
23527SOL    HW172022   6.840   7.981   2.550
23527SOL    HW272023   6.880   7.857   2.626
23528SOL     OW72024   7.162   7.650   2.751
23528SOL    HW172025   7.114   7.654   2.834
23528SOL    HW272026   7.156   7.738   2.715
23529SOL     OW72027   5.818   7.721   4.722
23529SOL    HW172028   5.843   7.693   4.810
23529SOL    HW272029   5.726   7.697   4.713
23530SOL     OW72030   5.580   7.822   4.387
23530SOL    HW172031   5.498   7.862   4.414
23530SOL    HW272032   5.554   7.745   4.337
23531SOL     OW72033   7.318   7.989   3.907
23531SOL    HW172034   7.376   8.058   3.941
23531SOL    HW272035   7.276   7.953   3.985
23532SOL     OW72036   6.009   7.860   5.271
23532SOL    HW172037   6.085   7.822   5.226
23532SOL    HW272038   5.937   7.801   5.250
23533SOL     OW72039   7.179   7.926   4.423
23533SOL    HW172040   7.087   7.914   4.398
23533SOL    HW272041   7.175   7.958   4.513
23534SOL     OW72042   7.173   7.580   5.185
23534SOL    HW172043   7.216   7.656   5.145
23534SOL    HW272044   7.146   7.611   5.272
23535SOL     OW72045   5.642   0.104   4.348
23535SOL    HW172046   5.654   0.009   4.343
23535SOL    HW272047   5.730   0.139   4.352
23536SOL     OW72048   6.405   7.444   4.238
23536SOL    HW172049   6.445   7.524   4.205
23536SOL    HW272050   6.312   7.464   4.243
23537SOL     OW72051   5.923   7.692   5.559
23537SOL    HW172052   5.951   7.779   5.530
23537SOL    HW272053   5.831   7.702   5.580
23538SOL     OW72054   6.852   7.801   4.657
23538SOL    HW172055   6.763   7.767   4.669
23538SOL    HW272056   6.906   7.745   4.712
23539SOL     OW72057   6.992   7.940   5.427
23539SOL    HW172058   6.973   7.963   5.518
23539SOL    HW272059   7.042   7.858   5.432
23540SOL     OW72060   6.521   0.361   5.274
23540SOL    HW172061   6.519   0.292   5.208
23540SOL    HW272062   6.479   0.436   5.232
23541SOL     OW72063   6.585   7.818   4.962
23541SOL    HW172064   6.498   7.841   4.995
23541SOL    HW272065   6.568   7.758   4.889
23542SOL     OW72066   6.442   7.763   3.874
23542SOL    HW172067   6.467   7.856   3.875
23542SOL    HW272068   6.485   7.726   3.951
23543SOL     OW72069   7.347   0.039   5.522
23543SOL    HW172070   7.285   0.093   5.473
23543SOL    HW272071   7.348  -0.045   5.475
23544SOL     OW72072   6.136   7.623   4.632
23544SOL    HW172073   6.139   7.644   4.726
23544SOL    HW272074   6.136   7.708   4.589
23545SOL     OW72075   5.782   7.713   5.229
23545SOL    HW172076   5.712   7.770   5.262
23545SOL    HW272077   5.759   7.626   5.262
23546SOL     OW72078   6.988   7.546   4.173
23546SOL    HW172079   6.984   7.526   4.079
23546SOL    HW272080   7.082   7.549   4.192
23547SOL     OW72081   7.100   7.674   5.455
23547SOL    HW172082   7.104   7.695   5.549
23547SOL    HW272083   7.042   7.598   5.451
23548SOL     OW72084   6.210   7.544   3.843
23548SOL    HW172085   6.301   7.566   3.823
23548SOL    HW272086   6.171   7.521   3.758
23549SOL     OW72087   6.359   7.728   5.475
23549SOL    HW172088   6.439   7.677   5.471
23549SOL    HW272089   6.309   7.689   5.546
23550SOL     OW72090   6.949   0.003   5.157
23550SOL    HW172091   6.973  -0.018   5.247
23550SOL    HW272092   6.884   0.073   5.166
23551SOL     OW72093   6.137   7.508   4.222
23551SOL    HW172094   6.057   7.518   4.273
23551SOL    HW272095   6.143   7.588   4.170
23552SOL     OW72096   5.884   7.492   3.909
23552SOL    HW172097   5.941   7.561   3.876
23552SOL    HW272098   5.944   7.431   3.953
23553SOL     OW72099   6.525   7.690   4.166
23553SOL    HW172100   6.488   7.768   4.206
23553SOL    HW272101   6.620   7.702   4.172
23554SOL     OW72102   5.672  -0.003   5.113
23554SOL    HW172103   5.751  -0.005   5.167
23554SOL    HW272104   5.633   0.082   5.132
23555SOL     OW72105   6.141   7.667   4.905
23555SOL    HW172106   6.183   7.608   4.968
23555SOL    HW272107   6.049   7.666   4.929
23556SOL     OW72108   6.610   7.496   4.462
23556SOL    HW172109   6.547   7.496   4.390
23556SOL    HW272110   6.582   7.424   4.519
23557SOL     OW72111   7.090   7.946   4.682
23557SOL    HW172112   6.998   7.918   4.686
23557SOL    HW272113   7.099   8.010   4.752
23558SOL     OW72114   6.158   7.714   4.051
23558SOL    HW172115   6.179   7.663   3.973
23558SOL    HW272116   6.182   7.804   4.027
23559SOL     OW72117   6.509   7.530   5.117
23559SOL    HW172118   6.531   7.511   5.025
23559SOL    HW272119   6.588   7.570   5.152
23560SOL     OW72120   6.853   7.799   5.007
23560SOL    HW172121   6.887   7.877   5.051
23560SOL    HW272122   6.761   7.818   4.992
23561SOL     OW72123   6.143   7.905   4.585
23561SOL    HW172124   6.113   7.962   4.513
23561SOL    HW272125   6.197   7.962   4.639
23562SOL     OW72126   6.593   7.592   5.480
23562SOL    HW172127   6.653   7.662   5.459
23562SOL    HW272128   6.640   7.512   5.456
23563SOL     OW72129   6.078   7.481   5.476
23563SOL    HW172130   6.029   7.428   5.413
23563SOL    HW272131   6.020   7.555   5.494
23564SOL     OW72132   5.880   7.639   4.979
23564SOL    HW172133   5.839   7.673   5.059
23564SOL    HW272134   5.858   7.546   4.979
23565SOL     OW72135   6.337   0.066   4.748
23565SOL    HW172136   6.369   0.095   4.663
23565SOL    HW272137   6.267   0.128   4.770
23566SOL     OW72138   5.889   7.513   4.353
23566SOL    HW172139   5.867   7.606   4.366
23566SOL    HW272140   5.900   7.479   4.441
23567SOL     OW72141   7.197   7.816   4.103
23567SOL    HW172142   7.234   7.743   4.152
23567SOL    HW272143   7.180   7.883   4.169
23568SOL     OW72144   7.088   7.744   3.860
23568SOL    HW172145   7.035   7.666   3.879
23568SOL    HW272146   7.129   7.766   3.943
23569SOL     OW72147   6.859   0.254   3.730
23569SOL    HW172148   6.907   0.215   3.804
23569SOL    HW272149   6.857   0.347   3.750
23570SOL     OW72150   5.886   7.987   4.763
23570SOL    HW172151   5.890   7.895   4.739
23570SOL    HW272152   5.962   8.027   4.720
23571SOL     OW72153   6.738   7.824   5.401
23571SOL    HW172154   6.684   7.900   5.421
23571SOL    HW272155   6.828   7.856   5.401
23572SOL     OW72156   6.750   7.633   5.201
23572SOL    HW172157   6.740   7.701   5.268
23572SOL    HW272158   6.796   7.676   5.129
23573SOL     OW72159   5.620   7.935   4.850
23573SOL    HW172160   5.704   7.945   4.805
23573SOL    HW272161   5.640   7.953   4.942
23574SOL     OW72162   5.783   7.965   5.427
23574SOL    HW172163   5.864   7.954   5.377
23574SOL    HW272164   5.791   8.051   5.468
23575SOL     OW72165   6.426   0.059   3.974
23575SOL    HW172166   6.395  -0.015   4.026
23575SOL    HW272167   6.357   0.125   3.981
23576SOL     OW72168   7.217   8.029   4.936
23576SOL    HW172169   7.195   7.965   5.005
23576SOL    HW272170   7.282   7.984   4.882
23577SOL     OW72171   6.317   7.879   4.957
23577SOL    HW172172   6.248   7.815   4.937
23577SOL    HW272173   6.308   7.945   4.888
23578SOL     OW72174   7.311   7.599   4.231
23578SOL    HW172175   7.384   7.579   4.172
23578SOL    HW272176   7.290   7.516   4.272
23579SOL     OW72177   7.428   7.614   4.685
23579SOL    HW172178   7.455   7.526   4.660
23579SOL    HW272179   7.340   7.623   4.649
23580SOL     OW72180   5.838   7.772   4.451
23580SOL    HW172181   5.745   7.791   4.436
23580SOL    HW272182   5.843   7.755   4.545
23581SOL     OW72183   6.615   7.668   4.692
23581SOL    HW172184   6.611   7.626   4.606
23581SOL    HW272185   6.607   7.595   4.754
23582SOL     OW72186   7.325   7.815   5.118
23582SOL    HW172187   7.388   7.887   5.113
23582SOL    HW272188   7.356   7.751   5.053
23583SOL     OW72189   6.268   7.628   5.218
23583SOL    HW172190   6.353   7.606   5.181
23583SOL    HW272191   6.288   7.669   5.302
23584SOL     OW72192   5.674   7.776   3.753
23584SOL    HW172193   5.606   7.772   3.686
23584SOL    HW272194   5.678   7.868   3.778
23585SOL     OW72195   5.645   7.589   4.017
23585SOL    HW172196   5.633   7.672   3.971
23585SOL    HW272197   5.734   7.562   3.994
23586SOL     OW72198   6.367   8.011   5.452
23586SOL    HW172199   6.273   8.029   5.442
23586SOL    HW272200   6.373   7.915   5.451
23587SOL     OW72201   6.794   7.744   4.197
23587SOL    HW172202   6.860   7.676   4.187
23587SOL    HW272203   6.830   7.804   4.261
23588SOL     OW72204   6.215   0.254   4.394
23588SOL    HW172205   6.261   0.338   4.395
23588SOL    HW272206   6.185   0.244   4.304
23589SOL     OW72207   7.336   7.802   5.391
23589SOL    HW172208   7.328   7.817   5.297
23589SOL    HW272209   7.262   7.746   5.414
23590SOL     OW72210   7.401   7.614   4.957
23590SOL    HW172211   7.401   7.519   4.961
23590SOL    HW272212   7.413   7.635   4.865
23591SOL     OW72213   5.911   7.809   4.179
23591SOL    HW172214   6.006   7.805   4.168
23591SOL    HW272215   5.898   7.810   4.274
23592SOL     OW72216   7.011   7.662   4.838
23592SOL    HW172217   7.033   7.581   4.884
23592SOL    HW272218   6.962   7.713   4.902
23593SOL     OW72219   6.593   7.452   4.862
23593SOL    HW172220   6.536   7.387   4.819
23593SOL    HW272221   6.680   7.413   4.858
23594SOL     OW72222   6.953   7.503   3.899
23594SOL    HW172223   6.985   7.432   3.842
23594SOL    HW272224   6.864   7.478   3.921
23595SOL     OW72225   6.903   7.899   4.403
23595SOL    HW172226   6.860   7.985   4.401
23595SOL    HW272227   6.882   7.864   4.489
23596SOL     OW72228   7.166   7.647   4.612
23596SOL    HW172229   7.116   7.664   4.692
23596SOL    HW272230   7.157   7.728   4.561
23597SOL     OW72231   5.826   7.712   6.578
23597SOL    HW172232   5.848   7.688   6.668
23597SOL    HW272233   5.734   7.686   6.569
23598SOL     OW72234   5.560   7.815   6.243
23598SOL    HW172235   5.478   7.856   6.268
23598SOL    HW272236   5.534   7.733   6.200
23599SOL     OW72237   7.236   0.030   5.780
23599SOL    HW172238   7.294   0.019   5.704
23599SOL    HW272239   7.253  -0.047   5.834
23600SOL     OW72240   6.040   7.833   7.130
23600SOL    HW172241   6.104   7.773   7.091
23600SOL    HW272242   5.955   7.791   7.114
23601SOL     OW72243   7.181   7.931   6.287
23601SOL    HW172244   7.090   7.909   6.264
23601SOL    HW272245   7.176   7.964   6.376
23602SOL     OW72246   5.717   0.040   6.211
23602SOL    HW172247   5.658  -0.035   6.218
23602SOL    HW272248   5.674   0.109   6.261
23603SOL     OW72249   6.401   7.440   6.095
23603SOL    HW172250   6.449   7.519   6.072
23603SOL    HW272251   6.310   7.467   6.097
23604SOL     OW72252   5.920   7.703   7.415
23604SOL    HW172253   5.924   7.791   7.377
23604SOL    HW272254   5.831   7.696   7.450
23605SOL     OW72255   6.848   7.774   6.513
23605SOL    HW172256   6.760   7.749   6.540
23605SOL    HW272257   6.905   7.727   6.574
23606SOL     OW72258   6.991   7.946   7.302
23606SOL    HW172259   6.975   7.967   7.394
23606SOL    HW272260   7.045   7.867   7.303
23607SOL     OW72261   6.480   0.335   7.104
23607SOL    HW172262   6.554   0.349   7.163
23607SOL    HW272263   6.450   0.423   7.082
23608SOL     OW72264   6.569   7.804   6.826
23608SOL    HW172265   6.478   7.829   6.842
23608SOL    HW272266   6.567   7.758   6.742
23609SOL     OW72267   6.487   7.786   5.781
23609SOL    HW172268   6.503   7.823   5.695
23609SOL    HW272269   6.506   7.692   5.771
23610SOL     OW72270   7.368   0.036   7.382
23610SOL    HW172271   7.294   0.092   7.361
23610SOL    HW272272   7.355  -0.042   7.327
23611SOL     OW72273   6.184   7.584   6.498
23611SOL    HW172274   6.177   7.610   6.589
23611SOL    HW272275   6.165   7.663   6.448
23612SOL     OW72276   5.780   7.719   7.089
23612SOL    HW172277   5.693   7.749   7.063
23612SOL    HW272278   5.765   7.632   7.125
23613SOL     OW72279   6.994   7.547   6.025
23613SOL    HW172280   6.987   7.523   5.932
23613SOL    HW272281   7.087   7.536   6.046
23614SOL     OW72282   7.115   7.704   7.304
23614SOL    HW172283   7.099   7.652   7.383
23614SOL    HW272284   7.093   7.645   7.232
23615SOL     OW72285   6.239   7.566   5.677
23615SOL    HW172286   6.286   7.487   5.705
23615SOL    HW272287   6.180   7.535   5.608
23616SOL     OW72288   6.351   7.728   7.349
23616SOL    HW172289   6.407   7.733   7.427
23616SOL    HW272290   6.269   7.690   7.381
23617SOL     OW72291   6.950   7.978   7.024
23617SOL    HW172292   6.958   7.963   7.119
23617SOL    HW272293   7.010   8.051   7.007
23618SOL     OW72294   6.143   7.508   6.094
23618SOL    HW172295   6.057   7.508   6.137
23618SOL    HW272296   6.139   7.581   6.032
23619SOL     OW72297   5.870   7.501   5.769
23619SOL    HW172298   5.924   7.563   5.720
23619SOL    HW272299   5.934   7.442   5.810
23620SOL     OW72300   6.539   7.665   6.044
23620SOL    HW172301   6.503   7.732   5.986
23620SOL    HW272302   6.631   7.690   6.055
23621SOL     OW72303   5.672  -0.002   6.974
23621SOL    HW172304   5.757   0.017   7.014
23621SOL    HW272305   5.620   0.076   6.989
23622SOL     OW72306   6.155   7.659   6.766
23622SOL    HW172307   6.192   7.615   6.842
23622SOL    HW272308   6.061   7.666   6.785
23623SOL     OW72309   6.517   7.515   6.359
23623SOL    HW172310   6.530   7.525   6.265
23623SOL    HW272311   6.565   7.435   6.382
23624SOL     OW72312   7.077   7.947   6.543
23624SOL    HW172313   6.990   7.916   6.566
23624SOL    HW272314   7.113   7.979   6.626
23625SOL     OW72315   6.135   7.699   5.902
23625SOL    HW172316   6.171   7.664   5.820
23625SOL    HW272317   6.158   7.792   5.900
23626SOL     OW72318   6.516   7.538   6.982
23626SOL    HW172319   6.532   7.509   6.892
23626SOL    HW272320   6.590   7.594   7.003
23627SOL     OW72321   6.838   7.853   6.812
23627SOL    HW172322   6.875   7.897   6.889
23627SOL    HW272323   6.751   7.825   6.840
23628SOL     OW72324   6.121   7.949   6.441
23628SOL    HW172325   6.078   7.975   6.360
23628SOL    HW272326   6.156   8.031   6.476
23629SOL     OW72327   6.081   7.497   7.328
23629SOL    HW172328   6.029   7.438   7.272
23629SOL    HW272329   6.021   7.569   7.347
23630SOL     OW72330   5.892   7.647   6.838
23630SOL    HW172331   5.848   7.675   6.918
23630SOL    HW272332   5.875   7.553   6.832
23631SOL     OW72333   6.371   0.067   6.612
23631SOL    HW172334   6.409   0.052   6.526
23631SOL    HW272335   6.299   0.128   6.596
23632SOL     OW72336   5.898   7.506   6.210
23632SOL    HW172337   5.864   7.593   6.233
23632SOL    HW272338   5.902   7.459   6.294
23633SOL     OW72339   7.203   7.812   5.960
23633SOL    HW172340   7.249   7.739   6.002
23633SOL    HW272341   7.176   7.868   6.033
23634SOL     OW72342   7.079   7.740   5.721
23634SOL    HW172343   7.030   7.661   5.740
23634SOL    HW272344   7.126   7.759   5.801
23635SOL     OW72345   6.832   0.339   5.703
23635SOL    HW172346   6.884   0.259   5.711
23635SOL    HW272347   6.798   0.337   5.614
23636SOL     OW72348   5.887   7.974   6.625
23636SOL    HW172349   5.882   7.881   6.605
23636SOL    HW272350   5.957   8.007   6.568
23637SOL     OW72351   6.749   7.803   7.321
23637SOL    HW172352   6.694   7.878   7.343
23637SOL    HW272353   6.835   7.840   7.304
23638SOL     OW72354   6.746   7.669   7.062
23638SOL    HW172355   6.761   7.763   7.067
23638SOL    HW272356   6.830   7.633   7.035
23639SOL     OW72357   5.623   7.948   6.701
23639SOL    HW172358   5.710   7.951   6.661
23639SOL    HW272359   5.639   7.956   6.795
23640SOL     OW72360   5.798   7.946   7.305
23640SOL    HW172361   5.765   7.895   7.231
23640SOL    HW272362   5.732   8.013   7.320
23641SOL     OW72363   6.387   0.041   5.836
23641SOL    HW172364   6.431  -0.044   5.837
23641SOL    HW272365   6.326   0.038   5.910
23642SOL     OW72366   7.217   8.022   6.770
23642SOL    HW172367   7.206   7.982   6.856
23642SOL    HW272368   7.294   7.979   6.733
23643SOL     OW72369   6.314   7.897   6.823
23643SOL    HW172370   6.244   7.834   6.806
23643SOL    HW272371   6.312   7.957   6.749
23644SOL     OW72372   7.327   7.606   6.092
23644SOL    HW172373   7.396   7.586   6.028
23644SOL    HW272374   7.303   7.520   6.129
23645SOL     OW72375   7.425   7.613   6.562
23645SOL    HW172376   7.455   7.525   6.538
23645SOL    HW272377   7.337   7.619   6.526
23646SOL     OW72378   5.825   7.750   6.301
23646SOL    HW172379   5.735   7.781   6.287
23646SOL    HW272380   5.835   7.749   6.396
23647SOL     OW72381   6.600   7.669   6.581
23647SOL    HW172382   6.565   7.637   6.497
23647SOL    HW272383   6.601   7.592   6.637
23648SOL     OW72384   7.331   7.858   6.973
23648SOL    HW172385   7.412   7.907   6.958
23648SOL    HW272386   7.342   7.778   6.922
23649SOL     OW72387   6.271   7.635   7.077
23649SOL    HW172388   6.356   7.610   7.039
23649SOL    HW272389   6.293   7.670   7.163
23650SOL     OW72390   5.663   7.770   5.616
23650SOL    HW172391   5.599   7.758   5.546
23650SOL    HW272392   5.692   7.861   5.607
23651SOL     OW72393   5.642   7.602   5.878
23651SOL    HW172394   5.626   7.675   5.818
23651SOL    HW272395   5.727   7.567   5.852
23652SOL     OW72396   6.373   8.016   7.282
23652SOL    HW172397   6.277   8.023   7.280
23652SOL    HW272398   6.390   7.922   7.292
23653SOL     OW72399   6.800   7.740   6.067
23653SOL    HW172400   6.870   7.677   6.048
23653SOL    HW272401   6.839   7.800   6.130
23654SOL     OW72402   6.225   0.249   6.224
23654SOL    HW172403   6.181   0.331   6.200
23654SOL    HW272404   6.154   0.188   6.241
23655SOL     OW72405   7.350   7.813   7.237
23655SOL    HW172406   7.337   7.830   7.143
23655SOL    HW272407   7.272   7.765   7.263
23656SOL     OW72408   7.408   7.636   6.838
23656SOL    HW172409   7.375   7.547   6.853
23656SOL    HW272410   7.420   7.642   6.744
23657SOL     OW72411   5.972   7.852   6.086
23657SOL    HW172412   5.989   7.773   6.035
23657SOL    HW272413   5.918   7.823   6.159
23658SOL     OW72414   7.020   7.672   6.722
23658SOL    HW172415   7.045   7.616   6.796
23658SOL    HW272416   6.962   7.738   6.761
23659SOL     OW72417   6.588   7.440   6.734
23659SOL    HW172418   6.533   7.364   6.712
23659SOL    HW272419   6.678   7.408   6.724
23660SOL     OW72420   6.954   7.494   5.756
23660SOL    HW172421   6.993   7.418   5.713
23660SOL    HW272422   6.863   7.468   5.773
23661SOL     OW72423   6.907   7.893   6.271
23661SOL    HW172424   6.867   7.980   6.279
23661SOL    HW272425   6.889   7.851   6.355
23662SOL     OW72426   7.162   7.642   6.489
23662SOL    HW172427   7.117   7.656   6.573
23662SOL    HW272428   7.148   7.723   6.440
23663SOL     OW72429   5.810   7.740   8.449
23663SOL    HW172430   5.843   7.699   8.529
23663SOL    HW272431   5.725   7.698   8.434
23664SOL     OW72432   5.562   7.826   8.112
23664SOL    HW172433   5.476   7.846   8.148
23664SOL    HW272434   5.548   7.746   8.060
23665SOL     OW72435   7.236   0.027   7.638
23665SOL    HW172436   7.310   0.025   7.578
23665SOL    HW272437   7.253  -0.043   7.701
23666SOL     OW72438   6.007   7.848   9.001
23666SOL    HW172439   6.088   7.813   8.963
23666SOL    HW272440   5.939   7.785   8.975
23667SOL     OW72441   7.177   7.895   8.169
23667SOL    HW172442   7.087   7.893   8.136
23667SOL    HW272443   7.174   7.959   8.241
23668SOL     OW72444   7.172   7.574   8.908
23668SOL    HW172445   7.221   7.638   8.857
23668SOL    HW272446   7.145   7.621   8.987
23669SOL     OW72447   5.722   0.050   8.073
23669SOL    HW172448   5.656  -0.018   8.081
23669SOL    HW272449   5.674   0.132   8.087
23670SOL     OW72450   6.419   7.459   7.959
23670SOL    HW172451   6.451   7.541   7.921
23670SOL    HW272452   6.325   7.472   7.966
23671SOL     OW72453   5.924   7.686   9.280
23671SOL    HW172454   5.952   7.768   9.239
23671SOL    HW272455   5.833   7.701   9.305
23672SOL     OW72456   6.850   7.806   8.383
23672SOL    HW172457   6.763   7.766   8.393
23672SOL    HW272458   6.907   7.753   8.438
23673SOL     OW72459   6.996   7.946   9.154
23673SOL    HW172460   6.979   7.962   9.247
23673SOL    HW272461   7.045   7.864   9.152
23674SOL     OW72462   6.517   0.384   8.966
23674SOL    HW172463   6.544   0.301   8.925
23674SOL    HW272464   6.429   0.400   8.932
23675SOL     OW72465   6.583   7.821   8.685
23675SOL    HW172466   6.495   7.841   8.717
23675SOL    HW272467   6.568   7.758   8.614
23676SOL     OW72468   6.500   7.748   7.583
23676SOL    HW172469   6.553   7.827   7.586
23676SOL    HW272470   6.507   7.711   7.671
23677SOL     OW72471   7.325   0.047   9.244
23677SOL    HW172472   7.300   0.099   9.168
23677SOL    HW272473   7.334  -0.042   9.210
23678SOL     OW72474   6.141   7.632   8.351
23678SOL    HW172475   6.145   7.653   8.445
23678SOL    HW272476   6.133   7.717   8.308
23679SOL     OW72477   5.779   7.706   8.948
23679SOL    HW172478   5.697   7.753   8.965
23679SOL    HW272479   5.762   7.617   8.978
23680SOL     OW72480   6.985   7.547   7.891
23680SOL    HW172481   6.982   7.519   7.800
23680SOL    HW272482   7.078   7.542   7.914
23681SOL     OW72483   7.095   7.677   9.175
23681SOL    HW172484   7.094   7.696   9.269
23681SOL    HW272485   7.044   7.595   9.168
23682SOL     OW72486   6.208   7.547   7.561
23682SOL    HW172487   6.261   7.471   7.583
23682SOL    HW272488   6.162   7.523   7.480
23683SOL     OW72489   6.355   7.725   9.198
23683SOL    HW172490   6.436   7.673   9.194
23683SOL    HW272491   6.317   7.704   9.283
23684SOL     OW72492   6.947   0.012   8.885
23684SOL    HW172493   6.971  -0.012   8.975
23684SOL    HW272494   6.878   0.078   8.896
23685SOL     OW72495   6.151   7.504   7.948
23685SOL    HW172496   6.071   7.504   8.000
23685SOL    HW272497   6.143   7.581   7.892
23686SOL     OW72498   5.877   7.504   7.634
23686SOL    HW172499   5.938   7.564   7.592
23686SOL    HW272500   5.933   7.439   7.677
23687SOL     OW72501   6.523   7.716   7.871
23687SOL    HW172502   6.489   7.785   7.927
23687SOL    HW272503   6.617   7.717   7.885
23688SOL     OW72504   5.696  -0.006   8.846
23688SOL    HW172505   5.788  -0.029   8.860
23688SOL    HW272506   5.689   0.083   8.881
23689SOL     OW72507   6.147   7.670   8.625
23689SOL    HW172508   6.186   7.599   8.675
23689SOL    HW272509   6.054   7.668   8.650
23690SOL     OW72510   6.597   7.497   8.183
23690SOL    HW172511   6.539   7.486   8.109
23690SOL    HW272512   6.577   7.423   8.241
23691SOL     OW72513   7.056   8.001   8.404
23691SOL    HW172514   6.979   7.945   8.411
23691SOL    HW272515   7.098   7.995   8.490
23692SOL     OW72516   6.129   7.707   7.768
23692SOL    HW172517   6.158   7.656   7.692
23692SOL    HW272518   6.143   7.798   7.742
23693SOL     OW72519   6.504   7.533   8.837
23693SOL    HW172520   6.528   7.510   8.748
23693SOL    HW272521   6.584   7.571   8.874
23694SOL     OW72522   6.855   7.802   8.735
23694SOL    HW172523   6.888   7.881   8.777
23694SOL    HW272524   6.763   7.821   8.718
23695SOL     OW72525   6.114   7.926   8.298
23695SOL    HW172526   6.074   7.974   8.225
23695SOL    HW272527   6.171   7.991   8.340
23696SOL     OW72528   6.591   7.591   9.198
23696SOL    HW172529   6.654   7.660   9.178
23696SOL    HW272530   6.636   7.509   9.176
23697SOL     OW72531   6.086   7.477   9.200
23697SOL    HW172532   6.037   7.425   9.137
23697SOL    HW272533   6.028   7.551   9.219
23698SOL     OW72534   5.884   7.640   8.697
23698SOL    HW172535   5.842   7.666   8.779
23698SOL    HW272536   5.869   7.546   8.692
23699SOL     OW72537   6.355   0.058   8.460
23699SOL    HW172538   6.404   0.055   8.378
23699SOL    HW272539   6.286   0.123   8.445
23700SOL     OW72540   5.905   7.507   8.074
23700SOL    HW172541   5.874   7.595   8.096
23700SOL    HW272542   5.912   7.463   8.159
23701SOL     OW72543   7.204   7.815   7.832
23701SOL    HW172544   7.249   7.741   7.874
23701SOL    HW272545   7.180   7.872   7.905
23702SOL     OW72546   7.060   7.745   7.604
23702SOL    HW172547   7.023   7.658   7.616
23702SOL    HW272548   7.114   7.760   7.681
23703SOL     OW72549   6.851   0.235   7.452
23703SOL    HW172550   6.892   0.168   7.507
23703SOL    HW272551   6.880   0.318   7.490
23704SOL     OW72552   5.893   7.993   8.497
23704SOL    HW172553   5.880   7.901   8.475
23704SOL    HW272554   5.958   8.024   8.433
23705SOL     OW72555   6.740   7.826   9.125
23705SOL    HW172556   6.688   7.903   9.149
23705SOL    HW272557   6.831   7.858   9.126
23706SOL     OW72558   6.746   7.633   8.925
23706SOL    HW172559   6.738   7.702   8.992
23706SOL    HW272560   6.795   7.675   8.854
23707SOL     OW72561   5.610   7.929   8.590
23707SOL    HW172562   5.680   7.917   8.526
23707SOL    HW272563   5.656   7.949   8.672
23708SOL     OW72564   5.790   7.951   9.174
23708SOL    HW172565   5.845   7.925   9.101
23708SOL    HW272566   5.788   8.047   9.170
23709SOL     OW72567   6.368   8.002   7.690
23709SOL    HW172568   6.407   7.918   7.715
23709SOL    HW272569   6.314   8.026   7.765
23710SOL     OW72570   7.202   7.999   8.640
23710SOL    HW172571   7.203   7.935   8.712
23710SOL    HW272572   7.289   7.992   8.601
23711SOL     OW72573   6.310   7.891   8.680
23711SOL    HW172574   6.247   7.821   8.661
23711SOL    HW272575   6.310   7.946   8.601
23712SOL     OW72576   7.329   7.603   7.955
23712SOL    HW172577   7.395   7.583   7.889
23712SOL    HW272578   7.304   7.518   7.991
23713SOL     OW72579   7.422   7.611   8.422
23713SOL    HW172580   7.454   7.525   8.395
23713SOL    HW272581   7.339   7.622   8.376
23714SOL     OW72582   5.829   7.752   8.165
23714SOL    HW172583   5.741   7.787   8.151
23714SOL    HW272584   5.842   7.755   8.260
23715SOL     OW72585   6.616   7.666   8.415
23715SOL    HW172586   6.605   7.625   8.329
23715SOL    HW272587   6.608   7.593   8.477
23716SOL     OW72588   7.321   7.830   8.850
23716SOL    HW172589   7.390   7.897   8.850
23716SOL    HW272590   7.355   7.762   8.791
23717SOL     OW72591   6.264   7.634   8.946
23717SOL    HW172592   6.348   7.612   8.905
23717SOL    HW272593   6.288   7.667   9.033
23718SOL     OW72594   5.654   7.771   7.503
23718SOL    HW172595   5.596   7.770   7.427
23718SOL    HW272596   5.693   7.859   7.502
23719SOL     OW72597   5.642   7.601   7.737
23719SOL    HW172598   5.627   7.668   7.670
23719SOL    HW272599   5.730   7.568   7.717
23720SOL     OW72600   6.367   8.009   9.177
23720SOL    HW172601   6.273   8.021   9.163
23720SOL    HW272602   6.379   7.914   9.178
23721SOL     OW72603   6.791   7.745   7.920
23721SOL    HW172604   6.857   7.677   7.906
23721SOL    HW272605   6.830   7.803   7.986
23722SOL     OW72606   6.229   0.243   8.113
23722SOL    HW172607   6.199   0.326   8.075
23722SOL    HW272608   6.153   0.185   8.106
23723SOL     OW72609   7.335   7.801   9.132
23723SOL    HW172610   7.345   7.810   9.037
23723SOL    HW272611   7.258   7.746   9.143
23724SOL     OW72612   7.398   7.627   8.694
23724SOL    HW172613   7.456   7.554   8.713
23724SOL    HW272614   7.396   7.633   8.598
23725SOL     OW72615   5.973   7.861   7.947
23725SOL    HW172616   6.004   7.783   7.901
23725SOL    HW272617   5.923   7.826   8.021
23726SOL     OW72618   7.018   7.676   8.556
23726SOL    HW172619   7.040   7.589   8.588
23726SOL    HW272620   6.969   7.717   8.627
23727SOL     OW72621   6.593   7.449   8.585
23727SOL    HW172622   6.540   7.383   8.542
23727SOL    HW272623   6.682   7.413   8.585
23728SOL     OW72624   6.955   7.486   7.620
23728SOL    HW172625   6.998   7.410   7.581
23728SOL    HW272626   6.864   7.458   7.633
23729SOL     OW72627   6.902   7.896   8.128
23729SOL    HW172628   6.870   7.987   8.129
23729SOL    HW272629   6.881   7.862   8.215
23730SOL     OW72630   7.170   7.648   8.325
23730SOL    HW172631   7.116   7.671   8.400
23730SOL    HW272632   7.165   7.724   8.267
23731SOL     OW72633   5.811   7.740  10.317
23731SOL    HW172634   5.842   7.700  10.398
23731SOL    HW272635   5.727   7.698  10.300
23732SOL     OW72636   5.575   7.811   9.970
23732SOL    HW172637   5.492   7.849   9.998
23732SOL    HW272638   5.550   7.733   9.920
23733SOL     OW72639   7.238   0.029   9.509
23733SOL    HW172640   7.288   0.027   9.428
23733SOL    HW272641   7.263  -0.051   9.555
23734SOL     OW72642   6.018   7.844  10.852
23734SOL    HW172643   6.094   7.797  10.819
23734SOL    HW272644   5.944   7.786  10.835
23735SOL     OW72645   7.184   7.896  10.036
23735SOL    HW172646   7.097   7.893   9.997
23735SOL    HW272647   7.175   7.953  10.112
23736SOL     OW72648   7.173   7.577  10.773
23736SOL    HW172649   7.215   7.649  10.727
23736SOL    HW272650   7.147   7.613  10.857
23737SOL     OW72651   5.651   0.074   9.944
23737SOL    HW172652   5.644  -0.021   9.942
23737SOL    HW272653   5.658   0.096  10.037
23738SOL     OW72654   5.925   7.697  11.153
23738SOL    HW172655   5.940   7.786  11.120
23738SOL    HW272656   5.832   7.697  11.178
23739SOL     OW72657   6.841   7.811  10.251
23739SOL    HW172658   6.755   7.771  10.263
23739SOL    HW272659   6.901   7.754  10.297
23740SOL     OW72660   6.993   7.937  11.011
23740SOL    HW172661   6.973   7.956  11.103
23740SOL    HW272662   7.042   7.855  11.014
23741SOL     OW72663   6.517   0.402  10.812
23741SOL    HW172664   6.557   0.322  10.778
23741SOL    HW272665   6.423   0.385  10.808
23742SOL     OW72666   6.573   7.821  10.544
23742SOL    HW172667   6.482   7.831  10.572
23742SOL    HW272668   6.569   7.760  10.470
23743SOL     OW72669   6.449   7.796   9.490
23743SOL    HW172670   6.518   7.771   9.429
23743SOL    HW272671   6.474   7.755   9.573
23744SOL     OW72672   7.344   0.043  11.106
23744SOL    HW172673   7.281   0.098  11.058
23744SOL    HW272674   7.342  -0.041  11.060
23745SOL     OW72675   6.128   7.592  10.209
23745SOL    HW172676   6.134   7.633  10.295
23745SOL    HW272677   6.157   7.660  10.148
23746SOL     OW72678   5.775   7.715  10.816
23746SOL    HW172679   5.690   7.755  10.832
23746SOL    HW272680   5.765   7.624  10.846
23747SOL     OW72681   6.987   7.544   9.751
23747SOL    HW172682   6.977   7.521   9.659
23747SOL    HW272683   7.080   7.535   9.768
23748SOL     OW72684   7.100   7.674  11.039
23748SOL    HW172685   7.104   7.694  11.132
23748SOL    HW272686   7.047   7.595  11.033
23749SOL     OW72687   6.217   7.555   9.424
23749SOL    HW172688   6.281   7.488   9.450
23749SOL    HW272689   6.179   7.522   9.343
23750SOL     OW72690   6.360   7.727  11.058
23750SOL    HW172691   6.442   7.677  11.053
23750SOL    HW272692   6.308   7.682  11.124
23751SOL     OW72693   6.944   0.015  10.748
23751SOL    HW172694   6.967  -0.013  10.836
23751SOL    HW272695   6.876   0.081  10.760
23752SOL     OW72696   6.089   7.487   9.788
23752SOL    HW172697   6.023   7.514   9.852
23752SOL    HW272698   6.157   7.555   9.794
23753SOL     OW72699   5.877   7.492   9.495
23753SOL    HW172700   5.936   7.550   9.447
23753SOL    HW272701   5.934   7.426   9.533
23754SOL     OW72702   6.527   7.747   9.752
23754SOL    HW172703   6.502   7.660   9.782
23754SOL    HW272704   6.622   7.749   9.761
23755SOL     OW72705   5.675  -0.009  10.691
23755SOL    HW172706   5.765  -0.021  10.724
23755SOL    HW272707   5.647   0.074  10.728
23756SOL     OW72708   6.143   7.671  10.476
23756SOL    HW172709   6.185   7.594  10.514
23756SOL    HW272710   6.053   7.668  10.509
23757SOL     OW72711   6.611   7.516  10.083
23757SOL    HW172712   6.562   7.513  10.000
23757SOL    HW272713   6.590   7.433  10.125
23758SOL     OW72714   7.059   7.989  10.266
23758SOL    HW172715   6.980   7.935  10.277
23758SOL    HW272716   7.097   7.994  10.354
23759SOL     OW72717   6.127   7.734   9.616
23759SOL    HW172718   6.143   7.662   9.555
23759SOL    HW272719   6.208   7.785   9.613
23760SOL     OW72720   6.500   7.535  10.700
23760SOL    HW172721   6.523   7.507  10.611
23760SOL    HW272722   6.582   7.571  10.735
23761SOL     OW72723   6.849   7.803  10.596
23761SOL    HW172724   6.882   7.882  10.640
23761SOL    HW272725   6.756   7.821  10.581
23762SOL     OW72726   6.593   7.591  11.066
23762SOL    HW172727   6.657   7.658  11.041
23762SOL    HW272728   6.636   7.508  11.042
23763SOL     OW72729   6.082   7.490  11.066
23763SOL    HW172730   6.034   7.434  11.005
23763SOL    HW272731   6.023   7.563  11.085
23764SOL     OW72732   5.886   7.641  10.564
23764SOL    HW172733   5.840   7.669  10.643
23764SOL    HW272734   5.870   7.547  10.559
23765SOL     OW72735   6.326   0.029  10.279
23765SOL    HW172736   6.421   0.041  10.273
23765SOL    HW272737   6.293   0.111  10.315
23766SOL     OW72738   5.866   7.510   9.948
23766SOL    HW172739   5.846   7.599   9.977
23766SOL    HW272740   5.883   7.461  10.029
23767SOL     OW72741   7.202   7.801   9.680
23767SOL    HW172742   7.248   7.732   9.728
23767SOL    HW272743   7.169   7.859   9.748
23768SOL     OW72744   7.071   7.745   9.442
23768SOL    HW172745   7.023   7.664   9.460
23768SOL    HW272746   7.123   7.761   9.521
23769SOL     OW72747   6.857   0.317   9.408
23769SOL    HW172748   6.891   0.229   9.422
23769SOL    HW272749   6.808   0.312   9.325
23770SOL     OW72750   5.886   7.998  10.353
23770SOL    HW172751   5.880   7.904  10.336
23770SOL    HW272752   5.926   8.035  10.274
23771SOL     OW72753   6.736   7.828  10.986
23771SOL    HW172754   6.685   7.906  11.009
23771SOL    HW272755   6.827   7.858  10.990
23772SOL     OW72756   6.743   7.634  10.788
23772SOL    HW172757   6.735   7.703  10.853
23772SOL    HW272758   6.792   7.675  10.716
23773SOL     OW72759   5.606   7.948  10.430
23773SOL    HW172760   5.686   7.924  10.383
23773SOL    HW272761   5.633   7.959  10.521
23774SOL     OW72762   5.794   7.942  11.048
23774SOL    HW172763   5.818   7.923  10.958
23774SOL    HW272764   5.751   8.028  11.044
23775SOL     OW72765   6.387   0.049   9.568
23775SOL    HW172766   6.421  -0.038   9.545
23775SOL    HW272767   6.325   0.032   9.640
23776SOL     OW72768   7.207   8.009  10.508
23776SOL    HW172769   7.198   7.942  10.576
23776SOL    HW272770   7.288   7.985  10.462
23777SOL     OW72771   6.305   7.892  10.529
23777SOL    HW172772   6.243   7.819  10.525
23777SOL    HW272773   6.299   7.933  10.443
23778SOL     OW72774   7.332   7.602   9.819
23778SOL    HW172775   7.396   7.585   9.751
23778SOL    HW272776   7.308   7.515   9.852
23779SOL     OW72777   7.431   7.613  10.279
23779SOL    HW172778   7.459   7.525  10.253
23779SOL    HW272779   7.346   7.625  10.236
23780SOL     OW72780   5.831   7.761  10.041
23780SOL    HW172781   5.740   7.782  10.021
23780SOL    HW272782   5.834   7.757  10.137
23781SOL     OW72783   6.608   7.673  10.303
23781SOL    HW172784   6.604   7.637  10.214
23781SOL    HW272785   6.603   7.596  10.360
23782SOL     OW72786   7.327   7.818  10.705
23782SOL    HW172787   7.390   7.890  10.696
23782SOL    HW272788   7.356   7.754  10.641
23783SOL     OW72789   6.264   7.642  10.805
23783SOL    HW172790   6.345   7.613  10.764
23783SOL    HW272791   6.291   7.676  10.891
23784SOL     OW72792   5.661   7.779   9.349
23784SOL    HW172793   5.594   7.753   9.285
23784SOL    HW272794   5.702   7.856   9.310
23785SOL     OW72795   5.646   7.601   9.593
23785SOL    HW172796   5.634   7.670   9.528
23785SOL    HW272797   5.733   7.565   9.575
23786SOL     OW72798   6.355   8.008  11.056
23786SOL    HW172799   6.263   8.021  11.030
23786SOL    HW272800   6.369   7.914  11.048
23787SOL     OW72801   6.810   7.762   9.768
23787SOL    HW172802   6.866   7.685   9.757
23787SOL    HW272803   6.851   7.811   9.840
23788SOL     OW72804   6.215   0.295   9.962
23788SOL    HW172805   6.209   0.379  10.007
23788SOL    HW272806   6.163   0.306   9.882
23789SOL     OW72807   7.336   7.805  10.978
23789SOL    HW172808   7.329   7.817  10.884
23789SOL    HW272809   7.263   7.747  11.000
23790SOL     OW72810   7.401   7.612  10.551
23790SOL    HW172811   7.400   7.516  10.553
23790SOL    HW272812   7.414   7.633  10.458
23791SOL     OW72813   5.984   7.855   9.826
23791SOL    HW172814   6.011   7.793   9.757
23791SOL    HW272815   5.931   7.802   9.885
23792SOL     OW72816   7.011   7.673  10.413
23792SOL    HW172817   7.022   7.580  10.433
23792SOL    HW272818   6.964   7.709  10.488
23793SOL     OW72819   6.589   7.445  10.452
23793SOL    HW172820   6.536   7.381  10.403
23793SOL    HW272821   6.677   7.408  10.452
23794SOL     OW72822   6.957   7.496   9.478
23794SOL    HW172823   6.996   7.423   9.432
23794SOL    HW272824   6.867   7.468   9.496
23795SOL     OW72825   6.912   7.895   9.991
23795SOL    HW172826   6.873   7.982   9.984
23795SOL    HW272827   6.884   7.863  10.077
23796SOL     OW72828   7.177   7.651  10.189
23796SOL    HW172829   7.120   7.675  10.262
23796SOL    HW272830   7.173   7.726  10.129
23797SOL     OW72831   5.813   7.729  12.168
23797SOL    HW172832   5.844   7.690  12.250
23797SOL    HW272833   5.724   7.696  12.158
23798SOL     OW72834   5.565   7.820  11.817
23798SOL    HW172835   5.482   7.854  11.850
23798SOL    HW272836   5.540   7.742  11.767
23799SOL     OW72837   7.215   0.025  11.355
23799SOL    HW172838   7.277   0.036  11.284
23799SOL    HW272839   7.259  -0.032  11.418
23800SOL     OW72840   7.177   7.900  11.889
23800SOL    HW172841   7.089   7.893  11.852
23800SOL    HW272842   7.166   7.951  11.969
23801SOL     OW72843   5.717   0.053  11.812
23801SOL    HW172844   5.662  -0.025  11.799
23801SOL    HW272845   5.661   0.126  11.785
23802SOL     OW72846   6.415   7.454  11.693
23802SOL    HW172847   6.453   7.537  11.666
23802SOL    HW272848   6.320   7.470  11.696
23803SOL     OW72849   6.844   7.791  12.105
23803SOL    HW172850   6.757   7.753  12.118
23803SOL    HW272851   6.900   7.743  12.167
23804SOL     OW72852   6.564   7.822  12.382
23804SOL    HW172853   6.476   7.827  12.419
23804SOL    HW272854   6.554   7.768  12.303
23805SOL     OW72855   6.476   7.771  11.355
23805SOL    HW172856   6.542   7.783  11.287
23805SOL    HW272857   6.427   7.693  11.328
23806SOL     OW72858   6.141   7.619  12.057
23806SOL    HW172859   6.140   7.629  12.152
23806SOL    HW272860   6.140   7.709  12.023
23807SOL     OW72861   6.979   7.550  11.615
23807SOL    HW172862   6.972   7.524  11.523
23807SOL    HW272863   7.074   7.551  11.632
23808SOL     OW72864   6.252   7.562  11.266
23808SOL    HW172865   6.289   7.480  11.297
23808SOL    HW272866   6.190   7.536  11.198
23809SOL     OW72867   6.148   7.505  11.668
23809SOL    HW172868   6.070   7.507  11.723
23809SOL    HW272869   6.139   7.579  11.609
23810SOL     OW72870   5.869   7.500  11.357
23810SOL    HW172871   5.924   7.563  11.310
23810SOL    HW272872   5.931   7.440  11.398
23811SOL     OW72873   6.528   7.691  11.621
23811SOL    HW172874   6.510   7.726  11.534
23811SOL    HW272875   6.620   7.711  11.637
23812SOL     OW72876   5.676   0.003   0.074
23812SOL    HW172877   5.767   0.004   0.106
23812SOL    HW272878   5.627   0.048   0.142
23813SOL     OW72879   6.134   7.642  12.323
23813SOL    HW172880   6.180   7.713  12.368
23813SOL    HW272881   6.046   7.644  12.359
23814SOL     OW72882   6.602   7.495  11.912
23814SOL    HW172883   6.542   7.491  11.838
23814SOL    HW272884   6.581   7.418  11.964
23815SOL     OW72885   7.054   7.975  12.124
23815SOL    HW172886   6.976   7.924  12.144
23815SOL    HW272887   7.098   7.987  12.208
23816SOL     OW72888   6.119   7.697  11.475
23816SOL    HW172889   6.165   7.657  11.402
23816SOL    HW272890   6.108   7.789  11.449
23817SOL     OW72891   6.826   7.832  12.451
23817SOL    HW172892   6.827   7.895  12.523
23817SOL    HW272893   6.734   7.825  12.426
23818SOL     OW72894   6.146   7.923  12.029
23818SOL    HW172895   6.104   7.989  11.973
23818SOL    HW272896   6.201   7.974  12.089
23819SOL     OW72897   5.878   7.629  12.419
23819SOL    HW172898   5.846   7.651  12.507
23819SOL    HW272899   5.859   7.536  12.410
23820SOL     OW72900   6.366   0.101  12.161
23820SOL    HW172901   6.374   0.123  12.068
23820SOL    HW272902   6.290   0.150  12.191
23821SOL     OW72903   5.903   7.510  11.794
23821SOL    HW172904   5.871   7.597  11.819
23821SOL    HW272905   5.912   7.464  11.878
23822SOL     OW72906   7.194   7.800  11.550
23822SOL    HW172907   7.242   7.730  11.596
23822SOL    HW272908   7.180   7.867  11.618
23823SOL     OW72909   7.084   7.731  11.303
23823SOL    HW172910   7.032   7.654  11.326
23823SOL    HW272911   7.127   7.756  11.385
23824SOL     OW72912   6.883   0.264  11.241
23824SOL    HW172913   6.879   0.168  11.251
23824SOL    HW272914   6.820   0.283  11.173
23825SOL     OW72915   5.893   7.984  12.209
23825SOL    HW172916   5.883   7.891  12.190
23825SOL    HW272917   5.955   8.015  12.143
23826SOL     OW72918   6.738   7.664   0.168
23826SOL    HW172919   6.756   7.716   0.247
23826SOL    HW272920   6.795   7.702   0.101
23827SOL     OW72921   5.629   7.960  12.301
23827SOL    HW172922   5.712   7.954  12.253
23827SOL    HW272923   5.654   7.964  12.393
23828SOL     OW72924   6.414   8.003  11.489
23828SOL    HW172925   6.441   7.924  11.442
23828SOL    HW272926   6.322   8.016  11.464
23829SOL     OW72927   7.205   8.011  12.354
23829SOL    HW172928   7.216   7.945  12.422
23829SOL    HW272929   7.289   8.011  12.307
23830SOL     OW72930   7.328   7.602  11.684
23830SOL    HW172931   7.395   7.585  11.617
23830SOL    HW272932   7.305   7.516  11.718
23831SOL     OW72933   7.430   7.612  12.157
23831SOL    HW172934   7.456   7.525  12.127
23831SOL    HW272935   7.345   7.627  12.116
23832SOL     OW72936   5.825   7.753  11.889
23832SOL    HW172937   5.736   7.784  11.873
23832SOL    HW272938   5.833   7.751  11.984
23833SOL     OW72939   6.607   7.659  12.146
23833SOL    HW172940   6.599   7.620  12.059
23833SOL    HW272941   6.600   7.585  12.207
23834SOL     OW72942   7.329   7.849   0.049
23834SOL    HW172943   7.408   7.903   0.047
23834SOL    HW272944   7.353   7.768   0.003
23835SOL     OW72945   5.664   7.772  11.227
23835SOL    HW172946   5.573   7.777  11.199
23835SOL    HW272947   5.706   7.847  11.184
23836SOL     OW72948   5.640   7.602  11.465
23836SOL    HW172949   5.627   7.676  11.407
23836SOL    HW272950   5.725   7.566  11.441
23837SOL     OW72951   6.794   7.756  11.647
23837SOL    HW172952   6.857   7.686  11.634
23837SOL    HW272953   6.834   7.811  11.715
23838SOL     OW72954   6.234   0.243  11.814
23838SOL    HW172955   6.204   0.332  11.797
23838SOL    HW272956   6.158   0.199  11.851
23839SOL     OW72957   7.444   7.630  12.434
23839SOL    HW172958   7.403   7.550  12.468
23839SOL    HW272959   7.431   7.624  12.339
23840SOL     OW72960   5.975   7.849  11.678
23840SOL    HW172961   6.001   7.768  11.635
23840SOL    HW272962   5.923   7.821  11.753
23841SOL     OW72963   7.014   7.697  12.298
23841SOL    HW172964   7.069   7.644  12.356
23841SOL    HW272965   6.956   7.745  12.358
23842SOL     OW72966   6.593   7.424  12.301
23842SOL    HW172967   6.557   7.374  12.228
23842SOL    HW272968   6.684   7.394  12.308
23843SOL     OW72969   6.951   7.493  11.344
23843SOL    HW172970   6.991   7.418  11.299
23843SOL    HW272971   6.861   7.466  11.360
23844SOL     OW72972   6.896   7.904  11.860
23844SOL    HW172973   6.905   7.996  11.885
23844SOL    HW272974   6.879   7.858  11.942
23845SOL     OW72975   7.174   7.654  12.065
23845SOL    HW172976   7.116   7.680  12.137
23845SOL    HW272977   7.169   7.726  12.002
23846SOL     OW72978   7.692   0.574   0.028
23846SOL    HW172979   7.655   0.640   0.087
23846SOL    HW272980   7.626   0.565  -0.041
23847SOL     OW72981   7.698   0.277   0.972
23847SOL    HW172982   7.715   0.253   1.063
23847SOL    HW272983   7.615   0.233   0.951
23848SOL     OW72984   7.458   0.388   0.636
23848SOL    HW172985   7.376   0.412   0.679
23848SOL    HW272986   7.440   0.303   0.596
23849SOL     OW72987   7.771   1.421   1.044
23849SOL    HW172988   7.695   1.362   1.042
23849SOL    HW272989   7.765   1.469   0.961
23850SOL     OW72990   7.862   0.412   1.528
23850SOL    HW172991   7.949   0.373   1.520
23850SOL    HW272992   7.802   0.339   1.514
23851SOL     OW72993   7.660   1.719   0.493
23851SOL    HW172994   7.675   1.794   0.551
23851SOL    HW272995   7.742   1.710   0.444
23852SOL     OW72996   7.649   1.440   0.530
23852SOL    HW172997   7.643   1.535   0.546
23852SOL    HW272998   7.600   1.401   0.602
23853SOL     OW72999   7.698   1.089   0.892
23853SOL    HW173000   7.692   1.001   0.928
23853SOL    HW273001   7.642   1.143   0.949
23854SOL     OW73002   7.553   0.646   0.573
23854SOL    HW173003   7.521   0.559   0.598
23854SOL    HW273004   7.544   0.698   0.652
23855SOL     OW73005   7.470   1.516   0.139
23855SOL    HW173006   7.385   1.475   0.127
23855SOL    HW273007   7.452   1.594   0.191
23856SOL     OW73008   7.570   0.752   1.580
23856SOL    HW173009   7.659   0.787   1.585
23856SOL    HW273010   7.514   0.829   1.589
23857SOL     OW73011   7.635   0.954   1.290
23857SOL    HW173012   7.722   0.916   1.280
23857SOL    HW273013   7.583   0.916   1.220
23858SOL     OW73014   7.753   0.224   1.783
23858SOL    HW173015   7.823   0.282   1.814
23858SOL    HW273016   7.676   0.251   1.832
23859SOL     OW73017   7.525   0.827   0.774
23859SOL    HW173018   7.605   0.818   0.826
23859SOL    HW273019   7.479   0.901   0.814
23860SOL     OW73020   7.577   1.870   1.585
23860SOL    HW173021   7.575   1.852   1.679
23860SOL    HW273022   7.512   1.811   1.547
23861SOL     OW73023   8.003   0.273   0.923
23861SOL    HW173024   7.914   0.247   0.945
23861SOL    HW273025   7.994   0.358   0.882
23862SOL     OW73026   7.839   1.832   0.864
23862SOL    HW173027   7.898   1.776   0.915
23862SOL    HW273028   7.881   1.918   0.864
23863SOL     OW73029   7.751   1.006   0.251
23863SOL    HW173030   7.840   1.019   0.220
23863SOL    HW273031   7.727   0.918   0.220
23864SOL     OW73032   7.953   1.249   1.734
23864SOL    HW173033   7.908   1.255   1.649
23864SOL    HW273034   7.885   1.267   1.799
23865SOL     OW73035   7.626   0.253   1.497
23865SOL    HW173036   7.571   0.331   1.483
23865SOL    HW273037   7.631   0.244   1.592
23866SOL     OW73038   7.698   1.799   1.220
23866SOL    HW173039   7.735   1.714   1.244
23866SOL    HW273040   7.609   1.779   1.190
23867SOL     OW73041   7.789   0.667   0.434
23867SOL    HW173042   7.859   0.625   0.484
23867SOL    HW273043   7.712   0.660   0.490
23868SOL     OW73044   7.787   0.006   0.137
23868SOL    HW173045   7.802   0.076   0.201
23868SOL    HW273046   7.836  -0.068   0.171
23869SOL     OW73047   7.914   1.108   0.733
23869SOL    HW173048   7.845   1.101   0.799
23869SOL    HW273049   7.868   1.106   0.649
23870SOL     OW73050   7.543   0.556   1.396
23870SOL    HW173051   7.634   0.556   1.366
23870SOL    HW273052   7.538   0.628   1.459
23871SOL     OW73053   7.876   0.820   1.265
23871SOL    HW173054   7.950   0.831   1.326
23871SOL    HW273055   7.847   0.730   1.279
23872SOL     OW73056   7.521   1.568   1.372
23872SOL    HW173057   7.478   1.622   1.306
23872SOL    HW273058   7.614   1.568   1.347
23873SOL     OW73059   7.778   1.130   0.497
23873SOL    HW173060   7.779   1.219   0.460
23873SOL    HW273061   7.766   1.073   0.421
23874SOL     OW73062  -0.015   0.550   0.867
23874SOL    HW173063   0.020   0.630   0.827
23874SOL    HW273064   0.019   0.551   0.956
23875SOL     OW73065   7.783   1.538   1.294
23875SOL    HW173066   7.788   1.489   1.212
23875SOL    HW273067   7.874   1.559   1.315
23876SOL     OW73068   7.868   0.732   1.599
23876SOL    HW173069   7.953   0.775   1.591
23876SOL    HW273070   7.887   0.639   1.586
23877SOL     OW73071   7.957   0.106   1.625
23877SOL    HW173072   7.923   0.018   1.606
23877SOL    HW273073   7.896   0.141   1.690
23878SOL     OW73074   7.983   0.920   1.032
23878SOL    HW173075   8.004   1.013   1.039
23878SOL    HW273076   7.949   0.896   1.118
23879SOL     OW73077   7.742   0.212   1.231
23879SOL    HW173078   7.701   0.219   1.318
23879SOL    HW273079   7.763   0.119   1.222
23880SOL     OW73080   7.485   1.311   1.288
23880SOL    HW173081   7.518   1.254   1.358
23880SOL    HW273082   7.494   1.400   1.324
23881SOL     OW73083   7.813   0.048   0.699
23881SOL    HW173084   7.825   0.141   0.679
23881SOL    HW273085   7.725   0.029   0.668
23882SOL     OW73086   7.780   0.904   1.802
23882SOL    HW173087   7.855   0.936   1.852
23882SOL    HW273088   7.817   0.840   1.742
23883SOL     OW73089   7.738   0.816   0.948
23883SOL    HW173090   7.827   0.846   0.966
23883SOL    HW273091   7.738   0.724   0.976
23884SOL     OW73092   7.746   0.542   0.996
23884SOL    HW173093   7.721   0.450   0.988
23884SOL    HW273094   7.827   0.549   0.945
23885SOL     OW73095   7.555   1.819   0.861
23885SOL    HW173096   7.517   1.736   0.891
23885SOL    HW273097   7.649   1.809   0.876
23886SOL     OW73098   7.489   0.554   1.120
23886SOL    HW173099   7.571   0.560   1.071
23886SOL    HW273100   7.517   0.552   1.212
23887SOL     OW73101   7.640   0.528   1.721
23887SOL    HW173102   7.722   0.508   1.675
23887SOL    HW273103   7.605   0.605   1.676
23888SOL     OW73104   7.684   1.550   1.723
23888SOL    HW173105   7.669   1.600   1.803
23888SOL    HW273106   7.708   1.462   1.753
23889SOL     OW73107   7.884   0.461   0.180
23889SOL    HW173108   7.924   0.543   0.210
23889SOL    HW273109   7.816   0.489   0.118
23890SOL     OW73110   7.579   1.140   1.479
23890SOL    HW173111   7.579   1.095   1.563
23890SOL    HW273112   7.600   1.072   1.415
23891SOL     OW73113   7.544   1.262   1.033
23891SOL    HW173114   7.531   1.265   1.127
23891SOL    HW273115   7.464   1.299   0.996
23892SOL     OW73116   7.582   1.824   1.854
23892SOL    HW173117   7.539   1.745   1.888
23892SOL    HW273118   7.644   1.849   1.922
23893SOL     OW73119   7.741   0.338   0.704
23893SOL    HW173120   7.653   0.355   0.670
23893SOL    HW273121   7.727   0.318   0.797
23894SOL     OW73122   7.809   1.297   1.509
23894SOL    HW173123   7.804   1.370   1.447
23894SOL    HW273124   7.729   1.247   1.493
23895SOL     OW73125   0.003   1.518   0.438
23895SOL    HW173126   0.017   1.450   0.504
23895SOL    HW273127   0.052   1.593   0.469
23896SOL     OW73128   7.739   1.360   0.291
23896SOL    HW173129   7.656   1.345   0.246
23896SOL    HW273130   7.713   1.395   0.377
23897SOL     OW73131   7.550   1.023   1.720
23897SOL    HW173132   7.476   1.004   1.778
23897SOL    HW273133   7.625   0.984   1.763
23898SOL     OW73134   7.547   0.205   0.271
23898SOL    HW173135   7.504   0.274   0.321
23898SOL    HW273136   7.638   0.207   0.300
23899SOL     OW73137   7.840   1.757   1.576
23899SOL    HW173138   7.754   1.790   1.549
23899SOL    HW273139   7.823   1.668   1.608
23900SOL     OW73140   7.708   1.308   1.857
23900SOL    HW173141   7.632   1.251   1.847
23900SOL    HW273142   7.715   1.322   1.952
23901SOL     OW73143   7.529   1.210   0.671
23901SOL    HW173144   7.533   1.171   0.759
23901SOL    HW273145   7.606   1.177   0.626
23902SOL     OW73146   0.100   1.439   1.549
23902SOL    HW173147   0.055   1.373   1.602
23902SOL    HW273148   0.171   1.470   1.605
23903SOL     OW73149   7.792   0.557   1.293
23903SOL    HW173150   7.848   0.512   1.357
23903SOL    HW273151   7.819   0.522   1.209
23904SOL     OW73152   7.483   1.059   0.298
23904SOL    HW173153   7.576   1.058   0.276
23904SOL    HW273154   7.469   0.979   0.348
23905SOL     OW73155   7.659   0.601   1.998
23905SOL    HW173156   7.571   0.607   2.036
23905SOL    HW273157   7.646   0.612   1.904
23906SOL     OW73158   7.685   0.282   2.838
23906SOL    HW173159   7.704   0.254   2.928
23906SOL    HW273160   7.599   0.244   2.819
23907SOL     OW73161   7.464   0.396   2.501
23907SOL    HW173162   7.378   0.413   2.540
23907SOL    HW273163   7.469   0.300   2.494
23908SOL     OW73164   7.752   1.459   2.909
23908SOL    HW173165   7.674   1.407   2.895
23908SOL    HW273166   7.820   1.415   2.858
23909SOL     OW73167   7.869   0.406   3.396
23909SOL    HW173168   7.952   0.358   3.398
23909SOL    HW273169   7.802   0.338   3.385
23910SOL     OW73170   7.677   1.727   2.325
23910SOL    HW173171   7.692   1.800   2.385
23910SOL    HW273172   7.764   1.689   2.311
23911SOL     OW73173   7.659   1.435   2.385
23911SOL    HW173174   7.641   1.524   2.416
23911SOL    HW273175   7.617   1.379   2.450
23912SOL     OW73176   7.700   1.090   2.764
23912SOL    HW173177   7.694   1.003   2.803
23912SOL    HW273178   7.649   1.146   2.821
23913SOL     OW73179   7.573   0.656   2.423
23913SOL    HW173180   7.539   0.571   2.449
23913SOL    HW273181   7.561   0.711   2.500
23914SOL     OW73182   7.499   1.594   1.975
23914SOL    HW173183   7.485   1.500   1.989
23914SOL    HW273184   7.474   1.634   2.058
23915SOL     OW73185   7.571   0.743   3.438
23915SOL    HW173186   7.660   0.776   3.444
23915SOL    HW273187   7.516   0.818   3.460
23916SOL     OW73188   7.622   0.955   3.080
23916SOL    HW173189   7.709   0.921   3.099
23916SOL    HW273190   7.562   0.887   3.110
23917SOL     OW73191   7.760   0.219   3.669
23917SOL    HW173192   7.820   0.292   3.686
23917SOL    HW273193   7.676   0.249   3.702
23918SOL     OW73194   0.013   0.752   2.095
23918SOL    HW173195   0.068   0.824   2.126
23918SOL    HW273196  -0.048   0.735   2.167
23919SOL     OW73197   7.524   0.837   2.628
23919SOL    HW173198   7.605   0.824   2.677
23919SOL    HW273199   7.482   0.911   2.673
23920SOL     OW73200   7.570   1.856   3.445
23920SOL    HW173201   7.578   1.850   3.541
23920SOL    HW273202   7.506   1.789   3.423
23921SOL     OW73203   7.965   0.249   2.759
23921SOL    HW173204   7.885   0.247   2.811
23921SOL    HW273205   7.973   0.340   2.730
23922SOL     OW73206   7.812   1.822   2.732
23922SOL    HW173207   7.857   1.742   2.761
23922SOL    HW273208   7.876   1.891   2.746
23923SOL     OW73209   7.758   0.975   2.132
23923SOL    HW173210   7.851   0.996   2.127
23923SOL    HW273211   7.754   0.880   2.118
23924SOL     OW73212   7.954   1.236   3.608
23924SOL    HW173213   7.918   1.251   3.520
23924SOL    HW273214   7.881   1.258   3.667
23925SOL     OW73215   7.625   0.267   3.362
23925SOL    HW173216   7.574   0.338   3.322
23925SOL    HW273217   7.616   0.281   3.456
23926SOL     OW73218   7.723   1.800   3.094
23926SOL    HW173219   7.765   1.740   3.156
23926SOL    HW273220   7.668   1.744   3.039
23927SOL     OW73221   7.832   0.701   2.295
23927SOL    HW173222   7.894   0.663   2.357
23927SOL    HW273223   7.746   0.684   2.334
23928SOL     OW73224   0.037   0.075   1.951
23928SOL    HW173225   0.126   0.066   1.986
23928SOL    HW273226   0.037   0.161   1.908
23929SOL     OW73227   7.770   0.036   2.063
23929SOL    HW173228   7.851   0.056   2.016
23929SOL    HW273229   7.799  -0.004   2.145
23930SOL     OW73230   7.915   1.125   2.604
23930SOL    HW173231   7.846   1.108   2.668
23930SOL    HW273232   7.872   1.116   2.519
23931SOL     OW73233   7.541   0.550   3.252
23931SOL    HW173234   7.633   0.553   3.225
23931SOL    HW273235   7.534   0.620   3.317
23932SOL     OW73236   7.864   0.822   3.130
23932SOL    HW173237   7.925   0.843   3.200
23932SOL    HW273238   7.838   0.731   3.147
23933SOL     OW73239   7.523   1.584   3.176
23933SOL    HW173240   7.487   1.584   3.265
23933SOL    HW273241   7.616   1.568   3.188
23934SOL     OW73242   7.763   1.124   2.369
23934SOL    HW173243   7.778   1.205   2.320
23934SOL    HW273244   7.757   1.056   2.302
23935SOL     OW73245  -0.015   0.539   2.734
23935SOL    HW173246   0.020   0.617   2.690
23935SOL    HW273247   0.022   0.543   2.822
23936SOL     OW73248   7.792   1.528   3.175
23936SOL    HW173249   7.785   1.496   3.085
23936SOL    HW273250   7.884   1.551   3.186
23937SOL     OW73251   7.860   0.743   3.468
23937SOL    HW173252   7.933   0.804   3.451
23937SOL    HW273253   7.901   0.657   3.468
23938SOL     OW73254   7.959   0.097   3.521
23938SOL    HW173255   7.914   0.021   3.483
23938SOL    HW273256   7.894   0.138   3.578
23939SOL     OW73257   7.975   0.914   2.899
23939SOL    HW173258   8.020   0.997   2.919
23939SOL    HW273259   7.936   0.887   2.982
23940SOL     OW73260   7.747   0.218   3.094
23940SOL    HW173261   7.714   0.230   3.183
23940SOL    HW273262   7.805   0.142   3.100
23941SOL     OW73263   7.495   1.315   3.132
23941SOL    HW173264   7.460   1.278   3.213
23941SOL    HW273265   7.504   1.408   3.150
23942SOL     OW73266   7.760   0.071   2.512
23942SOL    HW173267   7.786   0.160   2.534
23942SOL    HW273268   7.833   0.016   2.541
23943SOL     OW73269   7.795   0.894   3.697
23943SOL    HW173270   7.871   0.953   3.697
23943SOL    HW273271   7.812   0.834   3.624
23944SOL     OW73272   7.744   0.808   2.789
23944SOL    HW173273   7.830   0.843   2.815
23944SOL    HW273274   7.741   0.721   2.829
23945SOL     OW73275   7.747   0.542   2.864
23945SOL    HW173276   7.719   0.451   2.856
23945SOL    HW273277   7.828   0.547   2.814
23946SOL     OW73278   7.458   1.316   2.047
23946SOL    HW173279   7.369   1.335   2.017
23946SOL    HW273280   7.453   1.228   2.084
23947SOL     OW73281   7.539   1.785   2.792
23947SOL    HW173282   7.513   1.702   2.751
23947SOL    HW273283   7.633   1.792   2.775
23948SOL     OW73284   7.487   0.548   2.980
23948SOL    HW173285   7.570   0.561   2.932
23948SOL    HW273286   7.513   0.548   3.072
23949SOL     OW73287   7.642   0.502   3.558
23949SOL    HW173288   7.730   0.503   3.518
23949SOL    HW273289   7.602   0.584   3.528
23950SOL     OW73290   0.218   0.514   2.160
23950SOL    HW173291   0.188   0.423   2.173
23950SOL    HW273292   0.185   0.561   2.236
23951SOL     OW73293   7.692   1.552   3.581
23951SOL    HW173294   7.668   1.601   3.660
23951SOL    HW273295   7.710   1.464   3.612
23952SOL     OW73296   7.910   0.491   2.012
23952SOL    HW173297   7.965   0.561   2.049
23952SOL    HW273298   7.821   0.526   2.019
23953SOL     OW73299   7.663   1.102   3.334
23953SOL    HW173300   7.597   1.089   3.402
23953SOL    HW273301   7.618   1.080   3.252
23954SOL     OW73302   7.536   1.277   2.874
23954SOL    HW173303   7.525   1.284   2.969
23954SOL    HW273304   7.462   1.224   2.845
23955SOL     OW73305   7.597   1.817   3.710
23955SOL    HW173306   7.551   1.743   3.750
23955SOL    HW273307   7.647   1.856   3.782
23956SOL     OW73308   7.741   0.345   2.573
23956SOL    HW173309   7.659   0.382   2.541
23956SOL    HW273310   7.724   0.327   2.665
23957SOL     OW73311   7.835   1.307   3.375
23957SOL    HW173312   7.806   1.376   3.315
23957SOL    HW273313   7.774   1.235   3.359
23958SOL     OW73314  -0.005   1.555   2.283
23958SOL    HW173315   0.006   1.482   2.344
23958SOL    HW273316   0.065   1.616   2.306
23959SOL     OW73317   7.714   1.347   2.137
23959SOL    HW173318   7.622   1.338   2.113
23959SOL    HW273319   7.713   1.391   2.222
23960SOL     OW73320   7.555   0.986   3.585
23960SOL    HW173321   7.478   0.980   3.642
23960SOL    HW273322   7.629   0.968   3.643
23961SOL     OW73323   7.522   0.336   1.883
23961SOL    HW173324   7.440   0.337   1.833
23961SOL    HW273325   7.568   0.415   1.853
23962SOL     OW73326   7.515   0.150   2.106
23962SOL    HW173327   7.525   0.237   2.069
23962SOL    HW273328   7.603   0.112   2.105
23963SOL     OW73329   7.829   1.755   3.427
23963SOL    HW173330   7.741   1.791   3.416
23963SOL    HW273331   7.814   1.669   3.467
23964SOL     OW73332   7.706   1.307   3.714
23964SOL    HW173333   7.622   1.264   3.695
23964SOL    HW273334   7.703   1.322   3.808
23965SOL     OW73335   7.553   1.217   2.531
23965SOL    HW173336   7.568   1.182   2.618
23965SOL    HW273337   7.618   1.174   2.476
23966SOL     OW73338   0.111   1.441   3.395
23966SOL    HW173339   0.048   1.387   3.442
23966SOL    HW273340   0.175   1.467   3.462
23967SOL     OW73341   7.794   0.556   3.161
23967SOL    HW173342   7.854   0.513   3.221
23967SOL    HW273343   7.823   0.527   3.074
23968SOL     OW73344   7.488   1.060   2.163
23968SOL    HW173345   7.581   1.052   2.145
23968SOL    HW273346   7.460   0.972   2.187
23969SOL     OW73347   7.658   0.583   3.854
23969SOL    HW173348   7.576   0.588   3.902
23969SOL    HW273349   7.646   0.642   3.780
23970SOL     OW73350   7.691   0.282   4.698
23970SOL    HW173351   7.710   0.258   4.789
23970SOL    HW273352   7.602   0.249   4.684
23971SOL     OW73353   7.468   0.388   4.364
23971SOL    HW173354   7.379   0.411   4.392
23971SOL    HW273355   7.466   0.293   4.354
23972SOL     OW73356   7.762   1.446   4.775
23972SOL    HW173357   7.681   1.395   4.770
23972SOL    HW273358   7.795   1.447   4.685
23973SOL     OW73359   7.850   0.396   5.301
23973SOL    HW173360   7.938   0.373   5.273
23973SOL    HW273361   7.793   0.341   5.247
23974SOL     OW73362   7.676   1.725   4.182
23974SOL    HW173363   7.691   1.799   4.240
23974SOL    HW273364   7.759   1.678   4.181
23975SOL     OW73365   7.680   1.421   4.256
23975SOL    HW173366   7.639   1.506   4.272
23975SOL    HW273367   7.632   1.360   4.311
23976SOL     OW73368   7.747   1.104   4.655
23976SOL    HW173369   7.706   1.017   4.655
23976SOL    HW273370   7.676   1.163   4.633
23977SOL     OW73371   7.574   0.650   4.281
23977SOL    HW173372   7.538   0.564   4.304
23977SOL    HW273373   7.560   0.703   4.359
23978SOL     OW73374   7.503   1.591   3.829
23978SOL    HW173375   7.484   1.499   3.847
23978SOL    HW273376   7.471   1.638   3.907
23979SOL     OW73377   7.553   0.737   5.309
23979SOL    HW173378   7.641   0.776   5.313
23979SOL    HW273379   7.495   0.812   5.296
23980SOL     OW73380   7.627   0.948   5.022
23980SOL    HW173381   7.715   0.912   5.016
23980SOL    HW273382   7.595   0.949   4.932
23981SOL     OW73383   7.785   0.244   5.580
23981SOL    HW173384   7.817   0.325   5.541
23981SOL    HW273385   7.691   0.259   5.592
23982SOL     OW73386   8.010   0.743   3.963
23982SOL    HW173387   8.029   0.836   3.973
23982SOL    HW273388   7.951   0.723   4.036
23983SOL     OW73389   7.530   0.798   4.505
23983SOL    HW173390   7.613   0.801   4.553
23983SOL    HW273391   7.477   0.866   4.545
23984SOL     OW73392   7.572   1.872   5.310
23984SOL    HW173393   7.581   1.847   5.402
23984SOL    HW273394   7.483   1.845   5.286
23985SOL     OW73395   7.969   0.266   4.633
23985SOL    HW173396   7.879   0.257   4.666
23985SOL    HW273397   7.971   0.352   4.592
23986SOL     OW73398   7.820   1.834   4.597
23986SOL    HW173399   7.885   1.771   4.630
23986SOL    HW273400   7.865   1.918   4.601
23987SOL     OW73401   7.754   0.979   3.975
23987SOL    HW173402   7.849   0.996   3.972
23987SOL    HW273403   7.740   0.914   3.907
23988SOL     OW73404   7.950   1.234   5.467
23988SOL    HW173405   7.912   1.243   5.380
23988SOL    HW273406   7.880   1.261   5.527
23989SOL     OW73407   7.612   0.265   5.207
23989SOL    HW173408   7.578   0.339   5.156
23989SOL    HW273409   7.579   0.279   5.295
23990SOL     OW73410   7.705   1.788   4.951
23990SOL    HW173411   7.750   1.713   4.989
23990SOL    HW273412   7.684   1.760   4.862
23991SOL     OW73413   7.836   0.678   4.166
23991SOL    HW173414   7.879   0.629   4.236
23991SOL    HW273415   7.744   0.680   4.191
23992SOL     OW73416   0.047   0.067   3.819
23992SOL    HW173417   0.132   0.061   3.861
23992SOL    HW273418   0.049   0.150   3.771
23993SOL     OW73419   7.751  -0.013   3.868
23993SOL    HW173420   7.783   0.061   3.816
23993SOL    HW273421   7.812  -0.019   3.941
23994SOL     OW73422   7.944   1.078   4.464
23994SOL    HW173423   7.874   1.090   4.528
23994SOL    HW273424   7.900   1.083   4.379
23995SOL     OW73425   7.561   0.542   5.120
23995SOL    HW173426   7.650   0.554   5.089
23995SOL    HW273427   7.547   0.614   5.182
23996SOL     OW73428   7.878   0.828   5.026
23996SOL    HW173429   7.973   0.836   5.021
23996SOL    HW273430   7.860   0.735   5.013
23997SOL     OW73431   7.522   1.566   5.080
23997SOL    HW173432   7.494   1.640   5.026
23997SOL    HW273433   7.617   1.564   5.071
23998SOL     OW73434   7.828   1.107   4.216
23998SOL    HW173435   7.763   1.174   4.238
23998SOL    HW273436   7.784   1.052   4.151
23999SOL     OW73437  -0.015   0.552   4.597
23999SOL    HW173438   0.019   0.629   4.551
23999SOL    HW273439   0.026   0.556   4.683
24000SOL     OW73440   7.789   1.527   5.033
24000SOL    HW173441   7.788   1.489   4.945
24000SOL    HW273442   7.881   1.550   5.048
24001SOL     OW73443   7.835   0.761   5.319
24001SOL    HW173444   7.861   0.812   5.243
24001SOL    HW273445   7.904   0.695   5.328
24002SOL     OW73446   7.953   0.085   5.415
24002SOL    HW173447   7.907   0.019   5.364
24002SOL    HW273448   7.884   0.131   5.463
24003SOL     OW73449   7.986   0.924   4.769
24003SOL    HW173450   8.004   1.015   4.744
24003SOL    HW273451   7.925   0.931   4.843
24004SOL     OW73452   7.751   0.216   4.954
24004SOL    HW173453   7.702   0.212   5.036
24004SOL    HW273454   7.773   0.125   4.934
24005SOL     OW73455   7.460   1.308   5.015
24005SOL    HW173456   7.511   1.256   5.077
24005SOL    HW273457   7.482   1.398   5.036
24006SOL     OW73458   7.760   0.061   4.379
24006SOL    HW173459   7.816   0.139   4.378
24006SOL    HW273460   7.812  -0.004   4.428
24007SOL     OW73461   7.799   0.912   5.548
24007SOL    HW173462   7.876   0.968   5.542
24007SOL    HW273463   7.809   0.848   5.478
24008SOL     OW73464   7.749   0.812   4.670
24008SOL    HW173465   7.839   0.842   4.679
24008SOL    HW273466   7.750   0.721   4.699
24009SOL     OW73467   7.755   0.541   4.735
24009SOL    HW173468   7.722   0.453   4.719
24009SOL    HW273469   7.833   0.548   4.680
24010SOL     OW73470   7.459   1.318   3.907
24010SOL    HW173471   7.369   1.337   3.879
24010SOL    HW273472   7.454   1.230   3.943
24011SOL     OW73473   7.548   1.779   4.673
24011SOL    HW173474   7.516   1.702   4.626
24011SOL    HW273475   7.635   1.795   4.636
24012SOL     OW73476   7.484   0.540   4.847
24012SOL    HW173477   7.558   0.561   4.789
24012SOL    HW273478   7.521   0.544   4.935
24013SOL     OW73479   7.644   0.515   5.447
24013SOL    HW173480   7.721   0.491   5.396
24013SOL    HW273481   7.605   0.589   5.401
24014SOL     OW73482   0.223   0.502   4.027
24014SOL    HW173483   0.183   0.418   4.047
24014SOL    HW273484   0.198   0.559   4.099
24015SOL     OW73485   7.688   1.550   5.433
24015SOL    HW173486   7.673   1.623   5.493
24015SOL    HW273487   7.712   1.477   5.489
24016SOL     OW73488   7.913   0.485   3.877
24016SOL    HW173489   7.963   0.558   3.912
24016SOL    HW273490   7.822   0.515   3.878
24017SOL     OW73491   7.577   1.141   5.206
24017SOL    HW173492   7.579   1.097   5.291
24017SOL    HW273493   7.592   1.071   5.142
24018SOL     OW73494   7.535   1.305   4.749
24018SOL    HW173495   7.492   1.294   4.834
24018SOL    HW273496   7.480   1.256   4.688
24019SOL     OW73497   7.605   1.784   5.566
24019SOL    HW173498   7.553   1.720   5.615
24019SOL    HW273499   7.649   1.835   5.634
24020SOL     OW73500   7.741   0.351   4.432
24020SOL    HW173501   7.656   0.378   4.398
24020SOL    HW273502   7.723   0.322   4.521
24021SOL     OW73503   7.814   1.288   5.238
24021SOL    HW173504   7.816   1.365   5.181
24021SOL    HW273505   7.731   1.245   5.218
24022SOL     OW73506  -0.008   1.567   4.133
24022SOL    HW173507  -0.016   1.498   4.198
24022SOL    HW273508   0.060   1.625   4.166
24023SOL     OW73509   7.716   1.354   3.993
24023SOL    HW173510   7.622   1.347   3.975
24023SOL    HW273511   7.721   1.383   4.084
24024SOL     OW73512   7.562   1.025   5.454
24024SOL    HW173513   7.486   1.003   5.507
24024SOL    HW273514   7.636   0.986   5.501
24025SOL     OW73515   7.524   0.328   3.749
24025SOL    HW173516   7.430   0.347   3.749
24025SOL    HW273517   7.564   0.406   3.711
24026SOL     OW73518   7.497   0.169   3.995
24026SOL    HW173519   7.511   0.247   3.941
24026SOL    HW273520   7.585   0.146   4.026
24027SOL     OW73521   7.831   1.758   5.287
24027SOL    HW173522   7.746   1.799   5.268
24027SOL    HW273523   7.809   1.670   5.317
24028SOL     OW73524   7.705   1.306   5.584
24028SOL    HW173525   7.633   1.259   5.541
24028SOL    HW273526   7.673   1.323   5.672
24029SOL     OW73527   0.102   1.434   5.273
24029SOL    HW173528   0.052   1.379   5.333
24029SOL    HW273529   0.175   1.467   5.326
24030SOL     OW73530   7.806   0.560   5.007
24030SOL    HW173531   7.881   0.506   5.031
24030SOL    HW273532   7.797   0.548   4.912
24031SOL     OW73533   7.487   1.062   4.020
24031SOL    HW173534   7.581   1.053   4.006
24031SOL    HW273535   7.457   0.974   4.042
24032SOL     OW73536   7.653   0.601   5.717
24032SOL    HW173537   7.565   0.621   5.749
24032SOL    HW273538   7.643   0.599   5.621
24033SOL     OW73539   7.693   0.286   6.568
24033SOL    HW173540   7.712   0.259   6.658
24033SOL    HW273541   7.606   0.250   6.550
24034SOL     OW73542   7.468   0.383   6.230
24034SOL    HW173543   7.381   0.404   6.263
24034SOL    HW273544   7.465   0.289   6.213
24035SOL     OW73545   7.761   1.438   6.638
24035SOL    HW173546   7.685   1.381   6.627
24035SOL    HW273547   7.790   1.457   6.549
24036SOL     OW73548   7.853   0.423   7.124
24036SOL    HW173549   7.944   0.397   7.135
24036SOL    HW273550   7.807   0.341   7.106
24037SOL     OW73551   7.674   1.710   6.056
24037SOL    HW173552   7.682   1.787   6.111
24037SOL    HW273553   7.753   1.711   6.001
24038SOL     OW73554   7.638   1.451   6.144
24038SOL    HW173555   7.658   1.538   6.110
24038SOL    HW273556   7.589   1.466   6.224
24039SOL     OW73557   7.675   1.090   6.462
24039SOL    HW173558   7.690   1.007   6.507
24039SOL    HW273559   7.630   1.144   6.526
24040SOL     OW73560   7.576   0.634   6.156
24040SOL    HW173561   7.540   0.547   6.175
24040SOL    HW273562   7.561   0.684   6.236
24041SOL     OW73563   7.495   1.586   5.710
24041SOL    HW173564   7.475   1.495   5.734
24041SOL    HW273565   7.465   1.638   5.784
24042SOL     OW73566   7.569   0.749   7.166
24042SOL    HW173567   7.661   0.776   7.168
24042SOL    HW273568   7.520   0.830   7.179
24043SOL     OW73569   7.638   0.957   6.876
24043SOL    HW173570   7.726   0.921   6.869
24043SOL    HW273571   7.585   0.903   6.818
24044SOL     OW73572   7.779   0.265   7.404
24044SOL    HW173573   7.830   0.334   7.447
24044SOL    HW273574   7.692   0.271   7.444
24045SOL     OW73575   8.004   0.731   5.840
24045SOL    HW173576   8.030   0.823   5.837
24045SOL    HW273577   7.942   0.726   5.913
24046SOL     OW73578   7.524   0.842   6.341
24046SOL    HW173579   7.605   0.834   6.391
24046SOL    HW273580   7.463   0.885   6.400
24047SOL     OW73581   7.579   1.869   7.171
24047SOL    HW173582   7.586   1.846   7.264
24047SOL    HW273583   7.489   1.845   7.147
24048SOL     OW73584   7.965   0.261   6.507
24048SOL    HW173585   7.875   0.256   6.539
24048SOL    HW273586   7.970   0.346   6.463
24049SOL     OW73587   7.805   1.824   6.463
24049SOL    HW173588   7.879   1.764   6.470
24049SOL    HW273589   7.845   1.911   6.466
24050SOL     OW73590   7.761   0.975   5.838
24050SOL    HW173591   7.854   0.997   5.830
24050SOL    HW273592   7.746   0.908   5.772
24051SOL     OW73593   7.936   1.241   7.322
24051SOL    HW173594   7.898   1.249   7.235
24051SOL    HW273595   7.863   1.261   7.381
24052SOL     OW73596   7.619   0.245   7.087
24052SOL    HW173597   7.569   0.326   7.078
24052SOL    HW273598   7.632   0.234   7.181
24053SOL     OW73599   7.697   1.784   6.811
24053SOL    HW173600   7.747   1.710   6.844
24053SOL    HW273601   7.690   1.768   6.717
24054SOL     OW73602   7.828   0.695   6.044
24054SOL    HW173603   7.886   0.647   6.104
24054SOL    HW273604   7.740   0.672   6.074
24055SOL     OW73605   0.016   0.059   5.690
24055SOL    HW173606   0.104   0.033   5.716
24055SOL    HW273607   0.022   0.075   5.596
24056SOL     OW73608   7.910   1.106   6.321
24056SOL    HW173609   7.833   1.099   6.377
24056SOL    HW273610   7.874   1.107   6.232
24057SOL     OW73611   7.542   0.554   6.982
24057SOL    HW173612   7.633   0.555   6.952
24057SOL    HW273613   7.537   0.626   7.045
24058SOL     OW73614   7.880   0.825   6.857
24058SOL    HW173615   7.964   0.831   6.900
24058SOL    HW273616   7.851   0.735   6.870
24059SOL     OW73617   7.527   1.576   6.948
24059SOL    HW173618   7.503   1.653   6.896
24059SOL    HW273619   7.623   1.570   6.939
24060SOL     OW73620   7.798   1.121   6.071
24060SOL    HW173621   7.784   1.200   6.019
24060SOL    HW273622   7.783   1.049   6.010
24061SOL     OW73623  -0.018   0.551   6.456
24061SOL    HW173624   0.022   0.628   6.415
24061SOL    HW273625   0.019   0.550   6.545
24062SOL     OW73626   7.795   1.531   6.896
24062SOL    HW173627   7.797   1.488   6.810
24062SOL    HW273628   7.886   1.553   6.914
24063SOL     OW73629   7.853   0.737   7.188
24063SOL    HW173630   7.935   0.784   7.172
24063SOL    HW273631   7.875   0.645   7.177
24064SOL     OW73632   7.886   0.099   7.212
24064SOL    HW173633   7.819   0.032   7.228
24064SOL    HW273634   7.873   0.163   7.282
24065SOL     OW73635   7.971   0.923   6.615
24065SOL    HW173636   8.001   1.014   6.620
24065SOL    HW273637   7.944   0.902   6.704
24066SOL     OW73638   7.746   0.204   6.819
24066SOL    HW173639   7.697   0.208   6.901
24066SOL    HW273640   7.746   0.111   6.796
24067SOL     OW73641   7.503   1.315   6.870
24067SOL    HW173642   7.531   1.260   6.943
24067SOL    HW273643   7.505   1.404   6.904
24068SOL     OW73644   7.761   0.065   6.220
24068SOL    HW173645   7.827   0.128   6.248
24068SOL    HW273646   7.790  -0.018   6.257
24069SOL     OW73647   7.798   0.915   7.400
24069SOL    HW173648   7.882   0.961   7.397
24069SOL    HW273649   7.811   0.839   7.342
24070SOL     OW73650   7.733   0.823   6.524
24070SOL    HW173651   7.822   0.852   6.544
24070SOL    HW273652   7.731   0.731   6.551
24071SOL     OW73653   7.741   0.551   6.578
24071SOL    HW173654   7.717   0.458   6.574
24071SOL    HW273655   7.823   0.556   6.530
24072SOL     OW73656   7.467   1.313   5.780
24072SOL    HW173657   7.379   1.332   5.746
24072SOL    HW273658   7.462   1.222   5.808
24073SOL     OW73659   7.543   1.766   6.529
24073SOL    HW173660   7.519   1.692   6.473
24073SOL    HW273661   7.631   1.791   6.499
24074SOL     OW73662   7.488   0.563   6.706
24074SOL    HW173663   7.570   0.566   6.657
24074SOL    HW273664   7.515   0.555   6.798
24075SOL     OW73665   7.631   0.525   7.313
24075SOL    HW173666   7.709   0.499   7.265
24075SOL    HW273667   7.598   0.601   7.266
24076SOL     OW73668   0.208   0.506   5.888
24076SOL    HW173669   0.171   0.423   5.918
24076SOL    HW273670   0.182   0.569   5.955
24077SOL     OW73671   7.678   1.539   7.308
24077SOL    HW173672   7.660   1.605   7.375
24077SOL    HW273673   7.697   1.459   7.357
24078SOL     OW73674   7.898   0.486   5.753
24078SOL    HW173675   7.950   0.559   5.787
24078SOL    HW273676   7.809   0.522   5.745
24079SOL     OW73677   7.582   1.141   7.067
24079SOL    HW173678   7.582   1.093   7.150
24079SOL    HW273679   7.602   1.075   7.001
24080SOL     OW73680   7.532   1.261   6.612
24080SOL    HW173681   7.527   1.272   6.707
24080SOL    HW273682   7.443   1.280   6.581
24081SOL     OW73683   7.602   1.791   7.430
24081SOL    HW173684   7.549   1.726   7.476
24081SOL    HW273685   7.646   1.840   7.499
24082SOL     OW73686   7.745   0.354   6.301
24082SOL    HW173687   7.658   0.372   6.266
24082SOL    HW273688   7.728   0.325   6.391
24083SOL     OW73689   7.813   1.300   7.089
24083SOL    HW173690   7.801   1.376   7.032
24083SOL    HW273691   7.734   1.248   7.077
24084SOL     OW73692  -0.017   1.561   6.006
24084SOL    HW173693   0.039   1.493   6.044
24084SOL    HW273694   0.022   1.643   6.035
24085SOL     OW73695   7.719   1.330   5.900
24085SOL    HW173696   7.630   1.334   5.865
24085SOL    HW273697   7.718   1.390   5.975
24086SOL     OW73698   7.556   1.012   7.305
24086SOL    HW173699   7.481   0.998   7.363
24086SOL    HW273700   7.632   0.983   7.355
24087SOL     OW73701   7.525   0.324   5.612
24087SOL    HW173702   7.439   0.308   5.573
24087SOL    HW273703   7.557   0.403   5.568
24088SOL     OW73704   7.638   0.212   5.857
24088SOL    HW173705   7.580   0.248   5.791
24088SOL    HW273706   7.583   0.200   5.934
24089SOL     OW73707   7.816   1.714   7.153
24089SOL    HW173708   7.742   1.767   7.123
24089SOL    HW273709   7.777   1.638   7.195
24090SOL     OW73710   7.702   1.305   7.452
24090SOL    HW173711   7.618   1.260   7.443
24090SOL    HW273712   7.713   1.318   7.546
24091SOL     OW73713   7.547   1.168   6.231
24091SOL    HW173714   7.595   1.147   6.312
24091SOL    HW273715   7.607   1.223   6.181
24092SOL     OW73716   0.064   1.487   7.203
24092SOL    HW173717   0.019   1.404   7.217
24092SOL    HW273718   0.154   1.471   7.230
24093SOL     OW73719   7.792   0.562   6.879
24093SOL    HW173720   7.845   0.514   6.942
24093SOL    HW273721   7.823   0.530   6.794
24094SOL     OW73722   7.499   1.061   5.901
24094SOL    HW173723   7.592   1.056   5.877
24094SOL    HW273724   7.467   0.971   5.893
24095SOL     OW73725   7.656   0.608   7.581
24095SOL    HW173726   7.568   0.609   7.619
24095SOL    HW273727   7.642   0.597   7.487
24096SOL     OW73728   7.688   0.292   8.437
24096SOL    HW173729   7.711   0.256   8.523
24096SOL    HW273730   7.602   0.256   8.418
24097SOL     OW73731   7.475   0.380   8.093
24097SOL    HW173732   7.400   0.374   8.152
24097SOL    HW273733   7.484   0.293   8.056
24098SOL     OW73734   7.751   1.445   8.510
24098SOL    HW173735   7.683   1.386   8.477
24098SOL    HW273736   7.803   1.467   8.432
24099SOL     OW73737   7.850   0.435   9.005
24099SOL    HW173738   7.934   0.459   8.965
24099SOL    HW273739   7.834   0.346   8.975
24100SOL     OW73740   7.655   1.713   7.935
24100SOL    HW173741   7.635   1.789   7.990
24100SOL    HW273742   7.751   1.713   7.929
24101SOL     OW73743   7.655   1.441   7.972
24101SOL    HW173744   7.657   1.536   7.962
24101SOL    HW273745   7.613   1.427   8.057
24102SOL     OW73746   7.693   1.092   8.329
24102SOL    HW173747   7.697   1.005   8.370
24102SOL    HW273748   7.644   1.146   8.391
24103SOL     OW73749   7.571   0.648   8.017
24103SOL    HW173750   7.540   0.560   8.037
24103SOL    HW273751   7.559   0.698   8.098
24104SOL     OW73752   7.491   1.586   7.565
24104SOL    HW173753   7.475   1.494   7.589
24104SOL    HW273754   7.465   1.635   7.643
24105SOL     OW73755   7.570   0.752   9.039
24105SOL    HW173756   7.665   0.767   9.044
24105SOL    HW273757   7.531   0.835   9.066
24106SOL     OW73758   7.600   0.946   8.720
24106SOL    HW173759   7.681   0.903   8.748
24106SOL    HW273760   7.597   0.934   8.625
24107SOL     OW73761   7.746   0.239   9.222
24107SOL    HW173762   7.809   0.305   9.253
24107SOL    HW273763   7.684   0.230   9.294
24108SOL     OW73764   0.014   0.738   7.697
24108SOL    HW173765   0.036   0.831   7.704
24108SOL    HW273766  -0.048   0.722   7.768
24109SOL     OW73767   7.527   0.812   8.237
24109SOL    HW173768   7.607   0.816   8.290
24109SOL    HW273769   7.476   0.888   8.264
24110SOL     OW73770   7.569   1.866   9.032
24110SOL    HW173771   7.576   1.850   9.126
24110SOL    HW273772   7.501   1.805   9.003
24111SOL     OW73773   7.972   0.265   8.370
24111SOL    HW173774   7.883   0.256   8.405
24111SOL    HW273775   7.972   0.348   8.323
24112SOL     OW73776   7.827   1.815   8.335
24112SOL    HW173777   7.855   1.788   8.248
24112SOL    HW273778   7.864   1.902   8.346
24113SOL     OW73779   7.756   0.977   7.709
24113SOL    HW173780   7.848   0.997   7.692
24113SOL    HW273781   7.739   0.897   7.659
24114SOL     OW73782   7.927   1.269   9.202
24114SOL    HW173783   7.891   1.269   9.114
24114SOL    HW273784   7.850   1.278   9.259
24115SOL     OW73785   7.638   0.221   8.965
24115SOL    HW173786   7.583   0.298   8.955
24115SOL    HW273787   7.672   0.226   9.055
24116SOL     OW73788   7.709   1.785   8.655
24116SOL    HW173789   7.753   1.709   8.694
24116SOL    HW273790   7.704   1.765   8.562
24117SOL     OW73791   7.831   0.690   7.898
24117SOL    HW173792   7.880   0.635   7.958
24117SOL    HW273793   7.740   0.682   7.927
24118SOL     OW73794   0.042   0.074   7.540
24118SOL    HW173795   0.128   0.063   7.579
24118SOL    HW273796   0.047   0.158   7.495
24119SOL     OW73797   7.743   0.048   7.642
24119SOL    HW173798   7.808   0.082   7.580
24119SOL    HW273799   7.795  -0.001   7.705
24120SOL     OW73800   7.921   1.091   8.180
24120SOL    HW173801   7.847   1.092   8.241
24120SOL    HW273802   7.881   1.100   8.094
24121SOL     OW73803   7.549   0.550   8.855
24121SOL    HW173804   7.638   0.547   8.819
24121SOL    HW273805   7.549   0.624   8.915
24122SOL     OW73806   7.822   0.812   8.789
24122SOL    HW173807   7.913   0.837   8.772
24122SOL    HW273808   7.815   0.723   8.754
24123SOL     OW73809   7.527   1.571   8.804
24123SOL    HW173810   7.502   1.639   8.741
24123SOL    HW273811   7.622   1.565   8.797
24124SOL     OW73812   7.783   1.126   7.944
24124SOL    HW173813   7.781   1.208   7.895
24124SOL    HW273814   7.769   1.058   7.877
24125SOL     OW73815  -0.016   0.553   8.318
24125SOL    HW173816   0.023   0.629   8.276
24125SOL    HW273817   0.022   0.551   8.406
24126SOL     OW73818   7.793   1.539   8.760
24126SOL    HW173819   7.788   1.494   8.676
24126SOL    HW273820   7.886   1.557   8.772
24127SOL     OW73821   7.840   0.775   9.059
24127SOL    HW173822   7.845   0.799   8.967
24127SOL    HW273823   7.911   0.711   9.071
24128SOL     OW73824   7.950   0.067   9.150
24128SOL    HW173825   7.920  -0.012   9.106
24128SOL    HW273826   7.870   0.116   9.169
24129SOL     OW73827  -0.015   0.901   8.498
24129SOL    HW173828   0.055   0.930   8.439
24129SOL    HW273829   0.029   0.887   8.582
24130SOL     OW73830   7.748   0.194   8.684
24130SOL    HW173831   7.713   0.194   8.773
24130SOL    HW273832   7.773   0.103   8.668
24131SOL     OW73833   7.457   1.315   8.732
24131SOL    HW173834   7.506   1.258   8.792
24131SOL    HW273835   7.485   1.403   8.755
24132SOL     OW73836   7.761   0.064   8.093
24132SOL    HW173837   7.828   0.131   8.109
24132SOL    HW273838   7.792  -0.013   8.141
24133SOL     OW73839   7.816   0.960   9.269
24133SOL    HW173840   7.891   1.017   9.251
24133SOL    HW273841   7.827   0.886   9.208
24134SOL     OW73842   7.732   0.833   8.430
24134SOL    HW173843   7.821   0.859   8.450
24134SOL    HW273844   7.733   0.737   8.436
24135SOL     OW73845   7.744   0.554   8.442
24135SOL    HW173846   7.719   0.462   8.436
24135SOL    HW273847   7.824   0.560   8.390
24136SOL     OW73848   7.457   1.312   7.639
24136SOL    HW173849   7.370   1.331   7.606
24136SOL    HW273850   7.450   1.223   7.675
24137SOL     OW73851   7.557   1.772   8.393
24137SOL    HW173852   7.523   1.699   8.342
24137SOL    HW273853   7.644   1.788   8.357
24138SOL     OW73854   7.469   0.568   8.565
24138SOL    HW173855   7.530   0.572   8.492
24138SOL    HW273856   7.523   0.548   8.641
24139SOL     OW73857   7.644   0.526   9.184
24139SOL    HW173858   7.716   0.495   9.129
24139SOL    HW273859   7.603   0.596   9.133
24140SOL     OW73860   0.220   0.505   7.754
24140SOL    HW173861   0.188   0.418   7.775
24140SOL    HW273862   0.185   0.561   7.823
24141SOL     OW73863   7.670   1.547   9.164
24141SOL    HW173864   7.688   1.614   9.230
24141SOL    HW273865   7.700   1.465   9.204
24142SOL     OW73866   7.907   0.493   7.592
24142SOL    HW173867   7.962   0.562   7.629
24142SOL    HW273868   7.818   0.527   7.598
24143SOL     OW73869   7.568   1.134   8.913
24143SOL    HW173870   7.583   1.088   8.996
24143SOL    HW273871   7.586   1.068   8.846
24144SOL     OW73872   7.526   1.264   8.467
24144SOL    HW173873   7.495   1.279   8.556
24144SOL    HW273874   7.460   1.207   8.428
24145SOL     OW73875   7.587   1.805   9.295
24145SOL    HW173876   7.548   1.729   9.338
24145SOL    HW273877   7.642   1.845   9.363
24146SOL     OW73878   7.748   0.355   8.168
24146SOL    HW173879   7.663   0.373   8.129
24146SOL    HW273880   7.728   0.322   8.256
24147SOL     OW73881   7.796   1.297   8.969
24147SOL    HW173882   7.832   1.354   8.902
24147SOL    HW273883   7.726   1.249   8.924
24148SOL     OW73884   7.981   1.550   7.864
24148SOL    HW173885   8.044   1.497   7.913
24148SOL    HW273886   7.971   1.629   7.917
24149SOL     OW73887   7.716   1.335   7.731
24149SOL    HW173888   7.623   1.332   7.707
24149SOL    HW273889   7.718   1.387   7.811
24150SOL     OW73890   7.559   1.016   9.166
24150SOL    HW173891   7.486   1.002   9.226
24150SOL    HW273892   7.637   0.994   9.217
24151SOL     OW73893   7.521   0.333   7.484
24151SOL    HW173894   7.436   0.313   7.446
24151SOL    HW273895   7.553   0.408   7.435
24152SOL     OW73896   7.501   0.178   7.731
24152SOL    HW173897   7.506   0.247   7.664
24152SOL    HW273898   7.583   0.129   7.721
24153SOL     OW73899   7.837   1.761   9.008
24153SOL    HW173900   7.746   1.786   8.997
24153SOL    HW273901   7.836   1.666   9.011
24154SOL     OW73902   7.665   1.293   9.302
24154SOL    HW173903   7.625   1.233   9.238
24154SOL    HW273904   7.596   1.307   9.367
24155SOL     OW73905   7.537   1.215   8.122
24155SOL    HW173906   7.582   1.168   8.193
24155SOL    HW273907   7.597   1.209   8.047
24156SOL     OW73908   0.078   1.447   9.021
24156SOL    HW173909   0.037   1.389   9.085
24156SOL    HW273910   0.162   1.471   9.061
24157SOL     OW73911   7.786   0.549   8.717
24157SOL    HW173912   7.855   0.488   8.743
24157SOL    HW273913   7.788   0.547   8.621
24158SOL     OW73914   7.485   1.060   7.762
24158SOL    HW173915   7.578   1.052   7.738
24158SOL    HW273916   7.459   0.970   7.784
24159SOL     OW73917   7.650   0.635   9.442
24159SOL    HW173918   7.564   0.608   9.474
24159SOL    HW273919   7.651   0.609   9.350
24160SOL     OW73920   7.684   0.294  10.296
24160SOL    HW173921   7.708   0.264  10.384
24160SOL    HW273922   7.600   0.252  10.279
24161SOL     OW73923   7.472   0.387   9.944
24161SOL    HW173924   7.381   0.395   9.974
24161SOL    HW273925   7.479   0.297   9.913
24162SOL     OW73926   7.765   1.440  10.368
24162SOL    HW173927   7.691   1.390  10.335
24162SOL    HW273928   7.812   1.467  10.290
24163SOL     OW73929   7.863   0.403  10.823
24163SOL    HW173930   7.947   0.357  10.835
24163SOL    HW273931   7.799   0.333  10.811
24164SOL     OW73932   7.657   1.714   9.784
24164SOL    HW173933   7.671   1.792   9.837
24164SOL    HW273934   7.724   1.718   9.715
24165SOL     OW73935   7.672   1.448   9.857
24165SOL    HW173936   7.669   1.543   9.841
24165SOL    HW273937   7.591   1.430   9.905
24166SOL     OW73938   7.753   1.090  10.161
24166SOL    HW173939   7.741   1.004  10.202
24166SOL    HW273940   7.690   1.147  10.206
24167SOL     OW73941   7.567   0.644   9.872
24167SOL    HW173942   7.538   0.554   9.888
24167SOL    HW273943   7.555   0.688   9.957
24168SOL     OW73944   7.504   1.593   9.441
24168SOL    HW173945   7.480   1.501   9.454
24168SOL    HW273946   7.463   1.639   9.514
24169SOL     OW73947   7.550   0.744  10.885
24169SOL    HW173948   7.636   0.785  10.890
24169SOL    HW273949   7.489   0.817  10.872
24170SOL     OW73950   7.648   0.952  10.596
24170SOL    HW173951   7.735   0.914  10.589
24170SOL    HW273952   7.593   0.896  10.540
24171SOL     OW73953   7.743   0.254  11.082
24171SOL    HW173954   7.810   0.303  11.130
24171SOL    HW273955   7.674   0.240  11.146
24172SOL     OW73956  -0.018   0.716   9.572
24172SOL    HW173957   0.061   0.753   9.531
24172SOL    HW273958  -0.030   0.768   9.652
24173SOL     OW73959   7.533   0.808  10.089
24173SOL    HW173960   7.611   0.805  10.144
24173SOL    HW273961   7.481   0.881  10.124
24174SOL     OW73962   7.563   1.870  10.899
24174SOL    HW173963   7.574   1.846  10.991
24174SOL    HW273964   7.475   1.840  10.877
24175SOL     OW73965   7.970   0.262  10.221
24175SOL    HW173966   7.884   0.248  10.260
24175SOL    HW273967   7.959   0.340  10.166
24176SOL     OW73968   7.809   1.829  10.178
24176SOL    HW173969   7.873   1.771  10.136
24176SOL    HW273970   7.858   1.908  10.199
24177SOL     OW73971   7.743   0.941   9.544
24177SOL    HW173972   7.774   0.961   9.456
24177SOL    HW273973   7.731   0.846   9.545
24178SOL     OW73974   7.936   1.196  11.046
24178SOL    HW173975   7.905   1.230  10.962
24178SOL    HW273976   7.864   1.211  11.107
24179SOL     OW73977   7.630   0.235  10.821
24179SOL    HW173978   7.559   0.299  10.815
24179SOL    HW273979   7.655   0.236  10.914
24180SOL     OW73980   7.694   1.779  10.538
24180SOL    HW173981   7.751   1.713  10.576
24180SOL    HW273982   7.694   1.761  10.444
24181SOL     OW73983   7.825   0.736   9.816
24181SOL    HW173984   7.873   0.657   9.790
24181SOL    HW273985   7.735   0.706   9.827
24182SOL     OW73986   0.007   0.080   9.430
24182SOL    HW173987   0.099   0.063   9.452
24182SOL    HW273988   0.007   0.094   9.335
24183SOL     OW73989   7.749   0.067   9.523
24183SOL    HW173990   7.836   0.087   9.487
24183SOL    HW273991   7.755  -0.025   9.549
24184SOL     OW73992   7.546   0.540  10.709
24184SOL    HW173993   7.636   0.545  10.675
24184SOL    HW273994   7.539   0.612  10.771
24185SOL     OW73995   7.890   0.810  10.582
24185SOL    HW173996   7.983   0.793  10.595
24185SOL    HW273997   7.850   0.723  10.579
24186SOL     OW73998   7.523   1.562  10.655
24186SOL    HW173999   7.497   1.641  10.607
24186SOL    HW274000   7.619   1.566  10.655
24187SOL     OW74001   7.780   1.100   9.771
24187SOL    HW174002   7.769   1.181   9.720
24187SOL    HW274003   7.767   1.030   9.707
24188SOL     OW74004  -0.021   0.556  10.180
24188SOL    HW174005   0.023   0.624  10.128
24188SOL    HW274006   0.022   0.560  10.265
24189SOL     OW74007   7.800   1.526  10.627
24189SOL    HW174008   7.797   1.486  10.541
24189SOL    HW274009   7.892   1.548  10.640
24190SOL     OW74010   7.837   0.756  10.901
24190SOL    HW174011   7.880   0.775  10.818
24190SOL    HW274012   7.851   0.662  10.915
24191SOL     OW74013   7.941   0.060  11.019
24191SOL    HW174014   7.903  -0.007  10.963
24191SOL    HW274015   7.868   0.120  11.038
24192SOL     OW74016   7.988   0.919  10.335
24192SOL    HW174017   8.021   1.007  10.349
24192SOL    HW274018   7.956   0.891  10.421
24193SOL     OW74019   7.757   0.215  10.544
24193SOL    HW174020   7.704   0.202  10.622
24193SOL    HW274021   7.771   0.127  10.509
24194SOL     OW74022   7.495   1.306  10.567
24194SOL    HW174023   7.524   1.247  10.636
24194SOL    HW274024   7.504   1.393  10.603
24195SOL     OW74025   7.769   0.068   9.986
24195SOL    HW174026   7.853   0.108   9.966
24195SOL    HW274027   7.791  -0.021  10.014
24196SOL     OW74028   7.824   0.897  11.141
24196SOL    HW174029   7.863   0.828  11.194
24196SOL    HW274030   7.825   0.861  11.052
24197SOL     OW74031   7.742   0.825  10.262
24197SOL    HW174032   7.835   0.843  10.277
24197SOL    HW274033   7.733   0.731  10.281
24198SOL     OW74034   7.744   0.552  10.306
24198SOL    HW174035   7.716   0.461  10.297
24198SOL    HW274036   7.824   0.557  10.254
24199SOL     OW74037   7.467   1.314   9.502
24199SOL    HW174038   7.378   1.335   9.472
24199SOL    HW274039   7.459   1.227   9.540
24200SOL     OW74040   7.549   1.770  10.258
24200SOL    HW174041   7.520   1.704  10.196
24200SOL    HW274042   7.635   1.796  10.227
24201SOL     OW74043   7.484   0.573  10.427
24201SOL    HW174044   7.558   0.560  10.368
24201SOL    HW274045   7.514   0.537  10.511
24202SOL     OW74046   7.631   0.539  11.059
24202SOL    HW174047   7.683   0.482  11.003
24202SOL    HW274048   7.587   0.599  10.999
24203SOL     OW74049   0.217   0.512   9.606
24203SOL    HW174050   0.188   0.421   9.616
24203SOL    HW274051   0.180   0.557   9.682
24204SOL     OW74052   7.685   1.543  11.026
24204SOL    HW174053   7.672   1.616  11.087
24204SOL    HW274054   7.701   1.467  11.082
24205SOL     OW74055   7.894   0.489   9.455
24205SOL    HW174056   7.941   0.561   9.498
24205SOL    HW274057   7.803   0.518   9.454
24206SOL     OW74058   7.589   1.142  10.784
24206SOL    HW174059   7.590   1.099  10.869
24206SOL    HW274060   7.609   1.072  10.721
24207SOL     OW74061   7.538   1.254  10.305
24207SOL    HW174062   7.532   1.250  10.400
24207SOL    HW274063   7.487   1.179  10.275
24208SOL     OW74064   7.604   1.786  11.154
24208SOL    HW174065   7.557   1.720  11.205
24208SOL    HW274066   7.652   1.837  11.219
24209SOL     OW74067   7.746   0.374  10.027
24209SOL    HW174068   7.660   0.384   9.985
24209SOL    HW274069   7.728   0.324  10.107
24210SOL     OW74070   7.817   1.307  10.825
24210SOL    HW174071   7.809   1.381  10.765
24210SOL    HW274072   7.741   1.252  10.806
24211SOL     OW74073  -0.002   1.511   9.797
24211SOL    HW174074  -0.008   1.465   9.713
24211SOL    HW274075   0.050   1.589   9.779
24212SOL     OW74076   7.727   1.325   9.625
24212SOL    HW174077   7.646   1.336   9.575
24212SOL    HW274078   7.714   1.379   9.703
24213SOL     OW74079   7.577   1.048  11.052
24213SOL    HW174080   7.492   1.026  11.089
24213SOL    HW274081   7.638   0.987  11.092
24214SOL     OW74082   7.512   0.348   9.359
24214SOL    HW174083   7.430   0.323   9.316
24214SOL    HW274084   7.554   0.408   9.297
24215SOL     OW74085   7.513   0.197   9.605
24215SOL    HW174086   7.507   0.258   9.532
24215SOL    HW274087   7.596   0.150   9.591
24216SOL     OW74088   7.818   1.755  10.875
24216SOL    HW174089   7.733   1.796  10.858
24216SOL    HW274090   7.796   1.669  10.910
24217SOL     OW74091   7.683   1.280  11.176
24217SOL    HW174092   7.648   1.211  11.119
24217SOL    HW274093   7.612   1.300  11.237
24218SOL     OW74094   7.511   1.243   9.982
24218SOL    HW174095   7.498   1.167  10.038
24218SOL    HW274096   7.565   1.211   9.910
24219SOL     OW74097   0.113   1.379  10.878
24219SOL    HW174098   0.021   1.401  10.898
24219SOL    HW274099   0.164   1.439  10.933
24220SOL     OW74100   7.790   0.558  10.594
24220SOL    HW174101   7.839   0.495  10.647
24220SOL    HW274102   7.800   0.526  10.504
24221SOL     OW74103   7.487   1.062   9.632
24221SOL    HW174104   7.573   1.049   9.590
24221SOL    HW274105   7.459   0.973   9.656
24222SOL     OW74106   7.648   0.658  11.308
24222SOL    HW174107   7.564   0.637  11.349
24222SOL    HW274108   7.641   0.623  11.219
24223SOL     OW74109   7.675   0.311  12.181
24223SOL    HW174110   7.711   0.264  12.257
24223SOL    HW274111   7.602   0.256  12.153
24224SOL     OW74112   7.467   0.393  11.809
24224SOL    HW174113   7.375   0.397  11.835
24224SOL    HW274114   7.483   0.299  11.794
24225SOL     OW74115   7.749   1.460  12.221
24225SOL    HW174116   7.670   1.408  12.205
24225SOL    HW274117   7.815   1.422  12.163
24226SOL     OW74118   7.673   1.685  11.668
24226SOL    HW174119   7.676   1.763  11.723
24226SOL    HW274120   7.720   1.710  11.588
24227SOL     OW74121   7.714   1.099  12.075
24227SOL    HW174122   7.708   1.008  12.105
24227SOL    HW274123   7.654   1.147  12.131
24228SOL     OW74124   7.559   0.652  11.736
24228SOL    HW174125   7.529   0.562  11.754
24228SOL    HW274126   7.551   0.697  11.820
24229SOL     OW74127   7.514   1.582  11.305
24229SOL    HW174128   7.464   1.500  11.310
24229SOL    HW274129   7.477   1.636  11.375
24230SOL     OW74130   7.613   0.746   0.226
24230SOL    HW174131   7.665   0.705   0.296
24230SOL    HW274132   7.531   0.771   0.268
24231SOL     OW74133   7.645   0.987  12.408
24231SOL    HW174134   7.723   0.932  12.408
24231SOL    HW274135   7.572   0.925  12.407
24232SOL     OW74136   8.003   0.717  11.460
24232SOL    HW174137   8.023   0.809  11.447
24232SOL    HW274138   7.937   0.716  11.529
24233SOL     OW74139   7.530   0.827  11.947
24233SOL    HW174140   7.607   0.817  12.003
24233SOL    HW274141   7.489   0.908  11.977
24234SOL     OW74142   7.983   0.274  12.081
24234SOL    HW174143   7.943   0.237  12.160
24234SOL    HW274144   7.938   0.230  12.008
24235SOL     OW74145   7.810   1.819  12.052
24235SOL    HW174146   7.876   1.762  12.091
24235SOL    HW274147   7.854   1.903  12.041
24236SOL     OW74148   7.734   0.952  11.414
24236SOL    HW174149   7.773   0.963  11.327
24236SOL    HW274150   7.710   0.859  11.418
24237SOL     OW74151   7.713   1.778  12.427
24237SOL    HW174152   7.770   1.707  12.457
24237SOL    HW274153   7.671   1.742  12.348
24238SOL     OW74154   7.821   0.686  11.654
24238SOL    HW174155   7.856   0.608  11.697
24238SOL    HW274156   7.727   0.683  11.672
24239SOL     OW74157   0.014   0.097  11.296
24239SOL    HW174158   0.106   0.076  11.316
24239SOL    HW274159   0.008   0.091  11.201
24240SOL     OW74160   7.755   0.066  11.382
24240SOL    HW174161   7.843   0.092  11.354
24240SOL    HW274162   7.765  -0.024  11.412
24241SOL     OW74163   7.916   1.101  11.896
24241SOL    HW174164   7.847   1.096  11.962
24241SOL    HW274165   7.869   1.097  11.812
24242SOL     OW74166   7.864   0.797  12.432
24242SOL    HW174167   7.880   0.794  12.526
24242SOL    HW274168   7.836   0.708  12.410
24243SOL     OW74169   7.780   1.117  11.649
24243SOL    HW174170   7.772   1.191  11.589
24243SOL    HW274171   7.771   1.040  11.593
24244SOL     OW74172  -0.002   0.601  12.044
24244SOL    HW174173   0.006   0.515  12.002
24244SOL    HW274174   0.023   0.585  12.135
24245SOL     OW74175   7.860   1.525  12.479
24245SOL    HW174176   7.786   1.497  12.424
24245SOL    HW274177   7.936   1.480  12.442
24246SOL     OW74178   7.910   0.763   0.203
24246SOL    HW174179   8.002   0.764   0.231
24246SOL    HW274180   7.861   0.740   0.282
24247SOL     OW74181   0.003   0.879  12.192
24247SOL    HW174182   0.073   0.930  12.234
24247SOL    HW274183  -0.038   0.831  12.264
24248SOL     OW74184   7.789   0.204  12.405
24248SOL    HW174185   7.749   0.193  12.491
24248SOL    HW274186   7.807   0.114  12.376
24249SOL     OW74187   7.523   1.329  12.437
24249SOL    HW174188   7.536   1.248  12.487
24249SOL    HW274189   7.510   1.397  12.503
24250SOL     OW74190   7.738   0.828  12.122
24250SOL    HW174191   7.831   0.848  12.135
24250SOL    HW274192   7.731   0.735  12.145
24251SOL     OW74193   7.752   0.562  12.166
24251SOL    HW174194   7.729   0.469  12.165
24251SOL    HW274195   7.828   0.569  12.109
24252SOL     OW74196   7.469   1.300  11.357
24252SOL    HW174197   7.381   1.322  11.326
24252SOL    HW274198   7.460   1.213  11.396
24253SOL     OW74199   7.541   1.778  12.110
24253SOL    HW174200   7.515   1.699  12.062
24253SOL    HW274201   7.633   1.790  12.088
24254SOL     OW74202   7.515   0.532  12.318
24254SOL    HW174203   7.587   0.542  12.255
24254SOL    HW274204   7.501   0.438  12.324
24255SOL     OW74205   0.214   0.541  11.474
24255SOL    HW174206   0.188   0.450  11.491
24255SOL    HW274207   0.134   0.591  11.489
24256SOL     OW74208   7.898   0.514  11.303
24256SOL    HW174209   7.943   0.575  11.360
24256SOL    HW274210   7.805   0.535  11.314
24257SOL     OW74211   7.530   1.289  12.170
24257SOL    HW174212   7.518   1.299  12.264
24257SOL    HW274213   7.465   1.224  12.144
24258SOL     OW74214   7.737   0.404  11.885
24258SOL    HW174215   7.644   0.410  11.862
24258SOL    HW274216   7.747   0.316  11.920
24259SOL     OW74217   7.936   1.526  11.672
24259SOL    HW174218   8.017   1.475  11.664
24259SOL    HW274219   7.965   1.617  11.667
24260SOL     OW74220   7.686   1.376  11.514
24260SOL    HW174221   7.605   1.348  11.471
24260SOL    HW274222   7.727   1.436  11.452
24261SOL     OW74223   7.509   0.337  11.227
24261SOL    HW174224   7.417   0.325  11.207
24261SOL    HW274225   7.536   0.411  11.173
24262SOL     OW74226   7.508   0.179  11.466
24262SOL    HW174227   7.503   0.243  11.395
24262SOL    HW274228   7.593   0.138  11.455
24263SOL     OW74229   7.753   1.681   0.222
24263SOL    HW174230   7.739   1.768   0.184
24263SOL    HW274231   7.667   1.640   0.221
24264SOL     OW74232   7.613   1.271  11.830
24264SOL    HW174233   7.599   1.235  11.917
24264SOL    HW274234   7.636   1.195  11.775
24265SOL     OW74235   7.487   1.058  11.487
24265SOL    HW174236   7.577   1.041  11.457
24265SOL    HW274237   7.455   0.973  11.514
24266SOL     OW74238   7.651   2.387   0.050
24266SOL    HW174239   7.633   2.457   0.113
24266SOL    HW274240   7.692   2.431  -0.024
24267SOL     OW74241   7.674   2.146   0.991
24267SOL    HW174242   7.700   2.108   1.074
24267SOL    HW274243   7.586   2.112   0.975
24268SOL     OW74244   7.440   2.248   0.646
24268SOL    HW174245   7.363   2.280   0.694
24268SOL    HW274246   7.416   2.160   0.618
24269SOL     OW74247   7.788   3.263   1.055
24269SOL    HW174248   7.708   3.211   1.049
24269SOL    HW274249   7.792   3.310   0.972
24270SOL     OW74250   7.860   2.281   1.519
24270SOL    HW174251   7.938   2.226   1.524
24270SOL    HW274252   7.787   2.219   1.517
24271SOL     OW74253   7.654   3.574   0.491
24271SOL    HW174254   7.682   3.653   0.537
24271SOL    HW274255   7.699   3.577   0.407
24272SOL     OW74256   7.661   3.301   0.536
24272SOL    HW174257   7.660   3.397   0.532
24272SOL    HW274258   7.598   3.280   0.605
24273SOL     OW74259   7.711   2.946   0.900
24273SOL    HW174260   7.692   2.857   0.931
24273SOL    HW274261   7.651   3.002   0.949
24274SOL     OW74262   7.557   2.495   0.574
24274SOL    HW174263   7.517   2.412   0.599
24274SOL    HW274264   7.549   2.551   0.651
24275SOL     OW74265   7.478   3.382   0.139
24275SOL    HW174266   7.388   3.356   0.118
24275SOL    HW274267   7.467   3.461   0.194
24276SOL     OW74268   7.535   2.621   1.585
24276SOL    HW174269   7.626   2.652   1.585
24276SOL    HW274270   7.484   2.698   1.558
24277SOL     OW74271   7.644   2.806   1.306
24277SOL    HW174272   7.731   2.767   1.291
24277SOL    HW274273   7.595   2.788   1.227
24278SOL     OW74274   7.733   2.165   1.850
24278SOL    HW174275   7.801   2.218   1.892
24278SOL    HW274276   7.729   2.085   1.903
24279SOL     OW74277   7.533   2.672   0.776
24279SOL    HW174278   7.605   2.670   0.839
24279SOL    HW274279   7.479   2.746   0.804
24280SOL     OW74280   7.567   3.735   1.585
24280SOL    HW174281   7.576   3.708   1.677
24280SOL    HW274282   7.477   3.712   1.561
24281SOL     OW74283   7.964   2.080   0.873
24281SOL    HW174284   7.964   2.069   0.968
24281SOL    HW274285   7.956   2.174   0.860
24282SOL     OW74286   7.813   3.695   0.864
24282SOL    HW174287   7.881   3.629   0.877
24282SOL    HW274288   7.858   3.778   0.876
24283SOL     OW74289   7.752   2.854   0.260
24283SOL    HW174290   7.843   2.875   0.239
24283SOL    HW274291   7.740   2.765   0.226
24284SOL     OW74292   7.941   3.103   1.740
24284SOL    HW174293   7.900   3.102   1.653
24284SOL    HW274294   7.869   3.124   1.800
24285SOL     OW74295   7.636   2.120   1.494
24285SOL    HW174296   7.549   2.152   1.473
24285SOL    HW274297   7.621   2.031   1.528
24286SOL     OW74298   7.691   3.664   1.218
24286SOL    HW174299   7.735   3.583   1.244
24286SOL    HW274300   7.660   3.646   1.129
24287SOL     OW74301   7.804   2.519   0.452
24287SOL    HW174302   7.868   2.497   0.519
24287SOL    HW274303   7.719   2.510   0.496
24288SOL     OW74304   0.054   1.962   0.088
24288SOL    HW174305   0.145   1.960   0.119
24288SOL    HW274306   0.054   2.030   0.020
24289SOL     OW74307   7.966   1.865   0.474
24289SOL    HW174308   7.898   1.890   0.537
24289SOL    HW274309   8.011   1.947   0.453
24290SOL     OW74310   7.924   2.981   0.744
24290SOL    HW174311   7.848   2.966   0.800
24290SOL    HW274312   7.888   2.981   0.655
24291SOL     OW74313   7.532   2.423   1.390
24291SOL    HW174314   7.623   2.419   1.364
24291SOL    HW274315   7.527   2.498   1.449
24292SOL     OW74316   7.996   2.048   1.137
24292SOL    HW174317   8.048   1.994   1.196
24292SOL    HW274318   7.911   2.057   1.181
24293SOL     OW74319   7.886   2.668   1.271
24293SOL    HW174320   7.972   2.645   1.304
24293SOL    HW274321   7.837   2.586   1.272
24294SOL     OW74322   7.517   3.439   1.360
24294SOL    HW174323   7.474   3.505   1.306
24294SOL    HW274324   7.610   3.449   1.342
24295SOL     OW74325   7.814   2.993   0.493
24295SOL    HW174326   7.800   3.081   0.458
24295SOL    HW274327   7.781   2.934   0.425
24296SOL     OW74328  -0.024   2.413   0.864
24296SOL    HW174329   0.016   2.490   0.823
24296SOL    HW274330   0.015   2.410   0.951
24297SOL     OW74331   7.788   3.412   1.286
24297SOL    HW174332   7.786   3.356   1.209
24297SOL    HW274333   7.881   3.426   1.303
24298SOL     OW74334   7.835   2.569   1.600
24298SOL    HW174335   7.911   2.618   1.568
24298SOL    HW274336   7.855   2.478   1.580
24299SOL     OW74337   7.915   1.977   1.728
24299SOL    HW174338   7.893   1.897   1.680
24299SOL    HW274339   7.834   2.027   1.730
24300SOL     OW74340   7.984   2.775   1.035
24300SOL    HW174341   7.997   2.869   1.041
24300SOL    HW274342   7.949   2.750   1.120
24301SOL     OW74343   7.748   2.060   1.246
24301SOL    HW174344   7.707   2.085   1.328
24301SOL    HW274345   7.731   1.967   1.237
24302SOL     OW74346   7.512   3.175   1.284
24302SOL    HW174347   7.532   3.122   1.361
24302SOL    HW274348   7.502   3.264   1.318
24303SOL     OW74349   7.749   1.942   0.627
24303SOL    HW174350   7.736   2.033   0.652
24303SOL    HW274351   7.764   1.896   0.710
24304SOL     OW74352   7.788   2.758   1.804
24304SOL    HW174353   7.846   2.743   1.879
24304SOL    HW274354   7.812   2.689   1.742
24305SOL     OW74355   7.733   2.674   0.965
24305SOL    HW174356   7.825   2.700   0.973
24305SOL    HW274357   7.732   2.580   0.984
24306SOL     OW74358   7.745   2.401   1.001
24306SOL    HW174359   7.718   2.309   0.997
24306SOL    HW274360   7.823   2.406   0.946
24307SOL     OW74361   7.557   3.632   0.959
24307SOL    HW174362   7.520   3.561   0.906
24307SOL    HW274363   7.638   3.655   0.914
24308SOL     OW74364   7.481   2.420   1.115
24308SOL    HW174365   7.561   2.417   1.063
24308SOL    HW274366   7.512   2.419   1.206
24309SOL     OW74367   7.606   2.394   1.735
24309SOL    HW174368   7.662   2.317   1.729
24309SOL    HW274369   7.639   2.454   1.668
24310SOL     OW74370   7.692   3.408   1.707
24310SOL    HW174371   7.673   3.482   1.766
24310SOL    HW274372   7.703   3.333   1.766
24311SOL     OW74373   7.907   2.307   0.166
24311SOL    HW174374   7.926   2.390   0.212
24311SOL    HW274375   7.818   2.318   0.133
24312SOL     OW74376   7.595   3.004   1.488
24312SOL    HW174377   7.592   2.962   1.574
24312SOL    HW274378   7.608   2.931   1.426
24313SOL     OW74379   7.549   3.120   1.027
24313SOL    HW174380   7.526   3.138   1.118
24313SOL    HW274381   7.465   3.104   0.984
24314SOL     OW74382   7.606   3.640   1.840
24314SOL    HW174383   7.553   3.577   1.889
24314SOL    HW274384   7.649   3.693   1.907
24315SOL     OW74385   7.713   2.197   0.716
24315SOL    HW174386   7.624   2.228   0.696
24315SOL    HW274387   7.710   2.178   0.810
24316SOL     OW74388   7.816   3.168   1.472
24316SOL    HW174389   7.773   3.254   1.473
24316SOL    HW274390   7.744   3.105   1.473
24317SOL     OW74391  -0.006   3.371   0.426
24317SOL    HW174392   0.069   3.331   0.468
24317SOL    HW274393   0.018   3.464   0.418
24318SOL     OW74394   7.739   3.206   0.296
24318SOL    HW174395   7.672   3.241   0.237
24318SOL    HW274396   7.721   3.247   0.380
24319SOL     OW74397   7.566   2.906   1.741
24319SOL    HW174398   7.490   2.871   1.788
24319SOL    HW274399   7.639   2.854   1.774
24320SOL     OW74400   7.514   2.011   0.331
24320SOL    HW174401   7.493   2.097   0.294
24320SOL    HW274402   7.598   2.023   0.374
24321SOL     OW74403   7.823   3.615   1.561
24321SOL    HW174404   7.740   3.658   1.541
24321SOL    HW274405   7.799   3.533   1.603
24322SOL     OW74406   7.699   3.169   1.854
24322SOL    HW174407   7.634   3.101   1.836
24322SOL    HW274408   7.701   3.175   1.950
24323SOL     OW74409   7.522   3.095   0.684
24323SOL    HW174410   7.535   3.031   0.753
24323SOL    HW274411   7.584   3.069   0.615
24324SOL     OW74412   0.092   3.286   1.597
24324SOL    HW174413   0.053   3.242   1.673
24324SOL    HW274414   0.167   3.332   1.633
24325SOL     OW74415   7.781   2.418   1.289
24325SOL    HW174416   7.832   2.364   1.350
24325SOL    HW274417   7.802   2.383   1.202
24326SOL     OW74418   7.488   2.936   0.352
24326SOL    HW174419   7.574   2.934   0.311
24326SOL    HW274420   7.474   2.846   0.382
24327SOL     OW74421   7.653   2.498   1.992
24327SOL    HW174422   7.569   2.484   2.035
24327SOL    HW274423   7.639   2.470   1.902
24328SOL     OW74424   7.662   2.154   2.858
24328SOL    HW174425   7.691   2.118   2.942
24328SOL    HW274426   7.578   2.112   2.842
24329SOL     OW74427   7.441   2.261   2.501
24329SOL    HW174428   7.359   2.282   2.547
24329SOL    HW274429   7.425   2.176   2.460
24330SOL     OW74430   7.778   3.312   2.978
24330SOL    HW174431   7.699   3.261   2.960
24330SOL    HW274432   7.821   3.322   2.894
24331SOL     OW74433   7.846   2.263   3.372
24331SOL    HW174434   7.920   2.213   3.408
24331SOL    HW274435   7.770   2.206   3.384
24332SOL     OW74436   7.672   3.573   2.337
24332SOL    HW174437   7.678   3.648   2.395
24332SOL    HW274438   7.754   3.573   2.287
24333SOL     OW74439   7.606   3.307   2.379
24333SOL    HW174440   7.624   3.401   2.367
24333SOL    HW274441   7.615   3.293   2.473
24334SOL     OW74442   7.689   2.946   2.747
24334SOL    HW174443   7.695   2.862   2.793
24334SOL    HW274444   7.645   3.004   2.809
24335SOL     OW74445   7.553   2.518   2.424
24335SOL    HW174446   7.523   2.431   2.448
24335SOL    HW274447   7.548   2.568   2.506
24336SOL     OW74448   7.494   3.443   1.986
24336SOL    HW174449   7.447   3.361   2.002
24336SOL    HW274450   7.469   3.500   2.058
24337SOL     OW74451   7.592   2.622   3.450
24337SOL    HW174452   7.687   2.634   3.459
24337SOL    HW274453   7.554   2.702   3.487
24338SOL     OW74454   7.634   2.809   3.136
24338SOL    HW174455   7.720   2.769   3.138
24338SOL    HW274456   7.584   2.756   3.075
24339SOL     OW74457   7.762   2.154   3.678
24339SOL    HW174458   7.812   2.204   3.743
24339SOL    HW274459   7.677   2.140   3.719
24340SOL     OW74460   7.961   2.628   2.104
24340SOL    HW174461   8.054   2.630   2.129
24340SOL    HW274462   7.915   2.599   2.182
24341SOL     OW74463   7.521   2.704   2.640
24341SOL    HW174464   7.600   2.684   2.691
24341SOL    HW274465   7.487   2.784   2.680
24342SOL     OW74466   7.567   3.682   3.430
24342SOL    HW174467   7.583   3.673   3.524
24342SOL    HW274468   7.483   3.728   3.425
24343SOL     OW74469   7.964   2.100   2.735
24343SOL    HW174470   7.960   2.078   2.828
24343SOL    HW274471   7.967   2.195   2.733
24344SOL     OW74472   7.822   3.693   2.740
24344SOL    HW174473   7.898   3.638   2.758
24344SOL    HW274474   7.856   3.783   2.747
24345SOL     OW74475   7.754   2.825   2.128
24345SOL    HW174476   7.847   2.839   2.113
24345SOL    HW274477   7.740   2.731   2.111
24346SOL     OW74478   7.948   3.126   3.594
24346SOL    HW174479   7.922   3.049   3.545
24346SOL    HW274480   7.873   3.144   3.651
24347SOL     OW74481   7.603   2.122   3.378
24347SOL    HW174482   7.531   2.160   3.430
24347SOL    HW274483   7.600   2.029   3.398
24348SOL     OW74484   7.705   3.666   3.102
24348SOL    HW174485   7.751   3.620   3.172
24348SOL    HW274486   7.714   3.608   3.026
24349SOL     OW74487   7.818   2.547   2.320
24349SOL    HW174488   7.872   2.495   2.381
24349SOL    HW274489   7.729   2.536   2.352
24350SOL     OW74490   0.007   1.980   1.989
24350SOL    HW174491   0.096   1.946   2.002
24350SOL    HW274492  -0.006   1.976   1.894
24351SOL     OW74493   7.923   1.890   2.299
24351SOL    HW174494   7.871   1.909   2.377
24351SOL    HW274495   8.003   1.942   2.310
24352SOL     OW74496   7.752   1.914   2.058
24352SOL    HW174497   7.842   1.939   2.035
24352SOL    HW274498   7.763   1.856   2.134
24353SOL     OW74499   7.912   2.991   2.603
24353SOL    HW174500   7.839   2.973   2.663
24353SOL    HW274501   7.875   2.979   2.516
24354SOL     OW74502   7.529   2.460   3.250
24354SOL    HW174503   7.617   2.435   3.223
24354SOL    HW274504   7.542   2.519   3.325
24355SOL     OW74505   7.982   2.051   2.999
24355SOL    HW174506   8.042   2.007   3.060
24355SOL    HW274507   7.900   2.058   3.047
24356SOL     OW74508   7.864   2.662   3.130
24356SOL    HW174509   7.933   2.659   3.197
24356SOL    HW274510   7.828   2.573   3.130
24357SOL     OW74511   7.509   3.456   3.221
24357SOL    HW174512   7.450   3.503   3.162
24357SOL    HW274513   7.566   3.524   3.257
24358SOL     OW74514   7.787   2.981   2.356
24358SOL    HW174515   7.797   3.056   2.297
24358SOL    HW274516   7.774   2.907   2.297
24359SOL     OW74517  -0.019   2.407   2.724
24359SOL    HW174518   0.021   2.484   2.684
24359SOL    HW274519   0.015   2.406   2.813
24360SOL     OW74520   7.869   2.587   3.476
24360SOL    HW174521   7.962   2.609   3.471
24360SOL    HW274522   7.867   2.491   3.474
24361SOL     OW74523   7.930   1.969   3.578
24361SOL    HW174524   7.883   1.893   3.544
24361SOL    HW274525   7.861   2.028   3.610
24362SOL     OW74526   7.978   2.771   2.905
24362SOL    HW174527   8.063   2.799   2.937
24362SOL    HW274528   7.934   2.735   2.982
24363SOL     OW74529   7.729   2.067   3.113
24363SOL    HW174530   7.684   2.090   3.195
24363SOL    HW274531   7.724   1.971   3.109
24364SOL     OW74532   7.524   3.189   3.146
24364SOL    HW174533   7.542   3.131   3.220
24364SOL    HW274534   7.520   3.276   3.185
24365SOL     OW74535   7.740   1.936   2.496
24365SOL    HW174536   7.731   2.028   2.519
24365SOL    HW274537   7.758   1.892   2.579
24366SOL     OW74538   7.788   2.802   3.658
24366SOL    HW174539   7.786   2.787   3.752
24366SOL    HW274540   7.825   2.722   3.621
24367SOL     OW74541   7.735   2.678   2.810
24367SOL    HW174542   7.824   2.705   2.830
24367SOL    HW274543   7.733   2.585   2.831
24368SOL     OW74544   7.737   2.409   2.843
24368SOL    HW174545   7.711   2.317   2.852
24368SOL    HW274546   7.821   2.405   2.797
24369SOL     OW74547   7.431   3.172   2.091
24369SOL    HW174548   7.352   3.198   2.044
24369SOL    HW274549   7.438   3.077   2.076
24370SOL     OW74550   7.542   3.635   2.798
24370SOL    HW174551   7.517   3.557   2.749
24370SOL    HW274552   7.633   3.651   2.775
24371SOL     OW74553   7.456   2.436   2.979
24371SOL    HW174554   7.505   2.423   2.898
24371SOL    HW274555   7.518   2.414   3.049
24372SOL     OW74556   7.609   2.394   3.612
24372SOL    HW174557   7.666   2.331   3.567
24372SOL    HW274558   7.593   2.462   3.547
24373SOL     OW74559   0.187   2.384   2.161
24373SOL    HW174560   0.171   2.292   2.180
24373SOL    HW274561   0.180   2.427   2.246
24374SOL     OW74562   7.698   3.399   3.576
24374SOL    HW174563   7.682   3.478   3.627
24374SOL    HW274564   7.703   3.329   3.641
24375SOL     OW74565   7.892   2.352   1.992
24375SOL    HW174566   7.961   2.398   2.039
24375SOL    HW274567   7.814   2.406   2.005
24376SOL     OW74568   7.604   2.996   3.333
24376SOL    HW174569   7.586   2.946   3.413
24376SOL    HW274570   7.617   2.929   3.266
24377SOL     OW74571   7.550   3.126   2.891
24377SOL    HW174572   7.536   3.144   2.984
24377SOL    HW274573   7.463   3.103   2.858
24378SOL     OW74574   7.617   3.642   3.695
24378SOL    HW174575   7.561   3.581   3.742
24378SOL    HW274576   7.654   3.699   3.763
24379SOL     OW74577   7.711   2.197   2.578
24379SOL    HW174578   7.623   2.228   2.561
24379SOL    HW274579   7.714   2.180   2.672
24380SOL     OW74580   7.755   3.219   3.360
24380SOL    HW174581   7.735   3.258   3.446
24380SOL    HW274582   7.706   3.137   3.359
24381SOL     OW74583  -0.011   3.410   2.281
24381SOL    HW174584   0.021   3.343   2.340
24381SOL    HW274585   0.038   3.489   2.306
24382SOL     OW74586   7.708   3.201   2.138
24382SOL    HW174587   7.615   3.208   2.115
24382SOL    HW274588   7.718   3.259   2.214
24383SOL     OW74589   7.537   2.876   3.567
24383SOL    HW174590   7.465   2.862   3.629
24383SOL    HW274591   7.616   2.861   3.619
24384SOL     OW74592   7.455   2.237   1.921
24384SOL    HW174593   7.424   2.150   1.897
24384SOL    HW274594   7.538   2.247   1.873
24385SOL     OW74595   7.511   2.012   2.163
24385SOL    HW174596   7.509   2.104   2.139
24385SOL    HW274597   7.599   1.983   2.138
24386SOL     OW74598   7.778   3.532   3.336
24386SOL    HW174599   7.723   3.605   3.365
24386SOL    HW274600   7.787   3.477   3.414
24387SOL     OW74601   7.701   3.170   3.724
24387SOL    HW174602   7.611   3.137   3.729
24387SOL    HW274603   7.726   3.184   3.816
24388SOL     OW74604   7.563   3.033   2.505
24388SOL    HW174605   7.563   3.006   2.597
24388SOL    HW274606   7.649   3.005   2.472
24389SOL     OW74607   0.074   3.304   3.410
24389SOL    HW174608   0.030   3.242   3.468
24389SOL    HW274609   0.150   3.334   3.460
24390SOL     OW74610   7.776   2.404   3.149
24390SOL    HW174611   7.813   2.354   3.222
24390SOL    HW274612   7.811   2.363   3.071
24391SOL     OW74613   7.498   2.922   2.191
24391SOL    HW174614   7.587   2.901   2.163
24391SOL    HW274615   7.456   2.837   2.206
24392SOL     OW74616   7.658   2.505   3.857
24392SOL    HW174617   7.576   2.496   3.905
24392SOL    HW274618   7.638   2.472   3.769
24393SOL     OW74619   7.676   2.142   4.716
24393SOL    HW174620   7.700   2.111   4.803
24393SOL    HW274621   7.586   2.112   4.704
24394SOL     OW74622   7.444   2.257   4.364
24394SOL    HW174623   7.366   2.283   4.412
24394SOL    HW274624   7.418   2.177   4.317
24395SOL     OW74625   7.745   3.335   4.773
24395SOL    HW174626   7.672   3.274   4.759
24395SOL    HW274627   7.819   3.296   4.727
24396SOL     OW74628   7.859   2.267   5.250
24396SOL    HW174629   7.931   2.204   5.255
24396SOL    HW274630   7.781   2.212   5.240
24397SOL     OW74631   7.673   3.579   4.183
24397SOL    HW174632   7.686   3.652   4.243
24397SOL    HW274633   7.758   3.534   4.181
24398SOL     OW74634   7.665   3.290   4.250
24398SOL    HW174635   7.634   3.379   4.266
24398SOL    HW274636   7.618   3.237   4.314
24399SOL     OW74637   7.713   2.953   4.623
24399SOL    HW174638   7.702   2.866   4.662
24399SOL    HW274639   7.654   3.009   4.674
24400SOL     OW74640   7.574   2.512   4.287
24400SOL    HW174641   7.533   2.429   4.310
24400SOL    HW274642   7.561   2.568   4.364
24401SOL     OW74643   7.492   3.445   3.828
24401SOL    HW174644   7.471   3.355   3.851
24401SOL    HW274645   7.465   3.496   3.905
24402SOL     OW74646   7.566   2.604   5.301
24402SOL    HW174647   7.648   2.652   5.309
24402SOL    HW274648   7.500   2.671   5.284
24403SOL     OW74649   7.627   2.835   4.989
24403SOL    HW174650   7.703   2.779   4.978
24403SOL    HW274651   7.552   2.776   4.973
24404SOL     OW74652   7.757   2.121   5.569
24404SOL    HW174653   7.802   2.203   5.588
24404SOL    HW274654   7.664   2.142   5.579
24405SOL     OW74655   8.010   2.610   3.963
24405SOL    HW174656   8.037   2.699   3.986
24405SOL    HW274657   7.951   2.584   4.033
24406SOL     OW74658   7.536   2.702   4.485
24406SOL    HW174659   7.611   2.685   4.542
24406SOL    HW274660   7.487   2.770   4.531
24407SOL     OW74661   7.574   3.736   5.310
24407SOL    HW174662   7.580   3.723   5.404
24407SOL    HW274663   7.502   3.680   5.282
24408SOL     OW74664   7.969   2.072   4.606
24408SOL    HW174665   7.967   2.063   4.701
24408SOL    HW274666   7.950   2.165   4.590
24409SOL     OW74667   7.793   3.657   4.590
24409SOL    HW174668   7.827   3.568   4.601
24409SOL    HW274669   7.862   3.713   4.625
24410SOL     OW74670   7.761   2.808   3.951
24410SOL    HW174671   7.852   2.825   3.973
24410SOL    HW274672   7.748   2.715   3.973
24411SOL     OW74673   7.951   3.096   5.467
24411SOL    HW174674   7.912   3.109   5.381
24411SOL    HW274675   7.881   3.120   5.528
24412SOL     OW74676   7.628   2.128   5.223
24412SOL    HW174677   7.551   2.182   5.242
24412SOL    HW274678   7.607   2.043   5.260
24413SOL     OW74679   7.715   3.658   4.950
24413SOL    HW174680   7.758   3.602   5.015
24413SOL    HW274681   7.724   3.610   4.868
24414SOL     OW74682   7.826   2.559   4.162
24414SOL    HW174683   7.882   2.523   4.230
24414SOL    HW274684   7.737   2.543   4.193
24415SOL     OW74685   0.006   1.964   3.852
24415SOL    HW174686   0.097   1.935   3.866
24415SOL    HW274687  -0.003   1.970   3.757
24416SOL     OW74688   7.980   1.883   4.210
24416SOL    HW174689   7.902   1.904   4.260
24416SOL    HW274690   8.011   1.968   4.176
24417SOL     OW74691   7.749   1.903   3.927
24417SOL    HW174692   7.837   1.931   3.902
24417SOL    HW274693   7.763   1.832   3.990
24418SOL     OW74694   7.914   3.008   4.455
24418SOL    HW174695   7.847   2.984   4.519
24418SOL    HW274696   7.877   2.982   4.371
24419SOL     OW74697   7.531   2.410   5.113
24419SOL    HW174698   7.624   2.411   5.090
24419SOL    HW274699   7.522   2.479   5.179
24420SOL     OW74700   7.986   2.046   4.869
24420SOL    HW174701   8.043   2.007   4.936
24420SOL    HW274702   7.902   2.056   4.913
24421SOL     OW74703   7.864   2.683   4.982
24421SOL    HW174704   7.923   2.705   5.054
24421SOL    HW274705   7.837   2.593   4.999
24422SOL     OW74706   7.526   3.448   5.090
24422SOL    HW174707   7.509   3.516   5.025
24422SOL    HW274708   7.620   3.432   5.082
24423SOL     OW74709   7.810   2.974   4.201
24423SOL    HW174710   7.769   3.057   4.174
24423SOL    HW274711   7.758   2.907   4.156
24424SOL     OW74712  -0.022   2.411   4.591
24424SOL    HW174713   0.016   2.489   4.552
24424SOL    HW274714   0.016   2.407   4.679
24425SOL     OW74715   7.788   3.393   5.044
24425SOL    HW174716   7.780   3.359   4.954
24425SOL    HW274717   7.880   3.417   5.052
24426SOL     OW74718   7.864   2.606   5.326
24426SOL    HW174719   7.956   2.631   5.320
24426SOL    HW274720   7.864   2.511   5.310
24427SOL     OW74721   7.936   1.951   5.459
24427SOL    HW174722   7.892   1.885   5.405
24427SOL    HW274723   7.867   2.010   5.487
24428SOL     OW74724   7.985   2.776   4.752
24428SOL    HW174725   8.012   2.867   4.763
24428SOL    HW274726   7.946   2.752   4.836
24429SOL     OW74727   7.736   2.057   4.975
24429SOL    HW174728   7.691   2.090   5.053
24429SOL    HW274729   7.718   1.963   4.975
24430SOL     OW74730   7.518   3.185   4.996
24430SOL    HW174731   7.539   3.124   5.066
24430SOL    HW274732   7.505   3.269   5.040
24431SOL     OW74733   7.750   1.934   4.348
24431SOL    HW174734   7.732   2.026   4.369
24431SOL    HW274735   7.764   1.893   4.433
24432SOL     OW74736   7.786   2.772   5.537
24432SOL    HW174737   7.864   2.828   5.540
24432SOL    HW274738   7.808   2.705   5.472
24433SOL     OW74739   7.744   2.670   4.660
24433SOL    HW174740   7.832   2.701   4.685
24433SOL    HW274741   7.738   2.583   4.698
24434SOL     OW74742   7.747   2.400   4.734
24434SOL    HW174743   7.718   2.309   4.727
24434SOL    HW274744   7.826   2.405   4.679
24435SOL     OW74745   7.459   3.168   3.894
24435SOL    HW174746   7.370   3.186   3.865
24435SOL    HW274747   7.454   3.084   3.939
24436SOL     OW74748   7.525   3.639   4.652
24436SOL    HW174749   7.497   3.557   4.610
24436SOL    HW274750   7.617   3.648   4.630
24437SOL     OW74751   7.481   2.409   4.843
24437SOL    HW174752   7.566   2.419   4.799
24437SOL    HW274753   7.502   2.412   4.936
24438SOL     OW74754   7.636   2.388   5.454
24438SOL    HW174755   7.693   2.347   5.390
24438SOL    HW274756   7.597   2.463   5.408
24439SOL     OW74757   0.205   2.368   4.023
24439SOL    HW174758   0.170   2.282   4.046
24439SOL    HW274759   0.186   2.423   4.098
24440SOL     OW74760   7.686   3.410   5.449
24440SOL    HW174761   7.662   3.458   5.528
24440SOL    HW274762   7.707   3.321   5.480
24441SOL     OW74763   7.898   2.360   3.856
24441SOL    HW174764   7.958   2.417   3.903
24441SOL    HW274765   7.812   2.401   3.867
24442SOL     OW74766   7.597   3.014   5.198
24442SOL    HW174767   7.580   2.968   5.280
24442SOL    HW274768   7.601   2.944   5.132
24443SOL     OW74769   7.537   3.131   4.737
24443SOL    HW174770   7.529   3.148   4.831
24443SOL    HW274771   7.458   3.082   4.715
24444SOL     OW74772   7.589   3.685   5.573
24444SOL    HW174773   7.546   3.608   5.609
24444SOL    HW274774   7.645   3.717   5.644
24445SOL     OW74775   7.713   2.192   4.442
24445SOL    HW174776   7.627   2.225   4.415
24445SOL    HW274777   7.705   2.178   4.536
24446SOL     OW74778   7.824   3.163   5.237
24446SOL    HW174779   7.814   3.239   5.179
24446SOL    HW274780   7.744   3.111   5.222
24447SOL     OW74781   0.002   3.409   4.137
24447SOL    HW174782  -0.009   3.346   4.208
24447SOL    HW274783   0.073   3.465   4.165
24448SOL     OW74784   7.715   3.207   3.999
24448SOL    HW174785   7.623   3.198   3.974
24448SOL    HW274786   7.713   3.248   4.085
24449SOL     OW74787   7.558   2.920   5.464
24449SOL    HW174788   7.475   2.882   5.495
24449SOL    HW274789   7.625   2.862   5.501
24450SOL     OW74790   7.505   2.193   3.784
24450SOL    HW174791   7.409   2.189   3.788
24450SOL    HW274792   7.523   2.272   3.733
24451SOL     OW74793   7.512   2.014   4.021
24451SOL    HW174794   7.501   2.091   3.965
24451SOL    HW274795   7.600   1.982   4.000
24452SOL     OW74796   7.829   3.620   5.294
24452SOL    HW174797   7.740   3.654   5.285
24452SOL    HW274798   7.818   3.532   5.329
24453SOL     OW74799   7.699   3.158   5.573
24453SOL    HW174800   7.638   3.093   5.540
24453SOL    HW274801   7.672   3.173   5.664
24454SOL     OW74802   7.543   3.087   4.407
24454SOL    HW174803   7.504   3.060   4.490
24454SOL    HW274804   7.619   3.031   4.396
24455SOL     OW74805   0.096   3.314   5.264
24455SOL    HW174806   0.048   3.246   5.311
24455SOL    HW274807   0.168   3.338   5.323
24456SOL     OW74808   7.788   2.422   5.023
24456SOL    HW174809   7.845   2.372   5.081
24456SOL    HW274810   7.808   2.390   4.935
24457SOL     OW74811   7.501   2.920   4.017
24457SOL    HW174812   7.588   2.901   3.981
24457SOL    HW274813   7.470   2.835   4.049
24458SOL     OW74814   7.658   2.450   5.723
24458SOL    HW174815   7.572   2.472   5.758
24458SOL    HW274816   7.646   2.455   5.628
24459SOL     OW74817   7.670   2.144   6.576
24459SOL    HW174818   7.696   2.113   6.663
24459SOL    HW274819   7.581   2.113   6.565
24460SOL     OW74820   7.448   2.249   6.230
24460SOL    HW174821   7.368   2.278   6.274
24460SOL    HW274822   7.421   2.173   6.179
24461SOL     OW74823   7.738   3.296   6.639
24461SOL    HW174824   7.667   3.236   6.617
24461SOL    HW274825   7.777   3.319   6.555
24462SOL     OW74826   7.856   2.283   7.138
24462SOL    HW174827   7.934   2.228   7.134
24462SOL    HW274828   7.784   2.225   7.115
24463SOL     OW74829   7.689   3.603   6.013
24463SOL    HW174830   7.702   3.665   6.084
24463SOL    HW274831   7.701   3.517   6.053
24464SOL     OW74832   7.712   2.959   6.478
24464SOL    HW174833   7.700   2.869   6.509
24464SOL    HW274834   7.649   3.010   6.528
24465SOL     OW74835   7.578   2.510   6.154
24465SOL    HW174836   7.535   2.427   6.175
24465SOL    HW274837   7.563   2.565   6.231
24466SOL     OW74838   7.504   3.455   5.691
24466SOL    HW174839   7.487   3.362   5.709
24466SOL    HW274840   7.471   3.500   5.769
24467SOL     OW74841   7.552   2.602   7.169
24467SOL    HW174842   7.639   2.641   7.171
24467SOL    HW274843   7.493   2.677   7.156
24468SOL     OW74844   7.631   2.822   6.874
24468SOL    HW174845   7.719   2.784   6.873
24468SOL    HW274846   7.589   2.786   6.796
24469SOL     OW74847   7.784   2.111   7.432
24469SOL    HW174848   7.827   2.193   7.455
24469SOL    HW274849   7.691   2.129   7.443
24470SOL     OW74850   8.017   2.603   5.838
24470SOL    HW174851   8.027   2.699   5.840
24470SOL    HW274852   7.954   2.584   5.907
24471SOL     OW74853   7.532   2.677   6.366
24471SOL    HW174854   7.610   2.678   6.422
24471SOL    HW274855   7.478   2.749   6.399
24472SOL     OW74856   7.531   3.647   7.145
24472SOL    HW174857   7.552   3.654   7.238
24472SOL    HW274858   7.485   3.728   7.124
24473SOL     OW74859   7.947   2.051   6.455
24473SOL    HW174860   7.958   2.068   6.549
24473SOL    HW274861   7.966   2.135   6.413
24474SOL     OW74862   7.798   3.669   6.449
24474SOL    HW174863   7.853   3.599   6.413
24474SOL    HW274864   7.859   3.741   6.466
24475SOL     OW74865   7.750   2.842   5.838
24475SOL    HW174866   7.844   2.857   5.825
24475SOL    HW274867   7.729   2.770   5.779
24476SOL     OW74868   7.953   3.097   7.333
24476SOL    HW174869   7.914   3.104   7.246
24476SOL    HW274870   7.881   3.119   7.393
24477SOL     OW74871   7.638   2.130   7.079
24477SOL    HW174872   7.564   2.190   7.091
24477SOL    HW274873   7.611   2.049   7.122
24478SOL     OW74874   7.673   3.622   6.827
24478SOL    HW174875   7.748   3.570   6.855
24478SOL    HW274876   7.677   3.620   6.731
24479SOL     OW74877   7.834   2.546   6.032
24479SOL    HW174878   7.884   2.521   6.110
24479SOL    HW274879   7.743   2.540   6.060
24480SOL     OW74880   0.016   1.942   5.729
24480SOL    HW174881   0.111   1.931   5.738
24480SOL    HW274882   0.002   1.952   5.635
24481SOL     OW74883   7.966   1.860   6.080
24481SOL    HW174884   7.889   1.893   6.126
24481SOL    HW274885   8.009   1.939   6.046
24482SOL     OW74886   7.742   1.929   5.763
24482SOL    HW174887   7.745   2.002   5.701
24482SOL    HW274888   7.834   1.908   5.779
24483SOL     OW74889   7.937   2.938   6.323
24483SOL    HW174890   7.861   2.950   6.379
24483SOL    HW274891   7.903   2.947   6.234
24484SOL     OW74892   7.542   2.410   6.978
24484SOL    HW174893   7.635   2.414   6.953
24484SOL    HW274894   7.532   2.479   7.043
24485SOL     OW74895   7.991   2.058   6.723
24485SOL    HW174896   8.047   2.022   6.793
24485SOL    HW274897   7.905   2.066   6.764
24486SOL     OW74898   7.876   2.693   6.875
24486SOL    HW174899   7.972   2.694   6.884
24486SOL    HW274900   7.853   2.601   6.875
24487SOL     OW74901   7.837   2.976   6.071
24487SOL    HW174902   7.799   3.063   6.064
24487SOL    HW274903   7.789   2.923   6.007
24488SOL     OW74904  -0.025   2.437   6.456
24488SOL    HW174905   0.015   2.514   6.416
24488SOL    HW274906   0.018   2.429   6.541
24489SOL     OW74907   7.788   3.374   6.898
24489SOL    HW174908   7.789   3.341   6.808
24489SOL    HW274909   7.877   3.403   6.914
24490SOL     OW74910   7.837   2.605   7.186
24490SOL    HW174911   7.892   2.658   7.127
24490SOL    HW274912   7.873   2.517   7.179
24491SOL     OW74913   7.932   1.928   7.287
24491SOL    HW174914   7.856   1.884   7.249
24491SOL    HW274915   7.895   2.001   7.337
24492SOL     OW74916   7.985   2.783   6.628
24492SOL    HW174917   8.006   2.875   6.614
24492SOL    HW274918   7.935   2.782   6.710
24493SOL     OW74919   7.739   2.055   6.833
24493SOL    HW174920   7.700   2.090   6.913
24493SOL    HW274921   7.719   1.961   6.835
24494SOL     OW74922   7.532   3.241   6.892
24494SOL    HW174923   7.527   3.162   6.946
24494SOL    HW274924   7.618   3.235   6.850
24495SOL     OW74925   7.732   1.927   6.213
24495SOL    HW174926   7.722   2.021   6.226
24495SOL    HW274927   7.751   1.893   6.301
24496SOL     OW74928   7.801   2.783   7.397
24496SOL    HW174929   7.886   2.827   7.390
24496SOL    HW274930   7.809   2.707   7.340
24497SOL     OW74931   7.742   2.680   6.543
24497SOL    HW174932   7.834   2.706   6.548
24497SOL    HW274933   7.742   2.587   6.566
24498SOL     OW74934   7.749   2.401   6.596
24498SOL    HW174935   7.721   2.310   6.584
24498SOL    HW274936   7.825   2.411   6.539
24499SOL     OW74937   7.465   3.180   5.771
24499SOL    HW174938   7.377   3.198   5.738
24499SOL    HW274939   7.458   3.092   5.809
24500SOL     OW74940   7.542   3.645   6.532
24500SOL    HW174941   7.507   3.568   6.487
24500SOL    HW274942   7.630   3.655   6.497
24501SOL     OW74943   7.483   2.405   6.707
24501SOL    HW174944   7.562   2.415   6.655
24501SOL    HW274945   7.513   2.408   6.798
24502SOL     OW74946   7.639   2.387   7.320
24502SOL    HW174947   7.714   2.361   7.266
24502SOL    HW274948   7.599   2.459   7.271
24503SOL     OW74949   0.214   2.361   5.884
24503SOL    HW174950   0.164   2.285   5.912
24503SOL    HW274951   0.191   2.429   5.947
24504SOL     OW74952   7.688   3.393   7.303
24504SOL    HW174953   7.679   3.457   7.374
24504SOL    HW274954   7.709   3.311   7.347
24505SOL     OW74955   7.915   2.357   5.737
24505SOL    HW174956   7.964   2.430   5.775
24505SOL    HW274957   7.823   2.384   5.743
24506SOL     OW74958   7.571   3.010   7.060
24506SOL    HW174959   7.577   2.965   7.145
24506SOL    HW274960   7.590   2.942   6.996
24507SOL     OW74961   7.520   3.125   6.603
24507SOL    HW174962   7.463   3.159   6.672
24507SOL    HW274963   7.464   3.064   6.554
24508SOL     OW74964   7.587   3.661   7.411
24508SOL    HW174965   7.544   3.591   7.461
24508SOL    HW274966   7.636   3.711   7.476
24509SOL     OW74967   7.717   2.188   6.296
24509SOL    HW174968   7.632   2.225   6.271
24509SOL    HW274969   7.711   2.180   6.391
24510SOL     OW74970   7.815   3.146   7.106
24510SOL    HW174971   7.823   3.218   7.043
24510SOL    HW274972   7.731   3.104   7.083
24511SOL     OW74973   0.015   3.419   5.982
24511SOL    HW174974  -0.026   3.371   6.055
24511SOL    HW274975   0.083   3.471   6.024
24512SOL     OW74976   7.719   3.210   5.883
24512SOL    HW174977   7.627   3.209   5.858
24512SOL    HW274978   7.722   3.257   5.966
24513SOL     OW74979   7.563   2.906   7.318
24513SOL    HW174980   7.485   2.876   7.366
24513SOL    HW274981   7.636   2.858   7.357
24514SOL     OW74982   7.501   2.187   5.635
24514SOL    HW174983   7.427   2.174   5.576
24514SOL    HW274984   7.529   2.277   5.618
24515SOL     OW74985   7.503   2.014   5.880
24515SOL    HW174986   7.483   2.085   5.820
24515SOL    HW274987   7.593   1.989   5.859
24516SOL     OW74988   7.816   3.612   7.145
24516SOL    HW174989   7.722   3.625   7.132
24516SOL    HW274990   7.824   3.522   7.175
24517SOL     OW74991   7.701   3.152   7.441
24517SOL    HW174992   7.641   3.087   7.404
24517SOL    HW274993   7.668   3.166   7.530
24518SOL     OW74994   7.518   3.101   6.269
24518SOL    HW174995   7.584   3.042   6.306
24518SOL    HW274996   7.569   3.172   6.230
24519SOL     OW74997   0.086   3.314   7.140
24519SOL    HW174998   0.051   3.241   7.191
24519SOL    HW274999   0.167   3.338   7.185
24520SOL     OW75000   7.797   2.427   6.877
24520SOL    HW175001   7.862   2.373   6.922
24520SOL    HW275002   7.806   2.405   6.785
24521SOL     OW75003   7.484   2.925   5.895
24521SOL    HW175004   7.577   2.917   5.873
24521SOL    HW275005   7.457   2.837   5.919
24522SOL     OW75006   7.653   2.473   7.585
24522SOL    HW175007   7.563   2.473   7.618
24522SOL    HW275008   7.644   2.461   7.491
24523SOL     OW75009   7.648   2.162   8.447
24523SOL    HW175010   7.706   2.100   8.490
24523SOL    HW275011   7.572   2.110   8.420
24524SOL     OW75012   7.450   2.248   8.097
24524SOL    HW175013   7.362   2.269   8.129
24524SOL    HW275014   7.437   2.171   8.042
24525SOL     OW75015   7.752   3.297   8.504
24525SOL    HW175016   7.680   3.236   8.492
24525SOL    HW275017   7.780   3.320   8.415
24526SOL     OW75018   7.847   2.279   9.017
24526SOL    HW175019   7.927   2.290   8.965
24526SOL    HW275020   7.800   2.207   8.975
24527SOL     OW75021   7.667   3.572   7.923
24527SOL    HW175022   7.676   3.654   7.972
24527SOL    HW275023   7.752   3.560   7.881
24528SOL     OW75024   7.667   3.305   7.987
24528SOL    HW175025   7.658   3.400   7.976
24528SOL    HW275026   7.604   3.283   8.054
24529SOL     OW75027   7.704   2.952   8.337
24529SOL    HW175028   7.697   2.864   8.372
24529SOL    HW275029   7.649   3.006   8.394
24530SOL     OW75030   7.569   2.507   8.021
24530SOL    HW175031   7.530   2.422   8.038
24530SOL    HW275032   7.555   2.557   8.102
24531SOL     OW75033   7.501   3.452   7.559
24531SOL    HW175034   7.480   3.360   7.580
24531SOL    HW275035   7.471   3.501   7.636
24532SOL     OW75036   7.551   2.606   9.043
24532SOL    HW175037   7.640   2.642   9.040
24532SOL    HW275038   7.495   2.682   9.030
24533SOL     OW75039   7.636   2.808   8.746
24533SOL    HW175040   7.722   2.767   8.749
24533SOL    HW275041   7.610   2.804   8.654
24534SOL     OW75042   7.745   2.111   9.285
24534SOL    HW175043   7.797   2.191   9.277
24534SOL    HW275044   7.657   2.141   9.305
24535SOL     OW75045   7.995   2.593   7.710
24535SOL    HW175046   8.028   2.681   7.695
24535SOL    HW275047   7.937   2.601   7.786
24536SOL     OW75048   7.528   2.658   8.246
24536SOL    HW175049   7.610   2.674   8.292
24536SOL    HW275050   7.475   2.736   8.263
24537SOL     OW75051   7.566   3.718   9.027
24537SOL    HW175052   7.576   3.697   9.120
24537SOL    HW275053   7.477   3.692   9.006
24538SOL     OW75054   7.934   2.071   8.358
24538SOL    HW175055   7.975   2.109   8.435
24538SOL    HW275056   7.967   2.123   8.285
24539SOL     OW75057   7.809   3.692   8.310
24539SOL    HW175058   7.870   3.629   8.274
24539SOL    HW275059   7.862   3.769   8.330
24540SOL     OW75060   7.745   2.830   7.704
24540SOL    HW175061   7.828   2.856   7.662
24540SOL    HW275062   7.726   2.743   7.668
24541SOL     OW75063   7.945   3.096   9.203
24541SOL    HW175064   7.910   3.103   9.114
24541SOL    HW275065   7.873   3.122   9.260
24542SOL     OW75066   7.608   2.118   8.944
24542SOL    HW175067   7.580   2.177   9.015
24542SOL    HW275068   7.592   2.030   8.978
24543SOL     OW75069   7.702   3.644   8.668
24543SOL    HW175070   7.750   3.570   8.704
24543SOL    HW275071   7.685   3.620   8.577
24544SOL     OW75072   7.825   2.573   7.924
24544SOL    HW175073   7.872   2.493   7.949
24544SOL    HW275074   7.734   2.556   7.949
24545SOL     OW75075   0.022   1.964   7.600
24545SOL    HW175076   0.111   1.932   7.610
24545SOL    HW275077   0.020   2.005   7.513
24546SOL     OW75078   7.738   1.919   7.636
24546SOL    HW175079   7.777   1.984   7.579
24546SOL    HW275080   7.812   1.879   7.682
24547SOL     OW75081   7.924   2.950   8.176
24547SOL    HW175082   7.851   2.953   8.237
24547SOL    HW275083   7.884   2.955   8.089
24548SOL     OW75084   7.546   2.402   8.862
24548SOL    HW175085   7.634   2.422   8.828
24548SOL    HW275086   7.526   2.474   8.921
24549SOL     OW75087   7.986   2.083   8.636
24549SOL    HW175088   8.030   1.998   8.640
24549SOL    HW275089   7.895   2.065   8.659
24550SOL     OW75090   7.881   2.676   8.763
24550SOL    HW175091   7.973   2.696   8.748
24550SOL    HW275092   7.869   2.588   8.727
24551SOL     OW75093   7.524   3.430   8.802
24551SOL    HW175094   7.498   3.507   8.751
24551SOL    HW275095   7.620   3.429   8.797
24552SOL     OW75096   7.794   2.979   7.935
24552SOL    HW175097   7.781   3.059   7.883
24552SOL    HW275098   7.776   2.907   7.875
24553SOL     OW75099  -0.020   2.444   8.318
24553SOL    HW175100   0.022   2.517   8.273
24553SOL    HW275101   0.024   2.441   8.403
24554SOL     OW75102   7.793   3.391   8.759
24554SOL    HW175103   7.790   3.348   8.674
24554SOL    HW275104   7.885   3.415   8.771
24555SOL     OW75105   7.833   2.624   9.035
24555SOL    HW175106   7.850   2.660   8.947
24555SOL    HW275107   7.904   2.561   9.048
24556SOL     OW75108   7.928   1.928   9.204
24556SOL    HW175109   7.897   1.873   9.133
24556SOL    HW275110   7.859   1.993   9.217
24557SOL     OW75111   7.993   2.796   8.502
24557SOL    HW175112   8.021   2.884   8.477
24557SOL    HW275113   7.920   2.810   8.562
24558SOL     OW75114   7.721   2.045   8.706
24558SOL    HW175115   7.705   2.048   8.800
24558SOL    HW275116   7.714   1.953   8.683
24559SOL     OW75117   7.460   3.175   8.737
24559SOL    HW175118   7.508   3.122   8.800
24559SOL    HW275119   7.484   3.265   8.759
24560SOL     OW75120   7.677   1.941   8.086
24560SOL    HW175121   7.695   2.034   8.099
24560SOL    HW275122   7.763   1.902   8.076
24561SOL     OW75123   7.809   2.783   9.261
24561SOL    HW175124   7.885   2.839   9.245
24561SOL    HW275125   7.814   2.716   9.193
24562SOL     OW75126   7.748   2.683   8.415
24562SOL    HW175127   7.841   2.704   8.402
24562SOL    HW275128   7.747   2.588   8.426
24563SOL     OW75129   7.756   2.408   8.453
24563SOL    HW175130   7.724   2.319   8.439
24563SOL    HW275131   7.833   2.415   8.397
24564SOL     OW75132   7.464   3.176   7.637
24564SOL    HW175133   7.377   3.196   7.602
24564SOL    HW275134   7.454   3.088   7.674
24565SOL     OW75135   7.550   3.635   8.398
24565SOL    HW175136   7.516   3.563   8.346
24565SOL    HW275137   7.635   3.655   8.360
24566SOL     OW75138   7.484   2.379   8.562
24566SOL    HW175139   7.508   2.347   8.475
24566SOL    HW275140   7.532   2.461   8.572
24567SOL     OW75141   7.646   2.386   9.181
24567SOL    HW175142   7.721   2.359   9.127
24567SOL    HW275143   7.607   2.459   9.134
24568SOL     OW75144   0.209   2.371   7.741
24568SOL    HW175145   0.178   2.283   7.762
24568SOL    HW275146   0.179   2.426   7.813
24569SOL     OW75147   7.684   3.409   9.159
24569SOL    HW175148   7.675   3.485   9.216
24569SOL    HW275149   7.708   3.338   9.218
24570SOL     OW75150   7.906   2.360   7.587
24570SOL    HW175151   7.958   2.429   7.629
24570SOL    HW275152   7.816   2.392   7.594
24571SOL     OW75153   7.575   3.003   8.926
24571SOL    HW175154   7.580   2.960   9.011
24571SOL    HW275155   7.594   2.933   8.863
24572SOL     OW75156   7.540   3.114   8.482
24572SOL    HW175157   7.506   3.134   8.568
24572SOL    HW275158   7.463   3.091   8.430
24573SOL     OW75159   7.600   3.648   9.289
24573SOL    HW175160   7.553   3.582   9.341
24573SOL    HW275161   7.646   3.701   9.354
24574SOL     OW75162   7.723   2.205   8.162
24574SOL    HW175163   7.635   2.235   8.137
24574SOL    HW275164   7.715   2.184   8.255
24575SOL     OW75165   7.813   3.147   8.972
24575SOL    HW175166   7.828   3.221   8.914
24575SOL    HW275167   7.731   3.109   8.942
24576SOL     OW75168  -0.014   3.437   7.866
24576SOL    HW175169   0.008   3.354   7.909
24576SOL    HW275170   0.055   3.497   7.893
24577SOL     OW75171   7.718   3.190   7.749
24577SOL    HW175172   7.628   3.191   7.716
24577SOL    HW275173   7.715   3.243   7.829
24578SOL     OW75174   7.566   2.897   9.180
24578SOL    HW175175   7.488   2.871   9.230
24578SOL    HW275176   7.639   2.854   9.224
24579SOL     OW75177   7.520   2.189   7.474
24579SOL    HW175178   7.438   2.173   7.427
24579SOL    HW275179   7.555   2.268   7.435
24580SOL     OW75180   7.501   2.016   7.739
24580SOL    HW175181   7.486   2.089   7.678
24580SOL    HW275182   7.589   1.986   7.719
24581SOL     OW75183   7.835   3.622   9.007
24581SOL    HW175184   7.749   3.660   8.988
24581SOL    HW275185   7.816   3.530   9.027
24582SOL     OW75186   7.688   3.158   9.307
24582SOL    HW175187   7.642   3.102   9.244
24582SOL    HW275188   7.624   3.176   9.375
24583SOL     OW75189   7.535   3.083   8.123
24583SOL    HW175190   7.571   3.031   8.195
24583SOL    HW275191   7.594   3.066   8.049
24584SOL     OW75192   0.089   3.296   8.995
24584SOL    HW175193   0.048   3.236   9.058
24584SOL    HW275194   0.164   3.332   9.043
24585SOL     OW75195   7.785   2.397   8.722
24585SOL    HW175196   7.874   2.368   8.744
24585SOL    HW275197   7.785   2.403   8.627
24586SOL     OW75198   7.485   2.924   7.766
24586SOL    HW175199   7.576   2.913   7.738
24586SOL    HW275200   7.455   2.836   7.788
24587SOL     OW75201   7.655   2.477   9.445
24587SOL    HW175202   7.563   2.490   9.468
24587SOL    HW275203   7.655   2.467   9.349
24588SOL     OW75204   7.665   2.149  10.306
24588SOL    HW175205   7.688   2.108  10.389
24588SOL    HW275206   7.576   2.117  10.288
24589SOL     OW75207   7.450   2.247   9.954
24589SOL    HW175208   7.367   2.273   9.994
24589SOL    HW275209   7.427   2.170   9.900
24590SOL     OW75210   7.760   3.295  10.363
24590SOL    HW175211   7.687   3.234  10.350
24590SOL    HW275212   7.777   3.330  10.275
24591SOL     OW75213   7.860   2.259  10.760
24591SOL    HW175214   7.938   2.212  10.789
24591SOL    HW275215   7.787   2.204  10.789
24592SOL     OW75216   7.666   3.575   9.780
24592SOL    HW175217   7.682   3.655   9.829
24592SOL    HW275218   7.740   3.570   9.719
24593SOL     OW75219   7.654   3.313   9.861
24593SOL    HW175220   7.662   3.405   9.835
24593SOL    HW275221   7.592   3.314   9.933
24594SOL     OW75222   7.703   2.955  10.190
24594SOL    HW175223   7.706   2.871  10.235
24594SOL    HW275224   7.650   3.011  10.248
24595SOL     OW75225   7.581   2.505   9.881
24595SOL    HW175226   7.537   2.421   9.897
24595SOL    HW275227   7.563   2.556   9.960
24596SOL     OW75228   7.502   3.448   9.440
24596SOL    HW175229   7.479   3.358   9.460
24596SOL    HW275230   7.465   3.499   9.513
24597SOL     OW75231   7.558   2.613  10.889
24597SOL    HW175232   7.640   2.663  10.893
24597SOL    HW275233   7.490   2.680  10.885
24598SOL     OW75234   7.628   2.804  10.601
24598SOL    HW175235   7.702   2.754  10.565
24598SOL    HW275236   7.565   2.808  10.530
24599SOL     OW75237   7.760   2.123  11.161
24599SOL    HW175238   7.809   2.199  11.195
24599SOL    HW275239   7.668   2.147  11.172
24600SOL     OW75240   0.022   2.602   9.553
24600SOL    HW175241   0.035   2.697   9.542
24600SOL    HW275242  -0.042   2.595   9.623
24601SOL     OW75243   7.535   2.663  10.101
24601SOL    HW175244   7.616   2.686  10.147
24601SOL    HW275245   7.474   2.733  10.123
24602SOL     OW75246   7.574   3.729  10.892
24602SOL    HW175247   7.581   3.704  10.984
24602SOL    HW275248   7.484   3.707  10.868
24603SOL     OW75249   7.964   2.054  10.201
24603SOL    HW175250   7.962   2.120  10.271
24603SOL    HW275251   7.977   2.104  10.121
24604SOL     OW75252   7.807   3.693  10.175
24604SOL    HW175253   7.870   3.632  10.138
24604SOL    HW275254   7.857   3.772  10.193
24605SOL     OW75255   7.744   2.830   9.562
24605SOL    HW175256   7.818   2.863   9.511
24605SOL    HW275257   7.728   2.743   9.526
24606SOL     OW75258   7.942   3.087  11.055
24606SOL    HW175259   7.907   3.100  10.968
24606SOL    HW275260   7.874   3.118  11.114
24607SOL     OW75261   7.624   2.128  10.823
24607SOL    HW175262   7.539   2.169  10.837
24607SOL    HW275263   7.613   2.038  10.855
24608SOL     OW75264   7.694   3.647  10.537
24608SOL    HW175265   7.749   3.576  10.572
24608SOL    HW275266   7.687   3.628  10.444
24609SOL     OW75267   7.834   2.563   9.754
24609SOL    HW175268   7.888   2.504   9.805
24609SOL    HW275269   7.745   2.547   9.785
24610SOL     OW75270   0.008   1.904   9.463
24610SOL    HW175271   0.100   1.927   9.474
24610SOL    HW275272  -0.009   1.918   9.370
24611SOL     OW75273   7.974   1.867   9.858
24611SOL    HW175274   7.884   1.898   9.862
24611SOL    HW275275   8.020   1.931   9.804
24612SOL     OW75276   7.742   1.933   9.494
24612SOL    HW175277   7.744   2.001   9.426
24612SOL    HW275278   7.834   1.908   9.505
24613SOL     OW75279   7.929   2.936  10.036
24613SOL    HW175280   7.854   2.950  10.093
24613SOL    HW275281   7.893   2.945   9.947
24614SOL     OW75282   7.547   2.425  10.693
24614SOL    HW175283   7.642   2.419  10.690
24614SOL    HW275284   7.529   2.496  10.754
24615SOL     OW75285   7.968   2.140  10.489
24615SOL    HW175286   8.039   2.078  10.509
24615SOL    HW275287   7.888   2.095  10.515
24616SOL     OW75288   7.865   2.608  10.600
24616SOL    HW175289   7.930   2.669  10.564
24616SOL    HW275290   7.855   2.635  10.691
24617SOL     OW75291   7.525   3.430  10.666
24617SOL    HW175292   7.503   3.509  10.615
24617SOL    HW275293   7.620   3.424  10.660
24618SOL     OW75294   7.811   2.972   9.792
24618SOL    HW175295   7.790   3.053   9.746
24618SOL    HW275296   7.786   2.903   9.731
24619SOL     OW75297   7.955   2.466  10.186
24619SOL    HW175298   7.997   2.531  10.129
24619SOL    HW275299   8.017   2.453  10.258
24620SOL     OW75300   7.790   3.384  10.621
24620SOL    HW175301   7.790   3.344  10.534
24620SOL    HW275302   7.881   3.410  10.635
24621SOL     OW75303   7.865   2.626  10.889
24621SOL    HW175304   7.952   2.666  10.888
24621SOL    HW275305   7.882   2.533  10.905
24622SOL     OW75306   7.932   1.950  11.038
24622SOL    HW175307   7.883   1.886  10.987
24622SOL    HW275308   7.866   2.011  11.070
24623SOL     OW75309   7.999   2.791  10.398
24623SOL    HW175310   8.020   2.881  10.373
24623SOL    HW275311   7.923   2.769  10.345
24624SOL     OW75312   7.721   2.048  10.560
24624SOL    HW175313   7.675   2.080  10.637
24624SOL    HW275314   7.706   1.954  10.560
24625SOL     OW75315   7.473   3.172  10.597
24625SOL    HW175316   7.517   3.120  10.665
24625SOL    HW275317   7.490   3.263  10.622
24626SOL     OW75318   7.714   1.930   9.937
24626SOL    HW175319   7.709   2.025   9.946
24626SOL    HW275320   7.742   1.899  10.023
24627SOL     OW75321   7.799   2.778  11.125
24627SOL    HW175322   7.871   2.841  11.120
24627SOL    HW275323   7.818   2.715  11.055
24628SOL     OW75324   7.774   2.686  10.264
24628SOL    HW175325   7.833   2.663  10.192
24628SOL    HW275326   7.764   2.605  10.314
24629SOL     OW75327   7.779   2.382  10.371
24629SOL    HW175328   7.738   2.299  10.345
24629SOL    HW275329   7.834   2.406  10.296
24630SOL     OW75330   7.473   3.171   9.499
24630SOL    HW175331   7.386   3.193   9.466
24630SOL    HW275332   7.464   3.085   9.538
24631SOL     OW75333   7.550   3.635  10.261
24631SOL    HW175334   7.520   3.562  10.207
24631SOL    HW275335   7.635   3.658  10.224
24632SOL     OW75336   7.473   2.399  10.430
24632SOL    HW175337   7.550   2.400  10.373
24632SOL    HW275338   7.509   2.412  10.518
24633SOL     OW75339   7.621   2.394  11.044
24633SOL    HW175340   7.655   2.333  10.978
24633SOL    HW275341   7.591   2.470  10.994
24634SOL     OW75342   0.165   2.330   9.647
24634SOL    HW175343   0.219   2.347   9.569
24634SOL    HW275344   0.154   2.417   9.686
24635SOL     OW75345   7.687   3.410  11.025
24635SOL    HW175346   7.673   3.483  11.085
24635SOL    HW275347   7.711   3.337  11.081
24636SOL     OW75348   7.902   2.354   9.468
24636SOL    HW175349   7.958   2.421   9.507
24636SOL    HW275350   7.814   2.391   9.471
24637SOL     OW75351   7.579   2.999  10.789
24637SOL    HW175352   7.580   2.957  10.874
24637SOL    HW275353   7.599   2.929  10.727
24638SOL     OW75354   7.544   3.116  10.341
24638SOL    HW175355   7.515   3.135  10.430
24638SOL    HW275356   7.464   3.100  10.292
24639SOL     OW75357   7.595   3.648  11.150
24639SOL    HW175358   7.536   3.587  11.194
24639SOL    HW275359   7.655   3.676  11.219
24640SOL     OW75360   7.715   2.190  10.026
24640SOL    HW175361   7.630   2.224   9.997
24640SOL    HW275362   7.706   2.183  10.121
24641SOL     OW75363   7.815   3.150  10.825
24641SOL    HW175364   7.820   3.226  10.767
24641SOL    HW275365   7.731   3.109  10.805
24642SOL     OW75366  -0.022   3.433   9.734
24642SOL    HW175367   0.003   3.347   9.767
24642SOL    HW275368   0.051   3.490   9.756
24643SOL     OW75369   7.726   3.184   9.633
24643SOL    HW175370   7.645   3.189   9.582
24643SOL    HW275371   7.711   3.241   9.708
24644SOL     OW75372   7.558   2.882  11.034
24644SOL    HW175373   7.482   2.864  11.089
24644SOL    HW275374   7.632   2.850  11.085
24645SOL     OW75375   7.499   2.204   9.354
24645SOL    HW175376   7.430   2.188   9.290
24645SOL    HW275377   7.539   2.286   9.326
24646SOL     OW75378   7.504   2.020   9.600
24646SOL    HW175379   7.485   2.088   9.536
24646SOL    HW275380   7.593   1.993   9.579
24647SOL     OW75381   7.828   3.607  10.867
24647SOL    HW175382   7.744   3.649  10.850
24647SOL    HW275383   7.805   3.521  10.903
24648SOL     OW75384   7.707   3.170  11.178
24648SOL    HW175385   7.621   3.135  11.153
24648SOL    HW275386   7.702   3.181  11.273
24649SOL     OW75387   7.525   3.075   9.986
24649SOL    HW175388   7.578   3.025  10.048
24649SOL    HW275389   7.583   3.092   9.912
24650SOL     OW75390   0.097   3.298  10.861
24650SOL    HW175391   0.044   3.245  10.921
24650SOL    HW275392   0.170   3.328  10.913
24651SOL     OW75393   7.484   2.923   9.630
24651SOL    HW175394   7.575   2.914   9.601
24651SOL    HW275395   7.458   2.834   9.654
24652SOL     OW75396   7.649   2.466  11.309
24652SOL    HW175397   7.560   2.477  11.342
24652SOL    HW275398   7.639   2.462  11.214
24653SOL     OW75399   7.668   2.139  12.154
24653SOL    HW175400   7.702   2.101  12.235
24653SOL    HW275401   7.579   2.105  12.147
24654SOL     OW75402   7.443   2.245  11.811
24654SOL    HW175403   7.364   2.273  11.858
24654SOL    HW275404   7.415   2.167  11.762
24655SOL     OW75405   7.796   3.255  12.199
24655SOL    HW175406   7.703   3.232  12.198
24655SOL    HW275407   7.799   3.343  12.161
24656SOL     OW75408   7.661   3.566  11.654
24656SOL    HW175409   7.668   3.644  11.710
24656SOL    HW275410   7.704   3.591  11.572
24657SOL     OW75411   7.643   3.305  11.724
24657SOL    HW175412   7.668   3.392  11.693
24657SOL    HW275413   7.582   3.322  11.795
24658SOL     OW75414   7.702   2.964  12.095
24658SOL    HW175415   7.766   2.950  12.165
24658SOL    HW275416   7.646   3.035  12.128
24659SOL     OW75417   7.591   2.487  11.741
24659SOL    HW175418   7.538   2.407  11.743
24659SOL    HW275419   7.628   2.492  11.829
24660SOL     OW75420   7.468   3.451  11.286
24660SOL    HW175421   7.464   3.360  11.316
24660SOL    HW275422   7.455   3.503  11.366
24661SOL     OW75423   7.600   2.602   0.205
24661SOL    HW175424   7.592   2.603   0.301
24661SOL    HW275425   7.531   2.661   0.175
24662SOL     OW75426   7.630   2.791  12.347
24662SOL    HW175427   7.713   2.766  12.388
24662SOL    HW275428   7.570   2.806  12.420
24663SOL     OW75429   0.029   2.609  11.404
24663SOL    HW175430   0.036   2.704  11.409
24663SOL    HW275431  -0.038   2.587  11.468
24664SOL     OW75432   7.942   2.047  12.015
24664SOL    HW175433   7.968   2.070  12.104
24664SOL    HW275434   7.976   2.119  11.961
24665SOL     OW75435   7.807   3.686  12.036
24665SOL    HW175436   7.867   3.625  11.992
24665SOL    HW275437   7.859   3.764  12.051
24666SOL     OW75438   7.751   2.839  11.427
24666SOL    HW175439   7.843   2.859  11.409
24666SOL    HW275440   7.732   2.763  11.371
24667SOL     OW75441   7.677   3.656  12.410
24667SOL    HW175442   7.719   3.572  12.429
24667SOL    HW275443   7.642   3.646  12.322
24668SOL     OW75444   7.845   2.553  11.596
24668SOL    HW175445   7.910   2.532  11.664
24668SOL    HW275446   7.761   2.532  11.637
24669SOL     OW75447   0.010   1.916  11.309
24669SOL    HW175448   0.101   1.934  11.331
24669SOL    HW275449   0.003   1.939  11.216
24670SOL     OW75450   7.944   1.830  11.655
24670SOL    HW175451   7.877   1.872  11.708
24670SOL    HW275452   7.995   1.903  11.619
24671SOL     OW75453   7.742   1.928  11.352
24671SOL    HW175454   7.747   2.001  11.290
24671SOL    HW275455   7.833   1.903  11.367
24672SOL     OW75456   7.918   2.945  11.907
24672SOL    HW175457   7.844   2.951  11.967
24672SOL    HW275458   7.880   2.954  11.820
24673SOL     OW75459   8.003   2.038  12.285
24673SOL    HW175460   8.027   1.947  12.302
24673SOL    HW275461   7.918   2.049  12.328
24674SOL     OW75462   7.886   2.711  12.460
24674SOL    HW175463   7.977   2.740  12.471
24674SOL    HW275464   7.868   2.659  12.539
24675SOL     OW75465   7.804   2.979  11.662
24675SOL    HW175466   7.788   3.065  11.621
24675SOL    HW275467   7.775   2.916  11.596
24676SOL     OW75468  -0.016   2.429  12.058
24676SOL    HW175469   0.022   2.506  12.015
24676SOL    HW275470   0.031   2.422  12.141
24677SOL     OW75471   7.798   3.417  12.449
24677SOL    HW175472   7.802   3.337  12.396
24677SOL    HW275473   7.879   3.415  12.501
24678SOL     OW75474   7.897   2.592   0.208
24678SOL    HW175475   7.988   2.606   0.233
24678SOL    HW275476   7.852   2.575   0.290
24679SOL     OW75477   7.958   2.786  12.200
24679SOL    HW175478   7.990   2.877  12.204
24679SOL    HW275479   7.933   2.766  12.290
24680SOL     OW75480   7.754   2.047  12.400
24680SOL    HW175481   7.729   2.092  12.481
24680SOL    HW275482   7.737   1.954  12.418
24681SOL     OW75483   7.547   3.188  12.460
24681SOL    HW175484   7.516   3.127  12.526
24681SOL    HW275485   7.542   3.274  12.501
24682SOL     OW75486   7.723   1.916  11.805
24682SOL    HW175487   7.718   2.011  11.813
24682SOL    HW275488   7.746   1.886  11.893
24683SOL     OW75489   7.745   2.651  12.084
24683SOL    HW175490   7.829   2.691  12.104
24683SOL    HW275491   7.753   2.561  12.115
24684SOL     OW75492   7.746   2.392  12.173
24684SOL    HW175493   7.720   2.300  12.165
24684SOL    HW275494   7.832   2.397  12.133
24685SOL     OW75495   7.462   3.176  11.372
24685SOL    HW175496   7.375   3.195  11.336
24685SOL    HW275497   7.455   3.086  11.405
24686SOL     OW75498   7.552   3.635  12.128
24686SOL    HW175499   7.521   3.563  12.074
24686SOL    HW275500   7.638   3.657  12.092
24687SOL     OW75501   7.495   2.439  12.276
24687SOL    HW175502   7.582   2.428  12.236
24687SOL    HW275503   7.500   2.387  12.357
24688SOL     OW75504   0.152   2.332  11.496
24688SOL    HW175505   0.206   2.367  11.425
24688SOL    HW275506   0.147   2.402  11.560
24689SOL     OW75507   7.897   2.349  11.310
24689SOL    HW175508   7.956   2.402  11.364
24689SOL    HW275509   7.811   2.391  11.321
24690SOL     OW75510   7.534   3.145  12.197
24690SOL    HW175511   7.538   3.158  12.292
24690SOL    HW275512   7.447   3.176  12.172
24691SOL     OW75513   7.710   2.187  11.874
24691SOL    HW175514   7.620   2.213  11.854
24691SOL    HW275515   7.711   2.173  11.968
24692SOL     OW75516  -0.025   3.366  11.603
24692SOL    HW175517   0.059   3.332  11.635
24692SOL    HW275518  -0.012   3.461  11.597
24693SOL     OW75519   7.722   3.194  11.471
24693SOL    HW175520   7.629   3.198  11.450
24693SOL    HW275521   7.733   3.255  11.544
24694SOL     OW75522   7.500   2.192  11.211
24694SOL    HW175523   7.427   2.175  11.152
24694SOL    HW275524   7.529   2.281  11.187
24695SOL     OW75525   7.506   2.014  11.468
24695SOL    HW175526   7.486   2.085  11.407
24695SOL    HW275527   7.596   1.988  11.447
24696SOL     OW75528   7.756   3.588   0.241
24696SOL    HW175529   7.724   3.592   0.152
24696SOL    HW275530   7.838   3.540   0.235
24697SOL     OW75531   7.520   3.079  11.850
24697SOL    HW175532   7.583   3.063  11.919
24697SOL    HW275533   7.572   3.115  11.778
24698SOL     OW75534   7.482   2.920  11.490
24698SOL    HW175535   7.573   2.916  11.463
24698SOL    HW275536   7.460   2.830  11.515
24699SOL     OW75537   7.641   4.249   0.046
24699SOL    HW175538   7.626   4.321   0.108
24699SOL    HW275539   7.701   4.286  -0.019
24700SOL     OW75540   7.675   4.004   0.991
24700SOL    HW175541   7.699   3.976   1.079
24700SOL    HW275542   7.585   3.973   0.980
24701SOL     OW75543   7.443   4.104   0.646
24701SOL    HW175544   7.368   4.135   0.696
24701SOL    HW275545   7.412   4.026   0.601
24702SOL     OW75546   7.781   5.131   1.054
24702SOL    HW175547   7.697   5.085   1.050
24702SOL    HW275548   7.797   5.158   0.964
24703SOL     OW75549   7.868   4.126   1.518
24703SOL    HW175550   7.937   4.061   1.526
24703SOL    HW275551   7.787   4.076   1.515
24704SOL     OW75552   7.663   5.436   0.480
24704SOL    HW175553   7.688   5.517   0.525
24704SOL    HW275554   7.706   5.440   0.395
24705SOL     OW75555   7.661   5.157   0.523
24705SOL    HW175556   7.662   5.253   0.525
24705SOL    HW275557   7.606   5.132   0.597
24706SOL     OW75558   7.727   4.819   0.935
24706SOL    HW175559   7.704   4.727   0.951
24706SOL    HW275560   7.648   4.868   0.958
24707SOL     OW75561   7.559   4.353   0.572
24707SOL    HW175562   7.516   4.271   0.598
24707SOL    HW275563   7.551   4.410   0.649
24708SOL     OW75564   7.479   5.238   0.143
24708SOL    HW175565   7.394   5.198   0.127
24708SOL    HW275566   7.461   5.332   0.148
24709SOL     OW75567   7.553   4.468   1.584
24709SOL    HW175568   7.637   4.513   1.581
24709SOL    HW275569   7.487   4.537   1.574
24710SOL     OW75570   7.622   4.692   1.297
24710SOL    HW175571   7.680   4.632   1.250
24710SOL    HW275572   7.535   4.677   1.260
24711SOL     OW75573   7.763   3.983   1.849
24711SOL    HW175574   7.809   4.063   1.873
24711SOL    HW275575   7.670   4.004   1.861
24712SOL     OW75576   7.540   4.531   0.774
24712SOL    HW175577   7.614   4.530   0.834
24712SOL    HW275578   7.487   4.605   0.803
24713SOL     OW75579   7.573   5.592   1.584
24713SOL    HW175580   7.578   5.574   1.678
24713SOL    HW275581   7.501   5.537   1.553
24714SOL     OW75582   7.966   3.924   0.882
24714SOL    HW175583   7.964   3.925   0.978
24714SOL    HW275584   7.951   4.015   0.857
24715SOL     OW75585   7.808   5.549   0.855
24715SOL    HW175586   7.864   5.481   0.816
24715SOL    HW275587   7.869   5.619   0.879
24716SOL     OW75588   7.742   4.719   0.265
24716SOL    HW175589   7.795   4.763   0.198
24716SOL    HW275590   7.714   4.637   0.224
24717SOL     OW75591   7.941   4.970   1.743
24717SOL    HW175592   7.899   4.955   1.659
24717SOL    HW275593   7.869   4.986   1.804
24718SOL     OW75594   7.630   3.997   1.503
24718SOL    HW175595   7.548   4.046   1.496
24718SOL    HW275596   7.605   3.912   1.539
24719SOL     OW75597   7.704   5.531   1.208
24719SOL    HW175598   7.737   5.448   1.244
24719SOL    HW275599   7.666   5.508   1.124
24720SOL     OW75600   7.802   4.387   0.450
24720SOL    HW175601   7.866   4.367   0.518
24720SOL    HW275602   7.717   4.376   0.493
24721SOL     OW75603   0.065   3.800   0.066
24721SOL    HW175604   0.143   3.823   0.116
24721SOL    HW275605   0.094   3.730   0.007
24722SOL     OW75606   7.995   3.746   0.511
24722SOL    HW175607   7.909   3.764   0.548
24722SOL    HW275608   8.023   3.829   0.472
24723SOL     OW75609   7.925   4.842   0.752
24723SOL    HW175610   7.850   4.830   0.811
24723SOL    HW275611   7.887   4.838   0.664
24724SOL     OW75612   7.532   4.275   1.393
24724SOL    HW175613   7.623   4.278   1.365
24724SOL    HW275614   7.524   4.347   1.456
24725SOL     OW75615   7.988   3.912   1.148
24725SOL    HW175616   8.044   3.874   1.216
24725SOL    HW275617   7.904   3.925   1.191
24726SOL     OW75618   7.884   4.532   1.258
24726SOL    HW175619   7.967   4.520   1.304
24726SOL    HW275620   7.835   4.451   1.273
24727SOL     OW75621   7.519   5.318   1.374
24727SOL    HW175622   7.479   5.372   1.305
24727SOL    HW275623   7.610   5.306   1.345
24728SOL     OW75624   7.820   4.848   0.498
24728SOL    HW175625   7.797   4.937   0.472
24728SOL    HW275626   7.787   4.793   0.427
24729SOL     OW75627  -0.026   4.281   0.865
24729SOL    HW175628   0.014   4.358   0.825
24729SOL    HW275629   0.015   4.275   0.952
24730SOL     OW75630   7.783   5.279   1.286
24730SOL    HW175631   7.778   5.221   1.210
24730SOL    HW275632   7.876   5.283   1.307
24731SOL     OW75633   7.852   4.459   1.600
24731SOL    HW175634   7.938   4.486   1.569
24731SOL    HW275635   7.852   4.363   1.591
24732SOL     OW75636   7.933   3.816   1.721
24732SOL    HW175637   7.884   3.747   1.676
24732SOL    HW275638   7.867   3.874   1.758
24733SOL     OW75639   7.994   4.638   1.034
24733SOL    HW175640   7.987   4.733   1.036
24733SOL    HW275641   7.950   4.609   1.114
24734SOL     OW75642   7.739   3.927   1.253
24734SOL    HW175643   7.694   3.959   1.332
24734SOL    HW275644   7.717   3.834   1.249
24735SOL     OW75645   7.535   5.047   1.274
24735SOL    HW175646   7.537   4.977   1.339
24735SOL    HW275647   7.488   5.119   1.318
24736SOL     OW75648   7.747   3.801   0.619
24736SOL    HW175649   7.733   3.893   0.640
24736SOL    HW275650   7.761   3.758   0.703
24737SOL     OW75651   7.796   4.634   1.803
24737SOL    HW175652   7.851   4.601   1.874
24737SOL    HW275653   7.811   4.573   1.731
24738SOL     OW75654   7.746   4.533   0.951
24738SOL    HW175655   7.838   4.556   0.962
24738SOL    HW275656   7.740   4.442   0.981
24739SOL     OW75657   7.748   4.261   1.011
24739SOL    HW175658   7.717   4.171   1.002
24739SOL    HW275659   7.824   4.266   0.954
24740SOL     OW75660   7.554   5.495   0.957
24740SOL    HW175661   7.518   5.419   0.911
24740SOL    HW275662   7.636   5.514   0.912
24741SOL     OW75663   7.478   4.261   1.120
24741SOL    HW175664   7.559   4.279   1.073
24741SOL    HW275665   7.499   4.279   1.212
24742SOL     OW75666   7.624   4.251   1.737
24742SOL    HW175667   7.665   4.196   1.669
24742SOL    HW275668   7.590   4.326   1.689
24743SOL     OW75669   7.690   5.270   1.717
24743SOL    HW175670   7.669   5.330   1.789
24743SOL    HW275671   7.698   5.184   1.759
24744SOL     OW75672   7.914   4.156   0.182
24744SOL    HW175673   7.929   4.247   0.205
24744SOL    HW275674   7.823   4.153   0.151
24745SOL     OW75675   7.590   4.872   1.492
24745SOL    HW175676   7.587   4.827   1.576
24745SOL    HW275677   7.599   4.802   1.428
24746SOL     OW75678   7.521   5.012   1.009
24746SOL    HW175679   7.518   5.020   1.104
24746SOL    HW275680   7.448   4.954   0.987
24747SOL     OW75681   7.596   5.531   1.846
24747SOL    HW175682   7.549   5.459   1.888
24747SOL    HW275683   7.648   5.570   1.916
24748SOL     OW75684   7.716   4.055   0.716
24748SOL    HW175685   7.630   4.086   0.690
24748SOL    HW275686   7.709   4.041   0.810
24749SOL     OW75687   7.813   5.029   1.466
24749SOL    HW175688   7.768   5.114   1.466
24749SOL    HW275689   7.743   4.964   1.469
24750SOL     OW75690  -0.009   5.243   0.496
24750SOL    HW175691  -0.005   5.179   0.424
24750SOL    HW275692   0.030   5.322   0.460
24751SOL     OW75693   7.733   5.082   0.277
24751SOL    HW175694   7.662   5.112   0.220
24751SOL    HW275695   7.706   5.109   0.365
24752SOL     OW75696   7.567   4.783   1.751
24752SOL    HW175697   7.487   4.750   1.792
24752SOL    HW275698   7.636   4.725   1.783
24753SOL     OW75699   7.509   3.869   0.321
24753SOL    HW175700   7.485   3.950   0.275
24753SOL    HW275701   7.603   3.875   0.334
24754SOL     OW75702   7.829   5.476   1.572
24754SOL    HW175703   7.745   5.514   1.549
24754SOL    HW275704   7.807   5.393   1.614
24755SOL     OW75705   7.686   5.022   1.841
24755SOL    HW175706   7.635   4.947   1.808
24755SOL    HW275707   7.656   5.033   1.931
24756SOL     OW75708   7.521   4.971   0.688
24756SOL    HW175709   7.504   4.902   0.752
24756SOL    HW275710   7.560   4.925   0.613
24757SOL     OW75711   0.089   5.147   1.591
24757SOL    HW175712   0.047   5.102   1.664
24757SOL    HW275713   0.164   5.192   1.630
24758SOL     OW75714   7.784   4.281   1.296
24758SOL    HW175715   7.842   4.227   1.349
24758SOL    HW275716   7.799   4.251   1.206
24759SOL     OW75717   7.493   4.799   0.383
24759SOL    HW175718   7.570   4.799   0.326
24759SOL    HW275719   7.471   4.707   0.396
24760SOL     OW75720   7.656   4.344   1.996
24760SOL    HW175721   7.569   4.340   2.036
24760SOL    HW275722   7.642   4.327   1.904
24761SOL     OW75723   7.673   4.004   2.852
24761SOL    HW175724   7.696   3.979   2.942
24761SOL    HW275725   7.584   3.972   2.840
24762SOL     OW75726   7.445   4.117   2.504
24762SOL    HW175727   7.366   4.144   2.552
24762SOL    HW275728   7.418   4.039   2.456
24763SOL     OW75729   7.748   5.177   2.910
24763SOL    HW175730   7.670   5.123   2.898
24763SOL    HW275731   7.808   5.148   2.842
24764SOL     OW75732   7.876   4.107   3.368
24764SOL    HW175733   7.925   4.045   3.423
24764SOL    HW275734   7.787   4.072   3.366
24765SOL     OW75735   7.676   5.448   2.327
24765SOL    HW175736   7.689   5.523   2.385
24765SOL    HW275737   7.763   5.410   2.317
24766SOL     OW75738   7.670   5.163   2.395
24766SOL    HW175739   7.639   5.252   2.409
24766SOL    HW275740   7.619   5.110   2.457
24767SOL     OW75741   7.713   4.816   2.764
24767SOL    HW175742   7.701   4.728   2.799
24767SOL    HW275743   7.652   4.870   2.815
24768SOL     OW75744   7.570   4.373   2.428
24768SOL    HW175745   7.528   4.290   2.452
24768SOL    HW275746   7.558   4.428   2.505
24769SOL     OW75747   7.501   5.312   1.974
24769SOL    HW175748   7.482   5.220   1.991
24769SOL    HW275749   7.471   5.358   2.052
24770SOL     OW75750   7.564   4.475   3.435
24770SOL    HW175751   7.653   4.509   3.446
24770SOL    HW275752   7.508   4.552   3.442
24771SOL     OW75753   7.634   4.679   3.138
24771SOL    HW175754   7.718   4.635   3.126
24771SOL    HW275755   7.570   4.620   3.100
24772SOL     OW75756   7.771   4.002   3.666
24772SOL    HW175757   7.821   4.056   3.726
24772SOL    HW275758   7.683   3.999   3.704
24773SOL     OW75759   7.986   4.471   2.111
24773SOL    HW175760   8.028   4.555   2.130
24773SOL    HW275761   7.931   4.453   2.187
24774SOL     OW75762   7.534   4.555   2.629
24774SOL    HW175763   7.609   4.543   2.688
24774SOL    HW275764   7.484   4.627   2.667
24775SOL     OW75765   7.569   5.591   3.449
24775SOL    HW175766   7.579   5.577   3.543
24775SOL    HW275767   7.491   5.541   3.425
24776SOL     OW75768   7.967   3.934   2.749
24776SOL    HW175769   7.962   3.930   2.845
24776SOL    HW275770   7.950   4.025   2.728
24777SOL     OW75771   7.819   5.557   2.736
24777SOL    HW175772   7.885   5.492   2.762
24777SOL    HW275773   7.863   5.641   2.741
24778SOL     OW75774   7.747   4.687   2.124
24778SOL    HW175775   7.838   4.700   2.097
24778SOL    HW275776   7.730   4.594   2.110
24779SOL     OW75777   7.958   4.982   3.595
24779SOL    HW175778   7.915   4.984   3.510
24779SOL    HW275779   7.888   4.995   3.658
24780SOL     OW75780   7.622   4.007   3.378
24780SOL    HW175781   7.540   4.053   3.393
24780SOL    HW275782   7.632   3.950   3.454
24781SOL     OW75783   7.704   5.514   3.091
24781SOL    HW175784   7.748   5.449   3.145
24781SOL    HW275785   7.699   5.473   3.004
24782SOL     OW75786   7.824   4.419   2.320
24782SOL    HW175787   7.873   4.369   2.385
24782SOL    HW275788   7.732   4.408   2.346
24783SOL     OW75789   0.015   3.810   1.999
24783SOL    HW175790   0.109   3.793   2.010
24783SOL    HW275791   0.004   3.819   1.904
24784SOL     OW75792   7.963   3.727   2.339
24784SOL    HW175793   7.892   3.756   2.396
24784SOL    HW275794   8.008   3.808   2.313
24785SOL     OW75795   7.740   3.786   2.038
24785SOL    HW175796   7.751   3.858   1.976
24785SOL    HW275797   7.829   3.761   2.061
24786SOL     OW75798   7.920   4.853   2.597
24786SOL    HW175799   7.849   4.837   2.660
24786SOL    HW275800   7.878   4.842   2.511
24787SOL     OW75801   7.532   4.283   3.244
24787SOL    HW175802   7.625   4.276   3.226
24787SOL    HW275803   7.525   4.352   3.311
24788SOL     OW75804   7.982   3.918   3.016
24788SOL    HW175805   8.046   3.919   3.087
24788SOL    HW275806   7.897   3.928   3.059
24789SOL     OW75807   7.872   4.534   3.130
24789SOL    HW175808   7.911   4.556   3.215
24789SOL    HW275809   7.843   4.444   3.139
24790SOL     OW75810   7.524   5.302   3.228
24790SOL    HW175811   7.503   5.375   3.169
24790SOL    HW275812   7.619   5.290   3.217
24791SOL     OW75813   7.800   4.843   2.349
24791SOL    HW175814   7.778   4.923   2.301
24791SOL    HW275815   7.775   4.773   2.289
24792SOL     OW75816  -0.023   4.274   2.726
24792SOL    HW175817   0.014   4.352   2.686
24792SOL    HW275818   0.015   4.271   2.814
24793SOL     OW75819   7.787   5.253   3.172
24793SOL    HW175820   7.783   5.216   3.084
24793SOL    HW275821   7.880   5.275   3.184
24794SOL     OW75822   7.858   4.448   3.452
24794SOL    HW175823   7.940   4.494   3.467
24794SOL    HW275824   7.883   4.356   3.442
24795SOL     OW75825   7.901   3.810   3.526
24795SOL    HW175826   7.888   3.734   3.584
24795SOL    HW275827   7.858   3.882   3.572
24796SOL     OW75828   7.978   4.635   2.899
24796SOL    HW175829   8.033   4.708   2.927
24796SOL    HW275830   7.941   4.600   2.981
24797SOL     OW75831   7.727   3.935   3.116
24797SOL    HW175832   7.684   3.966   3.196
24797SOL    HW275833   7.711   3.841   3.115
24798SOL     OW75834   7.508   5.042   3.134
24798SOL    HW175835   7.532   4.982   3.204
24798SOL    HW275836   7.502   5.128   3.177
24799SOL     OW75837   7.742   3.790   2.493
24799SOL    HW175838   7.728   3.883   2.510
24799SOL    HW275839   7.763   3.752   2.578
24800SOL     OW75840   7.770   4.650   3.665
24800SOL    HW175841   7.766   4.662   3.760
24800SOL    HW275842   7.805   4.561   3.653
24801SOL     OW75843   7.737   4.536   2.810
24801SOL    HW175844   7.825   4.566   2.830
24801SOL    HW275845   7.736   4.444   2.840
24802SOL     OW75846   7.745   4.262   2.866
24802SOL    HW175847   7.717   4.171   2.860
24802SOL    HW275848   7.824   4.267   2.811
24803SOL     OW75849   7.464   5.037   2.047
24803SOL    HW175850   7.377   5.057   2.014
24803SOL    HW275851   7.457   4.950   2.086
24804SOL     OW75852   7.542   5.503   2.799
24804SOL    HW175853   7.512   5.424   2.753
24804SOL    HW275854   7.633   5.513   2.771
24805SOL     OW75855   7.484   4.282   2.975
24805SOL    HW175856   7.569   4.283   2.931
24805SOL    HW275857   7.506   4.280   3.068
24806SOL     OW75858   7.603   4.253   3.590
24806SOL    HW175859   7.674   4.214   3.538
24806SOL    HW275860   7.577   4.331   3.541
24807SOL     OW75861   0.205   4.239   2.161
24807SOL    HW175862   0.169   4.153   2.180
24807SOL    HW275863   0.185   4.292   2.238
24808SOL     OW75864   7.684   5.273   3.580
24808SOL    HW175865   7.665   5.329   3.655
24808SOL    HW275866   7.705   5.188   3.618
24809SOL     OW75867   7.905   4.226   2.003
24809SOL    HW175868   7.957   4.296   2.041
24809SOL    HW275869   7.815   4.257   2.009
24810SOL     OW75870   7.591   4.868   3.329
24810SOL    HW175871   7.582   4.823   3.413
24810SOL    HW275872   7.606   4.798   3.265
24811SOL     OW75873   7.534   4.993   2.875
24811SOL    HW175874   7.521   5.008   2.968
24811SOL    HW275875   7.456   4.944   2.848
24812SOL     OW75876   7.595   5.535   3.710
24812SOL    HW175877   7.549   5.463   3.752
24812SOL    HW275878   7.647   5.574   3.781
24813SOL     OW75879   7.715   4.051   2.577
24813SOL    HW175880   7.631   4.087   2.550
24813SOL    HW275881   7.707   4.039   2.672
24814SOL     OW75882   7.816   5.025   3.365
24814SOL    HW175883   7.802   5.100   3.309
24814SOL    HW275884   7.739   4.970   3.353
24815SOL     OW75885  -0.008   5.286   2.275
24815SOL    HW175886  -0.012   5.220   2.344
24815SOL    HW275887   0.056   5.350   2.306
24816SOL     OW75888   7.720   5.059   2.153
24816SOL    HW175889   7.629   5.055   2.123
24816SOL    HW275890   7.716   5.108   2.235
24817SOL     OW75891   7.544   4.763   3.572
24817SOL    HW175892   7.473   4.738   3.630
24817SOL    HW275893   7.622   4.725   3.611
24818SOL     OW75894   7.507   4.056   1.901
24818SOL    HW175895   7.421   4.036   1.863
24818SOL    HW275896   7.533   4.138   1.859
24819SOL     OW75897   7.505   3.876   2.158
24819SOL    HW175898   7.489   3.953   2.104
24819SOL    HW275899   7.593   3.848   2.134
24820SOL     OW75900   7.822   5.475   3.425
24820SOL    HW175901   7.735   5.513   3.415
24820SOL    HW275902   7.806   5.389   3.465
24821SOL     OW75903   7.710   5.032   3.718
24821SOL    HW175904   7.636   4.974   3.701
24821SOL    HW275905   7.712   5.044   3.813
24822SOL     OW75906   7.543   4.954   2.538
24822SOL    HW175907   7.527   4.915   2.624
24822SOL    HW275908   7.608   4.897   2.497
24823SOL     OW75909   0.111   5.164   3.405
24823SOL    HW175910   0.057   5.105   3.457
24823SOL    HW275911   0.178   5.194   3.466
24824SOL     OW75912   7.792   4.273   3.160
24824SOL    HW175913   7.845   4.220   3.219
24824SOL    HW275914   7.812   4.240   3.072
24825SOL     OW75915   7.487   4.784   2.169
24825SOL    HW175916   7.579   4.772   2.144
24825SOL    HW275917   7.457   4.697   2.195
24826SOL     OW75918   7.677   4.331   3.844
24826SOL    HW175919   7.601   4.346   3.901
24826SOL    HW275920   7.639   4.312   3.758
24827SOL     OW75921   7.634   4.041   4.731
24827SOL    HW175922   7.670   3.990   4.804
24827SOL    HW275923   7.558   3.991   4.703
24828SOL     OW75924   7.432   4.097   4.372
24828SOL    HW175925   7.350   4.126   4.412
24828SOL    HW275926   7.408   4.018   4.324
24829SOL     OW75927   7.744   5.170   4.781
24829SOL    HW175928   7.669   5.113   4.763
24829SOL    HW275929   7.800   5.160   4.705
24830SOL     OW75930   7.859   4.111   5.185
24830SOL    HW175931   7.932   4.078   5.238
24830SOL    HW275932   7.783   4.064   5.217
24831SOL     OW75933   7.675   5.451   4.181
24831SOL    HW175934   7.692   5.521   4.244
24831SOL    HW275935   7.756   5.400   4.179
24832SOL     OW75936   7.672   5.166   4.247
24832SOL    HW175937   7.630   5.251   4.265
24832SOL    HW275938   7.628   5.105   4.306
24833SOL     OW75939   7.716   4.811   4.641
24833SOL    HW175940   7.704   4.721   4.671
24833SOL    HW275941   7.650   4.861   4.689
24834SOL     OW75942   7.481   4.379   4.297
24834SOL    HW175943   7.488   4.286   4.318
24834SOL    HW275944   7.524   4.424   4.369
24835SOL     OW75945   7.500   5.315   3.836
24835SOL    HW175946   7.483   5.222   3.853
24835SOL    HW275947   7.469   5.360   3.914
24836SOL     OW75948   7.584   4.469   5.287
24836SOL    HW175949   7.677   4.485   5.297
24836SOL    HW275950   7.542   4.546   5.327
24837SOL     OW75951   7.641   4.678   4.992
24837SOL    HW175952   7.731   4.647   4.995
24837SOL    HW275953   7.598   4.624   4.926
24838SOL     OW75954   7.754   4.023   5.536
24838SOL    HW175955   7.805   4.069   5.602
24838SOL    HW275956   7.673   3.999   5.580
24839SOL     OW75957   0.043   4.467   3.950
24839SOL    HW175958   0.033   4.559   3.925
24839SOL    HW275959   0.004   4.461   4.038
24840SOL     OW75960   7.539   4.555   4.505
24840SOL    HW175961   7.617   4.538   4.558
24840SOL    HW275962   7.501   4.635   4.543
24841SOL     OW75963   7.581   5.572   5.318
24841SOL    HW175964   7.590   5.546   5.410
24841SOL    HW275965   7.490   5.551   5.296
24842SOL     OW75966   7.935   3.969   4.604
24842SOL    HW175967   7.975   3.886   4.630
24842SOL    HW275968   7.998   4.036   4.630
24843SOL     OW75969   7.820   5.556   4.607
24843SOL    HW175970   7.895   5.500   4.623
24843SOL    HW275971   7.854   5.645   4.611
24844SOL     OW75972   7.760   4.701   3.933
24844SOL    HW175973   7.845   4.742   3.943
24844SOL    HW275974   7.757   4.633   4.001
24845SOL     OW75975   7.946   4.981   5.471
24845SOL    HW175976   7.890   4.992   5.394
24845SOL    HW275977   7.884   4.972   5.544
24846SOL     OW75978   7.603   4.003   5.243
24846SOL    HW175979   7.520   4.031   5.283
24846SOL    HW275980   7.611   3.910   5.265
24847SOL     OW75981   7.693   5.516   4.938
24847SOL    HW175982   7.739   5.438   4.970
24847SOL    HW275983   7.680   5.500   4.845
24848SOL     OW75984  -0.010   3.818   3.818
24848SOL    HW175985   0.045   3.833   3.895
24848SOL    HW275986   0.019   3.884   3.755
24849SOL     OW75987   7.989   3.802   4.204
24849SOL    HW175988   7.906   3.796   4.251
24849SOL    HW275989   8.056   3.790   4.271
24850SOL     OW75990   7.739   3.765   3.913
24850SOL    HW175991   7.825   3.789   3.878
24850SOL    HW275992   7.758   3.713   3.990
24851SOL     OW75993   7.912   4.886   4.474
24851SOL    HW175994   7.849   4.853   4.538
24851SOL    HW275995   7.871   4.870   4.389
24852SOL     OW75996   7.547   4.270   5.103
24852SOL    HW175997   7.603   4.205   5.144
24852SOL    HW275998   7.552   4.346   5.161
24853SOL     OW75999   7.991   3.928   4.916
24853SOL    HW176000   8.040   3.863   4.866
24853SOL    HW276001   7.912   3.882   4.944
24854SOL     OW76002   7.893   4.563   5.010
24854SOL    HW176003   7.981   4.586   5.042
24854SOL    HW276004   7.873   4.480   5.054
24855SOL     OW76005   7.527   5.294   5.091
24855SOL    HW176006   7.495   5.362   5.031
24855SOL    HW276007   7.621   5.291   5.074
24856SOL     OW76008   7.755   4.846   4.247
24856SOL    HW176009   7.753   4.877   4.157
24856SOL    HW276010   7.786   4.756   4.240
24857SOL     OW76011  -0.015   4.286   4.579
24857SOL    HW176012   0.017   4.365   4.536
24857SOL    HW276013   0.030   4.286   4.664
24858SOL     OW76014   7.791   5.274   5.027
24858SOL    HW176015   7.782   5.225   4.945
24858SOL    HW276016   7.885   5.288   5.036
24859SOL     OW76017   7.864   4.456   5.326
24859SOL    HW176018   7.957   4.476   5.316
24859SOL    HW276019   7.862   4.366   5.359
24860SOL     OW76020   7.923   3.821   5.464
24860SOL    HW176021   7.888   3.750   5.410
24860SOL    HW276022   7.849   3.880   5.476
24861SOL     OW76023   7.990   4.642   4.762
24861SOL    HW176024   8.013   4.735   4.765
24861SOL    HW276025   7.952   4.624   4.847
24862SOL     OW76026   7.713   3.928   4.975
24862SOL    HW176027   7.658   3.949   5.050
24862SOL    HW276028   7.708   3.832   4.967
24863SOL     OW76029   7.487   5.034   4.999
24863SOL    HW176030   7.522   4.975   5.066
24863SOL    HW276031   7.497   5.121   5.036
24864SOL     OW76032   7.756   3.781   4.346
24864SOL    HW176033   7.733   3.872   4.364
24864SOL    HW276034   7.765   3.741   4.433
24865SOL     OW76035   7.789   4.644   5.521
24865SOL    HW176036   7.829   4.610   5.602
24865SOL    HW276037   7.823   4.587   5.452
24866SOL     OW76038   7.740   4.532   4.697
24866SOL    HW176039   7.832   4.559   4.695
24866SOL    HW276040   7.743   4.441   4.728
24867SOL     OW76041   7.800   4.243   4.778
24867SOL    HW176042   7.739   4.172   4.753
24867SOL    HW276043   7.854   4.256   4.700
24868SOL     OW76044   7.459   5.043   3.910
24868SOL    HW176045   7.371   5.060   3.877
24868SOL    HW276046   7.454   4.954   3.946
24869SOL     OW76047   7.551   5.501   4.670
24869SOL    HW176048   7.518   5.426   4.621
24869SOL    HW276049   7.639   5.516   4.636
24870SOL     OW76050   7.480   4.284   4.836
24870SOL    HW176051   7.530   4.219   4.788
24870SOL    HW276052   7.516   4.282   4.925
24871SOL     OW76053   7.614   4.265   5.482
24871SOL    HW176054   7.654   4.186   5.448
24871SOL    HW276055   7.585   4.313   5.404
24872SOL     OW76056   0.228   4.219   4.016
24872SOL    HW176057   0.214   4.133   4.054
24872SOL    HW276058   0.200   4.280   4.084
24873SOL     OW76059   7.925   4.218   3.865
24873SOL    HW176060   7.977   4.286   3.907
24873SOL    HW276061   7.836   4.251   3.866
24874SOL     OW76062   7.585   4.857   5.192
24874SOL    HW176063   7.582   4.805   5.272
24874SOL    HW276064   7.606   4.793   5.123
24875SOL     OW76065   7.528   4.998   4.734
24875SOL    HW176066   7.504   5.006   4.827
24875SOL    HW276067   7.462   4.940   4.697
24876SOL     OW76068   7.644   5.480   5.576
24876SOL    HW176069   7.579   5.425   5.620
24876SOL    HW276070   7.672   5.542   5.643
24877SOL     OW76071   7.703   4.034   4.423
24877SOL    HW176072   7.614   4.068   4.417
24877SOL    HW276073   7.723   4.035   4.516
24878SOL     OW76074   7.780   5.045   5.261
24878SOL    HW176075   7.818   5.082   5.182
24878SOL    HW276076   7.716   4.981   5.230
24879SOL     OW76077  -0.018   5.297   4.136
24879SOL    HW176078  -0.024   5.223   4.196
24879SOL    HW276079   0.060   5.345   4.164
24880SOL     OW76080   7.718   5.061   4.000
24880SOL    HW176081   7.625   5.058   3.977
24880SOL    HW276082   7.720   5.103   4.086
24881SOL     OW76083   7.544   4.724   5.426
24881SOL    HW176084   7.472   4.717   5.489
24881SOL    HW276085   7.622   4.703   5.477
24882SOL     OW76086   7.514   4.046   3.755
24882SOL    HW176087   7.420   4.045   3.769
24882SOL    HW276088   7.529   4.125   3.702
24883SOL     OW76089   7.505   3.873   4.023
24883SOL    HW176090   7.494   3.963   3.990
24883SOL    HW276091   7.590   3.846   3.988
24884SOL     OW76092   7.813   5.401   5.332
24884SOL    HW176093   7.744   5.450   5.289
24884SOL    HW276094   7.864   5.362   5.261
24885SOL     OW76095   7.695   5.090   5.583
24885SOL    HW176096   7.628   5.032   5.545
24885SOL    HW276097   7.689   5.075   5.677
24886SOL     OW76098   7.550   4.956   4.391
24886SOL    HW176099   7.548   4.908   4.474
24886SOL    HW276100   7.617   4.911   4.339
24887SOL     OW76101   0.071   5.173   5.288
24887SOL    HW176102   0.049   5.092   5.334
24887SOL    HW276103   0.152   5.203   5.329
24888SOL     OW76104   7.492   4.787   4.017
24888SOL    HW176105   7.580   4.771   3.982
24888SOL    HW276106   7.461   4.701   4.043
24889SOL     OW76107   7.647   4.377   5.728
24889SOL    HW176108   7.562   4.362   5.769
24889SOL    HW276109   7.636   4.348   5.638
24890SOL     OW76110   7.668   4.018   6.589
24890SOL    HW176111   7.695   3.974   6.670
24890SOL    HW276112   7.581   3.984   6.571
24891SOL     OW76113   7.447   4.117   6.228
24891SOL    HW176114   7.366   4.141   6.273
24891SOL    HW276115   7.424   4.039   6.178
24892SOL     OW76116   7.750   5.181   6.644
24892SOL    HW176117   7.676   5.125   6.620
24892SOL    HW276118   7.822   5.151   6.588
24893SOL     OW76119   7.858   4.141   7.100
24893SOL    HW176120   7.948   4.123   7.126
24893SOL    HW276121   7.815   4.056   7.102
24894SOL     OW76122   7.668   5.442   6.061
24894SOL    HW176123   7.679   5.519   6.117
24894SOL    HW276124   7.757   5.418   6.035
24895SOL     OW76125   7.670   5.160   6.111
24895SOL    HW176126   7.647   5.251   6.127
24895SOL    HW276127   7.621   5.111   6.177
24896SOL     OW76128   7.719   4.817   6.495
24896SOL    HW176129   7.702   4.729   6.528
24896SOL    HW276130   7.657   4.873   6.541
24897SOL     OW76131   7.567   4.372   6.153
24897SOL    HW176132   7.527   4.288   6.173
24897SOL    HW276133   7.555   4.424   6.232
24898SOL     OW76134   7.494   5.302   5.703
24898SOL    HW176135   7.472   5.211   5.724
24898SOL    HW276136   7.465   5.352   5.779
24899SOL     OW76137   7.561   4.469   7.166
24899SOL    HW176138   7.650   4.504   7.170
24899SOL    HW276139   7.505   4.546   7.160
24900SOL     OW76140   7.637   4.680   6.870
24900SOL    HW176141   7.724   4.641   6.866
24900SOL    HW276142   7.582   4.621   6.818
24901SOL     OW76143   7.748   3.986   7.397
24901SOL    HW176144   7.802   4.057   7.430
24901SOL    HW276145   7.661   4.001   7.434
24902SOL     OW76146   7.976   4.486   5.837
24902SOL    HW176147   8.065   4.498   5.870
24902SOL    HW276148   7.925   4.462   5.914
24903SOL     OW76149   7.538   4.550   6.359
24903SOL    HW176150   7.612   4.540   6.418
24903SOL    HW276151   7.487   4.622   6.395
24904SOL     OW76152   7.568   5.587   7.172
24904SOL    HW176153   7.574   5.577   7.267
24904SOL    HW276154   7.494   5.532   7.147
24905SOL     OW76155   7.951   3.890   6.481
24905SOL    HW176156   7.959   3.923   6.570
24905SOL    HW276157   7.967   3.967   6.426
24906SOL     OW76158   7.817   5.558   6.462
24906SOL    HW176159   7.890   5.497   6.466
24906SOL    HW276160   7.857   5.645   6.473
24907SOL     OW76161   7.755   4.682   5.848
24907SOL    HW176162   7.850   4.679   5.834
24907SOL    HW276163   7.726   4.592   5.832
24908SOL     OW76164   7.950   4.970   7.335
24908SOL    HW176165   7.912   4.970   7.247
24908SOL    HW276166   7.876   4.990   7.393
24909SOL     OW76167   7.626   3.977   7.099
24909SOL    HW176168   7.555   4.040   7.091
24909SOL    HW276169   7.633   3.961   7.193
24910SOL     OW76170   7.698   5.508   6.817
24910SOL    HW176171   7.753   5.454   6.874
24910SOL    HW276172   7.711   5.472   6.729
24911SOL     OW76173   7.824   4.407   6.048
24911SOL    HW176174   7.845   4.313   6.054
24911SOL    HW276175   7.734   4.413   6.081
24912SOL     OW76176   0.006   3.825   5.724
24912SOL    HW176177   0.097   3.796   5.731
24912SOL    HW276178  -0.014   3.822   5.631
24913SOL     OW76179   7.994   3.873   6.151
24913SOL    HW176180   7.914   3.820   6.152
24913SOL    HW276181   8.031   3.858   6.063
24914SOL     OW76182   7.743   3.762   5.790
24914SOL    HW176183   7.836   3.778   5.773
24914SOL    HW276184   7.743   3.694   5.858
24915SOL     OW76185   7.925   4.807   6.318
24915SOL    HW176186   7.856   4.812   6.385
24915SOL    HW276187   7.878   4.816   6.235
24916SOL     OW76188   7.528   4.273   6.981
24916SOL    HW176189   7.620   4.274   6.955
24916SOL    HW276190   7.521   4.342   7.047
24917SOL     OW76191   7.978   3.963   6.745
24917SOL    HW176192   8.046   3.926   6.801
24917SOL    HW276193   7.896   3.937   6.787
24918SOL     OW76194   7.872   4.534   6.870
24918SOL    HW176195   7.938   4.540   6.939
24918SOL    HW276196   7.837   4.445   6.878
24919SOL     OW76197   7.534   5.299   6.948
24919SOL    HW176198   7.527   5.377   6.893
24919SOL    HW276199   7.628   5.279   6.948
24920SOL     OW76200   7.784   4.839   6.083
24920SOL    HW176201   7.773   4.921   6.034
24920SOL    HW276202   7.769   4.770   6.017
24921SOL     OW76203   7.797   5.247   6.908
24921SOL    HW176204   7.791   5.214   6.818
24921SOL    HW276205   7.889   5.272   6.918
24922SOL     OW76206   7.853   4.451   7.199
24922SOL    HW176207   7.931   4.495   7.164
24922SOL    HW276208   7.881   4.360   7.213
24923SOL     OW76209   7.923   3.797   7.316
24923SOL    HW176210   7.880   3.735   7.258
24923SOL    HW276211   7.855   3.862   7.336
24924SOL     OW76212   0.008   4.572   6.639
24924SOL    HW176213   0.073   4.635   6.670
24924SOL    HW276214  -0.047   4.555   6.715
24925SOL     OW76215   7.727   3.901   6.844
24925SOL    HW176216   7.689   3.934   6.925
24925SOL    HW276217   7.704   3.808   6.844
24926SOL     OW76218   7.493   5.041   6.854
24926SOL    HW176219   7.521   4.981   6.923
24926SOL    HW276220   7.502   5.128   6.892
24927SOL     OW76221   7.733   3.793   6.209
24927SOL    HW176222   7.723   3.885   6.232
24927SOL    HW276223   7.739   3.748   6.293
24928SOL     OW76224   7.804   4.649   7.390
24928SOL    HW176225   7.886   4.696   7.377
24928SOL    HW276226   7.814   4.567   7.342
24929SOL     OW76227   7.743   4.534   6.540
24929SOL    HW176228   7.834   4.559   6.557
24929SOL    HW276229   7.741   4.440   6.558
24930SOL     OW76230   7.774   4.265   6.590
24930SOL    HW176231   7.739   4.177   6.578
24930SOL    HW276232   7.867   4.253   6.607
24931SOL     OW76233   7.454   5.031   5.771
24931SOL    HW176234   7.365   5.048   5.739
24931SOL    HW276235   7.450   4.942   5.808
24932SOL     OW76236   7.541   5.506   6.522
24932SOL    HW176237   7.514   5.426   6.477
24932SOL    HW276238   7.633   5.516   6.499
24933SOL     OW76239   7.481   4.287   6.706
24933SOL    HW176240   7.561   4.271   6.656
24933SOL    HW276241   7.508   4.279   6.797
24934SOL     OW76242   7.629   4.252   7.320
24934SOL    HW176243   7.698   4.219   7.262
24934SOL    HW276244   7.592   4.326   7.273
24935SOL     OW76245   0.197   4.251   5.883
24935SOL    HW176246   0.176   4.158   5.888
24935SOL    HW276247   0.185   4.284   5.972
24936SOL     OW76248   7.676   5.269   7.303
24936SOL    HW176249   7.671   5.325   7.381
24936SOL    HW276250   7.699   5.183   7.337
24937SOL     OW76251   7.882   4.222   5.722
24937SOL    HW176252   7.946   4.284   5.757
24937SOL    HW276253   7.798   4.265   5.736
24938SOL     OW76254   7.573   4.867   7.057
24938SOL    HW176255   7.580   4.825   7.142
24938SOL    HW276256   7.596   4.799   6.994
24939SOL     OW76257   7.531   5.001   6.591
24939SOL    HW176258   7.513   5.013   6.685
24939SOL    HW276259   7.463   4.940   6.561
24940SOL     OW76260   7.579   5.541   7.435
24940SOL    HW176261   7.542   5.463   7.477
24940SOL    HW276262   7.638   5.578   7.501
24941SOL     OW76263   7.714   4.061   6.312
24941SOL    HW176264   7.628   4.087   6.280
24941SOL    HW276265   7.701   4.042   6.404
24942SOL     OW76266   7.810   5.010   7.106
24942SOL    HW176267   7.824   5.082   7.045
24942SOL    HW276268   7.729   4.969   7.077
24943SOL     OW76269  -0.009   5.296   5.983
24943SOL    HW176270  -0.006   5.224   6.045
24943SOL    HW276271   0.061   5.355   6.011
24944SOL     OW76272   7.710   5.067   5.864
24944SOL    HW176273   7.617   5.050   5.845
24944SOL    HW276274   7.710   5.111   5.948
24945SOL     OW76275   7.562   4.770   7.317
24945SOL    HW176276   7.485   4.741   7.365
24945SOL    HW276277   7.635   4.721   7.355
24946SOL     OW76278   7.500   4.053   5.651
24946SOL    HW176279   7.412   4.029   5.621
24946SOL    HW276280   7.515   4.140   5.614
24947SOL     OW76281   7.509   3.880   5.877
24947SOL    HW176282   7.499   3.951   5.814
24947SOL    HW276283   7.597   3.845   5.860
24948SOL     OW76284   7.825   5.474   7.145
24948SOL    HW176285   7.734   5.506   7.141
24948SOL    HW276286   7.817   5.383   7.172
24949SOL     OW76287   7.694   5.021   7.434
24949SOL    HW176288   7.639   4.952   7.396
24949SOL    HW276289   7.661   5.030   7.524
24950SOL     OW76290   7.548   4.952   6.259
24950SOL    HW176291   7.533   4.908   6.343
24950SOL    HW276292   7.613   4.897   6.215
24951SOL     OW76293   0.081   5.155   7.132
24951SOL    HW176294   0.042   5.092   7.192
24951SOL    HW276295   0.153   5.194   7.182
24952SOL     OW76296   7.777   4.280   6.885
24952SOL    HW176297   7.821   4.233   6.955
24952SOL    HW276298   7.804   4.234   6.805
24953SOL     OW76299   7.491   4.781   5.890
24953SOL    HW176300   7.583   4.768   5.865
24953SOL    HW276301   7.462   4.694   5.918
24954SOL     OW76302   7.648   4.348   7.585
24954SOL    HW176303   7.559   4.342   7.619
24954SOL    HW276304   7.640   4.329   7.491
24955SOL     OW76305   7.674   4.005   8.442
24955SOL    HW176306   7.697   3.972   8.528
24955SOL    HW276307   7.585   3.973   8.427
24956SOL     OW76308   7.448   4.112   8.091
24956SOL    HW176309   7.367   4.139   8.134
24956SOL    HW276310   7.423   4.035   8.039
24957SOL     OW76311   7.750   5.166   8.496
24957SOL    HW176312   7.673   5.109   8.489
24957SOL    HW276313   7.788   5.166   8.408
24958SOL     OW76314   7.921   4.094   8.977
24958SOL    HW176315   7.922   4.114   8.884
24958SOL    HW276316   7.837   4.051   8.992
24959SOL     OW76317   7.667   5.436   7.923
24959SOL    HW176318   7.683   5.518   7.969
24959SOL    HW276319   7.754   5.406   7.896
24960SOL     OW76320   7.675   5.163   7.985
24960SOL    HW176321   7.648   5.254   7.986
24960SOL    HW276322   7.616   5.119   8.046
24961SOL     OW76323   7.731   4.820   8.368
24961SOL    HW176324   7.712   4.730   8.395
24961SOL    HW276325   7.661   4.872   8.406
24962SOL     OW76326   7.576   4.370   8.013
24962SOL    HW176327   7.533   4.287   8.032
24962SOL    HW276328   7.563   4.423   8.092
24963SOL     OW76329   7.504   5.315   7.567
24963SOL    HW176330   7.485   5.223   7.582
24963SOL    HW276331   7.471   5.359   7.645
24964SOL     OW76332   7.565   4.516   9.106
24964SOL    HW176333   7.639   4.497   9.047
24964SOL    HW276334   7.492   4.536   9.047
24965SOL     OW76335   7.629   4.679   8.740
24965SOL    HW176336   7.716   4.639   8.734
24965SOL    HW276337   7.570   4.615   8.701
24966SOL     OW76338   7.754   3.987   9.283
24966SOL    HW176339   7.790   4.066   9.243
24966SOL    HW276340   7.662   4.009   9.301
24967SOL     OW76341   0.023   4.452   7.696
24967SOL    HW176342   0.039   4.547   7.689
24967SOL    HW276343  -0.041   4.444   7.767
24968SOL     OW76344   7.540   4.540   8.225
24968SOL    HW176345   7.616   4.539   8.284
24968SOL    HW276346   7.487   4.613   8.256
24969SOL     OW76347   7.571   5.591   9.030
24969SOL    HW176348   7.573   5.575   9.125
24969SOL    HW276349   7.501   5.533   8.998
24970SOL     OW76350   7.969   3.917   8.337
24970SOL    HW176351   7.954   3.957   8.423
24970SOL    HW276352   7.961   3.990   8.275
24971SOL     OW76353   7.807   5.559   8.313
24971SOL    HW176354   7.871   5.488   8.310
24971SOL    HW276355   7.860   5.638   8.326
24972SOL     OW76356   7.744   4.687   7.705
24972SOL    HW176357   7.816   4.708   7.646
24972SOL    HW276358   7.723   4.595   7.686
24973SOL     OW76359   7.952   4.971   9.192
24973SOL    HW176360   7.909   4.979   9.107
24973SOL    HW276361   7.881   4.985   9.255
24974SOL     OW76362   7.669   3.984   8.955
24974SOL    HW176363   7.617   4.061   8.930
24974SOL    HW276364   7.604   3.920   8.985
24975SOL     OW76365   7.708   5.515   8.668
24975SOL    HW176366   7.749   5.437   8.707
24975SOL    HW276367   7.686   5.487   8.579
24976SOL     OW76368   7.830   4.419   7.893
24976SOL    HW176369   7.876   4.353   7.943
24976SOL    HW276370   7.739   4.412   7.921
24977SOL     OW76371   0.007   3.810   7.579
24977SOL    HW176372   0.101   3.803   7.595
24977SOL    HW276373  -0.003   3.802   7.484
24978SOL     OW76374   7.982   3.730   8.004
24978SOL    HW176375   7.891   3.758   8.013
24978SOL    HW276376   8.021   3.794   7.944
24979SOL     OW76377   7.734   3.781   7.622
24979SOL    HW176378   7.771   3.856   7.576
24979SOL    HW276379   7.809   3.727   7.646
24980SOL     OW76380   7.928   4.811   8.178
24980SOL    HW176381   7.860   4.815   8.245
24980SOL    HW276382   7.881   4.815   8.095
24981SOL     OW76383   7.987   3.964   8.613
24981SOL    HW176384   8.034   3.884   8.637
24981SOL    HW276385   7.898   3.951   8.645
24982SOL     OW76386   7.873   4.551   8.729
24982SOL    HW176387   7.964   4.558   8.756
24982SOL    HW276388   7.855   4.457   8.728
24983SOL     OW76389   7.522   5.300   8.814
24983SOL    HW176390   7.491   5.363   8.748
24983SOL    HW276391   7.616   5.293   8.798
24984SOL     OW76392   7.789   4.837   7.939
24984SOL    HW176393   7.779   4.917   7.887
24984SOL    HW276394   7.775   4.766   7.877
24985SOL     OW76395  -0.008   4.300   8.348
24985SOL    HW176396   0.025   4.371   8.293
24985SOL    HW276397   0.054   4.295   8.421
24986SOL     OW76398   7.785   5.257   8.753
24986SOL    HW176399   7.782   5.214   8.667
24986SOL    HW276400   7.877   5.278   8.766
24987SOL     OW76401   7.843   4.460   9.059
24987SOL    HW176402   7.925   4.480   9.012
24987SOL    HW276403   7.831   4.366   9.047
24988SOL     OW76404   7.923   3.785   9.210
24988SOL    HW176405   7.891   3.734   9.137
24988SOL    HW276406   7.862   3.859   9.218
24989SOL     OW76407   8.010   4.653   8.505
24989SOL    HW176408   8.012   4.746   8.485
24989SOL    HW276409   7.928   4.640   8.553
24990SOL     OW76410   7.738   3.911   8.696
24990SOL    HW176411   7.708   3.939   8.783
24990SOL    HW276412   7.719   3.817   8.693
24991SOL     OW76413   7.502   5.037   8.723
24991SOL    HW176414   7.528   4.978   8.794
24991SOL    HW276415   7.501   5.124   8.763
24992SOL     OW76416   7.722   3.796   8.070
24992SOL    HW176417   7.714   3.890   8.082
24992SOL    HW276418   7.740   3.762   8.158
24993SOL     OW76419   7.821   4.646   9.277
24993SOL    HW176420   7.904   4.680   9.244
24993SOL    HW276421   7.799   4.573   9.219
24994SOL     OW76422   7.754   4.536   8.398
24994SOL    HW176423   7.846   4.542   8.374
24994SOL    HW276424   7.742   4.444   8.425
24995SOL     OW76425   7.749   4.261   8.453
24995SOL    HW176426   7.720   4.171   8.441
24995SOL    HW276427   7.831   4.268   8.404
24996SOL     OW76428   7.463   5.038   7.640
24996SOL    HW176429   7.376   5.058   7.606
24996SOL    HW276430   7.455   4.950   7.675
24997SOL     OW76431   7.547   5.502   8.397
24997SOL    HW176432   7.514   5.426   8.349
24997SOL    HW276433   7.632   5.520   8.359
24998SOL     OW76434   7.484   4.290   8.569
24998SOL    HW176435   7.563   4.282   8.516
24998SOL    HW276436   7.514   4.281   8.659
24999SOL     OW76437   7.620   4.261   9.186
24999SOL    HW176438   7.613   4.221   9.100
24999SOL    HW276439   7.592   4.351   9.173
25000SOL     OW76440   0.186   4.191   7.777
25000SOL    HW176441   0.214   4.187   7.686
25000SOL    HW276442   0.177   4.284   7.795
25001SOL     OW76443   7.685   5.268   9.169
25001SOL    HW176444   7.669   5.320   9.248
25001SOL    HW276445   7.700   5.179   9.201
25002SOL     OW76446   7.888   4.210   7.610
25002SOL    HW176447   7.947   4.277   7.645
25002SOL    HW276448   7.801   4.251   7.612
25003SOL     OW76449   7.580   4.867   8.930
25003SOL    HW176450   7.582   4.822   9.015
25003SOL    HW276451   7.596   4.797   8.866
25004SOL     OW76452   7.530   4.996   8.459
25004SOL    HW176453   7.511   5.006   8.552
25004SOL    HW276454   7.462   4.938   8.426
25005SOL     OW76455   7.580   5.536   9.294
25005SOL    HW176456   7.540   5.458   9.333
25005SOL    HW276457   7.635   5.572   9.363
25006SOL     OW76458   7.717   4.055   8.165
25006SOL    HW176459   7.632   4.087   8.135
25006SOL    HW276460   7.705   4.039   8.258
25007SOL     OW76461   7.813   5.020   8.963
25007SOL    HW176462   7.811   5.091   8.899
25007SOL    HW276463   7.734   4.969   8.945
25008SOL     OW76464  -0.023   5.302   7.877
25008SOL    HW176465  -0.008   5.218   7.919
25008SOL    HW276466   0.054   5.354   7.900
25009SOL     OW76467   7.719   5.053   7.744
25009SOL    HW176468   7.629   5.053   7.713
25009SOL    HW276469   7.716   5.103   7.826
25010SOL     OW76470   7.559   4.791   9.201
25010SOL    HW176471   7.473   4.767   9.237
25010SOL    HW276472   7.612   4.712   9.213
25011SOL     OW76473   7.504   4.059   7.488
25011SOL    HW176474   7.415   4.043   7.457
25011SOL    HW276475   7.531   4.138   7.442
25012SOL     OW76476   7.505   3.876   7.742
25012SOL    HW176477   7.489   3.952   7.685
25012SOL    HW276478   7.591   3.844   7.714
25013SOL     OW76479   7.832   5.481   9.022
25013SOL    HW176480   7.746   5.517   9.000
25013SOL    HW276481   7.813   5.392   9.052
25014SOL     OW76482   7.680   5.018   9.293
25014SOL    HW176483   7.647   4.940   9.249
25014SOL    HW276484   7.617   5.034   9.364
25015SOL     OW76485   7.540   4.956   8.123
25015SOL    HW176486   7.524   4.899   8.199
25015SOL    HW276487   7.603   4.908   8.070
25016SOL     OW76488   0.099   5.170   8.996
25016SOL    HW176489   0.050   5.108   9.050
25016SOL    HW276490   0.174   5.195   9.051
25017SOL     OW76491   7.831   4.280   8.714
25017SOL    HW176492   7.756   4.271   8.773
25017SOL    HW276493   7.794   4.269   8.626
25018SOL     OW76494   7.486   4.784   7.762
25018SOL    HW176495   7.577   4.773   7.735
25018SOL    HW276496   7.457   4.696   7.786
25019SOL     OW76497   7.662   4.338   9.453
25019SOL    HW176498   7.571   4.342   9.481
25019SOL    HW276499   7.658   4.324   9.358
25020SOL     OW76500   7.673   4.003  10.304
25020SOL    HW176501   7.697   3.971  10.390
25020SOL    HW276502   7.583   3.973  10.291
25021SOL     OW76503   7.454   4.105   9.952
25021SOL    HW176504   7.372   4.129   9.995
25021SOL    HW276505   7.431   4.031   9.897
25022SOL     OW76506   7.749   5.164  10.358
25022SOL    HW176507   7.673   5.107  10.349
25022SOL    HW276508   7.790   5.164  10.272
25023SOL     OW76509   7.873   4.118  10.823
25023SOL    HW176510   7.932   4.042  10.820
25023SOL    HW276511   7.785   4.080  10.825
25024SOL     OW76512   7.658   5.435   9.784
25024SOL    HW176513   7.675   5.517   9.830
25024SOL    HW276514   7.741   5.413   9.742
25025SOL     OW76515   7.673   5.168   9.854
25025SOL    HW176516   7.648   5.260   9.849
25025SOL    HW276517   7.610   5.128   9.914
25026SOL     OW76518   7.724   4.818  10.220
25026SOL    HW176519   7.709   4.729  10.251
25026SOL    HW276520   7.656   4.870  10.263
25027SOL     OW76521   7.572   4.367   9.878
25027SOL    HW176522   7.529   4.283   9.895
25027SOL    HW276523   7.559   4.417   9.959
25028SOL     OW76524   7.506   5.314   9.428
25028SOL    HW176525   7.486   5.221   9.443
25028SOL    HW276526   7.470   5.359   9.504
25029SOL     OW76527   7.550   4.466  10.891
25029SOL    HW176528   7.638   4.505  10.896
25029SOL    HW276529   7.491   4.541  10.880
25030SOL     OW76530   7.636   4.677  10.604
25030SOL    HW176531   7.722   4.636  10.605
25030SOL    HW276532   7.590   4.636  10.531
25031SOL     OW76533   7.742   3.984  11.104
25031SOL    HW176534   7.800   4.037  11.159
25031SOL    HW276535   7.659   3.983  11.151
25032SOL     OW76536   8.011   4.461   9.576
25032SOL    HW176537   8.014   4.548   9.535
25032SOL    HW276538   7.951   4.472   9.650
25033SOL     OW76539   7.539   4.527  10.096
25033SOL    HW176540   7.615   4.533  10.154
25033SOL    HW276541   7.487   4.605  10.116
25034SOL     OW76542   7.572   5.596  10.892
25034SOL    HW176543   7.576   5.580  10.986
25034SOL    HW276544   7.504   5.536  10.860
25035SOL     OW76545   7.967   3.915  10.197
25035SOL    HW176546   7.963   3.938  10.289
25035SOL    HW276547   7.959   3.999  10.151
25036SOL     OW76548   7.809   5.560  10.171
25036SOL    HW176549   7.871   5.492  10.145
25036SOL    HW276550   7.864   5.634  10.195
25037SOL     OW76551   7.740   4.678   9.552
25037SOL    HW176552   7.772   4.691   9.463
25037SOL    HW276553   7.725   4.583   9.558
25038SOL     OW76554   7.952   4.963  11.053
25038SOL    HW176555   7.910   4.971  10.968
25038SOL    HW276556   7.882   4.984  11.116
25039SOL     OW76557   7.630   3.999  10.813
25039SOL    HW176558   7.547   4.044  10.823
25039SOL    HW276559   7.621   3.919  10.864
25040SOL     OW76560   7.708   5.515  10.529
25040SOL    HW176561   7.749   5.437  10.566
25040SOL    HW276562   7.683   5.489  10.440
25041SOL     OW76563   7.822   4.426   9.773
25041SOL    HW176564   7.853   4.335   9.766
25041SOL    HW276565   7.734   4.419   9.808
25042SOL     OW76566   0.008   3.791   9.467
25042SOL    HW176567   0.103   3.788   9.471
25042SOL    HW276568  -0.012   3.791   9.374
25043SOL     OW76569   8.001   3.752   9.852
25043SOL    HW176570   7.908   3.769   9.865
25043SOL    HW276571   8.029   3.819   9.789
25044SOL     OW76572   7.737   3.800   9.484
25044SOL    HW176573   7.742   3.870   9.419
25044SOL    HW276574   7.828   3.774   9.499
25045SOL     OW76575   7.925   4.817  10.035
25045SOL    HW176576   7.854   4.818  10.099
25045SOL    HW276577   7.880   4.818   9.950
25046SOL     OW76578   7.538   4.276  10.698
25046SOL    HW176579   7.631   4.275  10.674
25046SOL    HW276580   7.531   4.346  10.763
25047SOL     OW76581   7.984   3.926  10.466
25047SOL    HW176582   8.032   3.859  10.515
25047SOL    HW276583   7.898   3.930  10.508
25048SOL     OW76584   7.876   4.542  10.616
25048SOL    HW176585   7.971   4.542  10.603
25048SOL    HW276586   7.850   4.450  10.604
25049SOL     OW76587   7.523   5.298  10.674
25049SOL    HW176588   7.493   5.362  10.609
25049SOL    HW276589   7.617   5.292  10.659
25050SOL     OW76590   7.795   4.832   9.789
25050SOL    HW176591   7.784   4.911   9.737
25050SOL    HW276592   7.781   4.761   9.726
25051SOL     OW76593   7.968   4.298  10.179
25051SOL    HW176594   8.010   4.371  10.133
25051SOL    HW276595   8.013   4.293  10.263
25052SOL     OW76596   7.786   5.258  10.614
25052SOL    HW176597   7.784   5.214  10.529
25052SOL    HW276598   7.878   5.279  10.627
25053SOL     OW76599   7.834   4.479  10.907
25053SOL    HW176600   7.866   4.520  10.826
25053SOL    HW276601   7.872   4.391  10.906
25054SOL     OW76602   7.923   3.801  11.034
25054SOL    HW176603   7.887   3.729  10.983
25054SOL    HW276604   7.848   3.857  11.054
25055SOL     OW76605   8.006   4.651  10.367
25055SOL    HW176606   8.019   4.743  10.348
25055SOL    HW276607   7.925   4.648  10.418
25056SOL     OW76608   7.731   3.916  10.565
25056SOL    HW176609   7.690   3.949  10.645
25056SOL    HW276610   7.712   3.822  10.565
25057SOL     OW76611   7.491   5.036  10.585
25057SOL    HW176612   7.524   4.979  10.655
25057SOL    HW276613   7.497   5.125  10.622
25058SOL     OW76614   7.735   3.794   9.928
25058SOL    HW176615   7.723   3.888   9.939
25058SOL    HW276616   7.748   3.761  10.017
25059SOL     OW76617   7.805   4.648  11.128
25059SOL    HW176618   7.880   4.704  11.109
25059SOL    HW276619   7.812   4.576  11.066
25060SOL     OW76620   7.750   4.539  10.275
25060SOL    HW176621   7.841   4.548  10.249
25060SOL    HW276622   7.740   4.446  10.297
25061SOL     OW76623   7.744   4.261  10.319
25061SOL    HW176624   7.718   4.170  10.309
25061SOL    HW276625   7.820   4.271  10.262
25062SOL     OW76626   7.473   5.038   9.493
25062SOL    HW176627   7.384   5.058   9.463
25062SOL    HW276628   7.466   4.951   9.533
25063SOL     OW76629   7.551   5.501  10.263
25063SOL    HW176630   7.516   5.427  10.213
25063SOL    HW276631   7.635   5.519  10.223
25064SOL     OW76632   7.482   4.274  10.427
25064SOL    HW176633   7.562   4.277  10.375
25064SOL    HW276634   7.513   4.275  10.518
25065SOL     OW76635   7.622   4.258  11.060
25065SOL    HW176636   7.673   4.201  11.003
25065SOL    HW276637   7.589   4.327  11.002
25066SOL     OW76638   0.218   4.233   9.610
25066SOL    HW176639   0.159   4.157   9.610
25066SOL    HW276640   0.188   4.286   9.683
25067SOL     OW76641   7.682   5.270  11.031
25067SOL    HW176642   7.661   5.321  11.109
25067SOL    HW276643   7.701   5.183  11.064
25068SOL     OW76644   7.908   4.217   9.507
25068SOL    HW176645   7.956   4.298   9.526
25068SOL    HW276646   7.818   4.246   9.492
25069SOL     OW76647   7.578   4.867  10.789
25069SOL    HW176648   7.580   4.823  10.874
25069SOL    HW276649   7.597   4.798  10.726
25070SOL     OW76650   7.529   4.994  10.321
25070SOL    HW176651   7.505   5.005  10.413
25070SOL    HW276652   7.462   4.936  10.286
25071SOL     OW76653   7.583   5.540  11.155
25071SOL    HW176654   7.542   5.463  11.195
25071SOL    HW276655   7.635   5.579  11.226
25072SOL     OW76656   7.720   4.051  10.024
25072SOL    HW176657   7.636   4.085   9.995
25072SOL    HW276658   7.710   4.040  10.119
25073SOL     OW76659   7.813   5.019  10.826
25073SOL    HW176660   7.815   5.089  10.761
25073SOL    HW276661   7.733   4.970  10.807
25074SOL     OW76662  -0.020   5.315   9.731
25074SOL    HW176663  -0.009   5.225   9.761
25074SOL    HW276664   0.062   5.358   9.753
25075SOL     OW76665   7.730   5.048   9.621
25075SOL    HW176666   7.646   5.052   9.574
25075SOL    HW276667   7.715   5.100   9.700
25076SOL     OW76668   7.564   4.765  11.043
25076SOL    HW176669   7.484   4.738  11.088
25076SOL    HW276670   7.634   4.717  11.087
25077SOL     OW76671   7.501   4.059   9.348
25077SOL    HW176672   7.430   4.037   9.288
25077SOL    HW276673   7.531   4.145   9.319
25078SOL     OW76674   7.502   3.878   9.600
25078SOL    HW176675   7.478   3.949   9.539
25078SOL    HW276676   7.590   3.853   9.574
25079SOL     OW76677   7.829   5.477  10.879
25079SOL    HW176678   7.744   5.513  10.856
25079SOL    HW276679   7.811   5.388  10.910
25080SOL     OW76680   7.691   5.019  11.154
25080SOL    HW176681   7.637   4.950  11.115
25080SOL    HW276682   7.650   5.035  11.239
25081SOL     OW76683   7.533   4.956   9.981
25081SOL    HW176684   7.535   4.898  10.057
25081SOL    HW276685   7.593   4.916   9.918
25082SOL     OW76686   0.096   5.174  10.860
25082SOL    HW176687   0.049   5.106  10.908
25082SOL    HW276688   0.172   5.194  10.914
25083SOL     OW76689   7.793   4.282  10.602
25083SOL    HW176690   7.852   4.225  10.653
25083SOL    HW276691   7.807   4.255  10.512
25084SOL     OW76692   7.489   4.789   9.629
25084SOL    HW176693   7.577   4.777   9.595
25084SOL    HW276694   7.459   4.701   9.653
25085SOL     OW76695   7.649   4.356  11.313
25085SOL    HW176696   7.558   4.350  11.343
25085SOL    HW276697   7.644   4.335  11.220
25086SOL     OW76698   7.671   4.007  12.155
25086SOL    HW176699   7.699   3.973  12.240
25086SOL    HW276700   7.581   3.977  12.146
25087SOL     OW76701   7.456   4.116  11.809
25087SOL    HW176702   7.376   4.144  11.854
25087SOL    HW276703   7.429   4.040  11.757
25088SOL     OW76704   7.778   5.140  12.211
25088SOL    HW176705   7.698   5.088  12.217
25088SOL    HW276706   7.782   5.169  12.120
25089SOL     OW76707   7.655   5.446  11.646
25089SOL    HW176708   7.681   5.525  11.693
25089SOL    HW276709   7.738   5.406  11.619
25090SOL     OW76710   7.697   5.170  11.712
25090SOL    HW176711   7.642   5.248  11.723
25090SOL    HW276712   7.652   5.102  11.763
25091SOL     OW76713   7.737   4.822  12.095
25091SOL    HW176714   7.707   4.733  12.116
25091SOL    HW276715   7.667   4.879  12.124
25092SOL     OW76716   7.618   4.368  11.737
25092SOL    HW176717   7.570   4.287  11.754
25092SOL    HW276718   7.592   4.427  11.807
25093SOL     OW76719   7.505   5.316  11.285
25093SOL    HW176720   7.489   5.223  11.301
25093SOL    HW276721   7.470   5.361  11.362
25094SOL     OW76722   7.599   4.474   0.201
25094SOL    HW176723   7.592   4.467   0.296
25094SOL    HW276724   7.525   4.528   0.175
25095SOL     OW76725   7.650   4.721  12.440
25095SOL    HW176726   7.714   4.652  12.422
25095SOL    HW276727   7.565   4.677  12.432
25096SOL     OW76728   0.031   4.487  11.460
25096SOL    HW176729   0.089   4.477  11.384
25096SOL    HW276730  -0.037   4.547  11.430
25097SOL     OW76731   7.538   4.558  11.933
25097SOL    HW176732   7.612   4.548  11.994
25097SOL    HW276733   7.484   4.626  11.972
25098SOL     OW76734   7.966   3.904  12.051
25098SOL    HW176735   7.962   3.935  12.142
25098SOL    HW276736   7.967   3.984  11.999
25099SOL     OW76737   7.813   5.559  12.038
25099SOL    HW176738   7.866   5.490  12.078
25099SOL    HW276739   7.868   5.637  12.043
25100SOL     OW76740   7.786   4.602  11.432
25100SOL    HW176741   7.802   4.673  11.371
25100SOL    HW276742   7.712   4.554  11.394
25101SOL     OW76743   7.698   5.498  12.446
25101SOL    HW176744   7.722   5.406  12.452
25101SOL    HW276745   7.653   5.507  12.362
25102SOL     OW76746   0.072   3.897  11.237
25102SOL    HW176747   0.125   3.827  11.276
25102SOL    HW276748   0.015   3.853  11.175
25103SOL     OW76749   7.981   3.822  11.714
25103SOL    HW176750   7.898   3.785  11.683
25103SOL    HW276751   8.026   3.850  11.634
25104SOL     OW76752   7.927   4.819  11.897
25104SOL    HW176753   7.857   4.824  11.962
25104SOL    HW276754   7.882   4.819  11.813
25105SOL     OW76755   7.988   3.935  12.320
25105SOL    HW176756   8.032   3.895  12.395
25105SOL    HW276757   7.896   3.941  12.346
25106SOL     OW76758   7.880   4.550  12.452
25106SOL    HW176759   7.951   4.603  12.488
25106SOL    HW276760   7.860   4.486  12.520
25107SOL     OW76761   7.820   4.819  11.637
25107SOL    HW176762   7.786   4.903  11.608
25107SOL    HW276763   7.775   4.755  11.583
25108SOL     OW76764  -0.017   4.289  12.059
25108SOL    HW176765   0.023   4.364  12.016
25108SOL    HW276766   0.028   4.283  12.143
25109SOL     OW76767   7.792   5.248  12.473
25109SOL    HW176768   7.790   5.198  12.391
25109SOL    HW276769   7.884   5.250  12.498
25110SOL     OW76770   7.901   4.432   0.200
25110SOL    HW176771   7.990   4.455   0.227
25110SOL    HW276772   7.851   4.431   0.281
25111SOL     OW76773   8.005   4.640  12.220
25111SOL    HW176774   7.999   4.735  12.207
25111SOL    HW276775   7.941   4.622  12.289
25112SOL     OW76776   7.734   3.922  12.409
25112SOL    HW176777   7.688   3.962  12.483
25112SOL    HW276778   7.720   3.828  12.419
25113SOL     OW76779   7.525   5.048  12.441
25113SOL    HW176780   7.544   4.973  12.496
25113SOL    HW276781   7.523   5.123  12.501
25114SOL     OW76782   7.698   3.788  11.804
25114SOL    HW176783   7.707   3.883  11.807
25114SOL    HW276784   7.734   3.758  11.888
25115SOL     OW76785   7.745   4.537  12.118
25115SOL    HW176786   7.838   4.557  12.121
25115SOL    HW276787   7.739   4.445  12.145
25116SOL     OW76788   7.744   4.265  12.175
25116SOL    HW176789   7.718   4.173  12.167
25116SOL    HW276790   7.828   4.271  12.130
25117SOL     OW76791   7.475   5.043  11.352
25117SOL    HW176792   7.385   5.060  11.324
25117SOL    HW276793   7.471   4.957  11.394
25118SOL     OW76794   7.544   5.507  12.119
25118SOL    HW176795   7.514   5.429  12.073
25118SOL    HW276796   7.632   5.523  12.085
25119SOL     OW76797   7.492   4.280  12.284
25119SOL    HW176798   7.571   4.289  12.231
25119SOL    HW276799   7.524   4.252  12.370
25120SOL     OW76800   0.203   4.247  11.486
25120SOL    HW176801   0.172   4.159  11.508
25120SOL    HW276802   0.134   4.306  11.516
25121SOL     OW76803   7.864   4.243  11.431
25121SOL    HW176804   7.930   4.218  11.366
25121SOL    HW276805   7.788   4.269  11.378
25122SOL     OW76806   7.538   4.999  12.178
25122SOL    HW176807   7.523   5.019  12.271
25122SOL    HW276808   7.463   4.946  12.152
25123SOL     OW76809   7.719   4.056  11.885
25123SOL    HW176810   7.633   4.086  11.856
25123SOL    HW276811   7.710   4.042  11.979
25124SOL     OW76812  -0.015   5.298  11.586
25124SOL    HW176813  -0.031   5.226  11.647
25124SOL    HW276814   0.061   5.344  11.622
25125SOL     OW76815   7.731   5.058  11.470
25125SOL    HW176816   7.641   5.050  11.441
25125SOL    HW276817   7.726   5.108  11.551
25126SOL     OW76818   7.506   4.055  11.224
25126SOL    HW176819   7.423   4.038  11.179
25126SOL    HW276820   7.539   4.136  11.184
25127SOL     OW76821   7.517   3.869  11.463
25127SOL    HW176822   7.511   3.938  11.397
25127SOL    HW276823   7.605   3.833  11.452
25128SOL     OW76824   7.759   5.456   0.219
25128SOL    HW176825   7.732   5.501   0.139
25128SOL    HW276826   7.765   5.364   0.195
25129SOL     OW76827   7.575   4.959  11.833
25129SOL    HW176828   7.534   4.934  11.916
25129SOL    HW276829   7.542   4.896  11.770
25130SOL     OW76830   7.524   4.796  11.486
25130SOL    HW176831   7.529   4.700  11.488
25130SOL    HW276832   7.440   4.817  11.526
25131SOL     OW76833   7.686   6.209  -0.017
25131SOL    HW176834   7.646   6.229   0.068
25131SOL    HW276835   7.712   6.117  -0.010
25132SOL     OW76836   7.667   5.868   0.996
25132SOL    HW176837   7.692   5.834   1.082
25132SOL    HW276838   7.580   5.831   0.980
25133SOL     OW76839   7.449   5.962   0.643
25133SOL    HW176840   7.366   5.985   0.686
25133SOL    HW276841   7.428   5.884   0.592
25134SOL     OW76842   7.759   7.036   1.051
25134SOL    HW176843   7.691   6.978   1.016
25134SOL    HW276844   7.822   7.044   0.980
25135SOL     OW76845   7.862   5.990   1.506
25135SOL    HW176846   7.939   5.939   1.530
25135SOL    HW276847   7.788   5.931   1.519
25136SOL     OW76848   7.651   7.305   0.493
25136SOL    HW176849   7.695   7.379   0.535
25136SOL    HW276850   7.684   7.305   0.403
25137SOL     OW76851   7.681   7.030   0.528
25137SOL    HW176852   7.662   7.124   0.533
25137SOL    HW276853   7.620   6.990   0.591
25138SOL     OW76854   7.724   6.667   0.923
25138SOL    HW176855   7.713   6.578   0.956
25138SOL    HW276856   7.638   6.708   0.935
25139SOL     OW76857   7.567   6.211   0.578
25139SOL    HW176858   7.525   6.125   0.583
25139SOL    HW276859   7.542   6.253   0.660
25140SOL     OW76860   7.485   7.091   0.150
25140SOL    HW176861   7.396   7.054   0.145
25140SOL    HW276862   7.471   7.184   0.170
25141SOL     OW76863   7.592   6.335   1.574
25141SOL    HW176864   7.687   6.344   1.577
25141SOL    HW276865   7.558   6.417   1.609
25142SOL     OW76866   7.624   6.530   1.254
25142SOL    HW176867   7.680   6.507   1.180
25142SOL    HW276868   7.553   6.466   1.251
25143SOL     OW76869   7.765   5.884   1.819
25143SOL    HW176870   7.821   5.930   1.881
25143SOL    HW276871   7.687   5.862   1.869
25144SOL     OW76872   7.532   6.375   0.794
25144SOL    HW176873   7.614   6.421   0.781
25144SOL    HW276874   7.466   6.444   0.800
25145SOL     OW76875   7.563   7.450   1.591
25145SOL    HW176876   7.576   7.432   1.684
25145SOL    HW276877   7.472   7.427   1.574
25146SOL     OW76878   7.972   5.773   0.894
25146SOL    HW176879   7.961   5.805   0.984
25146SOL    HW276880   7.947   5.848   0.839
25147SOL     OW76881   7.817   7.409   0.874
25147SOL    HW176882   7.897   7.358   0.889
25147SOL    HW276883   7.844   7.500   0.883
25148SOL     OW76884   7.740   6.596   0.250
25148SOL    HW176885   7.727   6.623   0.159
25148SOL    HW276886   7.789   6.514   0.243
25149SOL     OW76887   7.956   6.836   1.735
25149SOL    HW176888   7.911   6.837   1.651
25149SOL    HW276889   7.887   6.854   1.799
25150SOL     OW76890   7.626   5.846   1.504
25150SOL    HW176891   7.539   5.885   1.514
25150SOL    HW276892   7.615   5.756   1.537
25151SOL     OW76893   7.692   7.371   1.244
25151SOL    HW176894   7.747   7.333   1.312
25151SOL    HW276895   7.723   7.331   1.163
25152SOL     OW76896   7.842   6.250   0.545
25152SOL    HW176897   7.851   6.216   0.456
25152SOL    HW276898   7.749   6.240   0.566
25153SOL     OW76899   0.065   5.697   0.091
25153SOL    HW176900   0.149   5.662   0.121
25153SOL    HW276901   0.015   5.620   0.065
25154SOL     OW76902   8.000   5.620   0.525
25154SOL    HW176903   7.909   5.637   0.548
25154SOL    HW276904   8.026   5.694   0.470
25155SOL     OW76905   7.926   6.694   0.742
25155SOL    HW176906   7.855   6.688   0.806
25155SOL    HW276907   7.882   6.697   0.657
25156SOL     OW76908   7.542   6.151   1.380
25156SOL    HW176909   7.635   6.141   1.360
25156SOL    HW276910   7.539   6.218   1.448
25157SOL     OW76911   7.985   5.829   1.165
25157SOL    HW176912   8.040   5.760   1.203
25157SOL    HW276913   7.898   5.814   1.202
25158SOL     OW76914   7.527   7.146   1.350
25158SOL    HW176915   7.510   7.228   1.304
25158SOL    HW276916   7.622   7.137   1.351
25159SOL     OW76917   7.791   6.712   0.504
25159SOL    HW176918   7.791   6.798   0.463
25159SOL    HW276919   7.772   6.651   0.432
25160SOL     OW76920   7.962   6.164   0.864
25160SOL    HW176921   8.006   6.230   0.811
25160SOL    HW276922   8.023   6.145   0.935
25161SOL     OW76923   7.794   7.092   1.318
25161SOL    HW176924   7.791   7.066   1.226
25161SOL    HW276925   7.880   7.131   1.330
25162SOL     OW76926   7.871   6.306   1.594
25162SOL    HW176927   7.961   6.336   1.594
25162SOL    HW276928   7.877   6.211   1.581
25163SOL     OW76929   7.929   5.688   1.725
25163SOL    HW176930   7.885   5.615   1.682
25163SOL    HW276931   7.859   5.749   1.747
25164SOL     OW76932   0.024   6.476   1.080
25164SOL    HW176933   0.054   6.451   0.992
25164SOL    HW276934  -0.016   6.562   1.067
25165SOL     OW76935   7.733   5.793   1.255
25165SOL    HW176936   7.690   5.814   1.337
25165SOL    HW276937   7.720   5.698   1.244
25166SOL     OW76938   7.489   6.889   1.264
25166SOL    HW176939   7.519   6.830   1.333
25166SOL    HW276940   7.503   6.977   1.299
25167SOL     OW76941   7.745   5.665   0.614
25167SOL    HW176942   7.730   5.758   0.634
25167SOL    HW276943   7.753   5.624   0.700
25168SOL     OW76944   7.785   6.497   1.786
25168SOL    HW176945   7.845   6.509   1.860
25168SOL    HW276946   7.827   6.432   1.730
25169SOL     OW76947   7.755   6.400   1.001
25169SOL    HW176948   7.827   6.394   0.939
25169SOL    HW276949   7.715   6.313   1.001
25170SOL     OW76950   7.740   6.122   1.006
25170SOL    HW176951   7.714   6.031   0.996
25170SOL    HW276952   7.813   6.132   0.945
25171SOL     OW76953   7.542   7.364   0.937
25171SOL    HW176954   7.519   7.283   0.891
25171SOL    HW276955   7.633   7.380   0.913
25172SOL     OW76956   7.475   6.154   1.113
25172SOL    HW176957   7.550   6.137   1.057
25172SOL    HW276958   7.508   6.145   1.202
25173SOL     OW76959   7.599   6.114   1.745
25173SOL    HW176960   7.665   6.050   1.715
25173SOL    HW276961   7.598   6.180   1.676
25174SOL     OW76962   7.678   7.133   1.715
25174SOL    HW176963   7.670   7.197   1.785
25174SOL    HW276964   7.705   7.052   1.759
25175SOL     OW76965   7.891   6.088   0.240
25175SOL    HW176966   7.979   6.060   0.214
25175SOL    HW276967   7.832   6.033   0.188
25176SOL     OW76968   7.572   6.712   1.463
25176SOL    HW176969   7.578   6.666   1.547
25176SOL    HW276970   7.601   6.647   1.398
25177SOL     OW76971   7.499   6.860   0.998
25177SOL    HW176972   7.510   6.847   1.092
25177SOL    HW276973   7.461   6.778   0.967
25178SOL     OW76974   7.596   7.384   1.850
25178SOL    HW176975   7.547   7.316   1.895
25178SOL    HW276976   7.648   7.426   1.919
25179SOL     OW76977   7.718   5.916   0.723
25179SOL    HW176978   7.633   5.945   0.689
25179SOL    HW276979   7.702   5.900   0.816
25180SOL     OW76980   7.804   6.874   1.511
25180SOL    HW176981   7.807   6.950   1.452
25180SOL    HW276982   7.724   6.828   1.487
25181SOL     OW76983   8.001   7.141   0.492
25181SOL    HW176984   7.973   7.051   0.473
25181SOL    HW276985   8.003   7.184   0.407
25182SOL     OW76986   7.731   6.946   0.279
25182SOL    HW176987   7.661   6.977   0.221
25182SOL    HW276988   7.706   6.978   0.366
25183SOL     OW76989   7.544   6.581   1.706
25183SOL    HW176990   7.483   6.565   1.779
25183SOL    HW276991   7.630   6.563   1.743
25184SOL     OW76992   7.519   5.741   0.295
25184SOL    HW176993   7.483   5.811   0.240
25184SOL    HW276994   7.611   5.735   0.269
25185SOL     OW76995   7.797   7.321   1.532
25185SOL    HW176996   7.712   7.362   1.544
25185SOL    HW276997   7.792   7.240   1.582
25186SOL     OW76998   7.711   6.898   1.860
25186SOL    HW176999   7.624   6.856   1.859
25186SOL    HW277000   7.728   6.913   1.953
25187SOL     OW77001   7.527   6.833   0.662
25187SOL    HW177002   7.514   6.761   0.724
25187SOL    HW277003   7.560   6.790   0.583
25188SOL     OW77004   0.094   7.021   1.550
25188SOL    HW177005   0.052   6.956   1.607
25188SOL    HW277006   0.162   7.061   1.604
25189SOL     OW77007   7.803   6.138   1.289
25189SOL    HW177008   7.834   6.082   1.360
25189SOL    HW277009   7.790   6.078   1.215
25190SOL     OW77010   7.499   6.664   0.395
25190SOL    HW177011   7.570   6.666   0.330
25190SOL    HW277012   7.474   6.572   0.400
25191SOL     OW77013   7.649   6.212   1.996
25191SOL    HW177014   7.564   6.196   2.039
25191SOL    HW277015   7.635   6.185   1.905
25192SOL     OW77016   7.672   5.871   2.855
25192SOL    HW177017   7.699   5.837   2.941
25192SOL    HW277018   7.585   5.835   2.842
25193SOL     OW77019   7.443   5.982   2.500
25193SOL    HW177020   7.363   6.004   2.547
25193SOL    HW277021   7.422   5.900   2.454
25194SOL     OW77022   7.720   7.056   2.898
25194SOL    HW177023   7.681   6.973   2.868
25194SOL    HW277024   7.812   7.049   2.873
25195SOL     OW77025   7.859   5.990   3.377
25195SOL    HW177026   7.928   5.934   3.414
25195SOL    HW277027   7.781   5.935   3.378
25196SOL     OW77028   7.668   7.295   2.343
25196SOL    HW177029   7.673   7.370   2.403
25196SOL    HW277030   7.755   7.288   2.305
25197SOL     OW77031   7.666   7.020   2.377
25197SOL    HW177032   7.660   7.115   2.386
25197SOL    HW277033   7.621   6.986   2.454
25198SOL     OW77034   7.685   6.668   2.762
25198SOL    HW177035   7.701   6.576   2.784
25198SOL    HW277036   7.643   6.705   2.840
25199SOL     OW77037   7.564   6.236   2.422
25199SOL    HW177038   7.529   6.151   2.447
25199SOL    HW277039   7.555   6.290   2.501
25200SOL     OW77040   7.484   7.174   1.977
25200SOL    HW177041   7.476   7.081   2.000
25200SOL    HW277042   7.465   7.220   2.059
25201SOL     OW77043   7.591   6.336   3.434
25201SOL    HW177044   7.686   6.344   3.437
25201SOL    HW277045   7.559   6.414   3.479
25202SOL     OW77046   7.636   6.544   3.125
25202SOL    HW177047   7.724   6.507   3.130
25202SOL    HW277048   7.584   6.477   3.081
25203SOL     OW77049   7.769   5.875   3.682
25203SOL    HW177050   7.821   5.924   3.746
25203SOL    HW277051   7.685   5.860   3.725
25204SOL     OW77052   8.001   6.331   2.107
25204SOL    HW177053   8.051   6.404   2.142
25204SOL    HW277054   7.940   6.307   2.176
25205SOL     OW77055   7.529   6.422   2.628
25205SOL    HW177056   7.606   6.403   2.681
25205SOL    HW277057   7.488   6.497   2.672
25206SOL     OW77058   7.536   7.380   3.418
25206SOL    HW177059   7.551   7.373   3.513
25206SOL    HW277060   7.502   7.469   3.406
25207SOL     OW77061   7.963   5.800   2.742
25207SOL    HW177062   7.963   5.791   2.837
25207SOL    HW277063   7.956   5.894   2.727
25208SOL     OW77064   7.825   7.418   2.749
25208SOL    HW177065   7.904   7.364   2.751
25208SOL    HW277066   7.858   7.508   2.751
25209SOL     OW77067   7.763   6.553   2.129
25209SOL    HW177068   7.858   6.567   2.124
25209SOL    HW277069   7.753   6.458   2.123
25210SOL     OW77070   7.958   6.822   3.611
25210SOL    HW177071   7.912   6.817   3.527
25210SOL    HW277072   7.890   6.846   3.674
25211SOL     OW77073   7.625   5.846   3.366
25211SOL    HW177074   7.547   5.891   3.399
25211SOL    HW277075   7.615   5.756   3.396
25212SOL     OW77076   7.737   7.369   3.067
25212SOL    HW177077   7.794   7.321   3.127
25212SOL    HW277078   7.786   7.372   2.985
25213SOL     OW77079   7.823   6.279   2.307
25213SOL    HW177080   7.879   6.241   2.374
25213SOL    HW277081   7.734   6.264   2.339
25214SOL     OW77082   0.006   5.692   1.993
25214SOL    HW177083   0.096   5.665   2.006
25214SOL    HW277084  -0.005   5.695   1.897
25215SOL     OW77085   7.956   5.598   2.327
25215SOL    HW177086   7.889   5.624   2.390
25215SOL    HW277087   8.005   5.677   2.309
25216SOL     OW77088   7.748   5.628   2.060
25216SOL    HW177089   7.835   5.659   2.035
25216SOL    HW277090   7.765   5.561   2.126
25217SOL     OW77091   7.900   6.699   2.597
25217SOL    HW177092   7.834   6.693   2.665
25217SOL    HW277093   7.850   6.697   2.515
25218SOL     OW77094   7.531   6.150   3.244
25218SOL    HW177095   7.623   6.137   3.222
25218SOL    HW277096   7.532   6.219   3.311
25219SOL     OW77097   7.986   5.775   3.006
25219SOL    HW177098   8.045   5.741   3.073
25219SOL    HW277099   7.901   5.781   3.051
25220SOL     OW77100   7.867   6.398   3.133
25220SOL    HW177101   7.941   6.400   3.194
25220SOL    HW277102   7.835   6.308   3.138
25221SOL     OW77103   7.530   7.197   3.207
25221SOL    HW177104   7.534   7.274   3.263
25221SOL    HW277105   7.620   7.164   3.206
25222SOL     OW77106   7.753   6.711   2.364
25222SOL    HW177107   7.769   6.792   2.316
25222SOL    HW277108   7.753   6.643   2.297
25223SOL     OW77109  -0.023   6.145   2.723
25223SOL    HW177110   0.018   6.223   2.686
25223SOL    HW277111   0.015   6.138   2.811
25224SOL     OW77112   7.776   7.096   3.186
25224SOL    HW177113   7.796   7.041   3.110
25224SOL    HW277114   7.859   7.138   3.207
25225SOL     OW77115   7.867   6.309   3.464
25225SOL    HW177116   7.958   6.338   3.463
25225SOL    HW277117   7.872   6.214   3.456
25226SOL     OW77118   7.929   5.701   3.552
25226SOL    HW177119   7.880   5.621   3.530
25226SOL    HW277120   7.866   5.756   3.598
25227SOL     OW77121   7.971   6.509   2.905
25227SOL    HW177122   8.061   6.532   2.928
25227SOL    HW277123   7.933   6.476   2.986
25228SOL     OW77124   7.733   5.783   3.112
25228SOL    HW177125   7.691   5.812   3.193
25228SOL    HW277126   7.718   5.688   3.110
25229SOL     OW77127   7.497   6.913   3.134
25229SOL    HW177128   7.516   6.840   3.194
25229SOL    HW277129   7.506   6.991   3.188
25230SOL     OW77130   7.746   5.659   2.491
25230SOL    HW177131   7.732   5.751   2.512
25230SOL    HW277132   7.762   5.617   2.576
25231SOL     OW77133   7.776   6.502   3.655
25231SOL    HW177134   7.827   6.501   3.736
25231SOL    HW277135   7.818   6.435   3.600
25232SOL     OW77136   7.738   6.401   2.806
25232SOL    HW177137   7.826   6.430   2.828
25232SOL    HW277138   7.736   6.309   2.833
25233SOL     OW77139   7.742   6.129   2.856
25233SOL    HW177140   7.717   6.036   2.856
25233SOL    HW277141   7.822   6.132   2.805
25234SOL     OW77142   7.459   6.896   2.042
25234SOL    HW177143   7.370   6.915   2.013
25234SOL    HW277144   7.453   6.811   2.085
25235SOL     OW77145   7.554   7.356   2.795
25235SOL    HW177146   7.534   7.293   2.725
25235SOL    HW277147   7.644   7.382   2.778
25236SOL     OW77148   7.486   6.161   2.972
25236SOL    HW177149   7.570   6.151   2.926
25236SOL    HW277150   7.509   6.151   3.064
25237SOL     OW77151   7.610   6.114   3.608
25237SOL    HW177152   7.676   6.055   3.571
25237SOL    HW277153   7.596   6.180   3.540
25238SOL     OW77154   0.202   6.094   2.165
25238SOL    HW177155   0.169   6.008   2.189
25238SOL    HW277156   0.183   6.149   2.241
25239SOL     OW77157   7.675   7.126   3.582
25239SOL    HW177158   7.692   7.191   3.651
25239SOL    HW277159   7.704   7.043   3.620
25240SOL     OW77160   7.897   6.084   1.995
25240SOL    HW177161   7.957   6.146   2.038
25240SOL    HW277162   7.811   6.123   2.007
25241SOL     OW77163   7.547   6.712   3.318
25241SOL    HW177164   7.579   6.677   3.401
25241SOL    HW277165   7.583   6.653   3.252
25242SOL     OW77166   7.500   6.875   2.861
25242SOL    HW177167   7.487   6.874   2.956
25242SOL    HW277168   7.452   6.798   2.830
25243SOL     OW77169   7.584   7.392   3.694
25243SOL    HW177170   7.537   7.321   3.738
25243SOL    HW277171   7.638   7.431   3.763
25244SOL     OW77172   7.714   5.918   2.579
25244SOL    HW177173   7.627   5.950   2.555
25244SOL    HW277174   7.709   5.902   2.673
25245SOL     OW77175   7.811   6.856   3.385
25245SOL    HW177176   7.861   6.930   3.349
25245SOL    HW277177   7.744   6.839   3.318
25246SOL     OW77178  -0.003   7.135   2.276
25246SOL    HW177179   0.008   7.066   2.342
25246SOL    HW277180   0.062   7.201   2.300
25247SOL     OW77181   7.718   6.928   2.134
25247SOL    HW177182   7.626   6.920   2.110
25247SOL    HW277183   7.718   6.973   2.218
25248SOL     OW77184   7.539   6.586   3.566
25248SOL    HW177185   7.476   6.580   3.638
25248SOL    HW277186   7.623   6.565   3.606
25249SOL     OW77187   7.500   5.912   1.913
25249SOL    HW177188   7.426   5.876   1.865
25249SOL    HW277189   7.529   5.987   1.861
25250SOL     OW77190   7.509   5.739   2.152
25250SOL    HW177191   7.495   5.812   2.093
25250SOL    HW277192   7.598   5.708   2.133
25251SOL     OW77193   7.830   7.333   3.424
25251SOL    HW177194   7.735   7.319   3.428
25251SOL    HW277195   7.867   7.245   3.431
25252SOL     OW77196   7.714   6.894   3.727
25252SOL    HW177197   7.647   6.826   3.720
25252SOL    HW277198   7.723   6.909   3.821
25253SOL     OW77199   7.550   6.812   2.540
25253SOL    HW177200   7.569   6.767   2.623
25253SOL    HW277201   7.612   6.775   2.478
25254SOL     OW77202   0.030   7.054   3.443
25254SOL    HW177203   0.025   6.977   3.499
25254SOL    HW277204   0.123   7.078   3.443
25255SOL     OW77205   7.788   6.137   3.155
25255SOL    HW177206   7.831   6.084   3.223
25255SOL    HW277207   7.817   6.098   3.073
25256SOL     OW77208   7.488   6.640   2.153
25256SOL    HW177209   7.583   6.632   2.141
25256SOL    HW277210   7.461   6.553   2.182
25257SOL     OW77211   7.649   6.225   3.857
25257SOL    HW177212   7.568   6.205   3.904
25257SOL    HW277213   7.633   6.194   3.768
25258SOL     OW77214   7.666   5.870   4.722
25258SOL    HW177215   7.695   5.836   4.807
25258SOL    HW277216   7.579   5.832   4.710
25259SOL     OW77217   7.441   5.985   4.363
25259SOL    HW177218   7.358   6.001   4.409
25259SOL    HW277219   7.426   5.905   4.313
25260SOL     OW77220   7.751   7.036   4.779
25260SOL    HW177221   7.675   6.981   4.759
25260SOL    HW277222   7.814   7.015   4.710
25261SOL     OW77223   7.861   6.009   5.248
25261SOL    HW177224   7.939   5.954   5.243
25261SOL    HW277225   7.788   5.948   5.245
25262SOL     OW77226   7.678   7.304   4.189
25262SOL    HW177227   7.686   7.379   4.248
25262SOL    HW277228   7.768   7.277   4.171
25263SOL     OW77229   7.660   7.023   4.244
25263SOL    HW177230   7.647   7.116   4.263
25263SOL    HW277231   7.616   6.977   4.316
25264SOL     OW77232   7.696   6.670   4.619
25264SOL    HW177233   7.700   6.581   4.654
25264SOL    HW277234   7.646   6.719   4.685
25265SOL     OW77235   7.559   6.238   4.287
25265SOL    HW177236   7.528   6.151   4.311
25265SOL    HW277237   7.554   6.289   4.368
25266SOL     OW77238   7.477   7.179   3.832
25266SOL    HW177239   7.485   7.088   3.858
25266SOL    HW277240   7.462   7.226   3.914
25267SOL     OW77241   7.563   6.328   5.301
25267SOL    HW177242   7.652   6.362   5.305
25267SOL    HW277243   7.508   6.407   5.303
25268SOL     OW77244   7.644   6.539   5.007
25268SOL    HW177245   7.732   6.502   5.001
25268SOL    HW277246   7.591   6.482   4.951
25269SOL     OW77247   7.764   5.844   5.544
25269SOL    HW177248   7.815   5.909   5.592
25269SOL    HW277249   7.675   5.852   5.579
25270SOL     OW77250   7.981   6.342   3.991
25270SOL    HW177251   8.067   6.346   4.033
25270SOL    HW277252   7.922   6.309   4.059
25271SOL     OW77253   7.526   6.424   4.495
25271SOL    HW177254   7.603   6.402   4.546
25271SOL    HW277255   7.490   6.502   4.538
25272SOL     OW77256   7.569   7.456   5.309
25272SOL    HW177257   7.575   7.440   5.404
25272SOL    HW277258   7.494   7.404   5.281
25273SOL     OW77259   7.958   5.789   4.599
25273SOL    HW177260   7.978   5.802   4.692
25273SOL    HW277261   8.030   5.832   4.553
25274SOL     OW77262   7.824   7.419   4.603
25274SOL    HW177263   7.898   7.362   4.623
25274SOL    HW277264   7.861   7.508   4.605
25275SOL     OW77265   7.761   6.544   3.985
25275SOL    HW177266   7.856   6.552   3.981
25275SOL    HW277267   7.744   6.451   3.974
25276SOL     OW77268   7.951   6.836   5.460
25276SOL    HW177269   7.909   6.840   5.374
25276SOL    HW277270   7.880   6.847   5.523
25277SOL     OW77271   7.633   5.853   5.236
25277SOL    HW177272   7.551   5.899   5.253
25277SOL    HW277273   7.623   5.770   5.281
25278SOL     OW77274   7.701   7.369   4.950
25278SOL    HW177275   7.748   7.299   4.995
25278SOL    HW277276   7.702   7.343   4.858
25279SOL     OW77277   7.823   6.248   4.185
25279SOL    HW177278   7.868   6.175   4.229
25279SOL    HW277279   7.734   6.244   4.219
25280SOL     OW77280  -0.002   5.684   3.838
25280SOL    HW177281   0.088   5.661   3.862
25280SOL    HW277282   0.001   5.693   3.743
25281SOL     OW77283   7.982   5.676   4.208
25281SOL    HW177284   7.895   5.655   4.243
25281SOL    HW277285   8.024   5.728   4.277
25282SOL     OW77286   7.745   5.628   3.925
25282SOL    HW177287   7.832   5.657   3.897
25282SOL    HW277288   7.763   5.564   3.994
25283SOL     OW77289   7.905   6.731   4.461
25283SOL    HW177290   7.839   6.705   4.526
25283SOL    HW277291   7.864   6.714   4.377
25284SOL     OW77292   7.532   6.139   5.109
25284SOL    HW177293   7.625   6.134   5.083
25284SOL    HW277294   7.530   6.206   5.176
25285SOL     OW77295   7.983   5.775   4.876
25285SOL    HW177296   8.026   5.707   4.927
25285SOL    HW277297   7.896   5.784   4.915
25286SOL     OW77298   7.883   6.399   4.986
25286SOL    HW177299   7.967   6.389   5.031
25286SOL    HW277300   7.843   6.312   4.992
25287SOL     OW77301   7.527   7.160   5.086
25287SOL    HW177302   7.506   7.232   5.027
25287SOL    HW277303   7.621   7.149   5.079
25288SOL     OW77304   7.763   6.705   4.223
25288SOL    HW177305   7.774   6.780   4.164
25288SOL    HW277306   7.761   6.630   4.164
25289SOL     OW77307   7.959   6.177   4.588
25289SOL    HW177308   8.024   6.226   4.538
25289SOL    HW277309   8.005   6.149   4.667
25290SOL     OW77310   7.792   7.116   5.038
25290SOL    HW177311   7.788   7.078   4.950
25290SOL    HW277312   7.885   7.133   5.052
25291SOL     OW77313   7.853   6.312   5.322
25291SOL    HW177314   7.940   6.345   5.300
25291SOL    HW277315   7.858   6.217   5.306
25292SOL     OW77316   7.914   5.664   5.411
25292SOL    HW177317   7.862   5.584   5.406
25292SOL    HW277318   7.857   5.728   5.453
25293SOL     OW77319   7.978   6.508   4.752
25293SOL    HW177320   8.036   6.579   4.779
25293SOL    HW277321   7.943   6.474   4.834
25294SOL     OW77322   7.729   5.781   4.981
25294SOL    HW177323   7.689   5.808   5.063
25294SOL    HW277324   7.710   5.687   4.975
25295SOL     OW77325   7.491   6.899   4.999
25295SOL    HW177326   7.523   6.841   5.067
25295SOL    HW277327   7.498   6.987   5.036
25296SOL     OW77328   7.746   5.648   4.355
25296SOL    HW177329   7.732   5.741   4.372
25296SOL    HW277330   7.769   5.611   4.440
25297SOL     OW77331   7.790   6.494   5.522
25297SOL    HW177332   7.852   6.477   5.593
25297SOL    HW277333   7.811   6.428   5.456
25298SOL     OW77334   7.732   6.400   4.676
25298SOL    HW177335   7.825   6.423   4.684
25298SOL    HW277336   7.730   6.306   4.695
25299SOL     OW77337   7.733   6.127   4.719
25299SOL    HW177338   7.716   6.033   4.718
25299SOL    HW277339   7.814   6.137   4.669
25300SOL     OW77340   7.457   6.899   3.912
25300SOL    HW177341   7.365   6.917   3.890
25300SOL    HW277342   7.456   6.811   3.951
25301SOL     OW77343   7.545   7.366   4.662
25301SOL    HW177344   7.517   7.287   4.615
25301SOL    HW277345   7.636   7.379   4.635
25302SOL     OW77346   7.483   6.154   4.837
25302SOL    HW177347   7.564   6.145   4.786
25302SOL    HW277348   7.510   6.144   4.928
25303SOL     OW77349   7.621   6.113   5.465
25303SOL    HW177350   7.687   6.068   5.412
25303SOL    HW277351   7.591   6.185   5.410
25304SOL     OW77352   0.206   6.106   4.017
25304SOL    HW177353   0.186   6.013   4.029
25304SOL    HW277354   0.192   6.144   4.104
25305SOL     OW77355   7.685   7.134   5.444
25305SOL    HW177356   7.664   7.187   5.521
25305SOL    HW277357   7.703   7.046   5.479
25306SOL     OW77358   7.899   6.089   3.850
25306SOL    HW177359   7.957   6.147   3.899
25306SOL    HW277360   7.812   6.127   3.863
25307SOL     OW77361   7.585   6.728   5.196
25307SOL    HW177362   7.586   6.684   5.281
25307SOL    HW277363   7.606   6.658   5.133
25308SOL     OW77364   7.530   6.864   4.735
25308SOL    HW177365   7.510   6.872   4.829
25308SOL    HW277366   7.463   6.804   4.702
25309SOL     OW77367   7.585   7.397   5.572
25309SOL    HW177368   7.543   7.323   5.613
25309SOL    HW277369   7.640   7.435   5.641
25310SOL     OW77370   7.709   5.910   4.438
25310SOL    HW177371   7.621   5.945   4.426
25310SOL    HW277372   7.718   5.898   4.532
25311SOL     OW77373   7.812   6.889   5.233
25311SOL    HW177374   7.806   6.958   5.166
25311SOL    HW277375   7.736   6.834   5.217
25312SOL     OW77376  -0.011   7.147   4.141
25312SOL    HW177377   0.007   7.077   4.203
25312SOL    HW277378   0.047   7.218   4.169
25313SOL     OW77379   7.716   6.928   4.002
25313SOL    HW177380   7.623   6.920   3.979
25313SOL    HW277381   7.716   6.972   4.086
25314SOL     OW77382   7.560   6.628   5.450
25314SOL    HW177383   7.484   6.600   5.501
25314SOL    HW277384   7.633   6.580   5.488
25315SOL     OW77385   7.507   5.917   3.779
25315SOL    HW177386   7.424   5.891   3.740
25315SOL    HW277387   7.534   5.994   3.728
25316SOL     OW77388   7.507   5.742   4.015
25316SOL    HW177389   7.497   5.816   3.955
25316SOL    HW277390   7.596   5.710   3.999
25317SOL     OW77391   7.822   7.335   5.297
25317SOL    HW177392   7.740   7.380   5.275
25317SOL    HW277393   7.795   7.252   5.335
25318SOL     OW77394   7.701   6.888   5.575
25318SOL    HW177395   7.639   6.820   5.550
25318SOL    HW277396   7.693   6.895   5.670
25319SOL     OW77397   7.550   6.805   4.392
25319SOL    HW177398   7.563   6.765   4.478
25319SOL    HW277399   7.617   6.765   4.336
25320SOL     OW77400   0.110   7.043   5.326
25320SOL    HW177401   0.073   6.957   5.346
25320SOL    HW277402   0.044   7.105   5.356
25321SOL     OW77403   7.785   6.144   5.010
25321SOL    HW177404   7.841   6.095   5.071
25321SOL    HW277405   7.812   6.113   4.923
25322SOL     OW77406   7.491   6.641   4.015
25322SOL    HW177407   7.585   6.631   4.001
25322SOL    HW277408   7.461   6.555   4.044
25323SOL     OW77409   7.647   6.215   5.722
25323SOL    HW177410   7.560   6.204   5.761
25323SOL    HW277411   7.635   6.192   5.630
25324SOL     OW77412   7.669   5.872   6.579
25324SOL    HW177413   7.697   5.836   6.663
25324SOL    HW277414   7.581   5.836   6.566
25325SOL     OW77415   7.446   5.980   6.226
25325SOL    HW177416   7.365   6.002   6.273
25325SOL    HW277417   7.424   5.901   6.176
25326SOL     OW77418   7.749   7.038   6.637
25326SOL    HW177419   7.673   6.983   6.618
25326SOL    HW277420   7.819   7.001   6.584
25327SOL     OW77421   7.859   5.997   7.094
25327SOL    HW177422   7.939   5.947   7.106
25327SOL    HW277423   7.789   5.933   7.102
25328SOL     OW77424   7.672   7.307   6.058
25328SOL    HW177425   7.685   7.384   6.113
25328SOL    HW277426   7.760   7.275   6.040
25329SOL     OW77427   7.670   7.025   6.114
25329SOL    HW177428   7.644   7.116   6.127
25329SOL    HW277429   7.620   6.976   6.179
25330SOL     OW77430   7.703   6.674   6.480
25330SOL    HW177431   7.702   6.585   6.515
25330SOL    HW277432   7.650   6.724   6.542
25331SOL     OW77433   7.565   6.236   6.151
25331SOL    HW177434   7.529   6.150   6.174
25331SOL    HW277435   7.554   6.288   6.231
25332SOL     OW77436   7.500   7.175   5.700
25332SOL    HW177437   7.484   7.082   5.717
25332SOL    HW277438   7.470   7.219   5.780
25333SOL     OW77439   7.569   6.331   7.159
25333SOL    HW177440   7.658   6.365   7.163
25333SOL    HW277441   7.513   6.409   7.162
25334SOL     OW77442   7.641   6.540   6.871
25334SOL    HW177443   7.728   6.501   6.865
25334SOL    HW277444   7.586   6.484   6.815
25335SOL     OW77445   7.767   5.881   7.410
25335SOL    HW177446   7.808   5.941   7.472
25335SOL    HW277447   7.677   5.870   7.442
25336SOL     OW77448   7.968   6.341   5.833
25336SOL    HW177449   8.044   6.390   5.866
25336SOL    HW277450   7.918   6.319   5.912
25337SOL     OW77451   7.530   6.417   6.357
25337SOL    HW177452   7.607   6.402   6.412
25337SOL    HW277453   7.487   6.493   6.396
25338SOL     OW77454   7.581   7.465   7.173
25338SOL    HW177455   7.584   7.445   7.267
25338SOL    HW277456   7.505   7.417   7.141
25339SOL     OW77457   7.958   5.807   6.467
25339SOL    HW177458   7.962   5.795   6.562
25339SOL    HW277459   7.960   5.902   6.455
25340SOL     OW77460   7.819   7.425   6.461
25340SOL    HW177461   7.883   7.357   6.483
25340SOL    HW277462   7.867   7.507   6.470
25341SOL     OW77463   7.747   6.547   5.847
25341SOL    HW177464   7.840   6.558   5.826
25341SOL    HW277465   7.729   6.455   5.828
25342SOL     OW77466   7.957   6.840   7.326
25342SOL    HW177467   7.916   6.840   7.240
25342SOL    HW277468   7.884   6.855   7.387
25343SOL     OW77469   7.628   5.841   7.088
25343SOL    HW177470   7.551   5.888   7.119
25343SOL    HW277471   7.616   5.751   7.119
25344SOL     OW77472   7.704   7.368   6.809
25344SOL    HW177473   7.752   7.299   6.856
25344SOL    HW277474   7.695   7.334   6.720
25345SOL     OW77475   7.824   6.279   6.052
25345SOL    HW177476   7.870   6.217   6.108
25345SOL    HW277477   7.732   6.268   6.076
25346SOL     OW77478   0.010   5.685   5.705
25346SOL    HW177479   0.101   5.663   5.725
25346SOL    HW277480   0.011   5.708   5.612
25347SOL     OW77481   7.914   5.609   6.015
25347SOL    HW177482   7.865   5.629   6.095
25347SOL    HW277483   7.996   5.657   6.026
25348SOL     OW77484   7.754   5.626   5.788
25348SOL    HW177485   7.830   5.663   5.743
25348SOL    HW277486   7.788   5.599   5.873
25349SOL     OW77487   7.912   6.726   6.319
25349SOL    HW177488   7.843   6.705   6.382
25349SOL    HW277489   7.871   6.712   6.234
25350SOL     OW77490   7.529   6.143   6.969
25350SOL    HW177491   7.621   6.133   6.945
25350SOL    HW277492   7.528   6.210   7.037
25351SOL     OW77493   7.987   5.768   6.730
25351SOL    HW177494   8.048   5.724   6.790
25351SOL    HW277495   7.906   5.775   6.779
25352SOL     OW77496   7.872   6.390   6.852
25352SOL    HW177497   7.945   6.382   6.913
25352SOL    HW277498   7.831   6.304   6.852
25353SOL     OW77499   7.524   7.160   6.949
25353SOL    HW177500   7.505   7.233   6.891
25353SOL    HW277501   7.619   7.147   6.942
25354SOL     OW77502   7.784   6.706   6.076
25354SOL    HW177503   7.774   6.782   6.019
25354SOL    HW277504   7.768   6.631   6.018
25355SOL     OW77505  -0.022   6.135   6.447
25355SOL    HW177506   0.018   6.212   6.406
25355SOL    HW277507   0.015   6.133   6.536
25356SOL     OW77508   7.787   7.112   6.899
25356SOL    HW177509   7.783   7.075   6.811
25356SOL    HW277510   7.879   7.136   6.910
25357SOL     OW77511   7.861   6.313   7.186
25357SOL    HW177512   7.954   6.338   7.184
25357SOL    HW277513   7.862   6.218   7.171
25358SOL     OW77514   7.892   5.637   7.359
25358SOL    HW177515   7.874   5.584   7.282
25358SOL    HW277516   7.838   5.716   7.347
25359SOL     OW77517   7.979   6.504   6.627
25359SOL    HW177518   8.062   6.539   6.660
25359SOL    HW277519   7.936   6.466   6.704
25360SOL     OW77520   7.731   5.779   6.834
25360SOL    HW177521   7.695   5.808   6.917
25360SOL    HW277522   7.716   5.684   6.834
25361SOL     OW77523   7.490   6.899   6.861
25361SOL    HW177524   7.523   6.841   6.930
25361SOL    HW277525   7.497   6.987   6.899
25362SOL     OW77526   7.741   5.658   6.219
25362SOL    HW177527   7.731   5.751   6.239
25362SOL    HW277528   7.761   5.617   6.303
25363SOL     OW77529   7.790   6.495   7.382
25363SOL    HW177530   7.872   6.507   7.430
25363SOL    HW277531   7.809   6.427   7.318
25364SOL     OW77532   7.736   6.401   6.538
25364SOL    HW177533   7.826   6.429   6.555
25364SOL    HW277534   7.735   6.308   6.560
25365SOL     OW77535   7.741   6.128   6.577
25365SOL    HW177536   7.715   6.036   6.578
25365SOL    HW277537   7.822   6.130   6.526
25366SOL     OW77538   7.461   6.900   5.778
25366SOL    HW177539   7.374   6.919   5.744
25366SOL    HW277540   7.455   6.811   5.812
25367SOL     OW77541   7.543   7.368   6.526
25367SOL    HW177542   7.513   7.290   6.479
25367SOL    HW277543   7.633   7.381   6.496
25368SOL     OW77544   7.484   6.153   6.697
25368SOL    HW177545   7.566   6.147   6.649
25368SOL    HW277546   7.509   6.144   6.789
25369SOL     OW77547   7.611   6.122   7.336
25369SOL    HW177548   7.675   6.066   7.292
25369SOL    HW277549   7.590   6.190   7.272
25370SOL     OW77550   0.202   6.100   5.884
25370SOL    HW177551   0.171   6.011   5.903
25370SOL    HW277552   0.185   6.149   5.965
25371SOL     OW77553   7.682   7.133   7.302
25371SOL    HW177554   7.667   7.187   7.380
25371SOL    HW277555   7.703   7.046   7.337
25372SOL     OW77556   7.897   6.094   5.725
25372SOL    HW177557   7.947   6.166   5.763
25372SOL    HW277558   7.805   6.121   5.733
25373SOL     OW77559   7.582   6.728   7.059
25373SOL    HW177560   7.585   6.684   7.144
25373SOL    HW277561   7.603   6.659   6.996
25374SOL     OW77562   7.533   6.859   6.599
25374SOL    HW177563   7.512   6.870   6.692
25374SOL    HW277564   7.463   6.802   6.566
25375SOL     OW77565   7.586   7.398   7.434
25375SOL    HW177566   7.543   7.323   7.475
25375SOL    HW277567   7.640   7.436   7.503
25376SOL     OW77568   7.715   5.919   6.301
25376SOL    HW177569   7.628   5.950   6.278
25376SOL    HW277570   7.712   5.904   6.395
25377SOL     OW77571   7.812   6.884   7.098
25377SOL    HW177572   7.808   6.955   7.034
25377SOL    HW277573   7.735   6.831   7.080
25378SOL     OW77574  -0.012   7.150   5.998
25378SOL    HW177575  -0.008   7.082   6.064
25378SOL    HW277576   0.046   7.219   6.031
25379SOL     OW77577   7.720   6.921   5.871
25379SOL    HW177578   7.628   6.916   5.845
25379SOL    HW277579   7.719   6.970   5.953
25380SOL     OW77580   7.561   6.631   7.316
25380SOL    HW177581   7.484   6.602   7.365
25380SOL    HW277582   7.633   6.580   7.351
25381SOL     OW77583   7.509   5.917   5.630
25381SOL    HW177584   7.418   5.908   5.603
25381SOL    HW277585   7.541   5.993   5.580
25382SOL     OW77586   7.509   5.736   5.873
25382SOL    HW177587   7.497   5.813   5.817
25382SOL    HW277588   7.598   5.705   5.854
25383SOL     OW77589   7.834   7.343   7.155
25383SOL    HW177590   7.746   7.378   7.140
25383SOL    HW277591   7.820   7.253   7.185
25384SOL     OW77592   7.701   6.887   7.435
25384SOL    HW177593   7.644   6.817   7.404
25384SOL    HW277594   7.687   6.890   7.529
25385SOL     OW77595   7.546   6.812   6.256
25385SOL    HW177596   7.550   6.772   6.343
25385SOL    HW277597   7.611   6.765   6.205
25386SOL     OW77598   0.097   7.038   7.134
25386SOL    HW177599   0.052   6.969   7.183
25386SOL    HW277600   0.173   7.060   7.187
25387SOL     OW77601   7.782   6.135   6.873
25387SOL    HW177602   7.825   6.085   6.942
25387SOL    HW277603   7.814   6.096   6.792
25388SOL     OW77604   7.486   6.643   5.893
25388SOL    HW177605   7.578   6.631   5.868
25388SOL    HW277606   7.456   6.556   5.918
25389SOL     OW77607   7.636   6.231   7.590
25389SOL    HW177608   7.548   6.216   7.623
25389SOL    HW277609   7.631   6.207   7.498
25390SOL     OW77610   7.670   5.869   8.442
25390SOL    HW177611   7.698   5.833   8.526
25390SOL    HW277612   7.583   5.833   8.428
25391SOL     OW77613   7.455   5.973   8.088
25391SOL    HW177614   7.374   5.994   8.134
25391SOL    HW277615   7.433   5.897   8.034
25392SOL     OW77616   7.757   7.018   8.501
25392SOL    HW177617   7.681   6.960   8.493
25392SOL    HW277618   7.786   7.033   8.411
25393SOL     OW77619   7.849   5.990   8.983
25393SOL    HW177620   7.925   5.936   8.962
25393SOL    HW277621   7.773   5.933   8.970
25394SOL     OW77622   7.672   7.301   7.920
25394SOL    HW177623   7.687   7.381   7.972
25394SOL    HW277624   7.760   7.269   7.901
25395SOL     OW77625   7.673   7.025   7.978
25395SOL    HW177626   7.645   7.116   7.985
25395SOL    HW277627   7.618   6.979   8.041
25396SOL     OW77628   7.717   6.674   8.351
25396SOL    HW177629   7.707   6.584   8.382
25396SOL    HW277630   7.655   6.725   8.403
25397SOL     OW77631   7.574   6.233   8.013
25397SOL    HW177632   7.538   6.147   8.033
25397SOL    HW277633   7.561   6.283   8.094
25398SOL     OW77634   7.499   7.177   7.564
25398SOL    HW177635   7.483   7.083   7.579
25398SOL    HW277636   7.469   7.219   7.644
25399SOL     OW77637   7.551   6.325   9.031
25399SOL    HW177638   7.639   6.361   9.033
25399SOL    HW277639   7.494   6.401   9.016
25400SOL     OW77640   7.639   6.538   8.746
25400SOL    HW177641   7.726   6.498   8.741
25400SOL    HW277642   7.591   6.498   8.673
25401SOL     OW77643   7.753   5.843   9.302
25401SOL    HW177644   7.797   5.928   9.308
25401SOL    HW277645   7.660   5.864   9.314
25402SOL     OW77646   0.003   6.321   7.688
25402SOL    HW177647   0.067   6.389   7.712
25402SOL    HW277648  -0.058   6.318   7.761
25403SOL     OW77649   7.536   6.403   8.228
25403SOL    HW177650   7.613   6.397   8.284
25403SOL    HW277651   7.488   6.480   8.260
25404SOL     OW77652   7.575   7.457   9.034
25404SOL    HW177653   7.577   7.434   9.127
25404SOL    HW277654   7.499   7.410   8.999
25405SOL     OW77655   7.966   5.783   8.337
25405SOL    HW177656   7.965   5.804   8.431
25405SOL    HW277657   7.963   5.868   8.293
25406SOL     OW77658   7.814   7.423   8.321
25406SOL    HW177659   7.884   7.359   8.335
25406SOL    HW277660   7.857   7.508   8.328
25407SOL     OW77661   7.750   6.553   7.708
25407SOL    HW177662   7.841   6.565   7.684
25407SOL    HW277663   7.730   6.463   7.684
25408SOL     OW77664   7.925   6.805   9.184
25408SOL    HW177665   7.889   6.819   9.096
25408SOL    HW277666   7.854   6.832   9.243
25409SOL     OW77667   7.624   5.843   8.949
25409SOL    HW177668   7.539   5.886   8.956
25409SOL    HW277669   7.610   5.754   8.981
25410SOL     OW77670   7.644   7.371   8.675
25410SOL    HW177671   7.724   7.329   8.705
25410SOL    HW277672   7.659   7.387   8.582
25411SOL     OW77673   7.830   6.306   7.902
25411SOL    HW177674   7.891   6.253   7.952
25411SOL    HW277675   7.743   6.279   7.932
25412SOL     OW77676   0.016   5.713   7.581
25412SOL    HW177677   0.106   5.681   7.589
25412SOL    HW277678  -0.016   5.677   7.499
25413SOL     OW77679   7.997   5.613   7.990
25413SOL    HW177680   7.904   5.632   8.004
25413SOL    HW277681   8.026   5.682   7.931
25414SOL     OW77682   7.750   5.629   7.640
25414SOL    HW177683   7.818   5.688   7.610
25414SOL    HW277684   7.794   5.545   7.653
25415SOL     OW77685   7.923   6.700   8.177
25415SOL    HW177686   7.855   6.689   8.243
25415SOL    HW277687   7.875   6.697   8.094
25416SOL     OW77688   7.538   6.137   8.834
25416SOL    HW177689   7.630   6.136   8.811
25416SOL    HW277690   7.531   6.204   8.903
25417SOL     OW77691   7.988   5.789   8.608
25417SOL    HW177692   8.029   5.710   8.643
25417SOL    HW277693   7.901   5.790   8.647
25418SOL     OW77694   7.881   6.404   8.741
25418SOL    HW177695   7.977   6.396   8.742
25418SOL    HW277696   7.849   6.314   8.734
25419SOL     OW77697   7.532   7.149   8.808
25419SOL    HW177698   7.516   7.228   8.757
25419SOL    HW277699   7.626   7.135   8.803
25420SOL     OW77700   7.773   6.705   7.944
25420SOL    HW177701   7.771   6.779   7.884
25420SOL    HW277702   7.764   6.628   7.888
25421SOL     OW77703   7.968   6.162   8.316
25421SOL    HW177704   8.013   6.234   8.273
25421SOL    HW277705   8.011   6.155   8.402
25422SOL     OW77706   7.799   7.102   8.761
25422SOL    HW177707   7.793   7.068   8.671
25422SOL    HW277708   7.892   7.120   8.773
25423SOL     OW77709   7.834   6.335   9.049
25423SOL    HW177710   7.880   6.372   8.974
25423SOL    HW277711   7.861   6.243   9.050
25424SOL     OW77712   7.932   5.673   9.193
25424SOL    HW177713   7.894   5.606   9.135
25424SOL    HW277714   7.858   5.729   9.216
25425SOL     OW77715   7.993   6.509   8.495
25425SOL    HW177716   8.008   6.603   8.482
25425SOL    HW277717   7.937   6.504   8.572
25426SOL     OW77718   7.734   5.780   8.700
25426SOL    HW177719   7.688   5.807   8.780
25426SOL    HW277720   7.720   5.686   8.695
25427SOL     OW77721   7.481   6.891   8.729
25427SOL    HW177722   7.521   6.838   8.797
25427SOL    HW277723   7.493   6.982   8.758
25428SOL     OW77724   7.734   5.658   8.067
25428SOL    HW177725   7.724   5.752   8.085
25428SOL    HW277726   7.751   5.619   8.153
25429SOL     OW77727   7.807   6.515   9.268
25429SOL    HW177728   7.882   6.568   9.241
25429SOL    HW277729   7.812   6.437   9.213
25430SOL     OW77730   7.745   6.400   8.410
25430SOL    HW177731   7.839   6.418   8.408
25430SOL    HW277732   7.738   6.307   8.431
25431SOL     OW77733   7.743   6.124   8.455
25431SOL    HW177734   7.718   6.032   8.447
25431SOL    HW277735   7.820   6.133   8.399
25432SOL     OW77736   7.459   6.902   7.644
25432SOL    HW177737   7.372   6.921   7.610
25432SOL    HW277738   7.454   6.812   7.676
25433SOL     OW77739   7.543   7.369   8.386
25433SOL    HW177740   7.512   7.290   8.341
25433SOL    HW277741   7.632   7.382   8.353
25434SOL     OW77742   7.483   6.149   8.563
25434SOL    HW177743   7.563   6.143   8.511
25434SOL    HW277744   7.512   6.140   8.654
25435SOL     OW77745   7.633   6.109   9.186
25435SOL    HW177746   7.687   6.063   9.123
25435SOL    HW277747   7.592   6.180   9.137
25436SOL     OW77748   0.221   6.110   7.756
25436SOL    HW177749   0.170   6.034   7.729
25436SOL    HW277750   0.171   6.147   7.829
25437SOL     OW77751   7.689   7.136   9.163
25437SOL    HW177752   7.671   7.196   9.235
25437SOL    HW277753   7.700   7.051   9.205
25438SOL     OW77754   7.864   6.076   7.605
25438SOL    HW177755   7.935   6.136   7.627
25438SOL    HW277756   7.784   6.128   7.615
25439SOL     OW77757   7.585   6.729   8.930
25439SOL    HW177758   7.585   6.686   9.015
25439SOL    HW277759   7.603   6.659   8.867
25440SOL     OW77760   7.538   6.845   8.469
25440SOL    HW177761   7.508   6.859   8.559
25440SOL    HW277762   7.466   6.799   8.426
25441SOL     OW77763   7.591   7.383   9.294
25441SOL    HW177764   7.545   7.312   9.339
25441SOL    HW277765   7.640   7.428   9.363
25442SOL     OW77766   7.721   5.915   8.164
25442SOL    HW177767   7.636   5.947   8.136
25442SOL    HW277768   7.712   5.900   8.259
25443SOL     OW77769   7.813   6.889   8.953
25443SOL    HW177770   7.806   6.960   8.888
25443SOL    HW277771   7.736   6.835   8.938
25444SOL     OW77772  -0.021   7.164   7.864
25444SOL    HW177773  -0.006   7.082   7.911
25444SOL    HW277774   0.046   7.223   7.897
25445SOL     OW77775   7.717   6.919   7.735
25445SOL    HW177776   7.625   6.917   7.708
25445SOL    HW277777   7.716   6.968   7.817
25446SOL     OW77778   7.565   6.637   9.190
25446SOL    HW177779   7.485   6.606   9.232
25446SOL    HW277780   7.634   6.583   9.229
25447SOL     OW77781   7.503   5.920   7.499
25447SOL    HW177782   7.426   5.893   7.449
25447SOL    HW277783   7.531   6.001   7.457
25448SOL     OW77784   7.512   5.738   7.736
25448SOL    HW177785   7.498   5.809   7.672
25448SOL    HW277786   7.600   5.706   7.717
25449SOL     OW77787   7.830   7.339   9.013
25449SOL    HW177788   7.748   7.384   8.992
25449SOL    HW277789   7.802   7.255   9.051
25450SOL     OW77790   7.677   6.882   9.290
25450SOL    HW177791   7.630   6.809   9.248
25450SOL    HW277792   7.630   6.897   9.372
25451SOL     OW77793   7.547   6.811   8.115
25451SOL    HW177794   7.554   6.762   8.197
25451SOL    HW277795   7.610   6.769   8.057
25452SOL     OW77796   0.096   7.014   9.093
25452SOL    HW177797   0.023   6.953   9.105
25452SOL    HW277798   0.072   7.066   9.017
25453SOL     OW77799   7.792   6.147   8.737
25453SOL    HW177800   7.852   6.090   8.784
25453SOL    HW277801   7.801   6.120   8.645
25454SOL     OW77802   7.487   6.645   7.760
25454SOL    HW177803   7.578   6.634   7.733
25454SOL    HW277804   7.458   6.557   7.784
25455SOL     OW77805   7.652   6.210   9.447
25455SOL    HW177806   7.562   6.203   9.479
25455SOL    HW277807   7.647   6.188   9.354
25456SOL     OW77808   7.672   5.868  10.303
25456SOL    HW177809   7.698   5.833  10.388
25456SOL    HW277810   7.584   5.834  10.288
25457SOL     OW77811   7.453   5.973   9.952
25457SOL    HW177812   7.371   5.996   9.996
25457SOL    HW277813   7.431   5.896   9.898
25458SOL     OW77814   7.749   7.026  10.360
25458SOL    HW177815   7.674   6.967  10.349
25458SOL    HW277816   7.787   7.034  10.272
25459SOL     OW77817   7.871   5.965  10.841
25459SOL    HW177818   7.916   5.904  10.900
25459SOL    HW277819   7.786   5.925  10.824
25460SOL     OW77820   7.665   7.301   9.784
25460SOL    HW177821   7.682   7.381   9.833
25460SOL    HW277822   7.749   7.279   9.743
25461SOL     OW77823   7.673   7.030   9.846
25461SOL    HW177824   7.654   7.123   9.843
25461SOL    HW277825   7.611   6.994   9.909
25462SOL     OW77826   7.719   6.678  10.217
25462SOL    HW177827   7.704   6.589  10.250
25462SOL    HW277828   7.655   6.732  10.263
25463SOL     OW77829   7.568   6.231   9.880
25463SOL    HW177830   7.529   6.145   9.898
25463SOL    HW277831   7.555   6.281   9.960
25464SOL     OW77832   7.499   7.172   9.432
25464SOL    HW177833   7.482   7.079   9.450
25464SOL    HW277834   7.467   7.218   9.509
25465SOL     OW77835   7.547   6.327  10.891
25465SOL    HW177836   7.635   6.366  10.895
25465SOL    HW277837   7.488   6.401  10.878
25466SOL     OW77838   7.636   6.538  10.607
25466SOL    HW177839   7.722   6.496  10.609
25466SOL    HW277840   7.590   6.496  10.534
25467SOL     OW77841   7.763   5.856  11.157
25467SOL    HW177842   7.798   5.943  11.178
25467SOL    HW277843   7.669   5.863  11.177
25468SOL     OW77844   8.001   6.322   9.576
25468SOL    HW177845   8.013   6.411   9.544
25468SOL    HW277846   7.940   6.331   9.649
25469SOL     OW77847   7.537   6.398  10.095
25469SOL    HW177848   7.614   6.398  10.151
25469SOL    HW277849   7.487   6.475  10.122
25470SOL     OW77850   7.574   7.453  10.894
25470SOL    HW177851   7.576   7.435  10.988
25470SOL    HW277852   7.503   7.398  10.860
25471SOL     OW77853   7.969   5.785  10.217
25471SOL    HW177854   7.954   5.841  10.294
25471SOL    HW277855   7.964   5.845  10.143
25472SOL     OW77856   7.811   7.426  10.179
25472SOL    HW177857   7.881   7.360  10.182
25472SOL    HW277858   7.857   7.510  10.188
25473SOL     OW77859   7.738   6.540   9.556
25473SOL    HW177860   7.777   6.555   9.470
25473SOL    HW277861   7.723   6.445   9.559
25474SOL     OW77862   7.957   6.825  11.051
25474SOL    HW177863   7.917   6.832  10.965
25474SOL    HW277864   7.886   6.845  11.112
25475SOL     OW77865   7.626   5.851  10.814
25475SOL    HW177866   7.540   5.894  10.822
25475SOL    HW277867   7.611   5.761  10.844
25476SOL     OW77868   7.704   7.373  10.531
25476SOL    HW177869   7.748   7.296  10.567
25476SOL    HW277870   7.686   7.350  10.440
25477SOL     OW77871   7.819   6.294   9.778
25477SOL    HW177872   7.863   6.211   9.796
25477SOL    HW277873   7.729   6.280   9.808
25478SOL     OW77874   0.012   5.670   9.457
25478SOL    HW177875   0.107   5.654   9.463
25478SOL    HW277876  -0.005   5.674   9.363
25479SOL     OW77877   8.000   5.662   9.877
25479SOL    HW177878   7.906   5.649   9.865
25479SOL    HW277879   8.031   5.693   9.792
25480SOL     OW77880   7.739   5.648   9.493
25480SOL    HW177881   7.753   5.720   9.432
25480SOL    HW277882   7.827   5.612   9.508
25481SOL     OW77883   7.922   6.675  10.036
25481SOL    HW177884   7.852   6.678  10.100
25481SOL    HW277885   7.877   6.678   9.951
25482SOL     OW77886   7.538   6.138  10.695
25482SOL    HW177887   7.632   6.135  10.674
25482SOL    HW277888   7.530   6.206  10.762
25483SOL     OW77889   8.005   5.789  10.517
25483SOL    HW177890   8.021   5.700  10.485
25483SOL    HW277891   7.911   5.790  10.535
25484SOL     OW77892   7.873   6.398  10.624
25484SOL    HW177893   7.964   6.409  10.596
25484SOL    HW277894   7.854   6.306  10.606
25485SOL     OW77895   7.523   7.160  10.673
25485SOL    HW177896   7.495   7.226  10.610
25485SOL    HW277897   7.617   7.153  10.660
25486SOL     OW77898   7.790   6.697   9.792
25486SOL    HW177899   7.783   6.775   9.738
25486SOL    HW277900   7.777   6.624   9.731
25487SOL     OW77901   7.968   6.167  10.189
25487SOL    HW177902   8.014   6.235  10.140
25487SOL    HW277903   8.015   6.160  10.272
25488SOL     OW77904   7.785   7.117  10.616
25488SOL    HW177905   7.783   7.074  10.530
25488SOL    HW277906   7.878   7.138  10.629
25489SOL     OW77907   7.828   6.346  10.897
25489SOL    HW177908   7.851   6.383  10.812
25489SOL    HW277909   7.864   6.258  10.896
25490SOL     OW77910   7.921   5.662  11.055
25490SOL    HW177911   7.887   5.595  10.996
25490SOL    HW277912   7.846   5.719  11.073
25491SOL     OW77913   8.005   6.516  10.372
25491SOL    HW177914   8.022   6.608  10.351
25491SOL    HW277915   7.913   6.514  10.398
25492SOL     OW77916   7.734   5.781  10.560
25492SOL    HW177917   7.689   5.808  10.640
25492SOL    HW277918   7.721   5.687  10.555
25493SOL     OW77919   7.491   6.898  10.587
25493SOL    HW177920   7.525   6.843  10.657
25493SOL    HW277921   7.497   6.987  10.621
25494SOL     OW77922   7.726   5.656   9.927
25494SOL    HW177923   7.718   5.751   9.942
25494SOL    HW277924   7.745   5.620  10.013
25495SOL     OW77925   7.815   6.511  11.126
25495SOL    HW177926   7.900   6.552  11.108
25495SOL    HW277927   7.810   6.439  11.063
25496SOL     OW77928   7.751   6.399  10.274
25496SOL    HW177929   7.840   6.401  10.237
25496SOL    HW277930   7.738   6.308  10.299
25497SOL     OW77931   7.743   6.124  10.324
25497SOL    HW177932   7.716   6.033  10.311
25497SOL    HW277933   7.820   6.134  10.268
25498SOL     OW77934   7.472   6.896   9.499
25498SOL    HW177935   7.384   6.917   9.468
25498SOL    HW277936   7.464   6.810   9.540
25499SOL     OW77937   7.550   7.362  10.260
25499SOL    HW177938   7.517   7.288  10.209
25499SOL    HW277939   7.635   7.382  10.222
25500SOL     OW77940   7.480   6.146  10.426
25500SOL    HW177941   7.560   6.141  10.375
25500SOL    HW277942   7.509   6.141  10.517
25501SOL     OW77943   7.621   6.112  11.049
25501SOL    HW177944   7.661   6.056  10.982
25501SOL    HW277945   7.586   6.186  10.999
25502SOL     OW77946   0.215   6.101   9.604
25502SOL    HW177947   0.173   6.015   9.612
25502SOL    HW277948   0.181   6.152   9.678
25503SOL     OW77949   7.684   7.132  11.028
25503SOL    HW177950   7.668   7.187  11.104
25503SOL    HW277951   7.704   7.046  11.064
25504SOL     OW77952   7.902   6.086   9.471
25504SOL    HW177953   7.955   6.157   9.507
25504SOL    HW277954   7.812   6.118   9.473
25505SOL     OW77955   7.579   6.730  10.791
25505SOL    HW177956   7.583   6.687  10.876
25505SOL    HW277957   7.598   6.660  10.728
25506SOL     OW77958   7.531   6.852  10.324
25506SOL    HW177959   7.508   6.865  10.416
25506SOL    HW277960   7.460   6.798  10.289
25507SOL     OW77961   7.583   7.394  11.156
25507SOL    HW177962   7.541   7.319  11.197
25507SOL    HW277963   7.634   7.434  11.226
25508SOL     OW77964   7.723   5.915  10.027
25508SOL    HW177965   7.638   5.947   9.997
25508SOL    HW277966   7.711   5.900  10.121
25509SOL     OW77967   7.815   6.879  10.825
25509SOL    HW177968   7.816   6.951  10.762
25509SOL    HW277969   7.734   6.832  10.806
25510SOL     OW77970  -0.017   7.164   9.722
25510SOL    HW177971   0.003   7.080   9.763
25510SOL    HW277972   0.052   7.223   9.754
25511SOL     OW77973   7.736   6.912   9.612
25511SOL    HW177974   7.648   6.912   9.574
25511SOL    HW277975   7.727   6.966   9.691
25512SOL     OW77976   7.567   6.631  11.049
25512SOL    HW177977   7.488   6.602  11.093
25512SOL    HW277978   7.638   6.581  11.090
25513SOL     OW77979   7.498   5.922   9.351
25513SOL    HW177980   7.421   5.894   9.300
25513SOL    HW277981   7.528   6.001   9.305
25514SOL     OW77982   7.504   5.740   9.601
25514SOL    HW177983   7.488   5.810   9.537
25514SOL    HW277984   7.592   5.708   9.579
25515SOL     OW77985   7.834   7.344  10.884
25515SOL    HW177986   7.748   7.380  10.862
25515SOL    HW277987   7.817   7.255  10.913
25516SOL     OW77988   7.698   6.881  11.155
25516SOL    HW177989   7.643   6.813  11.115
25516SOL    HW277990   7.661   6.893  11.243
25517SOL     OW77991   7.537   6.817   9.981
25517SOL    HW177992   7.543   6.762  10.059
25517SOL    HW277993   7.600   6.780   9.920
25518SOL     OW77994   0.097   7.034  10.863
25518SOL    HW177995   0.053   6.967  10.915
25518SOL    HW277996   0.175   7.057  10.914
25519SOL     OW77997   7.797   6.135  10.606
25519SOL    HW177998   7.851   6.070  10.651
25519SOL    HW277999   7.804   6.112  10.514
25520SOL     OW78000   7.486   6.646   9.628
25520SOL    HW178001   7.576   6.633   9.599
25520SOL    HW278002   7.456   6.558   9.651
25521SOL     OW78003   7.657   6.204  11.308
25521SOL    HW178004   7.571   6.197  11.349
25521SOL    HW278005   7.642   6.185  11.216
25522SOL     OW78006   7.678   5.874  12.184
25522SOL    HW178007   7.697   5.867  12.278
25522SOL    HW278008   7.591   5.837  12.174
25523SOL     OW78009   7.448   5.979  11.812
25523SOL    HW178010   7.368   6.005  11.858
25523SOL    HW278011   7.423   5.900  11.763
25524SOL     OW78012   7.758   7.015  12.213
25524SOL    HW178013   7.673   6.972  12.203
25524SOL    HW278014   7.795   7.014  12.125
25525SOL     OW78015   7.662   7.289  11.637
25525SOL    HW178016   7.680   7.368  11.688
25525SOL    HW278017   7.747   7.263  11.603
25526SOL     OW78018   7.678   7.021  11.709
25526SOL    HW178019   7.649   7.112  11.707
25526SOL    HW278020   7.618   6.979  11.771
25527SOL     OW78021   7.712   6.675  12.080
25527SOL    HW178022   7.714   6.582  12.103
25527SOL    HW278023   7.649   6.714  12.141
25528SOL     OW78024   7.577   6.233  11.733
25528SOL    HW178025   7.536   6.149  11.755
25528SOL    HW278026   7.566   6.286  11.812
25529SOL     OW78027   7.502   7.173  11.288
25529SOL    HW178028   7.482   7.081  11.305
25529SOL    HW278029   7.468   7.219  11.364
25530SOL     OW78030   7.585   6.311   0.210
25530SOL    HW178031   7.653   6.358   0.259
25530SOL    HW278032   7.518   6.377   0.193
25531SOL     OW78033   7.643   6.594  12.444
25531SOL    HW178034   7.717   6.536  12.428
25531SOL    HW278035   7.566   6.539  12.433
25532SOL     OW78036   0.020   6.342  11.418
25532SOL    HW178037   0.021   6.437  11.414
25532SOL    HW278038  -0.039   6.321  11.490
25533SOL     OW78039   7.542   6.411  11.941
25533SOL    HW178040   7.618   6.402  11.998
25533SOL    HW278041   7.487   6.478  11.983
25534SOL     OW78042   7.975   5.793  12.049
25534SOL    HW178043   7.959   5.799  12.143
25534SOL    HW278044   7.951   5.879  12.015
25535SOL     OW78045   7.810   7.418  12.040
25535SOL    HW178046   7.876   7.350  12.051
25535SOL    HW278047   7.858   7.500  12.052
25536SOL     OW78048   7.739   6.541  11.419
25536SOL    HW178049   7.784   6.554  11.336
25536SOL    HW278050   7.724   6.447  11.424
25537SOL     OW78051   7.684   7.372  12.401
25537SOL    HW178052   7.718   7.286  12.424
25537SOL    HW278053   7.640   7.358  12.317
25538SOL     OW78054   7.834   6.275  11.614
25538SOL    HW178055   7.882   6.219  11.675
25538SOL    HW278056   7.742   6.267  11.641
25539SOL     OW78057   0.042   5.724  11.286
25539SOL    HW178058   0.125   5.678  11.301
25539SOL    HW278059   0.007   5.683  11.206
25540SOL     OW78060   8.004   5.616  11.686
25540SOL    HW178061   7.916   5.626  11.720
25540SOL    HW278062   8.020   5.695  11.635
25541SOL     OW78063   7.748   5.647  11.353
25541SOL    HW178064   7.787   5.716  11.300
25541SOL    HW278065   7.821   5.590  11.376
25542SOL     OW78066   7.915   6.714  11.904
25542SOL    HW178067   7.844   6.697  11.966
25542SOL    HW278068   7.875   6.701  11.818
25543SOL     OW78069   7.969   5.790  12.315
25543SOL    HW178070   7.988   5.706  12.356
25543SOL    HW278071   7.902   5.829  12.371
25544SOL     OW78072   7.857   6.416  12.435
25544SOL    HW178073   7.931   6.390  12.490
25544SOL    HW278074   7.798   6.340  12.437
25545SOL     OW78075   7.803   6.697  11.650
25545SOL    HW178076   7.783   6.777  11.601
25545SOL    HW278077   7.784   6.626  11.588
25546SOL     OW78078  -0.008   6.141  12.050
25546SOL    HW178079   0.026   6.215  12.000
25546SOL    HW278080   0.022   6.155  12.139
25547SOL     OW78081   7.780   7.132  12.464
25547SOL    HW178082   7.776   7.079  12.384
25547SOL    HW278083   7.868   7.118  12.498
25548SOL     OW78084   7.873   6.360   0.251
25548SOL    HW178085   7.968   6.359   0.263
25548SOL    HW278086   7.851   6.268   0.236
25549SOL     OW78087   7.995   6.504  12.214
25549SOL    HW178088   8.006   6.599  12.214
25549SOL    HW278089   7.945   6.485  12.293
25550SOL     OW78090   7.498   6.912  12.430
25550SOL    HW178091   7.532   6.834  12.472
25550SOL    HW278092   7.510   6.982  12.495
25551SOL     OW78093   7.752   5.661  11.790
25551SOL    HW178094   7.732   5.752  11.812
25551SOL    HW278095   7.761   5.617  11.875
25552SOL     OW78096   7.750   6.404  12.121
25552SOL    HW178097   7.842   6.421  12.141
25552SOL    HW278098   7.738   6.311  12.138
25553SOL     OW78099   7.737   6.133  12.137
25553SOL    HW178100   7.719   6.042  12.162
25553SOL    HW278101   7.825   6.131  12.099
25554SOL     OW78102   7.466   6.898  11.361
25554SOL    HW178103   7.379   6.919  11.329
25554SOL    HW278104   7.458   6.810  11.399
25555SOL     OW78105   7.553   7.359  12.132
25555SOL    HW178106   7.522   7.281  12.084
25555SOL    HW278107   7.637   7.379  12.093
25556SOL     OW78108   7.501   6.164  12.284
25556SOL    HW178109   7.562   6.151  12.211
25556SOL    HW278110   7.558   6.182  12.359
25557SOL     OW78111   0.214   6.091  11.472
25557SOL    HW178112   0.170   6.009  11.497
25557SOL    HW278113   0.188   6.154  11.538
25558SOL     OW78114   7.916   6.109  11.300
25558SOL    HW178115   7.968   6.175  11.346
25558SOL    HW278116   7.825   6.137  11.312
25559SOL     OW78117   7.509   6.885  12.163
25559SOL    HW178118   7.497   6.891  12.258
25559SOL    HW278119   7.456   6.810  12.137
25560SOL     OW78120   7.718   5.915  11.895
25560SOL    HW178121   7.633   5.949  11.866
25560SOL    HW278122   7.708   5.904  11.990
25561SOL     OW78123  -0.017   7.161  11.589
25561SOL    HW178124  -0.014   7.083  11.643
25561SOL    HW278125   0.057   7.214  11.617
25562SOL     OW78126   7.721   6.913  11.469
25562SOL    HW178127   7.631   6.913  11.436
25562SOL    HW278128   7.718   6.962  11.550
25563SOL     OW78129   7.504   5.917  11.217
25563SOL    HW178130   7.419   5.892  11.180
25563SOL    HW278131   7.528   5.997  11.169
25564SOL     OW78132   7.508   5.737  11.464
25564SOL    HW178133   7.494   5.811  11.405
25564SOL    HW278134   7.596   5.706  11.442
25565SOL     OW78135   7.732   7.313   0.234
25565SOL    HW178136   7.689   7.330   0.150
25565SOL    HW278137   7.802   7.252   0.213
25566SOL     OW78138   7.537   6.820  11.849
25566SOL    HW178139   7.530   6.772  11.931
25566SOL    HW278140   7.598   6.768  11.796
25567SOL     OW78141   7.486   6.645  11.486
25567SOL    HW178142   7.577   6.633  11.458
25567SOL    HW278143   7.456   6.558  11.510
25568SOL     OW78144   7.676   7.713   0.987
25568SOL    HW178145   7.701   7.686   1.076
25568SOL    HW278146   7.585   7.686   0.978
25569SOL     OW78147   7.428   7.818   0.649
25569SOL    HW178148   7.346   7.860   0.675
25569SOL    HW278149   7.400   7.739   0.602
25570SOL     OW78150   7.865   7.858   1.561
25570SOL    HW178151   7.942   7.801   1.567
25570SOL    HW278152   7.793   7.799   1.537
25571SOL     OW78153   7.542   0.070   0.640
25571SOL    HW178154   7.504  -0.017   0.630
25571SOL    HW278155   7.514   0.099   0.726
25572SOL     OW78156   7.751   7.692   1.800
25572SOL    HW178157   7.813   7.751   1.843
25572SOL    HW278158   7.668   7.706   1.847
25573SOL     OW78159   7.958   7.644   0.874
25573SOL    HW178160   7.963   7.639   0.970
25573SOL    HW278161   7.964   7.737   0.854
25574SOL     OW78162   7.635   7.716   1.503
25574SOL    HW178163   7.560   7.761   1.541
25574SOL    HW278164   7.635   7.630   1.546
25575SOL     OW78165   0.041   7.493   0.094
25575SOL    HW178166   0.135   7.504   0.105
25575SOL    HW278167   0.025   7.514   0.002
25576SOL     OW78168   7.537  -0.005   1.388
25576SOL    HW178169   7.614  -0.039   1.435
25576SOL    HW278170   7.528   0.085   1.420
25577SOL     OW78171   7.992   7.640   1.142
25577SOL    HW178172   8.053   7.629   1.216
25577SOL    HW278173   7.906   7.651   1.183
25578SOL     OW78174   7.989   7.915   0.866
25578SOL    HW178175   7.948   7.985   0.815
25578SOL    HW278176   8.022   7.958   0.944
25579SOL     OW78177   7.918   7.553   1.634
25579SOL    HW178178   7.871   7.472   1.613
25579SOL    HW278179   7.864   7.595   1.701
25580SOL     OW78180   7.735   7.641   1.248
25580SOL    HW178181   7.700   7.677   1.330
25580SOL    HW278182   7.715   7.548   1.253
25581SOL     OW78183   7.814   7.503   0.612
25581SOL    HW178184   7.778   7.591   0.624
25581SOL    HW278185   7.810   7.464   0.700
25582SOL     OW78186   7.742   7.969   1.040
25582SOL    HW178187   7.730   7.878   1.012
25582SOL    HW278188   7.828   7.993   1.005
25583SOL     OW78189   7.480   7.960   1.124
25583SOL    HW178190   7.566   7.955   1.081
25583SOL    HW278191   7.500   7.969   1.217
25584SOL     OW78192   7.638   7.977   1.712
25584SOL    HW178193   7.714   7.931   1.677
25584SOL    HW278194   7.673   8.059   1.746
25585SOL     OW78195   7.694   7.734   0.701
25585SOL    HW178196   7.607   7.770   0.686
25585SOL    HW278197   7.705   7.737   0.796
25586SOL     OW78198   7.501   7.600   0.312
25586SOL    HW178199   7.463   7.663   0.250
25586SOL    HW278200   7.595   7.606   0.297
25587SOL     OW78201   7.666   7.712   2.855
25587SOL    HW178202   7.691   7.686   2.944
25587SOL    HW278203   7.575   7.684   2.846
25588SOL     OW78204   7.424   7.848   2.502
25588SOL    HW178205   7.335   7.870   2.528
25588SOL    HW278206   7.419   7.757   2.474
25589SOL     OW78207   7.867   7.870   3.394
25589SOL    HW178208   7.949   7.887   3.346
25589SOL    HW278209   7.866   7.775   3.407
25590SOL     OW78210   7.498   0.112   2.459
25590SOL    HW178211   7.475   0.022   2.482
25590SOL    HW278212   7.593   0.115   2.468
25591SOL     OW78213   7.711   7.710   3.645
25591SOL    HW178214   7.773   7.754   3.703
25591SOL    HW278215   7.627   7.715   3.692
25592SOL     OW78216   7.948   7.662   2.741
25592SOL    HW178217   7.958   7.659   2.837
25592SOL    HW278218   7.970   7.752   2.718
25593SOL     OW78219   7.623   7.699   3.383
25593SOL    HW178220   7.622   7.794   3.371
25593SOL    HW278221   7.658   7.686   3.471
25594SOL     OW78222  -0.001   7.568   1.963
25594SOL    HW178223   0.049   7.566   2.044
25594SOL    HW278224   0.043   7.505   1.906
25595SOL     OW78225   7.904   7.449   2.287
25595SOL    HW178226   7.873   7.477   2.373
25595SOL    HW278227   7.984   7.500   2.273
25596SOL     OW78228   7.751   7.491   2.063
25596SOL    HW178229   7.823   7.526   2.011
25596SOL    HW278230   7.792   7.460   2.143
25597SOL     OW78231   7.539   0.004   3.240
25597SOL    HW178232   7.629   0.009   3.274
25597SOL    HW278233   7.504   0.092   3.253
25598SOL     OW78234   7.986   7.631   3.007
25598SOL    HW178235   8.054   7.603   3.069
25598SOL    HW278236   7.911   7.654   3.061
25599SOL     OW78237   7.976   7.956   2.722
25599SOL    HW178238   8.005   8.038   2.682
25599SOL    HW278239   8.009   7.961   2.812
25600SOL     OW78240   7.911   7.540   3.580
25600SOL    HW178241   7.888   7.466   3.524
25600SOL    HW278242   7.828   7.584   3.597
25601SOL     OW78243   7.706   7.634   3.122
25601SOL    HW178244   7.689   7.651   3.215
25601SOL    HW278245   7.717   7.539   3.117
25602SOL     OW78246   7.725   7.504   2.505
25602SOL    HW178247   7.718   7.599   2.518
25602SOL    HW278248   7.760   7.471   2.588
25603SOL     OW78249   7.734   7.971   2.879
25603SOL    HW178250   7.726   7.877   2.866
25603SOL    HW278251   7.815   7.994   2.834
25604SOL     OW78252   7.480   7.949   2.981
25604SOL    HW178253   7.563   7.953   2.934
25604SOL    HW278254   7.503   7.966   3.073
25605SOL     OW78255   7.592   7.960   3.528
25605SOL    HW178256   7.685   7.937   3.537
25605SOL    HW278257   7.586   8.050   3.561
25606SOL     OW78258   7.714   7.766   2.574
25606SOL    HW178259   7.646   7.833   2.561
25606SOL    HW278260   7.717   7.755   2.669
25607SOL     OW78261   7.512   7.790   1.906
25607SOL    HW178262   7.451   7.774   1.834
25607SOL    HW278263   7.553   7.874   1.884
25608SOL     OW78264   7.508   7.599   2.144
25608SOL    HW178265   7.498   7.672   2.083
25608SOL    HW278266   7.598   7.569   2.131
25609SOL     OW78267   7.674   7.721   4.717
25609SOL    HW178268   7.700   7.687   4.803
25609SOL    HW278269   7.584   7.690   4.706
25610SOL     OW78270   7.429   7.829   4.367
25610SOL    HW178271   7.346   7.864   4.398
25610SOL    HW278272   7.407   7.741   4.335
25611SOL     OW78273   7.844   7.876   5.265
25611SOL    HW178274   7.927   7.852   5.226
25611SOL    HW278275   7.787   7.801   5.251
25612SOL     OW78276   7.500   0.101   4.331
25612SOL    HW178277   7.476   0.009   4.343
25612SOL    HW278278   7.594   0.104   4.346
25613SOL     OW78279   7.771   7.720   5.551
25613SOL    HW178280   7.759   7.808   5.515
25613SOL    HW278281   7.692   7.703   5.602
25614SOL     OW78282   7.959   7.667   4.599
25614SOL    HW178283   7.960   7.659   4.695
25614SOL    HW278284   7.953   7.761   4.583
25615SOL     OW78285   7.634   7.704   5.221
25615SOL    HW178286   7.548   7.747   5.227
25615SOL    HW278287   7.619   7.616   5.256
25616SOL     OW78288   0.004   7.571   3.836
25616SOL    HW178289   0.086   7.528   3.861
25616SOL    HW278290  -0.011   7.544   3.746
25617SOL     OW78291   7.932   7.447   4.175
25617SOL    HW178292   7.881   7.478   4.249
25617SOL    HW278293   7.997   7.516   4.160
25618SOL     OW78294   7.746   7.487   3.917
25618SOL    HW178295   7.831   7.523   3.889
25618SOL    HW278296   7.768   7.427   3.988
25619SOL     OW78297   7.538  -0.008   5.116
25619SOL    HW178298   7.632  -0.015   5.134
25619SOL    HW278299   7.517   0.084   5.133
25620SOL     OW78300   7.989   7.639   4.863
25620SOL    HW178301   8.049   7.607   4.930
25620SOL    HW278302   7.905   7.647   4.909
25621SOL     OW78303   7.962   7.959   4.592
25621SOL    HW178304   7.997   8.028   4.535
25621SOL    HW278305   8.003   7.975   4.677
25622SOL     OW78306   7.938   7.532   5.453
25622SOL    HW178307   7.892   7.464   5.402
25622SOL    HW278308   7.869   7.594   5.477
25623SOL     OW78309   7.739   7.636   4.973
25623SOL    HW178310   7.698   7.667   5.055
25623SOL    HW278311   7.721   7.542   4.972
25624SOL     OW78312   7.734   7.511   4.359
25624SOL    HW178313   7.723   7.604   4.378
25624SOL    HW278314   7.759   7.471   4.442
25625SOL     OW78315   7.740   7.976   4.770
25625SOL    HW178316   7.728   7.883   4.750
25625SOL    HW278317   7.816   8.002   4.717
25626SOL     OW78318   7.476   7.948   4.849
25626SOL    HW178319   7.560   7.954   4.805
25626SOL    HW278320   7.497   7.959   4.942
25627SOL     OW78321   7.642   7.953   5.457
25627SOL    HW178322   7.686   7.941   5.373
25627SOL    HW278323   7.571   8.015   5.439
25628SOL     OW78324   7.707   7.766   4.441
25628SOL    HW178325   7.625   7.811   4.422
25628SOL    HW278326   7.708   7.757   4.536
25629SOL     OW78327   7.471   7.794   3.752
25629SOL    HW178328   7.404   7.778   3.819
25629SOL    HW278329   7.514   7.875   3.779
25630SOL     OW78330   7.521   7.599   4.036
25630SOL    HW178331   7.544   7.688   4.061
25630SOL    HW278332   7.599   7.565   3.993
25631SOL     OW78333   7.670   7.724   6.580
25631SOL    HW178334   7.700   7.686   6.663
25631SOL    HW278335   7.581   7.691   6.569
25632SOL     OW78336   7.436   7.831   6.233
25632SOL    HW178337   7.351   7.863   6.265
25632SOL    HW278338   7.415   7.748   6.190
25633SOL     OW78339   7.907   7.833   7.057
25633SOL    HW178340   7.974   7.766   7.070
25633SOL    HW278341   7.825   7.790   7.078
25634SOL     OW78342   7.502   0.097   6.157
25634SOL    HW178343   7.477   0.008   6.182
25634SOL    HW278344   7.596   0.101   6.174
25635SOL     OW78345   7.750   7.724   7.414
25635SOL    HW178346   7.759   7.816   7.387
25635SOL    HW278347   7.666   7.721   7.461
25636SOL     OW78348   7.966   7.669   6.480
25636SOL    HW178349   7.964   7.676   6.576
25636SOL    HW278350   7.966   7.760   6.450
25637SOL     OW78351   7.630   7.722   7.091
25637SOL    HW178352   7.539   7.732   7.062
25637SOL    HW278353   7.633   7.635   7.132
25638SOL     OW78354   0.013   7.537   5.717
25638SOL    HW178355   0.105   7.515   5.732
25638SOL    HW278356   0.000   7.522   5.624
25639SOL     OW78357   7.954   7.443   6.069
25639SOL    HW178358   7.886   7.480   6.124
25639SOL    HW278359   8.003   7.520   6.037
25640SOL     OW78360   7.745   7.495   5.779
25640SOL    HW178361   7.823   7.539   5.744
25640SOL    HW278362   7.780   7.427   5.837
25641SOL     OW78363   7.567  -0.003   6.964
25641SOL    HW178364   7.637  -0.048   7.012
25641SOL    HW278365   7.563   0.084   7.002
25642SOL     OW78366   7.990   7.694   6.750
25642SOL    HW178367   8.048   7.634   6.798
25642SOL    HW278368   7.903   7.677   6.786
25643SOL     OW78369  -0.010   7.962   6.463
25643SOL    HW178370   0.011   8.007   6.381
25643SOL    HW278371   0.045   8.006   6.528
25644SOL     OW78372   7.926   7.545   7.320
25644SOL    HW178373   7.890   7.476   7.265
25644SOL    HW278374   7.852   7.601   7.341
25645SOL     OW78375   7.738   7.634   6.833
25645SOL    HW178376   7.692   7.663   6.912
25645SOL    HW278377   7.724   7.540   6.831
25646SOL     OW78378   7.737   7.522   6.218
25646SOL    HW178379   7.724   7.615   6.238
25646SOL    HW278380   7.758   7.482   6.302
25647SOL     OW78381   7.755   7.975   6.622
25647SOL    HW178382   7.737   7.882   6.608
25647SOL    HW278383   7.832   7.993   6.568
25648SOL     OW78384   7.483   7.958   6.701
25648SOL    HW178385   7.564   7.945   6.652
25648SOL    HW278386   7.511   7.971   6.792
25649SOL     OW78387   7.655   7.953   7.265
25649SOL    HW178388   7.625   7.870   7.227
25649SOL    HW278389   7.576   7.991   7.304
25650SOL     OW78390   7.714   7.782   6.307
25650SOL    HW178391   7.625   7.810   6.284
25650SOL    HW278392   7.709   7.764   6.400
25651SOL     OW78393   7.507   7.782   5.643
25651SOL    HW178394   7.445   7.758   5.575
25651SOL    HW278395   7.551   7.860   5.610
25652SOL     OW78396   7.507   7.599   5.873
25652SOL    HW178397   7.494   7.672   5.813
25652SOL    HW278398   7.596   7.568   5.854
25653SOL     OW78399   7.670   7.722   8.439
25653SOL    HW178400   7.691   7.726   8.533
25653SOL    HW278401   7.581   7.688   8.436
25654SOL     OW78402   7.435   7.820   8.101
25654SOL    HW178403   7.350   7.847   8.136
25654SOL    HW278404   7.416   7.740   8.052
25655SOL     OW78405   7.892   7.833   9.022
25655SOL    HW178406   7.924   7.858   8.935
25655SOL    HW278407   7.809   7.788   9.005
25656SOL     OW78408   7.494   0.092   8.075
25656SOL    HW178409   7.473  -0.001   8.081
25656SOL    HW278410   7.589   0.095   8.076
25657SOL     OW78411   7.770   7.725   9.292
25657SOL    HW178412   7.789   7.794   9.228
25657SOL    HW278413   7.677   7.736   9.313
25658SOL     OW78414   7.963   7.659   8.334
25658SOL    HW178415   7.958   7.661   8.430
25658SOL    HW278416   7.960   7.751   8.308
25659SOL     OW78417   7.627   7.726   9.000
25659SOL    HW178418   7.649   7.735   8.907
25659SOL    HW278419   7.605   7.633   9.010
25660SOL     OW78420   0.021   7.580   7.568
25660SOL    HW178421   0.107   7.540   7.581
25660SOL    HW278422  -0.004   7.554   7.479
25661SOL     OW78423   7.976   7.452   7.967
25661SOL    HW178424   7.893   7.482   8.003
25661SOL    HW278425   8.011   7.528   7.920
25662SOL     OW78426   7.751   7.496   7.639
25662SOL    HW178427   7.821   7.550   7.603
25662SOL    HW278428   7.796   7.421   7.678
25663SOL     OW78429   7.533   0.003   8.834
25663SOL    HW178430   7.608  -0.053   8.814
25663SOL    HW278431   7.569   0.074   8.887
25664SOL     OW78432   7.983   7.660   8.602
25664SOL    HW178433   8.016   7.598   8.667
25664SOL    HW278434   7.911   7.705   8.645
25665SOL     OW78435  -0.010   7.966   8.322
25665SOL    HW178436   0.020   8.012   8.243
25665SOL    HW278437   0.027   8.016   8.394
25666SOL     OW78438   7.929   7.520   9.198
25666SOL    HW178439   7.888   7.460   9.136
25666SOL    HW278440   7.864   7.589   9.211
25667SOL     OW78441   7.734   7.519   8.076
25667SOL    HW178442   7.721   7.612   8.094
25667SOL    HW278443   7.752   7.480   8.161
25668SOL     OW78444   7.736   7.987   8.433
25668SOL    HW178445   7.728   7.892   8.447
25668SOL    HW278446   7.822   7.998   8.394
25669SOL     OW78447   7.478   7.958   8.553
25669SOL    HW178448   7.558   7.960   8.501
25669SOL    HW278449   7.507   7.930   8.640
25670SOL     OW78450   7.628   7.945   9.165
25670SOL    HW178451   7.618   7.874   9.101
25670SOL    HW278452   7.578   8.017   9.128
25671SOL     OW78453   7.714   7.777   8.167
25671SOL    HW178454   7.626   7.807   8.142
25671SOL    HW278455   7.708   7.760   8.261
25672SOL     OW78456   7.496   7.782   7.511
25672SOL    HW178457   7.440   7.769   7.434
25672SOL    HW278458   7.503   7.877   7.521
25673SOL     OW78459   7.508   7.594   7.734
25673SOL    HW178460   7.491   7.663   7.670
25673SOL    HW278461   7.598   7.566   7.715
25674SOL     OW78462   7.669   7.735  10.309
25674SOL    HW178463   7.700   7.696  10.391
25674SOL    HW278464   7.582   7.698  10.295
25675SOL     OW78465   7.437   7.817   9.964
25675SOL    HW178466   7.352   7.847   9.996
25675SOL    HW278467   7.417   7.738   9.913
25676SOL     OW78468   7.844   7.875  10.840
25676SOL    HW178469   7.918   7.869  10.779
25676SOL    HW278470   7.795   7.793  10.825
25677SOL     OW78471   7.498   0.089   9.957
25677SOL    HW178472   7.481  -0.005   9.947
25677SOL    HW278473   7.593   0.096   9.957
25678SOL     OW78474   7.760   7.725  11.157
25678SOL    HW178475   7.763   7.810  11.115
25678SOL    HW278476   7.670   7.716  11.188
25679SOL     OW78477   7.955   7.662  10.197
25679SOL    HW178478   7.961   7.662  10.293
25679SOL    HW278479   7.954   7.754  10.173
25680SOL     OW78480   7.628   7.704  10.810
25680SOL    HW178481   7.539   7.739  10.803
25680SOL    HW278482   7.617   7.616  10.845
25681SOL     OW78483   0.008   7.506   9.459
25681SOL    HW178484   0.103   7.506   9.470
25681SOL    HW278485  -0.005   7.505   9.364
25682SOL     OW78486   7.990   7.465   9.841
25682SOL    HW178487   7.900   7.487   9.863
25682SOL    HW278488   8.017   7.532   9.778
25683SOL     OW78489   7.739   7.525   9.484
25683SOL    HW178490   7.755   7.596   9.422
25683SOL    HW278491   7.826   7.490   9.503
25684SOL     OW78492   7.554  -0.013  10.708
25684SOL    HW178493   7.645  -0.037  10.724
25684SOL    HW278494   7.547   0.078  10.738
25685SOL     OW78495   7.992   7.642  10.463
25685SOL    HW178496   8.036   7.570  10.508
25685SOL    HW278497   7.906   7.647  10.505
25686SOL     OW78498   7.969   7.944  10.180
25686SOL    HW178499   8.008   8.006  10.118
25686SOL    HW278500   8.007   7.968  10.264
25687SOL     OW78501   7.934   7.547  11.044
25687SOL    HW178502   7.898   7.478  10.989
25687SOL    HW278503   7.859   7.601  11.069
25688SOL     OW78504   7.739   7.638  10.564
25688SOL    HW178505   7.693   7.664  10.644
25688SOL    HW278506   7.723   7.544  10.557
25689SOL     OW78507   7.734   7.520   9.932
25689SOL    HW178508   7.721   7.613   9.950
25689SOL    HW278509   7.753   7.482  10.017
25690SOL     OW78510   7.742   7.989  10.359
25690SOL    HW178511   7.722   7.897  10.341
25690SOL    HW278512   7.819   8.008  10.305
25691SOL     OW78513   7.466   7.935  10.453
25691SOL    HW178514   7.534   7.948  10.387
25691SOL    HW278515   7.510   7.952  10.536
25692SOL     OW78516   7.637   7.948  11.036
25692SOL    HW178517   7.664   7.915  10.950
25692SOL    HW278518   7.562   8.004  11.017
25693SOL     OW78519   7.710   7.777  10.028
25693SOL    HW178520   7.619   7.800  10.007
25693SOL    HW278521   7.710   7.766  10.123
25694SOL     OW78522   7.505   7.785   9.364
25694SOL    HW178523   7.446   7.765   9.291
25694SOL    HW278524   7.543   7.871   9.341
25695SOL     OW78525   7.503   7.600   9.596
25695SOL    HW178526   7.484   7.670   9.534
25695SOL    HW278527   7.592   7.571   9.575
25696SOL     OW78528   7.679   7.726  12.163
25696SOL    HW178529   7.705   7.694  12.250
25696SOL    HW278530   7.588   7.699  12.154
25697SOL     OW78531   7.432   7.843  11.806
25697SOL    HW178532   7.346   7.865  11.842
25697SOL    HW278533   7.420   7.756  11.768
25698SOL     OW78534   7.914   7.763   0.204
25698SOL    HW178535   7.993   7.770   0.149
25698SOL    HW278536   7.857   7.704   0.155
25699SOL     OW78537   7.516   0.107  11.820
25699SOL    HW178538   7.496   0.015  11.803
25699SOL    HW278539   7.611   0.109  11.831
25700SOL     OW78540   7.974   7.643  12.053
25700SOL    HW178541   7.968   7.735  12.079
25700SOL    HW278542   7.987   7.645  11.958
25701SOL     OW78543   0.009   7.528  11.306
25701SOL    HW178544   0.103   7.515  11.319
25701SOL    HW278545  -0.003   7.523  11.212
25702SOL     OW78546   8.000   7.472  11.711
25702SOL    HW178547   7.906   7.481  11.726
25702SOL    HW278548   8.021   7.540  11.647
25703SOL     OW78549   7.737   7.510  11.355
25703SOL    HW178550   7.777   7.580  11.304
25703SOL    HW278551   7.811   7.455  11.382
25704SOL     OW78552   7.532   0.030   0.062
25704SOL    HW178553   7.624   0.008   0.078
25704SOL    HW278554   7.508   0.088   0.135
25705SOL     OW78555   7.984   7.612  12.345
25705SOL    HW178556   7.987   7.573  12.258
25705SOL    HW278557   7.891   7.624  12.364
25706SOL     OW78558   8.011   7.909  12.062
25706SOL    HW178559   7.963   7.961  11.998
25706SOL    HW278560   8.020   7.966  12.138
25707SOL     OW78561   7.826   0.224   0.300
25707SOL    HW178562   7.836   0.311   0.261
25707SOL    HW278563   7.915   0.200   0.328
25708SOL     OW78564   7.721   7.634  12.429
25708SOL    HW178565   7.630   7.660  12.442
25708SOL    HW278566   7.718   7.538  12.427
25709SOL     OW78567   7.736   7.501  11.788
25709SOL    HW178568   7.719   7.593  11.805
25709SOL    HW278569   7.751   7.463  11.875
25710SOL     OW78570   7.728   7.995  12.185
25710SOL    HW178571   7.731   7.900  12.173
25710SOL    HW278572   7.756   8.031  12.101
25711SOL     OW78573   7.482   7.953  12.305
25711SOL    HW178574   7.558   7.969  12.249
25711SOL    HW278575   7.513   7.972  12.394
25712SOL     OW78576   7.712   7.751  11.884
25712SOL    HW178577   7.649   7.819  11.862
25712SOL    HW278578   7.711   7.747  11.980
25713SOL     OW78579   7.499   7.783  11.233
25713SOL    HW178580   7.440   7.766  11.159
25713SOL    HW278581   7.536   7.869  11.215
25714SOL     OW78582   7.502   7.598  11.462
25714SOL    HW178583   7.484   7.669  11.400
25714SOL    HW278584   7.590   7.568  11.440
25715NA      NA78585   7.943   1.548   0.211
25716NA      NA78586   0.273   0.235   1.321
25717NA      NA78587   0.972   1.488   0.179
25718NA      NA78588   1.663   0.411   4.245
25719NA      NA78589   0.043   1.720   7.233
25720NA      NA78590   1.746   0.865   9.890
25721NA      NA78591   0.140   1.068  11.030
25722NA      NA78592   0.115   0.802  11.987
25723NA      NA78593   0.034   3.201   1.395
25724NA      NA78594   1.759   3.616   1.444
25725NA      NA78595   1.755   2.482   3.138
25726NA      NA78596   0.950   1.991   5.088
25727NA      NA78597   1.421   3.058   7.499
25728NA      NA78598   0.804   3.465   9.839
25729NA      NA78599   1.004   3.770   0.709
25730NA      NA78600   0.031   5.055   1.390
25731NA      NA78601   1.148   5.448   3.430
25732NA      NA78602   1.515   3.749   2.287
25733NA      NA78603   1.254   5.111   2.409
25734NA      NA78604   1.792   4.390   3.152
25735NA      NA78605   1.016   3.556   3.041
25736NA      NA78606   0.543   3.699   3.857
25737NA      NA78607   1.046   4.665   6.239
25738NA      NA78608   0.411   4.239   8.730
25739NA      NA78609   1.486   4.251   9.565
25740NA      NA78610   0.675   7.141   0.897
25741NA      NA78611   0.639   6.889   5.557
25742NA      NA78612   1.410   6.744   4.096
25743NA      NA78613   0.904   7.333   5.048
25744NA      NA78614   1.460   5.865   4.349
25745NA      NA78615   1.458   6.382   5.612
25746NA      NA78616   0.405   6.978   9.371
25747NA      NA78617   0.198   6.080  10.971
25748NA      NA78618   0.036   0.034   7.035
25749NA      NA78619   1.791   7.561  11.664
25750NA      NA78620   3.274   1.185   0.079
25751NA      NA78621   2.550   1.549   0.259
25752NA      NA78622   3.211   0.719   3.434
25753NA      NA78623   2.809   0.864   5.296
25754NA      NA78624   3.104   1.424   6.135
25755NA      NA78625   2.664   0.265  11.103
25756NA      NA78626   2.388   0.123  10.467
25757NA      NA78627   2.645   0.708  12.114
25758NA      NA78628   1.974   2.756   0.982
25759NA      NA78629   2.070   3.476   3.348
25760NA      NA78630   3.041   2.304   7.048
25761NA      NA78631   2.151   2.434   8.965
25762NA      NA78632   2.604   3.390   7.410
25763NA      NA78633   2.832   2.306  10.452
25764NA      NA78634   2.889   3.318  10.387
25765NA      NA78635   2.206   5.066   0.996
25766NA      NA78636   3.172   4.527   0.982
25767NA      NA78637   3.499   4.935   1.796
25768NA      NA78638   3.642   5.040   2.646
25769NA      NA78639   2.548   4.971   5.147
25770NA      NA78640   2.129   5.418   9.757
25771NA      NA78641   3.345   4.183  10.207
25772NA      NA78642   3.141   5.006   9.964
25773NA      NA78643   3.731   4.981  11.635
25774NA      NA78644   2.533   4.164  12.427
25775NA      NA78645   1.972   7.188   1.372
25776NA      NA78646   3.483   7.133   4.228
25777NA      NA78647   3.306   6.050   5.893
25778NA      NA78648   2.290   7.023   6.865
25779NA      NA78649   1.946   6.384   7.411
25780NA      NA78650   2.688   6.457   6.637
25781NA      NA78651   2.621   5.817   9.197
25782NA      NA78652   3.001   6.181   8.447
25783NA      NA78653   3.837   6.205   9.658
25784NA      NA78654   3.816   5.927  10.599
25785NA      NA78655   2.380   5.899  11.989
25786NA      NA78656   2.878   7.873   2.302
25787NA      NA78657   3.977   0.358   2.031
25788NA      NA78658   5.368   1.096   1.433
25789NA      NA78659   4.523   0.553   3.751
25790NA      NA78660   4.174   1.516   3.990
25791NA      NA78661   5.158   0.263   8.553
25792NA      NA78662   4.590   1.471  10.508
25793NA      NA78663   4.750   7.874   9.914
25794NA      NA78664   4.920   1.569   9.194
25795NA      NA78665   4.778   1.366  11.896
25796NA      NA78666   4.084   2.647   1.433
25797NA      NA78667   4.679   1.796   2.534
25798NA      NA78668   5.085   2.188   2.115
25799NA      NA78669   4.474   2.601   3.885
25800NA      NA78670   5.504   2.004   8.193
25801NA      NA78671   4.911   3.627  10.124
25802NA      NA78672   4.239   3.857   1.402
25803NA      NA78673   4.966   5.106   1.273
25804NA      NA78674   4.139   4.258  11.451
25805NA      NA78675   3.929   6.333   3.605
25806NA      NA78676   5.067   5.932   3.687
25807NA      NA78677   4.691   5.889   1.991
25808NA      NA78678   5.187   7.194   4.467
25809NA      NA78679   4.587   6.245   4.297
25810NA      NA78680   4.794   6.238   7.549
25811NA      NA78681   5.422   5.584   8.246
25812NA      NA78682   5.069   6.291   9.228
25813NA      NA78683   4.975   7.801   0.975
25814NA      NA78684   4.465   7.522   1.584
25815NA      NA78685   5.131   7.686   2.148
25816NA      NA78686   3.904   0.056   5.588
25817NA      NA78687   5.068   7.277   5.809
25818NA      NA78688   4.745   7.522   9.054
25819NA      NA78689   3.877   7.538   8.818
25820NA      NA78690   4.692   7.856  12.473
25821NA      NA78691   7.065   1.030   0.287
25822NA      NA78692   6.373   1.638   0.312
25823NA      NA78693   6.794   1.957   2.456
25824NA      NA78694   6.023   0.891   2.544
25825NA      NA78695   7.426   0.978   6.167
25826NA      NA78696   6.542   0.185   6.934
25827NA      NA78697   6.698   0.474   5.848
25828NA      NA78698   7.245   0.592   8.626
25829NA      NA78699   6.591   0.656   9.779
25830NA      NA78700   7.296   1.370  10.390
25831NA      NA78701   6.034   1.324  11.752
25832NA      NA78702   6.374   0.100  11.700
25833NA      NA78703   7.379   2.472   1.737
25834NA      NA78704   7.448   3.130   2.329
25835NA      NA78705   6.137   3.370   2.877
25836NA      NA78706   7.305   2.496   3.163
25837NA      NA78707   6.525   2.009   5.078
25838NA      NA78708   6.181   3.212   5.141
25839NA      NA78709   6.021   2.789   6.188
25840NA      NA78710   6.481   2.956   8.669
25841NA      NA78711   7.546   2.212   8.721
25842NA      NA78712   5.912   3.277   9.367
25843NA      NA78713   5.962   3.367  10.597
25844NA      NA78714   6.354   2.578  10.173
25845NA      NA78715   6.688   2.782  12.006
25846NA      NA78716   5.976   3.699  12.058
25847NA      NA78717   6.861   5.075   1.220
25848NA      NA78718   5.389   5.113   4.075
25849NA      NA78719   7.030   4.593   5.114
25850NA      NA78720   6.212   4.973   7.450
25851NA      NA78721   6.919   5.367   6.631
25852NA      NA78722   6.076   5.051  10.554
25853NA      NA78723   6.300   4.617  11.646
25854NA      NA78724   7.197   6.384   1.691
25855NA      NA78725   7.288   6.967   1.076
25856NA      NA78726   5.809   5.780   3.643
25857NA      NA78727   7.521   7.176   2.957
25858NA      NA78728   5.807   5.897   2.579
25859NA      NA78729   7.209   6.802   3.643
25860NA      NA78730   5.773   6.307   5.022
25861NA      NA78731   5.946   6.221   4.232
25862NA      NA78732   6.076   5.828   5.887
25863NA      NA78733   6.314   7.394   6.426
25864NA      NA78734   6.506   5.605   8.393
25865NA      NA78735   6.630   5.711  10.981
25866NA      NA78736   6.603   7.551   1.651
25867NA      NA78737   7.309   0.045   2.097
25868NA      NA78738   7.383   7.835   3.530
25869NA      NA78739   6.712   7.574   7.276
25870NA      NA78740   6.209   0.087  10.067
25871NA      NA78741   7.868   0.205   5.802
25872NA      NA78742   7.894   1.080   9.968
25873NA      NA78743   7.714   1.462  11.732
25874NA      NA78744   7.873   3.329   3.198
25875NA      NA78745   7.506   3.474   6.937
25876NA      NA78746   7.934   2.369  10.559
25877NA      NA78747   7.558   2.779  12.126
25878NA      NA78748   7.798   5.295   5.540
25879NA      NA78749   7.933   4.146   4.963
25880NA      NA78750   0.144   4.403   6.531
25881NA      NA78751   7.830   4.407  11.595
25882NA      NA78752   7.960   6.297   1.218
25883NA      NA78753   0.013   7.439   0.504
25884CL      CL78754   0.279   1.081   2.332
25885CL      CL78755   1.789   0.829   5.550
25886CL      CL78756   0.656   0.680   4.345
25887CL      CL78757   0.586   0.930   7.522
25888CL      CL78758   0.123   0.841   8.775
25889CL      CL78759   0.569   0.245  10.521
25890CL      CL78760   1.887   1.497  12.076
25891CL      CL78761   1.570   2.668   1.629
25892CL      CL78762   1.007   3.265   5.019
25893CL      CL78763   0.081   3.717   4.694
25894CL      CL78764   1.188   3.146   5.971
25895CL      CL78765   1.117   3.546   6.885
25896CL      CL78766   1.478   2.658   8.854
25897CL      CL78767   0.715   3.275   9.170
25898CL      CL78768   1.333   2.239  10.629
25899CL      CL78769   1.636   3.163  10.600
25900CL      CL78770   1.154   4.413   0.723
25901CL      CL78771   0.944   4.226   1.837
25902CL      CL78772   0.724   5.176   5.384
25903CL      CL78773   0.136   4.256   7.235
25904CL      CL78774   0.381   5.536   7.091
25905CL      CL78775   1.007   5.159   9.829
25906CL      CL78776   1.316   6.864   3.239
25907CL      CL78777   0.260   7.083   3.144
25908CL      CL78778   0.793   6.703   4.818
25909CL      CL78779   0.200   5.898   4.421
25910CL      CL78780   0.612   6.321   7.665
25911CL      CL78781   1.086   7.429   9.587
25912CL      CL78782   0.837   7.046  12.305
25913CL      CL78783   0.338   7.829   2.211
25914CL      CL78784   2.560   0.962   3.575
25915CL      CL78785   3.339   1.638   1.895
25916CL      CL78786   2.037   0.243   7.124
25917CL      CL78787   3.047   1.295   7.587
25918CL      CL78788   2.768   0.799  10.878
25919CL      CL78789   3.528   0.106  11.696
25920CL      CL78790   3.626   2.367   1.818
25921CL      CL78791   3.465   3.160   1.261
25922CL      CL78792   2.424   1.975   1.929
25923CL      CL78793   2.408   1.961   3.574
25924CL      CL78794   2.080   3.022   6.517
25925CL      CL78795   2.583   2.499   6.788
25926CL      CL78796   2.449   2.298  12.177
25927CL      CL78797   3.541   5.145   0.057
25928CL      CL78798   2.166   4.962   3.219
25929CL      CL78799   1.866   5.397   5.063
25930CL      CL78800   2.201   4.559   6.874
25931CL      CL78801   3.491   5.510  10.055
25932CL      CL78802   3.646   7.333   3.040
25933CL      CL78803   1.900   6.651   2.112
25934CL      CL78804   2.301   7.006   5.742
25935CL      CL78805   2.880   5.856   7.427
25936CL      CL78806   2.136   5.948   6.314
25937CL      CL78807   2.896   7.662   5.501
25938CL      CL78808   5.523   1.723   1.166
25939CL      CL78809   3.782   1.209   0.572
25940CL      CL78810   4.408   1.485   1.277
25941CL      CL78811   4.891   0.400   3.886
25942CL      CL78812   3.711   1.179   5.006
25943CL      CL78813   4.626   1.569   6.747
25944CL      CL78814   4.010   1.104  11.643
25945CL      CL78815   5.320   0.337  11.273
25946CL      CL78816   4.763   2.411   0.041
25947CL      CL78817   4.387   2.319   1.650
25948CL      CL78818   5.185   1.940   4.836
25949CL      CL78819   4.327   2.332  10.983
25950CL      CL78820   5.625   3.686  11.814
25951CL      CL78821   4.280   4.673   0.044
25952CL      CL78822   5.174   3.749   0.132
25953CL      CL78823   5.575   5.550   2.496
25954CL      CL78824   4.295   3.867   1.892
25955CL      CL78825   4.572   5.408   2.467
25956CL      CL78826   4.622   5.148   9.429
25957CL      CL78827   4.350   5.735   1.187
25958CL      CL78828   5.264   7.386   1.664
25959CL      CL78829   4.394   7.266   1.991
25960CL      CL78830   4.146   6.145   4.735
25961CL      CL78831   5.153   6.847   6.182
25962CL      CL78832   5.476   6.652   7.493
25963CL      CL78833   4.227   6.106   9.890
25964CL      CL78834   7.378   1.742   1.165
25965CL      CL78835   5.717   1.867   3.251
25966CL      CL78836   7.337   1.242   3.388
25967CL      CL78837   6.578   1.405   4.211
25968CL      CL78838   6.140   0.198   4.008
25969CL      CL78839   5.633   1.561   5.607
25970CL      CL78840   5.683   0.592   8.083
25971CL      CL78841   5.649   1.330   8.466
25972CL      CL78842   5.967   1.561  10.660
25973CL      CL78843   6.157   3.443   0.885
25974CL      CL78844   6.597   2.431   3.634
25975CL      CL78845   7.148   2.600   5.350
25976CL      CL78846   6.786   3.442   5.580
25977CL      CL78847   5.798   2.478   7.721
25978CL      CL78848   6.592   3.408   8.181
25979CL      CL78849   6.196   5.059   0.107
25980CL      CL78850   7.314   4.683   1.231
25981CL      CL78851   6.351   5.197   3.532
25982CL      CL78852   5.914   3.934   6.569
25983CL      CL78853   5.977   4.985   6.088
25984CL      CL78854   5.915   4.859   7.903
25985CL      CL78855   5.981   5.318   8.811
25986CL      CL78856   6.790   4.230   9.597
25987CL      CL78857   5.909   5.207  10.991
25988CL      CL78858   7.254   4.844  11.611
25989CL      CL78859   6.192   4.534  12.094
25990CL      CL78860   5.593   5.965   0.593
25991CL      CL78861   6.152   5.687   7.325
25992CL      CL78862   6.563   6.117  12.121
25993CL      CL78863   7.029   7.553   7.039
25994CL      CL78864   6.448   7.459   9.835
25995CL      CL78865   6.275   7.841   0.002
25996CL      CL78866   7.515   1.224   4.433
25997CL      CL78867   7.818   0.094  11.898
25998CL      CL78868   7.701   3.331   6.169
25999CL      CL78869   7.945   1.794   8.049
26000CL      CL78870   7.889   4.580   4.191
26001CL      CL78871   7.572   4.260   8.867
26002CL      CL78872   7.777   3.688  11.403
26003CL      CL78873   7.765   5.917   0.012
26004CL      CL78874   7.748   7.812   8.731
   8.00000   8.00000  12.50000
